Membrane in water
40167
    1TCq1    O1    1   1.009   3.786  11.166 -0.1771 -1.1859 -0.9375
    1TCq1    C1    2   1.047   3.761  11.290  0.5199  0.0110  0.2688
    1TCq1    O2    3   0.975   3.775  11.388  0.2719 -0.5290  0.0568
    1TCq1    C2    4   1.141   3.650  11.265  0.6893 -0.0462 -0.8976
    1TCq1    C3    5   1.251   3.669  11.181 -0.3878  0.3431  0.7355
    1TCq1    C4    6   1.342   3.564  11.184 -1.1622 -0.2852 -0.1620
    1TCq1    C5    7   1.331   3.469  11.277 -0.1603  0.4931 -0.7976
    1TCq1    C6    8   1.220   3.452  11.360  0.6028  0.1870 -0.3197
    1TCq1    C7    9   1.127   3.546  11.357 -0.0957  0.7416  0.3152
    1TCq1    C8   10   1.233   3.384  11.491  0.5498  0.1397 -0.7474
    1TCq1    O4   11   1.160   3.422  11.585  0.0000 -0.4704 -0.2636
    1TCq1    C9   12   1.454   3.566  11.095 -0.9970 -0.3747  0.0441
    1TCq1    O5   13   1.546   3.480  11.117  0.4785 -0.4716  0.1535
    1TCq1    O6   14   1.458   3.668  11.024 -0.3765  0.3117 -0.9091
    1TCq1    H1   15   1.053   3.733  11.097  1.8590  1.3180 -1.5179
    1TCq1    H2   16   1.266   3.755  11.117 -2.1981  0.7606  0.8807
    1TCq1    H3   17   1.422   3.410  11.281 -0.3206  0.4841  2.8005
    1TCq1    H4   18   1.034   3.535  11.411 -0.5090  1.7692 -0.1902
    2MPD2     C   19   1.400   3.006  11.792 -0.1987 -0.6560 -0.4386
    2MPD2    C1   20   1.331   3.114  11.829  0.2064 -0.1306 -0.3853
    2MPD2    C2   21   1.293   3.204  11.730 -0.0934  0.2804  0.3456
    2MPD2    C3   22   1.336   3.187  11.600  0.8883  0.0544  0.4311
    2MPD2    C4   23   1.422   3.084  11.571  0.2845 -0.6005 -0.0253
    2MPD2    C5   24   1.444   2.994  11.662 -0.5644 -0.4373  0.0322
    2MPD2     H   25   1.229   3.288  11.755 -0.2975  0.3259 -0.3149
    2MPD2    H1   26   1.450   3.059  11.469 -0.3951 -0.7826 -0.1664
    2MPD2    H2   27   1.419   2.924  11.860  0.8329  0.8558  1.0922
    2MPD2    H3   28   1.501   2.907  11.629 -0.0365 -0.4191  0.8977
    2MPD2     N   29   1.306   3.272  11.487  0.3905  0.0384  0.0115
    2MPD2    H5   30   1.357   3.249  11.402 -1.1224 -0.7242 -0.6851
    2MPD2    N1   31   1.295   3.148  11.961 -0.2502  0.2412 -0.3301
    2MPD2    H7   32   1.241   3.233  11.973  0.2732  0.9505 -2.9921
    3TCq1    O1   33   1.677   0.005  10.421  0.8367  0.0242  0.3690
    3TCq1    C1   34   1.608   0.080  10.334  0.5463 -0.0120 -0.5687
    3TCq1    O2   35   1.609   0.072  10.212 -0.3841 -0.0066  0.0115
    3TCq1    C2   36   1.521   0.165  10.418 -0.7066 -0.0248  0.5117
    3TCq1    C3   37   1.515   0.303  10.413  0.3179  0.4604  0.8046
    3TCq1    C4   38   1.428   0.377  10.489  0.0014  0.1777  0.0197
    3TCq1    C5   39   1.330   0.314  10.559  0.6576 -0.0036  0.2930
    3TCq1    C6   40   1.328   0.177  10.557  0.6403  0.0416  0.1735
    3TCq1    C7   41   1.426   0.102  10.496  0.0142 -0.3544 -0.7088
    3TCq1    C8   42   1.201   0.107  10.588  0.4103 -0.1166  0.2534
    3TCq1    O4   43   1.193   4.724  10.548  0.3122 -0.3906  0.3098
    3TCq1    C9   44   1.413   0.515  10.469  0.2150 -0.8604 -0.1258
    3TCq1    O5   45   1.505   0.574  10.409 -0.1401  0.5440  0.4137
    3TCq1    O6   46   1.298   0.567  10.482  0.0939  0.0468 -0.3938
    3TCq1    H1   47   1.658   0.019  10.516 -2.0790 -0.1121 -0.1745
    3TCq1    H2   48   1.578   0.351  10.339 -1.6841 -0.1453 -1.2828
    3TCq1    H3   49   1.250   0.379  10.593 -0.0315 -0.7705  0.1452
    3TCq1    H4   50   1.422   4.722  10.496 -1.5307 -0.2937 -1.0665
    4MPD2     C   51   0.725   0.084  10.783  0.0960  0.2374  0.0982
    4MPD2    C1   52   0.771   0.209  10.784  0.8445  0.3536  0.0121
    4MPD2    C2   53   0.896   0.237  10.743 -0.7087  0.4211  0.3868
    4MPD2    C3   54   0.973   0.140  10.687 -0.2531 -0.3673 -0.4187
    4MPD2    C4   55   0.920   0.012  10.679  0.7541  0.3179 -0.8167
    4MPD2    C5   56   0.799   4.711  10.734 -0.1427  0.1958  0.2992
    4MPD2     H   57   0.931   0.340  10.748  2.1344 -0.5588  0.5863
    4MPD2    H1   58   0.967   4.654  10.633  0.0724  0.4540 -1.7725
    4MPD2    H2   59   0.625   0.057  10.817  1.8411 -2.6954  2.8462
    4MPD2    H3   60   0.763   4.609  10.726  0.9600 -0.3696  2.5614
    4MPD2     N   61   1.104   0.182  10.655  0.3407 -0.2063 -0.2189
    4MPD2    H5   62   1.127   0.279  10.673 -2.5505  0.6340 -1.0685
    4MPD2    N1   63   0.695   0.325  10.820 -0.3890  0.2357 -0.6019
    4MPD2    H7   64   0.732   0.416  10.796  3.0277 -0.6990  1.1841
    5TCq1    O1   65   0.616   1.438  12.249 -0.5080  0.6736 -0.0816
    5TCq1    C1   66   0.690   1.406  12.142 -1.4684 -0.3970  0.4842
    5TCq1    O2   67   0.651   1.413  12.026  0.2026 -0.3371  0.2851
    5TCq1    C2   68   0.826   1.368  12.170 -0.7308 -0.2461 -0.3218
    5TCq1    C3   69   0.891   1.410  12.281 -0.0551  0.3534  0.2559
    5TCq1    C4   70   1.021   1.379  12.290  0.1879  0.0534 -0.6950
    5TCq1    C5   71   1.091   1.309  12.197  0.0612 -0.0813  0.0286
    5TCq1    C6   72   1.025   1.284  12.080  0.1014 -0.2836 -0.6114
    5TCq1    C7   73   0.893   1.305  12.069 -0.5000  0.4504 -0.0196
    5TCq1    C8   74   1.085   1.203  11.985  0.5349 -0.0373  0.4570
    5TCq1    O4   75   1.024   1.164  11.891  0.4272  0.0366 -0.2275
    5TCq1    C9   76   1.093   1.432  12.409 -0.8691 -0.0816 -0.1527
    5TCq1    O5   77   1.219   1.436  12.407  0.0887 -0.5713 -0.1192
    5TCq1    O6   78   1.029   1.483  12.502 -0.0484 -0.1886  0.3781
    5TCq1    H1   79   0.652   1.442  12.340 -2.6844  0.1569  0.8080
    5TCq1    H2   80   0.834   1.449  12.364  1.2849 -0.2263  1.4602
    5TCq1    H3   81   1.195   1.307  12.227 -0.1252  1.2517  0.7984
    5TCq1    H4   82   0.838   1.293  11.977 -0.6438 -1.2937  0.2985
    6MPD2     C   83   1.416   1.063  12.000 -0.1410 -0.3938 -0.6487
    6MPD2    C1   84   1.292   1.077  11.942 -0.2999  0.2225 -0.0957
    6MPD2    C2   85   1.263   1.021  11.816 -0.9387 -0.2139 -0.1948
    6MPD2    C3   86   1.359   0.961  11.743  0.0384  0.1673  0.1486
    6MPD2    C4   87   1.491   0.964  11.795  0.6170 -0.0367  0.2656
    6MPD2    C5   88   1.514   0.998  11.927 -0.2090 -0.0131  0.4446
    6MPD2     H   89   1.162   1.028  11.779 -0.8332 -2.5421 -0.9377
    6MPD2    H1   90   1.577   0.930  11.739  0.7201 -0.6601  0.8008
    6MPD2    H2   91   1.434   1.107  12.097  1.3863 -0.3942 -0.9194
    6MPD2    H3   92   1.611   0.993  11.975 -0.1777  1.5588  0.5575
    6MPD2     N   93   1.331   0.898  11.621  0.1108  0.6447 -0.5149
    6MPD2    H5   94   1.240   0.909  11.577 -0.1609  1.0700  0.1325
    6MPD2    N1   95   1.210   1.155  12.023  0.5026 -0.4973  0.1330
    6MPD2    H7   96   1.238   1.182  12.116 -0.0871  0.8300 -0.0848
    7TCq1    O1   97   2.533   0.895  14.113  0.4611  0.2707  0.1205
    7TCq1    C1   98   2.451   0.909  14.009  0.0008  0.2108  0.0533
    7TCq1    O2   99   2.331   0.932  14.021  0.3699  0.4019  0.5271
    7TCq1    C2  100   2.496   0.844  13.891 -0.6641 -0.0375 -0.1942
    7TCq1    C3  101   2.412   0.777  13.819 -0.0639  0.2080 -0.2833
    7TCq1    C4  102   2.464   0.728  13.699 -0.2099 -0.1368 -0.6550
    7TCq1    C5  103   2.601   0.729  13.672  0.0797 -0.3271 -0.2951
    7TCq1    C6  104   2.681   0.796  13.757  0.2092  0.1358  0.4228
    7TCq1    C7  105   2.630   0.872  13.863 -0.3176 -0.6624  0.6865
    7TCq1    C8  106   2.820   0.791  13.737  0.3493  0.0861 -0.5665
    7TCq1    O4  107   2.858   0.754  13.628 -0.0863  0.0146  0.1731
    7TCq1    C9  108   2.379   0.640  13.624  0.3621  0.7891 -0.7861
    7TCq1    O5  109   2.257   0.631  13.649  0.4545  0.5254 -0.2207
    7TCq1    O6  110   2.436   0.559  13.549 -0.4308 -0.3883  0.3336
    7TCq1    H1  111   2.625   0.878  14.084  1.0305  0.2984  1.9341
    7TCq1    H2  112   2.308   0.774  13.848 -0.1566 -0.0902 -0.6430
    7TCq1    H3  113   2.631   0.682  13.579  0.7852  2.7525 -1.6415
    7TCq1    H4  114   2.693   0.945  13.913 -1.9554  1.0909  0.2006
    8MPD2     C  115   3.281   0.628  13.941 -0.6239  0.1674  0.2688
    8MPD2    C1  116   3.223   0.610  13.807  0.6574  0.0167 -0.1599
    8MPD2    C2  117   3.107   0.680  13.770  0.5163  0.3978 -0.2357
    8MPD2    C3  118   3.033   0.748  13.867  0.6709  0.0705 -0.3441
    8MPD2    C4  119   3.082   0.759  13.995  0.0347  0.6495  0.1608
    8MPD2    C5  120   3.210   0.709  14.028 -0.0340 -0.1015  0.5197
    8MPD2     H  121   3.069   0.686  13.669  1.2178  2.1724 -0.3851
    8MPD2    H1  122   3.030   0.808  14.076  0.7588 -0.9734  1.6051
    8MPD2    H2  123   3.376   0.585  13.971 -1.0849  0.7188  2.5270
    8MPD2    H3  124   3.250   0.738  14.124 -3.6020 -1.6828  2.4915
    8MPD2     N  125   2.900   0.799  13.852  0.0643  0.3834 -0.8021
    8MPD2    H5  126   2.864   0.831  13.941  1.8706  0.7007 -0.1929
    8MPD2    N1  127   3.297   0.525  13.720 -0.2150  0.0079  0.2493
    8MPD2    H7  128   3.379   0.489  13.768  0.3372  0.6216 -0.2371
    9TCq1    O1  129   0.582   3.772  10.803 -0.1326  0.2549 -0.3956
    9TCq1    C1  130   0.689   3.791  10.878  0.8673  0.0844  0.3578
    9TCq1    O2  131   0.694   3.800  10.998  0.1735  0.4487  0.2550
    9TCq1    C2  132   0.794   3.821  10.777  0.3695  0.7100 -0.6343
    9TCq1    C3  133   0.809   3.745  10.663  0.4986 -0.3421  0.1076
    9TCq1    C4  134   0.904   3.777  10.575  0.3391  0.4518  0.2322
    9TCq1    C5  135   0.991   3.877  10.606 -0.0838  0.1748 -0.2401
    9TCq1    C6  136   0.975   3.947  10.719 -0.4779 -0.5568  0.4852
    9TCq1    C7  137   0.875   3.917  10.812  0.4662 -0.1315  0.0902
    9TCq1    C8  138   1.099   4.002  10.778  0.3385  0.2590  0.4161
    9TCq1    O4  139   1.200   3.999  10.709 -0.1588 -0.0492  0.2496
    9TCq1    C9  140   0.919   3.709  10.449 -0.3370 -0.0525  0.4620
    9TCq1    O5  141   0.995   3.762  10.369  0.0241 -0.2402 -0.4683
    9TCq1    O6  142   0.838   3.621  10.414 -0.5968 -0.1119  0.0099
    9TCq1    H1  143   0.599   3.770  10.707  0.0342 -0.2189 -0.3571
    9TCq1    H2  144   0.742   3.661  10.645  0.0976 -0.0365  0.1615
    9TCq1    H3  145   1.072   3.897  10.537 -0.5247 -0.5212 -0.9685
    9TCq1    H4  146   0.850   3.962  10.907  0.7314 -0.1288  0.1591
   10MPD2     C  147   1.309   4.118  10.957  0.1382 -0.6677  0.1754
   10MPD2    C1  148   1.177   4.087  10.998  0.1505 -0.4315  0.0818
   10MPD2    C2  149   1.149   4.095  11.130 -0.1747 -0.5747  0.2438
   10MPD2    C3  150   1.237   4.133  11.227 -0.0415  0.0663 -0.1448
   10MPD2    C4  151   1.362   4.169  11.184 -0.3871 -0.2457  0.0183
   10MPD2    C5  152   1.399   4.154  11.053  0.0360 -0.6458 -0.3476
   10MPD2     H  153   1.054   4.050  11.158 -0.7928  0.0509 -0.8457
   10MPD2    H1  154   1.446   4.187  11.251  0.0689 -1.8693 -0.1216
   10MPD2    H2  155   1.340   4.122  10.853 -0.2486 -0.4495  0.0656
   10MPD2    H3  156   1.501   4.180  11.027  0.7376 -2.6516  0.3759
   10MPD2     N  157   1.212   4.127  11.365 -0.1223 -0.2221 -0.1591
   10MPD2    H5  158   1.288   4.141  11.431 -1.4588 -1.1667  1.5594
   10MPD2    N1  159   1.077   4.040  10.909 -0.0306 -0.0335  0.2150
   10MPD2    H7  160   0.981   4.035  10.942 -0.0407  1.6326  0.4670
   11TCq1    O1  161   1.582   4.502  14.670  0.2953 -0.1646  0.6788
   11TCq1    C1  162   1.570   4.548  14.544  0.4177  0.1791  0.4544
   11TCq1    O2  163   1.495   4.645  14.527  0.4455  0.2602  1.2247
   11TCq1    C2  164   1.602   4.430  14.461  0.3678 -0.4804  0.1014
   11TCq1    C3  165   1.670   4.330  14.523  0.2976  1.0329  0.3230
   11TCq1    C4  166   1.653   4.204  14.469 -0.3205  0.0733  0.4524
   11TCq1    C5  167   1.567   4.180  14.365  0.0144 -0.3174 -0.1080
   11TCq1    C6  168   1.489   4.282  14.315  0.3689  0.1156 -0.1315
   11TCq1    C7  169   1.506   4.409  14.368 -0.0641  0.5319  0.3212
   11TCq1    C8  170   1.385   4.270  14.213  0.2059  0.7262 -0.6959
   11TCq1    O4  171   1.307   4.363  14.199 -0.6592 -0.2295 -0.4112
   11TCq1    C9  172   1.729   4.092  14.520  0.1890 -0.0869 -0.3291
   11TCq1    O5  173   1.794   4.105  14.626  0.1563 -0.0955 -0.4022
   11TCq1    O6  174   1.734   3.998  14.437  0.4429 -0.5506  0.0920
   11TCq1    H1  175   1.602   4.406  14.669 -1.5270 -0.5097 -1.5056
   11TCq1    H2  176   1.754   4.335  14.591  0.2969 -0.1044  0.4154
   11TCq1    H3  177   1.547   4.078  14.334  1.2992 -1.4274  2.6852
   11TCq1    H4  178   1.455   4.499  14.335 -1.1435  0.1437  0.9235
   12MPD2     C  179   1.225   4.166  13.988 -0.2028 -0.0531  1.1049
   12MPD2    C1  180   1.328   4.097  14.047  0.8567  0.3963  0.6865
   12MPD2    C2  181   1.368   3.980  13.989  0.6385  0.0618  1.0916
   12MPD2    C3  182   1.296   3.916  13.886 -0.0936  0.6139 -0.0202
   12MPD2    C4  183   1.195   3.988  13.830  0.0198 -0.3019  0.8839
   12MPD2    C5  184   1.151   4.102  13.890  0.2900  0.7067  0.2716
   12MPD2     H  185   1.457   3.936  14.031  1.2736 -1.4370 -1.8440
   12MPD2    H1  186   1.133   3.946  13.752  1.5978 -1.6423  0.3737
   12MPD2    H2  187   1.188   4.257  14.034  0.8085  0.1933  1.4349
   12MPD2    H3  188   1.070   4.156  13.842  0.9980 -0.9095 -2.7306
   12MPD2     N  189   1.344   3.792  13.840  0.1263  0.0496 -0.3195
   12MPD2    H5  190   1.429   3.762  13.885 -0.3392  1.3697  1.4562
   12MPD2    N1  191   1.395   4.145  14.157  0.5554 -0.0104 -0.2369
   12MPD2    H7  192   1.482   4.097  14.178  1.1101  1.2281  0.3407
   13TCq1    O1  193   1.480   3.817  10.822  0.1420 -0.0191 -0.2318
   13TCq1    C1  194   1.434   3.793  10.693 -0.8190  0.0004 -0.5833
   13TCq1    O2  195   1.473   3.852  10.592  0.1465  0.1686  0.2792
   13TCq1    C2  196   1.338   3.677  10.684 -0.1229  0.2272 -0.7911
   13TCq1    C3  197   1.323   3.616  10.563 -0.6706 -0.0361 -0.2233
   13TCq1    C4  198   1.220   3.533  10.537 -0.6727  0.2704  0.2446
   13TCq1    C5  199   1.124   3.504  10.634  0.5805  0.5296  0.6439
   13TCq1    C6  200   1.147   3.572  10.755 -0.0945 -0.3064  0.4711
   13TCq1    C7  201   1.251   3.658  10.785 -0.3236  0.2624 -0.2666
   13TCq1    C8  202   1.045   3.553  10.864 -0.2780 -0.0753 -0.0246
   13TCq1    O4  203   1.063   3.623  10.961  0.0959  0.4527  0.1909
   13TCq1    C9  204   1.192   3.490  10.404  0.4341  0.3179  0.6134
   13TCq1    O5  205   1.100   3.408  10.393  0.7502 -0.8574 -0.9162
   13TCq1    O6  206   1.290   3.499  10.327 -0.7037 -0.4903  0.0572
   13TCq1    H1  207   1.457   3.752  10.891 -1.7032  0.4171 -0.4206
   13TCq1    H2  208   1.393   3.643  10.484 -0.6977 -0.7406 -0.4857
   13TCq1    H3  209   1.032   3.463  10.595  1.9275 -1.5522 -0.3457
   13TCq1    H4  210   1.254   3.717  10.876  0.2591 -0.3931  0.1369
   14MPD2     C  211   0.760   3.325  10.907 -0.3494 -0.4818 -0.4622
   14MPD2    C1  212   0.843   3.427  10.925  0.0326 -1.0790 -0.2880
   14MPD2    C2  213   0.816   3.508  11.041  0.6613 -0.5481 -0.0168
   14MPD2    C3  214   0.728   3.464  11.131 -0.1150 -0.1161  0.0686
   14MPD2    C4  215   0.641   3.352  11.112 -0.2006  0.0830 -0.1966
   14MPD2    C5  216   0.654   3.290  10.989 -0.5448 -0.1105 -0.1262
   14MPD2     H  217   0.860   3.606  11.054  0.5307 -0.0189 -3.4650
   14MPD2    H1  218   0.553   3.329  11.171 -0.2122  1.8546  0.4664
   14MPD2    H2  219   0.765   3.282  10.808  1.4116  0.1435 -0.6447
   14MPD2    H3  220   0.588   3.205  10.976 -1.9637  1.1603 -1.2140
   14MPD2     N  221   0.698   3.556  11.233  0.5770 -0.0520  0.1927
   14MPD2    H5  222   0.732   3.650  11.215 -1.5752  1.1180  2.2054
   14MPD2    N1  223   0.948   3.459  10.838 -0.3249 -0.0383 -0.5121
   14MPD2    H7  224   0.955   3.405  10.752  1.7558  0.9415 -0.9625
   15TCq1    O1  225   2.657   3.827   2.402 -0.3549  0.0802 -0.0861
   15TCq1    C1  226   2.720   3.901   2.307 -0.4308 -0.6188  0.0864
   15TCq1    O2  227   2.830   3.944   2.322  0.5421 -0.5358 -0.3593
   15TCq1    C2  228   2.664   3.843   2.183 -0.0819  0.5677 -0.4194
   15TCq1    C3  229   2.530   3.807   2.172 -0.2501  0.5914  0.0189
   15TCq1    C4  230   2.480   3.789   2.051 -0.1226  0.4626 -0.4501
   15TCq1    C5  231   2.558   3.796   1.940 -0.2974  0.0231  0.5125
   15TCq1    C6  232   2.694   3.815   1.959 -0.4304  0.3814 -0.2367
   15TCq1    C7  233   2.747   3.849   2.076 -0.2849 -0.2414 -0.4507
   15TCq1    C8  234   2.784   3.768   1.854  0.6078 -0.6024  0.0592
   15TCq1    O4  235   2.895   3.731   1.894 -0.4009 -0.2927 -0.6620
   15TCq1    C9  236   2.342   3.752   2.025  0.8265 -0.1197 -0.4087
   15TCq1    O5  237   2.295   3.763   1.905 -0.6280  0.6024  0.0965
   15TCq1    O6  238   2.273   3.708   2.123 -0.0274 -0.0816  0.2612
   15TCq1    H1  239   2.597   3.753   2.378 -2.0854  0.3232  3.4484
   15TCq1    H2  240   2.463   3.809   2.258  0.1292  1.1190  0.3089
   15TCq1    H3  241   2.521   3.746   1.851  1.4682  1.3369 -0.9341
   15TCq1    H4  242   2.848   3.886   2.087 -1.5838  3.3293 -0.2113
   16MPD2     C  243   2.675   3.689   1.506  0.4415  0.1597 -0.6815
   16MPD2    C1  244   2.752   3.672   1.621 -1.2884 -0.1125  0.1002
   16MPD2    C2  245   2.846   3.567   1.626 -0.3172 -0.1006 -0.4440
   16MPD2    C3  246   2.856   3.487   1.511  0.1718 -0.3977  0.6574
   16MPD2    C4  247   2.775   3.505   1.400  0.4730 -0.1079 -0.3075
   16MPD2    C5  248   2.688   3.610   1.393 -0.1933  0.1908  0.2995
   16MPD2     H  249   2.907   3.556   1.714  1.5468 -0.4308 -1.7783
   16MPD2    H1  250   2.793   3.446   1.311  0.8099  0.5709 -0.6898
   16MPD2    H2  251   2.589   3.754   1.510 -0.7583 -1.5078  0.5641
   16MPD2    H3  252   2.621   3.624   1.309 -0.5404  1.3130  0.7561
   16MPD2     N  253   2.955   3.383   1.508 -0.2680 -0.5936 -0.2806
   16MPD2    H5  254   3.032   3.389   1.574 -0.9167 -1.2609  0.5448
   16MPD2    N1  255   2.730   3.767   1.731 -0.3961  0.0353  0.2124
   16MPD2    H7  256   2.649   3.826   1.714 -0.8583 -1.1249 -1.5856
   17TCq1    O1  257   0.745   3.233  12.020  0.1461 -0.3567 -0.1786
   17TCq1    C1  258   0.774   3.103  12.034 -0.1485 -0.1890  0.6563
   17TCq1    O2  259   0.758   3.047  12.143 -0.3905 -0.2649  0.2081
   17TCq1    C2  260   0.877   3.070  11.940 -0.2559  0.2616  0.1196
   17TCq1    C3  261   0.966   2.968  11.980  0.3249 -0.1881 -0.7132
   17TCq1    C4  262   1.044   2.918  11.877 -0.0228 -0.7738  0.7177
   17TCq1    C5  263   1.035   2.960  11.753  0.2412  0.3109  0.1006
   17TCq1    C6  264   0.939   3.046  11.715 -0.4878 -1.2234 -0.7458
   17TCq1    C7  265   0.849   3.098  11.805 -0.5115  0.3257  0.3012
   17TCq1    C8  266   0.898   3.037  11.580 -0.4476  0.0048  0.3320
   17TCq1    O4  267   0.788   3.074  11.545 -0.0510  0.0043  0.2922
   17TCq1    C9  268   1.133   2.808  11.897  0.3224 -1.0572 -0.2597
   17TCq1    O5  269   1.139   2.773  12.019  0.1887 -0.2623 -0.1539
   17TCq1    O6  270   1.203   2.760  11.802  0.6749  1.0946  0.1484
   17TCq1    H1  271   0.783   3.272  11.938 -0.9187  0.3324 -0.3560
   17TCq1    H2  272   0.985   2.935  12.082 -1.2857 -2.2773 -1.0773
   17TCq1    H3  273   1.078   2.889  11.683 -2.9655 -2.0473  0.5066
   17TCq1    H4  274   0.768   3.167  11.784 -0.5904 -0.2802 -1.3954
   18MPD2     C  275   0.899   3.047  11.289 -0.7147  0.3805 -0.5216
   18MPD2    C1  276   1.009   3.047  11.369 -0.3711 -0.4704 -0.4353
   18MPD2    C2  277   1.137   3.054  11.306 -0.1196  0.3925  0.6949
   18MPD2    C3  278   1.146   3.083  11.171 -0.2451 -0.5799 -0.2459
   18MPD2    C4  279   1.032   3.083  11.094 -0.1451 -0.3629 -0.4350
   18MPD2    C5  280   0.913   3.062  11.159 -0.5510  0.3342  0.5004
   18MPD2     H  281   1.225   3.053  11.370 -0.0381  0.8058  0.5912
   18MPD2    H1  282   1.035   3.086  10.985  2.2229  2.1201 -0.3098
   18MPD2    H2  283   0.797   3.030  11.323 -0.2001  0.1404  0.8823
   18MPD2    H3  284   0.820   3.068  11.103 -0.4497 -1.5831  0.1469
   18MPD2     N  285   1.271   3.093  11.101  0.0481  0.3298 -0.0856
   18MPD2    H5  286   1.276   3.081  11.000 -1.6535 -0.2000 -0.1094
   18MPD2    N1  287   1.012   3.028  11.505 -0.9432  0.2924 -0.3447
   18MPD2    H7  288   1.099   3.019  11.557 -0.4857  1.2836 -0.9259
   19TMC2    C1  289   3.014   3.823  14.152 -0.1267  0.4800  0.2083
   19TMC2    C2  290   2.996   3.843  14.015  0.8555  0.2365 -0.8793
   19TMC2    C3  291   2.888   3.779  13.966  0.2288 -0.4618  0.1604
   19TMC2    C4  292   2.933   3.750  14.236 -0.0014 -0.1042  0.3185
   19TMC2    C5  293   2.822   3.693  14.182  0.1479  0.4344 -0.0247
   19TMC2    C6  294   2.801   3.711  14.051 -0.5203  0.1361 -0.0310
   19TMC2     C  295   3.107   3.914  14.211  0.3005  0.2288 -0.7462
   19TMC2     O  296   3.146   4.008  14.145  0.2535 -0.0502  0.2667
   19TMC2     H  297   3.052   3.919  13.960  1.3321  1.6440  1.5438
   19TMC2    H1  298   2.952   3.745  14.343  1.4406 -2.8840 -0.0757
   19TMC2    H2  299   2.712   3.673  14.003 -1.1021  1.5450 -0.0615
   19TMC2    C7  300   2.712   3.650  14.266  0.7595  0.8489  0.6069
   19TMC2    C8  301   2.862   3.766  13.822 -0.7116 -0.0152 -0.3696
   19TMC2    O1  302   2.735   3.588  14.367  0.0744  0.0015  0.3943
   19TMC2    O2  303   2.755   3.725  13.779  0.2120 -0.4922 -0.8034
   19TMC2    O5  304   2.986   3.767  13.757  0.2641 -0.3336 -0.2179
   19TMC2    H5  305   3.066   3.790  13.809 -0.9352  0.2700  1.3519
   20MPD2     C  306   3.305   4.044  14.399  0.1788 -0.9644  0.1715
   20MPD2    C1  307   3.277   3.906  14.395 -0.0143  0.2050  0.1347
   20MPD2    C2  308   3.330   3.818  14.486 -0.3788  0.5759 -0.3336
   20MPD2    C3  309   3.418   3.871  14.577 -0.2587  0.4167  0.3182
   20MPD2    C4  310   3.443   4.010  14.581  0.1003  0.6344 -0.6168
   20MPD2    C5  311   3.387   4.091  14.498 -0.5391 -0.0297  0.9371
   20MPD2     H  312   3.296   3.715  14.490  0.9287  0.1931  0.7167
   20MPD2    H1  313   3.501   4.056  14.661  0.1457 -1.3344  0.4694
   20MPD2    H2  314   3.268   4.114  14.324  0.3485 -1.0381  0.0209
   20MPD2    H3  315   3.401   4.197  14.511 -0.7762 -0.0308  1.2171
   20MPD2     N  316   3.479   3.804  14.687 -0.0133 -0.0773 -0.1671
   20MPD2    H5  317   3.536   3.858  14.751  0.2774 -0.4107 -0.1440
   20MPD2    N1  318   3.170   3.851  14.316 -1.3831 -0.1568  0.1508
   20MPD2    H7  319   3.149   3.753  14.330 -2.7554  0.4578  2.4085
   21MPD2     C  320   0.313   4.027  14.207  0.3195 -0.1400 -0.2373
   21MPD2    C1  321   0.422   4.026  14.291 -0.1483 -0.0367  0.3179
   21MPD2    C2  322   0.412   4.089  14.409  0.4038  0.4682 -0.7854
   21MPD2    C3  323   0.293   4.149  14.450  0.7326  0.1345  0.3531
   21MPD2    C4  324   0.190   4.154  14.361 -0.4531  0.4228 -0.8352
   21MPD2    C5  325   0.198   4.091  14.243 -0.2843  0.1915 -0.2969
   21MPD2     H  326   0.507   4.094  14.461  0.7694 -0.2007 -1.3703
   21MPD2    H1  327   0.093   4.197  14.382 -0.1233  0.3059  1.0031
   21MPD2    H2  328   0.311   3.977  14.111  0.1203 -0.9132  0.1656
   21MPD2    H3  329   0.113   4.086  14.176  0.3516 -0.9297 -1.0129
   21MPD2     N  330   0.284   4.223  14.572  0.2941 -0.0563  0.3686
   21MPD2    H5  331   0.197   4.273  14.588  0.0340 -0.8176  1.3677
   21MPD2    N1  332   0.548   3.989  14.240 -0.0252  0.5493 -0.7375
   21MPD2    H7  333   0.624   3.984  14.306  0.3822 -0.8367 -1.3084
   22TCq2    C1  334   0.367   4.202  14.685  0.4043 -0.1309  0.0091
   22TCq2    O2  335   0.453   4.118  14.700  0.4207 -0.2686  0.2478
   22TCq2    C2  336   0.303   4.267  14.794 -0.3771  0.6766 -0.1044
   22TCq2    C3  337   0.324   4.193  14.909 -0.2160  0.1882 -0.5575
   22TCq2    C4  338   0.301   4.262  15.025 -0.5724 -0.1334 -0.6039
   22TCq2    C5  339   0.282   4.396  15.025 -0.8349  0.6770  0.4006
   22TCq2    C6  340   0.249   4.463  14.911  0.5274 -0.9429  1.2794
   22TCq2    C7  341   0.262   4.399  14.789  0.1774  0.0485 -0.2690
   22TCq2    C8  342   0.199   4.598  14.917 -0.7482 -0.4552 -0.1760
   22TCq2    O4  343   0.240   4.680  15.002  0.4902  0.1154  0.0677
   22TCq2    C9  344   0.319   4.199  15.153 -0.0454 -0.2760  0.0087
   22TCq2    O5  345   0.366   4.085  15.155 -0.6752  0.2609 -0.0957
   22TCq2    O6  346   0.308   4.269  15.253  0.2508  0.0614  0.3497
   22TCq2    H2  347   0.346   4.087  14.908 -5.2269 -0.8217  1.6142
   22TCq2    H3  348   0.269   4.445  15.121  1.4309 -0.0005  1.0424
   22TCq2    H4  349   0.233   4.446  14.696  0.2189  1.6848  0.5427
   23MPD2     C  350   2.234   0.455  14.362 -0.0411  0.6606  0.1972
   23MPD2    C1  351   2.144   0.514  14.449 -0.0924 -0.2028  0.5086
   23MPD2    C2  352   2.103   0.642  14.420  0.2881 -1.0443  0.0108
   23MPD2    C3  353   2.137   0.696  14.296 -0.6097  0.0732  0.1896
   23MPD2    C4  354   2.223   0.633  14.208 -0.3610  0.6750 -0.5881
   23MPD2    C5  355   2.282   0.521  14.252 -0.1209 -0.4911  0.6317
   23MPD2     H  356   2.033   0.689  14.488  1.0488 -0.5606  0.4640
   23MPD2    H1  357   2.245   0.668  14.108  0.6106 -0.1591 -0.6608
   23MPD2    H2  358   2.268   0.352  14.371 -1.0174  0.0277 -3.1982
   23MPD2    H3  359   2.350   0.464  14.189  1.2966 -0.0406  1.7607
   23MPD2     N  360   2.068   0.809  14.256  0.5221  0.2060  0.4458
   23MPD2    H5  361   2.057   0.832  14.158 -3.0150  1.4295  1.1292
   23MPD2    N1  362   2.093   0.447  14.564 -0.0094 -0.1582  0.1340
   23MPD2    H7  363   2.020   0.486  14.623 -2.0161 -2.5111 -0.7829
   24TCq2    C1  364   2.015   0.900  14.342  0.2984 -0.9448 -0.6073
   24TCq2    O2  365   2.053   0.928  14.457 -0.0909  0.6738 -0.3832
   24TCq2    C2  366   1.921   0.989  14.275 -0.1607  0.4666  0.3630
   24TCq2    C3  367   1.911   1.121  14.317 -0.4340 -0.1818  0.7029
   24TCq2    C4  368   1.819   1.205  14.261  0.1595 -0.4618 -0.6262
   24TCq2    C5  369   1.733   1.161  14.166  0.0035  0.6946 -0.2140
   24TCq2    C6  370   1.736   1.026  14.129 -0.1118 -0.3949  0.9657
   24TCq2    C7  371   1.828   0.943  14.187  0.3735  0.1058  0.5999
   24TCq2    C8  372   1.616   0.971  14.069 -0.3912  0.5813 -0.1951
   24TCq2    O4  373   1.617   0.850  14.053  0.0542  0.2954 -0.3488
   24TCq2    C9  374   1.809   1.343  14.309  0.3027 -0.6289 -0.6570
   24TCq2    O5  375   1.899   1.381  14.393 -0.0688  0.1602  0.8468
   24TCq2    O6  376   1.742   1.413  14.227 -0.4483 -0.0116 -0.8460
   24TCq2    H2  377   1.993   1.155  14.379 -1.3410  3.1196  0.1130
   24TCq2    H3  378   1.657   1.228  14.127 -1.0127 -0.1350  0.3439
   24TCq2    H4  379   1.830   0.836  14.167 -1.2973  0.3489 -0.8911
   25TMC2    C1  380   0.826   2.282  11.506 -0.0249 -1.0176 -0.1211
   25TMC2    C2  381   0.944   2.328  11.558  0.7464  0.3488  0.0131
   25TMC2    C3  382   0.965   2.350  11.689 -0.3880  1.0118  0.0727
   25TMC2    C4  383   0.716   2.271  11.588 -0.6432 -0.1019  0.0925
   25TMC2    C5  384   0.736   2.293  11.723 -0.0362 -1.1090  0.0660
   25TMC2    C6  385   0.861   2.336  11.776 -0.3813  0.7833  0.1844
   25TMC2     C  386   0.819   2.272  11.356 -0.6465  0.0714  0.1942
   25TMC2     O  387   0.927   2.261  11.296 -0.8186 -0.0265 -0.0449
   25TMC2     H  388   1.034   2.326  11.498  0.9108 -0.0796  0.2759
   25TMC2    H1  389   0.624   2.222  11.556 -0.4756 -1.8554  2.3614
   25TMC2    H2  390   0.865   2.348  11.884 -3.4196  0.4909  0.3479
   25TMC2    C7  391   0.621   2.321  11.803 -0.6252 -0.1367 -0.4570
   25TMC2    C8  392   1.104   2.371  11.733  0.4642  0.4091 -0.0193
   25TMC2    O1  393   0.617   2.292  11.924 -0.5516 -0.6021  0.4140
   25TMC2    O2  394   1.205   2.330  11.666  0.3908 -0.0567  0.5947
   25TMC2    O5  395   1.112   2.449  11.847  0.0063  0.0722 -0.5523
   25TMC2    H5  396   1.024   2.488  11.867 -0.6328 -2.0792  0.9014
   26MPD2     C  397   0.575   2.090  10.944 -0.3566 -0.6878 -0.5100
   26MPD2    C1  398   0.484   2.084  11.050 -0.6086  0.0863 -0.6112
   26MPD2    C2  399   0.526   2.130  11.174 -0.1102 -0.6058  0.0890
   26MPD2    C3  400   0.653   2.194  11.187  0.2962 -0.9727  0.3670
   26MPD2    C4  401   0.740   2.199  11.078 -0.5236  0.9613 -0.3111
   26MPD2    C5  402   0.698   2.151  10.957 -0.0358  0.4285 -0.3419
   26MPD2     H  403   0.466   2.121  11.264  2.8302  2.5962  2.3592
   26MPD2    H1  404   0.840   2.242  11.083 -0.7804  1.5090  0.2301
   26MPD2    H2  405   0.544   2.053  10.847 -1.1287 -2.2534  0.3362
   26MPD2    H3  406   0.768   2.147  10.874 -0.2736  1.7042 -0.6095
   26MPD2     N  407   0.690   2.245  11.314  0.6183  0.5281 -0.0376
   26MPD2    H5  408   0.614   2.245  11.382  0.2022  0.8473 -0.5008
   26MPD2    N1  409   0.356   2.029  11.035  0.4137 -0.9490 -0.1480
   26MPD2    H7  410   0.340   2.001  10.939 -1.0445  1.4520 -0.5904
   27TMC2    C1  411   4.708   0.230  12.443  0.1186  0.3589  0.8097
   27TMC2    C2  412   0.085   0.315  12.443  0.1667 -0.2517 -0.3488
   27TMC2    C3  413   0.160   0.305  12.558  0.0926  0.1092 -0.1060
   27TMC2    C4  414   4.691   0.130  12.531 -0.2243  0.0269  0.3931
   27TMC2    C5  415   0.034   0.129  12.653  0.4322 -0.1201  0.0548
   27TMC2    C6  416   0.138   0.219  12.662  1.0186 -0.4924 -0.2062
   27TMC2     C  417   4.596   0.263  12.374  0.2759 -0.6453  0.4306
   27TMC2     O  418   4.614   0.313  12.265  0.6015  0.2522 -0.0477
   27TMC2     H  419   0.090   0.401  12.377 -0.6869 -1.5309 -2.0774
   27TMC2    H1  420   4.612   0.057  12.518 -1.4352  1.4991 -0.5073
   27TMC2    H2  421   0.219   0.218  12.734  1.1408 -0.7705 -0.3471
   27TMC2    C7  422   4.685   0.073  12.764  0.1928  0.3254 -0.4201
   27TMC2    C8  423   0.257   0.415  12.588  0.1503 -0.0878  0.2756
   27TMC2    O1  424   4.570   0.042  12.735  0.7256  0.6398  0.1782
   27TMC2    O2  425   0.299   0.439  12.701 -0.3271 -0.0249  0.4504
   27TMC2    O5  426   0.321   0.438  12.471  0.2903  0.4772  0.0914
   27TMC2    H5  427   0.280   0.392  12.394  0.9795  2.3633 -1.4185
   28MPD2     C  428   4.090   0.331  12.350 -0.2328 -0.7067 -0.3104
   28MPD2    C1  429   4.130   0.298  12.480  0.3657  0.3300  0.1543
   28MPD2    C2  430   4.263   0.268  12.514 -0.4546 -0.9175  0.2919
   28MPD2    C3  431   4.355   0.263  12.410  0.3899  0.2344 -0.5108
   28MPD2    C4  432   4.317   0.302  12.287  0.4833 -0.1838 -0.1407
   28MPD2    C5  433   4.185   0.332  12.258  0.4179  0.2984 -0.1469
   28MPD2     H  434   4.298   0.230  12.609 -1.2968  0.2691  1.0720
   28MPD2    H1  435   4.384   0.302  12.201  0.2344  0.5285 -0.3391
   28MPD2    H2  436   3.991   0.364  12.323  0.2609 -0.7337 -2.1380
   28MPD2    H3  437   4.159   0.382  12.166  1.1496  0.2354 -0.3898
   28MPD2     N  438   4.486   0.234  12.448  0.0667  0.1162  0.2948
   28MPD2    H5  439   4.505   0.209  12.545 -1.0648 -0.2234  0.4329
   28MPD2    N1  440   4.024   0.287  12.574  0.3908 -0.1992 -0.4552
   28MPD2    H7  441   3.928   0.304  12.545 -0.1401  2.4704  2.8492
   29MPD2     C  442   3.433   2.341  14.369 -0.3453 -0.5573 -0.7027
   29MPD2    C1  443   3.498   2.301  14.482 -0.3043  0.3911  1.0190
   29MPD2    C2  444   3.569   2.383  14.572  0.0451 -0.0139  0.3869
   29MPD2    C3  445   3.572   2.519  14.548 -0.0366  0.0821  0.1454
   29MPD2    C4  446   3.495   2.563  14.440  0.4247  0.2913 -0.5175
   29MPD2    C5  447   3.434   2.478  14.348 -0.6217 -0.2901 -0.2648
   29MPD2     H  448   3.623   2.329  14.649 -0.2010 -1.2645 -0.3273
   29MPD2    H1  449   3.489   2.671  14.431  1.5306  0.3542 -0.5817
   29MPD2    H2  450   3.395   2.287  14.283 -4.5979  1.7381 -0.3220
   29MPD2    H3  451   3.404   2.522  14.254 -0.9122 -2.0346 -0.9913
   29MPD2     N  452   3.641   2.614  14.633  0.3354  0.3844  0.2812
   29MPD2    H5  453   3.627   2.712  14.610 -2.7312 -0.1560 -0.1139
   29MPD2    N1  454   3.514   2.162  14.502  0.3030 -0.0302  0.2387
   29MPD2    H7  455   3.584   2.125  14.566  1.7590  0.0825 -1.2909
   30TCq2    C1  456   3.703   2.579  14.750  0.8095  0.5623  0.3565
   30TCq2    O2  457   3.691   2.475  14.811  0.0543 -0.3637  0.1201
   30TCq2    C2  458   3.747   2.691  14.827  0.2467 -0.2023  0.2660
   30TCq2    C3  459   3.734   2.694  14.963  0.0902 -0.2572  0.1513
   30TCq2    C4  460   3.781   2.806  15.025  0.4978 -0.7814  0.0141
   30TCq2    C5  461   3.828   2.916  14.962  0.2689  0.7895 -0.1677
   30TCq2    C6  462   3.810   2.921  14.835 -0.3930  1.1513  0.3711
   30TCq2    C7  463   3.778   2.809  14.765  0.3655 -0.5924 -0.0225
   30TCq2    C8  464   3.806   3.049  14.757 -0.1334 -0.3078 -0.6396
   30TCq2    O4  465   3.745   3.043  14.650 -0.2724 -0.3831  0.4881
   30TCq2    C9  466   3.785   2.811  15.162  0.1386 -0.3712 -1.0973
   30TCq2    O5  467   3.842   2.904  15.217 -0.2561 -0.5474  0.1002
   30TCq2    O6  468   3.742   2.714  15.227 -0.2026 -0.3033  0.0320
   30TCq2    H2  469   3.700   2.614  15.028 -1.8828 -0.4883 -1.1315
   30TCq2    H3  470   3.853   3.009  15.011 -0.8935  0.6531  0.6828
   30TCq2    H4  471   3.784   2.823  14.658 -1.0962  1.2667  0.1342
   31MPD2     C  472   1.726   1.490  14.834 -0.3131  0.3272 -0.4202
   31MPD2    C1  473   1.606   1.538  14.801 -0.1800  0.1953 -0.3107
   31MPD2    C2  474   1.495   1.523  14.887  0.7671  0.4950  0.3627
   31MPD2    C3  475   1.508   1.444  15.001  0.5986 -0.2129 -0.1418
   31MPD2    C4  476   1.628   1.381  15.017 -0.2630 -0.1439 -0.1239
   31MPD2    C5  477   1.735   1.405  14.938  0.1829 -0.3000 -0.5964
   31MPD2     H  478   1.403   1.575  14.867 -0.0344 -0.7605  0.7856
   31MPD2    H1  479   1.648   1.308  15.094  0.5356  0.0270 -0.1661
   31MPD2    H2  480   1.812   1.517  14.773  0.5876  0.1126  0.7670
   31MPD2    H3  481   1.834   1.370  14.965 -0.1915 -1.8838 -1.2910
   31MPD2     N  482   1.414   1.426  15.106  0.0596  0.4314 -0.7209
   31MPD2    H5  483   1.446   1.363  15.180 -0.1930 -0.0893 -1.0621
   31MPD2    N1  484   1.602   1.613  14.682 -0.1704  0.7869 -0.7917
   31MPD2    H7  485   1.682   1.629  14.623  0.5197 -0.1881 -0.1142
   32TCq2    C1  486   1.295   1.487  15.115 -0.6660  0.0274  0.2560
   32TCq2    O2  487   1.241   1.579  15.059 -0.5853 -0.1726 -0.4439
   32TCq2    C2  488   1.213   1.437  15.235  0.6575 -0.1701  0.1152
   32TCq2    C3  489   1.094   1.499  15.262  0.1902 -0.4026  0.1413
   32TCq2    C4  490   1.031   1.466  15.385  0.1559 -0.0952  0.0198
   32TCq2    C5  491   1.099   1.392  15.484 -0.1105 -0.4702 -0.1917
   32TCq2    C6  492   1.225   1.339  15.454  0.3950  0.6528 -0.3705
   32TCq2    C7  493   1.281   1.362  15.332 -0.3926  0.3606 -0.3883
   32TCq2    C8  494   1.313   1.301  15.568  0.0133  0.3886  0.3073
   32TCq2    O4  495   1.424   1.250  15.541 -0.0718 -0.0086  0.2879
   32TCq2    C9  496   0.905   1.540  15.421  0.2694  0.5330 -0.4640
   32TCq2    O5  497   0.884   1.546  15.549  0.6936  0.5502  0.6859
   32TCq2    O6  498   0.848   1.610  15.334  0.1737 -0.4948  0.2742
   32TCq2    H2  499   1.040   1.560  15.190 -0.8589 -0.4106  0.9337
   32TCq2    H3  500   1.043   1.367  15.574  0.7205  2.4685  1.1553
   32TCq2    H4  501   1.380   1.318  15.332 -0.1618  0.8950 -1.1016
   33MPD2     C  502   1.356   2.886  10.522  0.6527 -0.0742  0.0696
   33MPD2    C1  503   1.474   2.953  10.545 -0.9316  0.1476 -0.0055
   33MPD2    C2  504   1.557   2.979  10.444  0.2325  0.8696 -0.8130
   33MPD2    C3  505   1.526   2.929  10.314  0.1265  0.1421 -0.0857
   33MPD2    C4  506   1.412   2.854  10.296  0.5645  0.3082  0.6834
   33MPD2    C5  507   1.330   2.829  10.400  0.1874 -0.4369 -0.2372
   33MPD2     H  508   1.650   3.035  10.451 -0.2119  1.3218  1.2868
   33MPD2    H1  509   1.376   2.825  10.197 -2.3935  1.6996  1.3404
   33MPD2    H2  510   1.294   2.865  10.609 -0.8370 -1.7682 -1.4180
   33MPD2    H3  511   1.236   2.778  10.385 -2.0260  3.3456  0.9619
   33MPD2     N  512   1.600   2.979  10.204  0.0613  0.0490 -0.4381
   33MPD2    H5  513   1.687   3.024  10.232 -0.6407  1.0622  0.1206
   33MPD2    N1  514   1.498   2.989  10.675 -1.0173 -0.5317 -0.3508
   33MPD2    H7  515   1.424   2.989  10.745 -0.2400 -0.3936  0.4661
   34TCq2    C1  516   1.550   2.985  10.076  0.0607  0.1514 -0.3599
   34TCq2    O2  517   1.444   2.950  10.036 -0.4456 -0.2531  0.3075
   34TCq2    C2  518   1.632   3.060   9.978  0.1287 -0.8397  0.1710
   34TCq2    C3  519   1.589   3.055   9.850  0.2524 -0.0223 -0.8129
   34TCq2    C4  520   1.663   3.115   9.752 -0.4096 -0.4816  0.5900
   34TCq2    C5  521   1.787   3.170   9.776 -0.6736  0.0607  0.5002
   34TCq2    C6  522   1.826   3.180   9.909 -0.3222  0.1482  0.2185
   34TCq2    C7  523   1.748   3.126  10.008  0.0799  0.4898 -0.3042
   34TCq2    C8  524   1.943   3.256   9.945  0.7838  0.1120  0.0789
   34TCq2    O4  525   1.959   3.287  10.060  0.3319  0.8343  0.0788
   34TCq2    C9  526   1.614   3.119   9.621  0.0555  0.2641 -0.1077
   34TCq2    O5  527   1.685   3.168   9.532 -0.6039 -0.2623  0.8045
   34TCq2    O6  528   1.491   3.097   9.616  0.4141 -0.2176 -0.5770
   34TCq2    H2  529   1.499   3.000   9.826  0.2992 -0.7325  0.6138
   34TCq2    H3  530   1.840   3.215   9.693  0.2772  0.2853  1.2346
   34TCq2    H4  531   1.777   3.141  10.112  1.7456  1.5607 -0.9313
   35MPD2     C  532   3.459   1.019  11.688 -0.4646 -0.0465 -0.1046
   35MPD2    C1  533   3.458   0.891  11.743  0.4634 -0.1131  0.5974
   35MPD2    C2  534   3.378   0.792  11.688 -0.1164 -0.3768  0.4968
   35MPD2    C3  535   3.292   0.816  11.585  0.4388  0.1376 -0.6484
   35MPD2    C4  536   3.297   0.942  11.528 -0.5432  0.5050 -0.3545
   35MPD2    C5  537   3.382   1.039  11.575  0.9065 -0.0584 -0.5690
   35MPD2     H  538   3.384   0.695  11.736  0.2789  0.4175  2.0937
   35MPD2    H1  539   3.242   0.968  11.439  0.0823 -0.2055 -0.9460
   35MPD2    H2  540   3.518   1.103  11.724 -0.3664  1.1374 -3.0608
   35MPD2    H3  541   3.396   1.134  11.524 -2.1166 -0.2641 -1.7622
   35MPD2     N  542   3.209   0.703  11.543  0.2567  1.1515 -0.2057
   35MPD2    H5  543   3.213   0.617  11.596  2.8499 -0.1361 -2.4985
   35MPD2    N1  544   3.513   0.873  11.866 -0.1604  0.0798  0.0140
   35MPD2    H7  545   3.531   0.959  11.917  2.6358 -0.5061  0.0382
   36TCq2    C1  546   3.129   0.703  11.432 -0.0961  0.0412  0.2245
   36TCq2    O2  547   3.112   0.799  11.355  0.4179  0.5168  0.4909
   36TCq2    C2  548   3.054   0.575  11.401 -0.3934  0.2422 -0.4557
   36TCq2    C3  549   2.982   0.575  11.281 -0.0977 -0.0224 -0.2760
   36TCq2    C4  550   2.893   0.475  11.257  0.0580  0.3804  0.3443
   36TCq2    C5  551   2.875   0.374  11.345  0.2293 -0.0091  0.1311
   36TCq2    C6  552   2.946   0.374  11.456 -0.1370  0.0832 -0.5138
   36TCq2    C7  553   3.037   0.469  11.491 -0.8157 -0.0931  0.5576
   36TCq2    C8  554   2.932   0.262  11.539  0.4328 -0.2823 -0.2009
   36TCq2    O4  555   2.826   0.196  11.521 -0.3110 -0.0710  0.4825
   36TCq2    C9  556   2.821   0.473  11.133 -0.3682 -0.5533 -0.1826
   36TCq2    O5  557   2.749   0.372  11.116  0.1680  0.3403 -1.1581
   36TCq2    O6  558   2.853   0.563  11.046  0.2595 -0.5023 -0.5323
   36TCq2    H2  559   3.004   0.656  11.213  0.5537  0.9443  1.0728
   36TCq2    H3  560   2.806   0.291  11.331  0.5358 -0.1980 -0.2453
   36TCq2    H4  561   3.101   0.464  11.578 -0.5146  0.0590  0.3455
   37TMC2    C1  562   1.207   4.701  11.357  0.2440 -0.5360 -0.0766
   37TMC2    C2  563   1.278   4.613  11.282  0.1645  0.0865  0.6604
   37TMC2    C3  564   1.408   4.617  11.276  0.6100 -0.0945  0.4177
   37TMC2    C4  565   1.276   0.079  11.418 -0.3647  0.1075  0.4941
   37TMC2    C5  566   1.407   0.086  11.408  0.8380  0.5847 -0.2509
   37TMC2    C6  567   1.480   4.721  11.338  0.0017  0.4354  0.0455
   37TMC2     C  568   1.071   4.670  11.367  0.4429  0.5414  0.4201
   37TMC2     O  569   1.023   4.567  11.321 -0.0082 -0.0712 -0.5835
   37TMC2     H  570   1.227   4.525  11.247  2.1667 -0.9111  0.2732
   37TMC2    H1  571   1.226   0.154  11.478  2.5374  1.4730  1.2254
   37TMC2    H2  572   1.588   4.717  11.334 -0.0731 -0.1740 -1.7206
   37TMC2    C7  573   1.467   0.194  11.484 -1.2333 -0.1851  0.0383
   37TMC2    C8  574   1.478   4.545  11.169 -0.5922 -0.0004  0.6292
   37TMC2    O1  575   1.396   0.288  11.521 -0.2044  0.1171  0.2058
   37TMC2    O2  576   1.415   4.535  11.061 -0.8140  0.5291 -0.0838
   37TMC2    O5  577   1.609   4.527  11.196 -0.6409 -0.0118  0.2561
   37TMC2    H5  578   1.627   4.519  11.292 -1.4011 -0.3550  0.3669
   38MPD2     C  579   0.617   0.043  11.579  0.0847  0.2979  0.7114
   38MPD2    C1  580   0.705   0.152  11.600  0.6332 -0.3031 -0.1748
   38MPD2    C2  581   0.829   0.142  11.551 -0.0627 -0.4106  0.2631
   38MPD2    C3  582   0.870   0.029  11.477 -0.3718  0.1479 -0.6868
   38MPD2    C4  583   0.777   4.656  11.448  0.7341  0.0241  0.4521
   38MPD2    C5  584   0.658   4.662  11.511 -0.5924 -0.2449  0.4526
   38MPD2     H  585   0.895   0.223  11.581  0.9720 -1.3310  0.4729
   38MPD2    H1  586   0.793   4.566  11.389 -0.3901 -1.5491  2.5473
   38MPD2    H2  587   0.525   0.035  11.635 -0.2648 -1.8095 -0.1573
   38MPD2    H3  588   0.586   4.583  11.496 -1.4907  0.4078  1.2914
   38MPD2     N  589   1.005   0.041  11.435  0.2115 -0.7210 -0.2925
   38MPD2    H5  590   1.055   0.124  11.466  0.9221 -1.4689  0.5284
   38MPD2    N1  591   0.681   0.262  11.691  0.1757 -0.0533  0.4792
   38MPD2    H7  592   0.758   0.326  11.706  0.7117 -0.3068 -1.2647
   39MPD2     C  593   2.992   3.036   1.924  0.1572 -0.4884  0.0196
   39MPD2    C1  594   2.894   3.116   1.877 -0.1436 -0.4907  0.4047
   39MPD2    C2  595   2.823   3.085   1.766 -0.6316 -0.0368  0.4690
   39MPD2    C3  596   2.844   2.964   1.706 -0.2217  0.2601  0.2597
   39MPD2    C4  597   2.926   2.873   1.770  0.6400 -0.3702  0.2067
   39MPD2    C5  598   3.015   2.919   1.868  0.2820  0.2464  0.1398
   39MPD2     H  599   2.770   3.168   1.719 -1.6396 -1.2538 -0.5431
   39MPD2    H1  600   2.946   2.774   1.731  1.3960  0.0433 -0.4594
   39MPD2    H2  601   3.052   3.057   2.012  0.9568 -0.8042 -0.4464
   39MPD2    H3  602   3.095   2.856   1.906 -0.7087 -0.3789  1.1952
   39MPD2     N  603   2.778   2.914   1.592 -0.2981 -0.6030 -0.1576
   39MPD2    H5  604   2.804   2.820   1.565 -0.3188 -0.4359 -0.7566
   39MPD2    N1  605   2.882   3.240   1.942  0.5195 -0.3229 -0.3446
   39MPD2    H7  606   2.951   3.263   2.013 -1.8211 -0.9217  2.1196
   40TCq2    C1  607   2.765   3.321   1.927  0.2708 -0.6830  0.1656
   40TCq2    O2  608   2.656   3.291   1.884  0.4225 -0.3064 -0.4499
   40TCq2    C2  609   2.758   3.429   2.027 -0.5261  0.8231 -0.1941
   40TCq2    C3  610   2.646   3.437   2.098  0.3296 -0.5955 -0.2770
   40TCq2    C4  611   2.645   3.500   2.217  0.9400  0.1780 -0.6086
   40TCq2    C5  612   2.758   3.547   2.272 -0.2343  0.1272 -0.4819
   40TCq2    C6  613   2.876   3.530   2.204 -1.0540  0.2365  0.4620
   40TCq2    C7  614   2.879   3.477   2.079  0.2915 -0.3873 -0.0886
   40TCq2    C8  615   2.996   3.579   2.267  0.1041 -0.0123  0.1071
   40TCq2    O4  616   2.986   3.617   2.382  0.0985 -0.1306  0.6896
   40TCq2    C9  617   2.526   3.518   2.279  0.0383 -0.4227 -0.2787
   40TCq2    O5  618   2.520   3.605   2.372  0.1014 -0.3606 -0.1899
   40TCq2    O6  619   2.444   3.423   2.260 -0.2314 -0.4263  0.0560
   40TCq2    H2  620   2.557   3.384   2.065  0.2168 -0.1488 -0.6969
   40TCq2    H3  621   2.755   3.581   2.374  3.8740  0.0347 -0.3438
   40TCq2    H4  622   2.963   3.481   2.011  0.5255 -0.9488  0.1720
   41TMC2    C1  623   2.762   0.365  13.674  0.9157  0.5447  0.0103
   41TMC2    C2  624   2.639   0.310  13.670  0.1861 -0.0871 -0.5349
   41TMC2    C3  625   2.572   0.303  13.551  0.3649  0.0379  0.3966
   41TMC2    C4  626   2.818   0.425  13.567  0.3188 -0.1257  0.0043
   41TMC2    C5  627   2.751   0.419  13.445  0.6507  0.3442 -0.7658
   41TMC2    C6  628   2.632   0.357  13.439 -0.5828  0.1333  0.3712
   41TMC2     C  629   2.844   0.363  13.787  0.1096 -0.0187 -0.7864
   41TMC2     O  630   2.963   0.362  13.764  0.3848  0.1039 -0.0940
   41TMC2     H  631   2.596   0.273  13.763  1.8294  1.8239  0.9969
   41TMC2    H1  632   2.915   0.473  13.566  0.5885 -0.6269  2.4647
   41TMC2    H2  633   2.581   0.357  13.343 -1.4328  0.2891  0.8242
   41TMC2    C7  634   2.800   0.494  13.337  0.5139  0.4639  0.2167
   41TMC2    C8  635   2.445   0.244  13.531 -0.4953 -0.3483 -0.6448
   41TMC2    O1  636   2.767   0.461  13.225  0.0923  0.3936  0.2507
   41TMC2    O2  637   2.402   0.148  13.593  0.1765 -0.3768  1.1757
   41TMC2    O5  638   2.373   0.334  13.454  0.3112 -0.2267 -0.4898
   41TMC2    H5  639   2.406   0.423  13.481  0.7354 -1.0494  1.7607
   42MPD2     C  640   2.983   0.371  14.048 -0.8358  1.3384 -0.3027
   42MPD2    C1  641   2.848   0.355  14.031 -0.4907  0.0844  0.2857
   42MPD2    C2  642   2.767   0.338  14.147  0.7053 -0.7624  0.7701
   42MPD2    C3  643   2.827   0.330  14.274 -0.7525  0.2125  0.7908
   42MPD2    C4  644   2.960   0.350  14.289  0.6198  0.1738  0.1288
   42MPD2    C5  645   3.039   0.372  14.178  0.2124  0.0501 -0.1482
   42MPD2     H  646   2.665   0.306  14.129 -0.3337  2.9620  0.0491
   42MPD2    H1  647   3.007   0.331  14.384  1.7862  3.2918  0.1808
   42MPD2    H2  648   3.045   0.393  13.962 -1.5107 -0.1210 -1.1416
   42MPD2    H3  649   3.145   0.384  14.194  0.0907  0.6876  0.1662
   42MPD2     N  650   2.763   0.308  14.396 -0.0299  0.4742  0.5985
   42MPD2    H5  651   2.814   0.301  14.484 -0.3608 -1.9131  0.5984
   42MPD2    N1  652   2.774   0.350  13.905  0.0050 -0.1720 -0.0858
   42MPD2    H7  653   2.673   0.345  13.903  0.0662 -0.6716 -1.4384
   43MPD2     C  654   3.523   3.304   0.783 -0.1086 -0.3090 -0.0065
   43MPD2    C1  655   3.639   3.343   0.849  0.7761 -0.6107  0.1936
   43MPD2    C2  656   3.647   3.421   0.957  0.0634 -0.2518 -0.2049
   43MPD2    C3  657   3.539   3.496   0.985 -0.2102  0.4970  0.4775
   43MPD2    C4  658   3.417   3.461   0.931 -0.2215 -0.2718 -0.0953
   43MPD2    C5  659   3.411   3.373   0.825 -0.6229 -0.0926  0.3443
   43MPD2     H  660   3.744   3.437   1.003 -0.2703  2.0846 -0.3129
   43MPD2    H1  661   3.331   3.516   0.968  0.9505  0.0061  2.2186
   43MPD2    H2  662   3.517   3.240   0.696 -1.0745 -0.6335  0.2974
   43MPD2    H3  663   3.319   3.359   0.770  0.5115 -1.4311 -1.2093
   43MPD2     N  664   3.543   3.595   1.089 -0.8618 -0.0939 -0.4745
   43MPD2    H5  665   3.451   3.627   1.120 -0.8591  0.5079 -1.0662
   43MPD2    N1  666   3.758   3.292   0.802 -0.4469  0.4210 -0.1598
   43MPD2    H7  667   3.836   3.301   0.865 -0.1324  1.4729 -0.7113
   44TCq2    C1  668   3.780   3.885   1.558 -0.0331 -0.4903 -0.4788
   44TCq2    O2  669   3.900   3.856   1.539 -0.0123 -0.8269  0.4016
   44TCq2    C2  670   3.686   3.854   1.450  0.0011 -0.9894 -0.1432
   44TCq2    C3  671   3.584   3.950   1.433  0.4093 -0.3020  0.6678
   44TCq2    C4  672   3.496   3.943   1.327 -0.0853 -0.0177  0.3791
   44TCq2    C5  673   3.516   3.847   1.230 -0.3572 -0.1434 -0.9089
   44TCq2    C6  674   3.614   3.753   1.246  0.5187  0.5733  0.9510
   44TCq2    C7  675   3.705   3.759   1.349  0.0766 -0.0863  0.0631
   44TCq2    C8  676   3.650   3.654   1.148  0.0468 -0.0025  0.8189
   44TCq2    O4  677   3.768   3.638   1.120  0.2166  0.7193 -0.3514
   44TCq2    C9  678   3.402   4.048   1.302 -0.1794  0.4190 -0.7396
   44TCq2    O5  679   3.395   4.080   1.180 -0.0236 -0.0238 -0.1843
   44TCq2    O6  680   3.373   4.132   1.393  0.1645 -0.2577  0.0774
   44TCq2    H2  681   3.576   4.036   1.498  1.8628  1.9351 -2.1126
   44TCq2    H3  682   3.446   3.840   1.149 -2.5008  0.1745  0.9139
   44TCq2    H4  683   3.793   3.696   1.347 -0.1843 -0.3789 -1.4993
   45TMC2    C1  684   0.219   0.591   9.356 -1.1864 -0.7570 -0.1714
   45TMC2    C2  685   0.184   0.565   9.224 -0.5979 -0.2323  0.7056
   45TMC2    C3  686   0.253   0.634   9.121  0.4786 -0.2176  0.7095
   45TMC2    C4  687   0.325   0.679   9.385 -0.2545  0.8323  0.0335
   45TMC2    C5  688   0.373   0.745   9.280 -0.3283  0.5227  0.7894
   45TMC2    C6  689   0.344   0.722   9.149 -0.1890  0.3498 -0.2055
   45TMC2     C  690   0.145   0.530   9.467 -0.3077  1.2532  0.4413
   45TMC2     O  691   0.193   0.535   9.578 -0.4478  0.4905 -0.7409
   45TMC2     H  692   0.094   0.510   9.199 -0.6137 -0.1331  0.5417
   45TMC2    H1  693   0.353   0.695   9.489  0.7687  0.3671 -0.1674
   45TMC2    H2  694   0.391   0.777   9.068 -1.7029 -1.8310 -2.5503
   45TMC2    C7  695   0.463   0.852   9.308  0.2247 -0.7464  0.9904
   45TMC2    C8  696   0.188   0.649   8.991  0.6381  0.4840  0.3639
   45TMC2    O1  697   0.513   0.896   9.203  0.2623 -0.1312  0.5603
   45TMC2    O2  698   0.190   0.753   8.927  0.1679  0.1132 -0.4454
   45TMC2    O5  699   0.196   0.519   8.943  0.1829  0.1884  0.6012
   45TMC2    H5  700   0.244   0.465   9.009  2.9930  1.1081 -0.6637
   46MPD2     C  701   0.011   0.308   9.622 -0.3489 -0.2495  0.2104
   46MPD2    C1  702   4.696   0.361   9.509 -0.3350  0.4701  0.1253
   46MPD2    C2  703   4.569   0.319   9.458 -0.2033 -0.0228  0.3062
   46MPD2    C3  704   4.490   0.235   9.526 -0.0437 -0.2212  0.2899
   46MPD2    C4  705   4.532   0.189   9.645  0.2999  0.2002  0.1009
   46MPD2    C5  706   4.657   0.221   9.690  0.1945 -0.1653  0.1900
   46MPD2     H  707   4.528   0.355   9.365  0.7290 -0.3437 -0.2280
   46MPD2    H1  708   4.474   0.127   9.712 -1.9315  1.1801 -0.9185
   46MPD2    H2  709   0.099   0.330   9.682 -0.5514 -1.3165  0.8929
   46MPD2    H3  710   4.685   0.182   9.787  1.9135  2.8182  0.8995
   46MPD2     N  711   4.379   0.186   9.467 -0.7821  0.2006  0.1864
   46MPD2    H5  712   4.360   0.204   9.369 -0.9598  1.2895  0.4217
   46MPD2    N1  713   0.042   0.439   9.422 -0.0606  0.1153  0.4437
   46MPD2    H7  714   0.011   0.440   9.326 -1.5095 -1.3013  0.9181
   47TMC2    C1  715   2.362   0.595   9.500  0.3604  0.6870 -0.4572
   47TMC2    C2  716   2.404   0.474   9.465 -0.1602  0.4653  0.3026
   47TMC2    C3  717   2.330   0.409   9.379 -0.1893  0.5505  0.2531
   47TMC2    C4  718   2.241   0.647   9.456  0.7305 -0.0758 -0.8559
   47TMC2    C5  719   2.157   0.570   9.379  0.2060  0.0660 -0.1722
   47TMC2    C6  720   2.204   0.451   9.334 -0.6536 -0.4387  0.1750
   47TMC2     C  721   2.443   0.654   9.605 -0.5819 -0.2350 -0.4425
   47TMC2     O  722   2.420   0.771   9.630 -0.1251 -0.0089 -0.4535
   47TMC2     H  723   2.498   0.432   9.500 -0.2516  1.2556  1.4985
   47TMC2    H1  724   2.220   0.754   9.461  0.0349 -0.3361  1.5501
   47TMC2    H2  725   2.145   0.396   9.262  1.8755 -0.9484 -1.5190
   47TMC2    C7  726   2.046   0.621   9.305 -0.4634 -0.3903  0.3513
   47TMC2    C8  727   2.380   0.280   9.337  0.8092 -0.2175  0.2336
   47TMC2    O1  728   2.019   0.561   9.202  0.3402  0.5865 -0.3525
   47TMC2    O2  729   2.496   0.250   9.348 -0.4147 -0.0434  0.1640
   47TMC2    O5  730   2.278   0.213   9.279  0.4795  0.7059  0.5831
   47TMC2    H5  731   2.197   0.224   9.333 -0.1931 -1.1870 -0.0303
   48MPD2     C  732   2.594   0.710   9.852  0.5250  0.2968 -0.0690
   48MPD2    C1  733   2.576   0.583   9.805 -0.1972 -0.0622  0.2215
   48MPD2    C2  734   2.640   0.471   9.860  0.6373 -0.6520  0.2462
   48MPD2    C3  735   2.700   0.486   9.981 -0.9772  0.4119  0.0282
   48MPD2    C4  736   2.701   0.612  10.038  0.2737  0.0150  0.3274
   48MPD2    C5  737   2.641   0.723   9.979 -0.4039  0.3921  0.1555
   48MPD2     H  738   2.648   0.375   9.812  0.3983 -0.7349  0.3709
   48MPD2    H1  739   2.747   0.634  10.133  0.0934 -1.0521  0.6638
   48MPD2    H2  740   2.558   0.794   9.793 -0.7404 -0.0482  0.2084
   48MPD2    H3  741   2.644   0.814  10.038  0.5586  0.8508 -0.6050
   48MPD2     N  742   2.756   0.367  10.039  0.2530 -0.4196  0.2988
   48MPD2    H5  743   2.741   0.277   9.994  0.8583 -0.2242 -0.2955
   48MPD2    N1  744   2.506   0.561   9.681  0.3237  0.0619  0.2603
   48MPD2    H7  745   2.481   0.466   9.653  0.5835  0.6205 -1.8761
   49MPD2     C  746   0.971   2.685  11.060 -0.9217 -0.1380  0.6916
   49MPD2    C1  747   0.845   2.741  11.072 -0.1363 -0.0631  0.2302
   49MPD2    C2  748   0.783   2.740  11.193  0.3294  0.0292 -0.2700
   49MPD2    C3  749   0.843   2.688  11.310 -0.0319  0.1590 -0.0385
   49MPD2    C4  750   0.965   2.628  11.287  0.3328 -0.0087  0.5902
   49MPD2    C5  751   1.030   2.629  11.166  0.4537  0.2579 -0.1065
   49MPD2     H  752   0.691   2.798  11.195  1.0181  1.1185  0.1528
   49MPD2    H1  753   1.018   2.567  11.360 -1.0691  0.4491  2.0035
   49MPD2    H2  754   1.021   2.686  10.965 -3.4813  3.0010 -0.6164
   49MPD2    H3  755   1.131   2.592  11.152  0.5734  1.0070 -1.2934
   49MPD2     N  756   0.802   2.710  11.443  0.3980  0.1526  0.0477
   49MPD2    H5  757   0.846   2.668  11.524  0.2615 -4.3442 -2.2072
   49MPD2    N1  758   0.785   2.813  10.964  0.3815 -0.7946 -0.1512
   49MPD2    H7  759   0.688   2.842  10.973  0.9716  1.4960 -1.1353
   50TCq2    C1  760   0.845   2.853  10.843 -0.0578 -0.3274  0.0739
   50TCq2    O2  761   0.960   2.847  10.802 -0.6533  0.2475  0.6449
   50TCq2    C2  762   0.765   2.941  10.758 -0.2604 -0.4955 -0.5454
   50TCq2    C3  763   0.820   3.039  10.683 -0.1759  0.1660 -0.0644
   50TCq2    C4  764   0.739   3.114  10.602  0.2933 -0.2721  0.0607
   50TCq2    C5  765   0.599   3.097  10.609  0.4850  0.0474  0.4321
   50TCq2    C6  766   0.543   2.997  10.684 -0.0199  0.3275  0.1817
   50TCq2    C7  767   0.626   2.921  10.759 -0.3032  0.2848  0.3260
   50TCq2    C8  768   0.399   2.977  10.680  0.2757  0.0689 -0.6344
   50TCq2    O4  769   0.345   3.048  10.594  0.9525 -0.1705 -0.2260
   50TCq2    C9  770   0.798   3.224  10.528 -0.0114  0.2292  0.1150
   50TCq2    O5  771   0.731   3.274  10.435 -0.0386 -0.0780  0.6524
   50TCq2    O6  772   0.915   3.260  10.561  0.8329 -0.2100 -0.6201
   50TCq2    H2  773   0.927   3.055  10.684 -0.0323 -0.8223  0.7312
   50TCq2    H3  774   0.538   3.159  10.544 -0.9234 -1.9719 -0.2149
   50TCq2    H4  775   0.590   2.827  10.800  1.7314 -0.8926 -0.5675
   51MPD2     C  776   0.792   1.356   1.439 -0.3536 -0.3950  0.0775
   51MPD2    C1  777   0.681   1.334   1.362 -0.7045  0.9687  0.1666
   51MPD2    C2  778   0.589   1.436   1.357  0.0757 -0.1452  0.3884
   51MPD2    C3  779   0.599   1.551   1.429  0.5034  0.1689 -0.6307
   51MPD2    C4  780   0.709   1.574   1.502 -0.3800  0.2149  0.7253
   51MPD2    C5  781   0.807   1.479   1.501  0.0156 -0.3758 -1.3831
   51MPD2     H  782   0.504   1.424   1.291  0.0368 -0.1430  0.4383
   51MPD2    H1  783   0.713   1.670   1.553  1.2695  1.8079 -2.3263
   51MPD2    H2  784   0.881   1.294   1.433  0.0564  0.0528  1.4732
   51MPD2    H3  785   0.893   1.490   1.566 -0.0718 -1.0552 -1.1455
   51MPD2     N  786   0.509   1.662   1.420 -0.0209  0.1191  0.3410
   51MPD2    H5  787   0.523   1.740   1.483 -0.1314  0.1319  0.3491
   51MPD2    N1  788   0.661   1.219   1.281 -0.5365 -0.0319 -0.6263
   51MPD2    H7  789   0.573   1.203   1.234  0.1950 -0.5942 -1.8259
   52TCq2    C1  790   0.393   1.665   1.347  0.6268 -0.1657 -1.1759
   52TCq2    O2  791   0.353   1.577   1.271  0.3191  0.2389  0.1566
   52TCq2    C2  792   0.353   1.803   1.332  0.1966 -0.2784 -0.2762
   52TCq2    C3  793   0.223   1.822   1.287  0.1104  0.1023  0.4036
   52TCq2    C4  794   0.182   1.943   1.249 -0.6823 -0.1596  0.5833
   52TCq2    C5  795   0.266   2.048   1.239 -0.3355  0.2355 -0.0600
   52TCq2    C6  796   0.394   2.024   1.273 -0.6271 -0.2036  1.5390
   52TCq2    C7  797   0.442   1.903   1.327 -0.3182 -0.4867  0.1895
   52TCq2    C8  798   0.494   2.135   1.261  0.1195 -0.1712  0.5650
   52TCq2    O4  799   0.582   2.153   1.347  0.5194  0.7313 -0.4548
   52TCq2    C9  800   0.057   1.960   1.185  0.2355 -0.1527  0.5521
   52TCq2    O5  801   4.714   1.860   1.172 -0.0035 -0.1111 -0.1323
   52TCq2    O6  802   0.034   2.074   1.134  0.0900  0.2057 -0.2870
   52TCq2    H2  803   0.155   1.740   1.269  0.9746 -0.1049 -1.9482
   52TCq2    H3  804   0.230   2.141   1.197  2.3178  1.5524  0.5591
   52TCq2    H4  805   0.550   1.892   1.332  0.0872  2.9065 -1.1455
   53TMC2    C1  806   1.654   0.658  12.047  0.1605  0.7094  0.3758
   53TMC2    C2  807   1.721   0.710  12.145  0.5174  0.1817  0.7399
   53TMC2    C3  808   1.661   0.776  12.248  0.1219  0.7291  0.6485
   53TMC2    C4  809   1.512   0.674  12.037  0.0818 -0.6958  0.5827
   53TMC2    C5  810   1.455   0.747  12.138  0.5530  0.3217  0.7145
   53TMC2    C6  811   1.528   0.796  12.241 -0.1309 -0.8392  0.7136
   53TMC2     C  812   1.720   0.550  11.979 -0.1896  0.3308  0.2616
   53TMC2     O  813   1.827   0.520  12.026 -0.3409  0.3994  0.0375
   53TMC2     H  814   1.828   0.697  12.136  0.4601  1.2822 -1.5399
   53TMC2    H1  815   1.452   0.638  11.955 -1.7869  2.5107  0.5627
   53TMC2    H2  816   1.475   0.863  12.308 -0.3872  0.1340 -0.4813
   53TMC2    C7  817   1.315   0.778  12.121  0.8485 -0.0329 -0.5221
   53TMC2    C8  818   1.752   0.829  12.350  0.3403 -0.3624  0.2903
   53TMC2    O1  819   1.266   0.746  12.014 -0.0042 -0.5513  0.0775
   53TMC2    O2  820   1.872   0.802  12.346  0.1288 -0.0440  0.3533
   53TMC2    O5  821   1.699   0.943  12.404  0.2316 -0.3216  0.2108
   53TMC2    H5  822   1.601   0.951  12.398  0.1978 -0.7580  0.1844
   54MPD2     C  823   1.838   0.333  11.811 -0.3868  0.4465  0.0985
   54MPD2    C1  824   1.707   0.374  11.805 -0.4494 -0.2704 -0.2096
   54MPD2    C2  825   1.619   0.323  11.706 -0.9797  0.6952 -0.4960
   54MPD2    C3  826   1.669   0.220  11.626  0.1427 -0.0908  0.2871
   54MPD2    C4  827   1.803   0.179  11.637 -0.3544 -0.1641 -0.3685
   54MPD2    C5  828   1.883   0.227  11.735  0.5782  0.6628  0.3326
   54MPD2     H  829   1.525   0.374  11.687 -1.5789  0.0951  0.8188
   54MPD2    H1  830   1.847   0.101  11.576 -0.6632 -1.8498  1.5352
   54MPD2    H2  831   1.910   0.380  11.877 -1.6871  0.7180  1.3313
   54MPD2    H3  832   1.989   0.205  11.742  0.7149  1.2559  0.1578
   54MPD2     N  833   1.594   0.161  11.519  0.0690  0.4500  0.4912
   54MPD2    H5  834   1.639   0.087  11.465  0.7387 -1.3689  3.4976
   54MPD2    N1  835   1.660   0.491  11.872  0.3925  0.3426  0.7581
   54MPD2    H7  836   1.564   0.508  11.846  1.3221  2.1113 -1.5232
   55MPD2     C  837   1.826   4.127  17.358 -0.2691  0.3719  0.8257
   55MPD2    C1  838   1.843   4.008  17.425  0.2867  0.3795 -0.5425
   55MPD2    C2  839   1.751   3.979  17.523 -0.0968 -0.6092 -0.6346
   55MPD2    C3  840   1.649   4.066  17.555 -0.3117 -0.7969  0.5960
   55MPD2    C4  841   1.623   4.176  17.476 -0.0340  0.9780  0.1185
   55MPD2    C5  842   1.715   4.212  17.375 -0.7913 -0.4420  0.0145
   55MPD2     H  843   1.759   3.885  17.576  0.0803 -0.4054 -0.3035
   55MPD2    H1  844   1.538   4.239  17.500  0.6908  2.3247 -0.8484
   55MPD2    H2  845   1.892   4.156  17.277  0.3312  2.8193  2.1862
   55MPD2    H3  846   1.704   4.296  17.308  0.6968 -1.1317 -1.0979
   55MPD2     N  847   1.564   4.020  17.662 -0.0465  0.3607 -0.6384
   55MPD2    H5  848   1.601   3.939  17.712 -0.1438  1.1736  0.7403
   55MPD2    N1  849   1.955   3.929  17.389  0.3466 -0.3177 -0.1857
   55MPD2    H7  850   2.017   3.975  17.322  0.7047 -0.3049  0.1523
   56TCq2    C1  851   1.964   3.797  17.435  0.2989 -0.2787 -0.0637
   56TCq2    O2  852   1.891   3.730  17.507 -0.1937 -0.3229  0.4464
   56TCq2    C2  853   2.088   3.735  17.385 -0.4983  0.2425  0.6351
   56TCq2    C3  854   2.182   3.802  17.302  0.3653 -0.1864  0.3044
   56TCq2    C4  855   2.292   3.726  17.263 -0.2698  0.2591  0.2514
   56TCq2    C5  856   2.307   3.592  17.290  0.2029 -0.3816  0.4525
   56TCq2    C6  857   2.204   3.527  17.358  0.2529 -0.4834  0.9889
   56TCq2    C7  858   2.102   3.596  17.412  0.5447  0.5505  0.3061
   56TCq2    C8  859   2.231   3.387  17.377  0.0936 -0.3560  0.3900
   56TCq2    O4  860   2.339   3.346  17.334 -0.4032  0.1231 -0.9619
   56TCq2    C9  861   2.396   3.796  17.194  0.0644 -0.5737  0.1519
   56TCq2    O5  862   2.356   3.903  17.138 -0.5657  0.4443  0.0224
   56TCq2    O6  863   2.509   3.742  17.181  0.2120  0.4084 -0.1411
   56TCq2    H2  864   2.178   3.907  17.276  1.0009 -0.7125 -1.9843
   56TCq2    H3  865   2.390   3.552  17.233 -0.8583  0.8453 -1.9820
   56TCq2    H4  866   2.033   3.548  17.480  0.3871  0.4733  0.0909
   57TMC2    C1  867   1.026   4.098  13.450 -0.0813  0.4551 -0.3994
   57TMC2    C2  868   1.146   4.161  13.449  0.5097 -0.2497  0.6482
   57TMC2    C3  869   1.251   4.110  13.371 -0.1097 -0.0143  0.1957
   57TMC2    C4  870   1.016   3.977  13.385 -0.3274  0.0047  0.0175
   57TMC2    C5  871   1.120   3.928  13.313  0.4938  0.5177 -0.7883
   57TMC2    C6  872   1.238   3.992  13.300 -0.1370 -0.5160 -0.6067
   57TMC2     C  873   0.924   4.128  13.544  0.0922 -0.5280  0.4268
   57TMC2     O  874   0.957   4.189  13.644 -0.3072  0.8642  0.3144
   57TMC2     H  875   1.158   4.246  13.516  1.4915 -0.4599  0.7302
   57TMC2    H1  876   0.945   3.901  13.416  1.1657  0.1857  3.8802
   57TMC2    H2  877   1.322   3.962  13.238  0.9709  0.1007  0.6003
   57TMC2    C7  878   1.093   3.815  13.225 -0.0164 -0.1908  0.1105
   57TMC2    C8  879   1.361   4.196  13.331 -0.0883  0.0589 -0.1070
   57TMC2    O1  880   0.978   3.805  13.200 -0.2756 -0.1600  0.3664
   57TMC2    O2  881   1.415   4.185  13.219 -0.0610  0.2189 -0.8767
   57TMC2    O5  882   1.362   4.316  13.390 -0.4999  0.4461  0.0840
   57TMC2    H5  883   1.331   4.318  13.483 -0.3751  0.0449  0.1376
   58MPD2     C  884   0.440   4.088  13.731  0.0743  0.5599  0.2449
   58MPD2    C1  885   0.549   4.163  13.780 -0.7058  0.7687  0.0123
   58MPD2    C2  886   0.669   4.152  13.710  0.0105 -0.7321 -0.2977
   58MPD2    C3  887   0.688   4.077  13.597 -0.5166  0.4717  0.2692
   58MPD2    C4  888   0.576   4.015  13.544  0.3633  0.2779  0.4122
   58MPD2    C5  889   0.451   4.032  13.606  0.7505  0.0380  0.8577
   58MPD2     H  890   0.746   4.220  13.745  1.5128 -1.9033 -1.2932
   58MPD2    H1  891   0.572   3.966  13.448  0.6291  0.5020  0.2887
   58MPD2    H2  892   0.342   4.096  13.775  0.9948 -0.7189  2.5345
   58MPD2    H3  893   0.362   3.991  13.559 -1.3558  4.1456  1.2889
   58MPD2     N  894   0.803   4.074  13.515  0.8783 -0.7738 -0.5499
   58MPD2    H5  895   0.807   4.013  13.434  2.3468  1.0906 -1.8734
   58MPD2    N1  896   0.542   4.255  13.892  0.3454 -0.0192 -0.2674
   58MPD2    H7  897   0.629   4.304  13.911  0.4214 -0.3197  0.1693
   59MPD2     C  898   3.632   4.600  13.068  0.0000 -0.5375  0.6235
   59MPD2    C1  899   3.732   4.588  12.970 -0.1014 -0.2276 -0.2605
   59MPD2    C2  900   3.857   4.640  12.996  0.4060 -0.1582  0.5642
   59MPD2    C3  901   3.886   4.706  13.118 -0.6537 -0.5776 -0.2691
   59MPD2    C4  902   3.787   4.706  13.216 -0.2830 -0.2783 -0.2977
   59MPD2    C5  903   3.660   4.652  13.194 -0.0177 -0.3854  0.9695
   59MPD2     H  904   3.927   4.637  12.913 -0.6911  1.1108 -0.4283
   59MPD2    H1  905   3.801   0.024  13.313 -0.5444 -0.1896 -0.3033
   59MPD2    H2  906   3.540   4.544  13.062 -0.1961 -0.4359  2.7232
   59MPD2    H3  907   3.587   4.641  13.272  1.7386  0.0815  2.6697
   59MPD2     N  908   4.005   0.052  13.141 -0.3667 -0.1444  0.4112
   59MPD2    H5  909   4.017   0.101  13.229  1.4627  0.2188 -0.0435
   59MPD2    N1  910   3.718   4.528  12.841  0.4403 -0.1562 -0.1981
   59MPD2    H7  911   3.796   4.534  12.776  0.4529  0.2584 -0.1403
   60TCq2    C1  912   3.609   4.465  12.795 -0.1163  0.9984  0.5989
   60TCq2    O2  913   3.501   4.444  12.846 -0.1610  0.2085  0.3109
   60TCq2    C2  914   3.607   4.435  12.648  0.1532 -0.1400 -0.4109
   60TCq2    C3  915   3.508   4.349  12.606  0.1023  0.0623  0.3550
   60TCq2    C4  916   3.512   4.320  12.475 -0.4159 -0.8050 -0.1254
   60TCq2    C5  917   3.596   4.379  12.384 -1.2415 -0.3555  0.6896
   60TCq2    C6  918   3.695   4.450  12.434  0.9860  0.2970  0.1542
   60TCq2    C7  919   3.707   4.484  12.569 -0.0285 -0.2114 -0.1820
   60TCq2    C8  920   3.784   4.519  12.341  0.5995 -0.4661 -0.4168
   60TCq2    O4  921   3.824   4.453  12.249  0.0950  0.5394 -0.4280
   60TCq2    C9  922   3.408   4.234  12.423  0.0948  0.4652  0.0155
   60TCq2    O5  923   3.419   4.202  12.302  0.3200  0.0359 -0.2708
   60TCq2    O6  924   3.341   4.170  12.508  0.4188 -0.3217 -0.5835
   60TCq2    H2  925   3.424   4.317  12.668  1.0063 -0.3222  1.3825
   60TCq2    H3  926   3.585   4.365  12.277  2.5065  2.1289 -0.0658
   60TCq2    H4  927   3.774   4.559  12.609 -0.2313  0.2916 -0.7857
   61MPD2     C  928   2.641   0.659  14.544  0.4404  0.0355 -0.7093
   61MPD2    C1  929   2.661   0.774  14.608 -0.4113  0.4571  0.4348
   61MPD2    C2  930   2.607   0.897  14.558 -1.0140  0.1842  0.6141
   61MPD2    C3  931   2.527   0.896  14.447  0.3309 -0.0460  0.2125
   61MPD2    C4  932   2.501   0.773  14.387  0.3340  0.1424 -0.8362
   61MPD2    C5  933   2.555   0.654  14.438 -0.0170  0.1324  0.1336
   61MPD2     H  934   2.634   0.987  14.612  0.4415  0.1274 -0.0028
   61MPD2    H1  935   2.416   0.773  14.319 -1.4758  1.3811  1.4322
   61MPD2    H2  936   2.669   0.567  14.594 -2.4302 -0.4559  0.0342
   61MPD2    H3  937   2.527   0.562  14.387 -0.6395  0.2080  0.3409
   61MPD2     N  938   2.457   1.010  14.400  0.0412  0.6274  0.5994
   61MPD2    H5  939   2.379   1.005  14.336  1.3063 -1.4043 -0.7922
   61MPD2    N1  940   2.728   0.778  14.734 -0.6153  0.5815 -0.9107
   61MPD2    H7  941   2.741   0.866  14.783 -0.0423 -0.9551  1.7018
   62TCq2    C1  942   2.790   0.673  14.794 -0.1384  0.0983  0.7107
   62TCq2    O2  943   2.807   0.554  14.770 -0.3421  0.7253  0.1611
   62TCq2    C2  944   2.829   0.716  14.930 -0.0772  0.3792  0.1175
   62TCq2    C3  945   2.965   0.705  14.959 -0.5743 -0.1369  0.2798
   62TCq2    C4  946   3.021   0.785  15.057 -0.4563 -0.0320  0.9388
   62TCq2    C5  947   2.945   0.885  15.116  0.2368  0.2432  0.2293
   62TCq2    C6  948   2.809   0.894  15.093  0.8000 -1.1217  0.4715
   62TCq2    C7  949   2.752   0.804  15.003 -0.0626  0.6283 -0.1484
   62TCq2    C8  950   2.743   1.015  15.125 -0.0669  0.0563  0.0408
   62TCq2    O4  951   2.803   1.122  15.111  0.5956 -0.2464 -0.1688
   62TCq2    C9  952   3.166   0.771  15.087 -0.2024 -0.0191  0.5965
   62TCq2    O5  953   3.224   0.865  15.140 -0.1037 -0.0822 -0.0346
   62TCq2    O6  954   3.217   0.658  15.073 -0.2438  0.7786  0.8305
   62TCq2    H2  955   3.034   0.633  14.916  0.6662  1.2237 -0.0083
   62TCq2    H3  956   2.998   0.955  15.180 -0.6878  0.7512  0.4346
   62TCq2    H4  957   2.649   0.816  14.972 -0.1457  0.5051  0.0807
   63TMC2    C1  958   2.339   0.910  10.940 -0.1730  0.1563 -0.4736
   63TMC2    C2  959   2.409   1.003  11.014 -0.7319  0.0004 -0.1033
   63TMC2    C3  960   2.512   1.064  10.950  0.3330  0.3835 -0.2893
   63TMC2    C4  961   2.381   0.872  10.814  0.6717  0.3255  0.1058
   63TMC2    C5  962   2.501   0.917  10.767  0.6710  0.0346 -1.3977
   63TMC2    C6  963   2.561   1.026  10.830  0.1211 -0.2133 -0.0701
   63TMC2     C  964   2.213   0.851  10.995 -0.9199 -0.2664  0.6391
   63TMC2     O  965   2.147   0.912  11.078 -0.1992 -0.7732  0.0136
   63TMC2     H  966   2.387   1.021  11.118 -0.5397  0.0027 -0.0631
   63TMC2    H1  967   2.316   0.820  10.744 -0.8416  2.8271 -0.3581
   63TMC2    H2  968   2.652   1.069  10.790 -0.1561  0.4335 -0.0196
   63TMC2    C7  969   2.514   0.914  10.620  0.3344  0.6552  0.0300
   63TMC2    C8  970   2.607   1.142  11.028  0.1851  0.4578 -0.6644
   63TMC2    O1  971   2.424   0.867  10.546 -0.2808 -0.1395  0.3675
   63TMC2    O2  972   2.721   1.168  10.992 -0.0764 -0.2404  0.1842
   63TMC2    O5  973   2.530   1.204  11.121  0.2849 -0.0047  0.3699
   63TMC2    H5  974   2.440   1.190  11.083  0.8491  1.3450 -1.4978
   64MPD2     C  975   1.915   0.436  11.022  0.5928 -0.2880  0.7118
   64MPD2    C1  976   2.009   0.419  10.921 -0.4536  0.4753 -1.0587
   64MPD2    C2  977   2.072   0.533  10.874 -0.3944 -1.0299  0.3412
   64MPD2    C3  978   2.066   0.654  10.936  0.3923 -0.6447 -0.7428
   64MPD2    C4  979   1.964   0.673  11.023 -0.4844  0.1142  0.4775
   64MPD2    C5  980   1.892   0.564  11.066 -0.2309 -0.0049 -0.3031
   64MPD2     H  981   2.151   0.516  10.802 -0.6322  0.6299 -0.3135
   64MPD2    H1  982   1.940   0.760  11.082  0.0225  1.9269 -1.9878
   64MPD2    H2  983   1.872   0.357  11.082 -2.1651  1.3200  0.8918
   64MPD2    H3  984   1.811   0.569  11.139  0.4135  0.4195  0.3833
   64MPD2     N  985   2.182   0.738  10.924 -1.4352 -0.4106  0.6650
   64MPD2    H5  986   2.259   0.695  10.875  0.8913  1.9021  2.2738
   64MPD2    N1  987   2.048   0.299  10.864 -0.0086  0.1387  0.1445
   64MPD2    H7  988   2.110   0.307  10.784 -2.5304 -1.4327 -1.9540
   65MPD2     C  989   3.049   0.594  15.964  0.4221 -0.0644 -0.1329
   65MPD2    C1  990   3.160   0.627  15.894 -0.4896  0.3836 -0.1766
   65MPD2    C2  991   3.246   0.528  15.846 -0.3378  0.8270  0.1312
   65MPD2    C3  992   3.214   0.395  15.857 -0.0683 -0.4649 -0.1800
   65MPD2    C4  993   3.096   0.364  15.920  0.1380 -0.7399  0.3387
   65MPD2    C5  994   3.018   0.461  15.975 -0.1008 -0.1671 -0.1788
   65MPD2     H  995   3.331   0.558  15.784  0.0407  0.7082  0.5957
   65MPD2    H1  996   3.061   0.261  15.923  1.7000 -1.3012 -0.8625
   65MPD2    H2  997   2.981   0.671  16.000 -0.3925 -0.6198 -0.4747
   65MPD2    H3  998   2.933   0.435  16.036  1.0844 -0.2877  1.4275
   65MPD2     N  999   3.282   0.292  15.792  0.3305 -0.1459 -0.9635
   65MPD2    H5 1000   3.243   0.199  15.805 -1.3312  0.7273  0.2635
   65MPD2    N1 1001   3.188   0.758  15.845  0.0417 -0.4167  0.5026
   65MPD2    H7 1002   3.265   0.775  15.782 -0.0728 -0.7978  0.2621
   66TCq2    C1 1003   3.122   0.876  15.878  0.4318 -0.0448 -0.1210
   66TCq2    O2 1004   3.031   0.885  15.955 -0.0374 -0.2352  0.2850
   66TCq2    C2 1005   3.175   0.992  15.808 -0.3320 -0.3766  0.4637
   66TCq2    C3 1006   3.271   0.972  15.709  0.3834 -0.0182  0.6067
   66TCq2    C4 1007   3.341   1.084  15.667  0.2844 -0.1752  0.6820
   66TCq2    C5 1008   3.310   1.210  15.714  0.5047  0.4243  0.0295
   66TCq2    C6 1009   3.221   1.222  15.815 -0.4848  0.8989 -0.1226
   66TCq2    C7 1010   3.147   1.121  15.858 -0.5927  0.4572  0.1920
   66TCq2    C8 1011   3.170   1.353  15.839  0.1916  0.0943  0.1092
   66TCq2    O4 1012   3.177   1.428  15.742  0.2313 -0.6321 -0.1001
   66TCq2    C9 1013   3.426   1.070  15.546 -0.3648 -0.0457  0.3165
   66TCq2    O5 1014   3.437   0.957  15.487  0.3986  0.1098 -0.0712
   66TCq2    O6 1015   3.467   1.172  15.501 -0.1566  0.1818 -0.0567
   66TCq2    H2 1016   3.296   0.879  15.658  2.5234  2.9669 -3.7664
   66TCq2    H3 1017   3.349   1.294  15.658  0.8781  0.1666 -0.1022
   66TCq2    H4 1018   3.067   1.127  15.931  0.7890 -0.1152  1.7465
   67MPD2     C 1019   3.658   4.586  14.018  0.8028  0.4246  0.6965
   67MPD2    C1 1020   3.594   4.673  14.099  0.1290  0.1792  0.5122
   67MPD2    C2 1021   3.462   4.710  14.073 -0.1307  0.5779  0.2601
   67MPD2    C3 1022   3.381   4.636  13.980  0.6896 -0.7989 -0.3541
   67MPD2    C4 1023   3.452   4.552  13.899  0.6461 -0.2208 -0.5387
   67MPD2    C5 1024   3.587   4.529  13.916  0.7205 -1.3057  0.1859
   67MPD2     H 1025   3.409   0.053  14.135  1.4895  2.3805 -0.4171
   67MPD2    H1 1026   3.398   4.500  13.820  1.9113 -0.9161 -0.9410
   67MPD2    H2 1027   3.760   4.557  14.037  0.9738 -0.5312 -1.6311
   67MPD2    H3 1028   3.635   4.459  13.849  2.5391  0.0032  0.1319
   67MPD2     N 1029   3.240   4.639  13.965  0.1432  0.4972  0.0570
   67MPD2    H5 1030   3.204   4.571  13.898 -0.5613 -0.7206  1.6606
   67MPD2    N1 1031   3.666   0.016  14.198  0.2135 -0.6596 -0.5322
   67MPD2    H7 1032   3.616   0.082  14.258  0.9475  0.1969 -0.8739
   68TCq2    C1 1033   3.792   4.722  14.243  0.4546  0.4144  0.1009
   68TCq2    O2 1034   3.879   4.638  14.219  0.1214 -0.4172 -0.1647
   68TCq2    C2 1035   3.829   0.086  14.353  0.4127 -0.3350 -0.4010
   68TCq2    C3 1036   3.745   0.185  14.391 -0.3218  0.0147  0.1277
   68TCq2    C4 1037   3.781   0.264  14.498 -0.2546 -0.3174  0.4537
   68TCq2    C5 1038   3.897   0.235  14.571  0.2381  0.1488 -0.1534
   68TCq2    C6 1039   3.969   0.125  14.535  0.2064  0.2439  0.1138
   68TCq2    C7 1040   3.937   0.049  14.425 -0.2133  1.1246 -0.4454
   68TCq2    C8 1041   4.058   0.063  14.634  0.4994 -0.7199  0.6547
   68TCq2    O4 1042   4.135   4.696  14.609  0.2581  0.5315  0.0969
   68TCq2    C9 1043   3.694   0.375  14.528  0.3748  0.2717 -0.0860
   68TCq2    O5 1044   3.601   0.392  14.447 -0.3119 -0.1843 -0.1954
   68TCq2    O6 1045   3.712   0.439  14.635  0.7352 -0.0689  0.8999
   68TCq2    H2 1046   3.662   0.215  14.329 -0.5867 -0.2878  0.3392
   68TCq2    H3 1047   3.939   0.303  14.644  0.0703  1.1604 -0.9869
   68TCq2    H4 1048   4.002   4.697  14.392  0.5105  1.0070  1.2912
   69TMC2    C1 1049   1.173   1.131  12.657 -0.1357  0.5305  0.1994
   69TMC2    C2 1050   1.169   1.250  12.731 -0.6718 -0.3436 -0.5918
   69TMC2    C3 1051   1.276   1.338  12.715 -0.3112 -0.1542 -0.0713
   69TMC2    C4 1052   1.277   1.099  12.583 -0.0989 -0.5780 -0.5308
   69TMC2    C5 1053   1.369   1.199  12.557 -0.0536 -0.6531 -0.3380
   69TMC2    C6 1054   1.373   1.321  12.622  0.1445 -0.2035 -0.6242
   69TMC2     C 1055   1.086   1.023  12.704 -0.0404  0.4908  0.6773
   69TMC2     O 1056   1.130   0.909  12.700  0.2220  1.1546  0.5368
   69TMC2     H 1057   1.089   1.277  12.799  1.9365 -2.0091  3.1693
   69TMC2    H1 1058   1.277   1.002  12.534 -0.4737 -1.5410  1.3665
   69TMC2    H2 1059   1.458   1.387  12.607 -1.3418  1.7780 -0.3971
   69TMC2    C7 1060   1.439   1.183  12.428  0.3403 -0.9098 -0.2282
   69TMC2    C8 1061   1.237   1.473  12.747  0.5097  0.3485  0.2877
   69TMC2    O1 1062   1.453   1.069  12.391  0.4449 -0.1266  0.7458
   69TMC2    O2 1063   1.260   1.526  12.857  0.7136 -0.2401 -0.4352
   69TMC2    O5 1064   1.271   1.538  12.637  0.4852  0.1765 -0.3535
   69TMC2    H5 1065   1.238   1.491  12.557 -2.3642  1.9314 -0.2139
   70MPD2     C 1066   0.738   1.065  12.826  0.0066  0.6100  0.0233
   70MPD2    C1 1067   0.849   0.996  12.792  0.8518 -0.4757 -0.2845
   70MPD2    C2 1068   0.859   0.859  12.813  0.0867  0.0293 -0.9105
   70MPD2    C3 1069   0.753   0.788  12.872 -0.4085 -0.0888  0.3161
   70MPD2    C4 1070   0.641   0.861  12.905  0.1676  0.2755 -0.4600
   70MPD2    C5 1071   0.639   0.997  12.893 -0.0513  0.1775 -0.2799
   70MPD2     H 1072   0.944   0.810  12.766  0.5563 -1.5071  1.5229
   70MPD2    H1 1073   0.551   0.820  12.947 -0.3598  0.5849 -1.2963
   70MPD2    H2 1074   0.745   1.171  12.806  0.4255  0.7333  0.7830
   70MPD2    H3 1075   0.553   1.054  12.928 -0.1944  0.7633 -1.5880
   70MPD2     N 1076   0.754   0.647  12.895  0.2503 -0.2948 -0.4354
   70MPD2    H5 1077   0.663   0.605  12.911  0.2960  0.1751  1.0712
   70MPD2    N1 1078   0.958   1.072  12.739  0.1323 -0.8915  0.2476
   70MPD2    H7 1079   0.952   1.173  12.737  0.0676 -0.9477 -3.4785
   71TMC2    C1 1080   2.177   2.662   1.232  0.1990 -0.4411 -0.2688
   71TMC2    C2 1081   2.164   2.664   1.364  0.5226  0.2045  0.0367
   71TMC2    C3 1082   2.031   2.683   1.402 -0.3774 -0.4979  0.2250
   71TMC2    C4 1083   2.080   2.689   1.140 -0.5262  0.0117 -0.5433
   71TMC2    C5 1084   1.952   2.713   1.185 -1.2379 -0.2005  0.2109
   71TMC2    C6 1085   1.923   2.715   1.318  0.1565  0.4859  0.0204
   71TMC2     C 1086   2.301   2.593   1.189  0.2202 -0.1529 -0.3502
   71TMC2     O 1087   2.402   2.621   1.262  0.1985 -0.0141  0.1699
   71TMC2     H 1088   2.235   2.626   1.437 -1.7777 -0.0570  2.1582
   71TMC2    H1 1089   2.108   2.692   1.035 -0.6148 -1.1955 -0.6097
   71TMC2    H2 1090   1.828   2.746   1.359  0.1046  0.6910 -0.2556
   71TMC2    C7 1091   1.848   2.729   1.084 -0.2627  0.1617  0.4318
   71TMC2    C8 1092   2.015   2.705   1.543  0.0941 -0.0664 -1.1329
   71TMC2    O1 1093   1.743   2.780   1.117 -0.4259  0.0085 -0.6596
   71TMC2    O2 1094   1.914   2.679   1.606  0.3090 -0.1402 -0.2582
   71TMC2    O5 1095   2.064   2.832   1.547  0.2567  0.7084  1.0360
   71TMC2    H5 1096   2.105   2.876   1.469  2.3676  0.5684  2.0541
   72MPD2     C 1097   2.518   2.198   0.923 -0.1295  0.0700  0.3132
   72MPD2    C1 1098   2.566   2.264   1.039 -0.1230 -0.2812 -0.3335
   72MPD2    C2 1099   2.483   2.361   1.092  0.1008  0.0132 -0.0448
   72MPD2    C3 1100   2.360   2.400   1.037 -0.3549 -0.0937 -0.1554
   72MPD2    C4 1101   2.312   2.326   0.930  0.6428 -0.5348  0.0155
   72MPD2    C5 1102   2.390   2.225   0.874 -0.3240 -0.4836 -0.7305
   72MPD2     H 1103   2.517   2.423   1.173 -1.6768  0.1877  0.5681
   72MPD2    H1 1104   2.226   2.354   0.870 -0.4423  0.4276  2.0427
   72MPD2    H2 1105   2.567   2.109   0.886  0.3514  0.6329 -0.3934
   72MPD2    H3 1106   2.349   2.171   0.790  1.5761 -2.5855 -0.3209
   72MPD2     N 1107   2.275   2.502   1.089 -0.3848  0.2475  0.1124
   72MPD2    H5 1108   2.184   2.501   1.044  0.5687 -0.3620 -1.8187
   72MPD2    N1 1109   2.688   2.242   1.104  0.1182 -0.6770  0.4020
   72MPD2    H7 1110   2.701   2.297   1.188  0.9919  0.5669 -0.5399
   73TMC2    C1 1111   3.012   3.284  14.473  0.5850 -0.0812 -0.1950
   73TMC2    C2 1112   2.991   3.398  14.538  0.1188 -0.9373 -0.1739
   73TMC2    C3 1113   3.081   3.443  14.634 -0.5169 -0.0014 -0.0242
   73TMC2    C4 1114   3.135   3.216  14.489 -0.7653 -0.2128 -0.4275
   73TMC2    C5 1115   3.223   3.263  14.584 -0.3891  0.2769 -0.0488
   73TMC2    C6 1116   3.197   3.375  14.666 -0.1710 -0.6600  0.3503
   73TMC2     C 1117   3.002   3.301  14.326 -0.4815 -0.4140  0.2070
   73TMC2     O 1118   3.115   3.311  14.282  0.2103 -0.0215 -0.4752
   73TMC2     H 1119   2.915   3.465  14.499  0.0625 -0.6529  0.4094
   73TMC2    H1 1120   3.156   3.129  14.429 -0.2782  0.5275 -1.3416
   73TMC2    H2 1121   3.265   3.428  14.731 -0.8516  1.8823 -0.9527
   73TMC2    C7 1122   3.364   3.255  14.534 -0.3547 -0.2465 -0.4497
   73TMC2    C8 1123   3.077   3.584  14.660  0.3256  0.6194 -0.3693
   73TMC2    O1 1124   3.454   3.287  14.607 -0.4841  0.0898 -0.7267
   73TMC2    O2 1125   3.169   3.647  14.710  0.3115 -0.6272 -0.1181
   73TMC2    O5 1126   2.948   3.625  14.672  0.3603 -0.0585 -0.0822
   73TMC2    H5 1127   2.878   3.557  14.661  0.0850  0.2088  0.0246
   74MPD2     C 1128   2.802   3.412  13.869  0.7059  0.2178 -1.0626
   74MPD2    C1 1129   2.930   3.405  13.912 -0.8732 -0.1843  0.6982
   74MPD2    C2 1130   2.957   3.366  14.041 -0.3736 -0.4619  0.4588
   74MPD2    C3 1131   2.851   3.343  14.134  0.1314  0.1575 -0.2847
   74MPD2    C4 1132   2.723   3.354  14.084 -0.1968 -0.7768 -0.5109
   74MPD2    C5 1133   2.701   3.386  13.959  0.4543  0.1828  0.0974
   74MPD2     H 1134   3.059   3.340  14.067 -0.3720 -1.0474 -0.1524
   74MPD2    H1 1135   2.643   3.354  14.158  1.8494  0.9441  1.6774
   74MPD2    H2 1136   2.787   3.456  13.771 -0.3434  2.1501 -0.0437
   74MPD2    H3 1137   2.600   3.408  13.928  1.1942  0.2698 -2.2602
   74MPD2     N 1138   2.871   3.314  14.273 -0.1439  0.3135 -0.0347
   74MPD2    H5 1139   2.793   3.287  14.332 -1.3425 -0.6860 -2.0588
   74MPD2    N1 1140   3.033   3.432  13.815  0.2686 -0.2151  0.1276
   74MPD2    H7 1141   3.010   3.457  13.720  0.7035 -0.5130 -0.0566
   75TCq2    C1 1142   3.156   0.004  14.028  0.0304  0.6168  0.1699
   75TCq2    O2 1143   3.188   0.088  14.111 -0.3030  0.2965 -0.1654
   75TCq2    C2 1144   3.017   4.718  13.992  0.2353 -0.4851 -0.2466
   75TCq2    C3 1145   2.929   0.017  14.092 -0.5563  0.4556 -0.2063
   75TCq2    C4 1146   2.792   0.007  14.069 -0.5355  0.7737 -0.2693
   75TCq2    C5 1147   2.748   4.728  13.941  0.2020  0.1922 -0.4525
   75TCq2    C6 1148   2.848   4.721  13.842 -0.1195  1.0607 -0.9567
   75TCq2    C7 1149   2.982   4.705  13.863 -0.8290  0.0792  0.2109
   75TCq2    C8 1150   2.809   4.694  13.704 -0.2435  0.1710 -0.2336
   75TCq2    O4 1151   2.884   4.722  13.610  0.0853  0.0000  0.3748
   75TCq2    C9 1152   2.696   0.010  14.174  0.2973  0.0728  0.3727
   75TCq2    O5 1153   2.738   4.701  14.284  0.3257 -0.0984  0.5794
   75TCq2    O6 1154   2.575   4.723  14.148 -0.8752 -0.3376 -0.0366
   75TCq2    H2 1155   2.958   0.028  14.196  1.0842 -0.6480 -0.5553
   75TCq2    H3 1156   2.643   0.006  13.916  0.6309  1.1116 -2.0442
   75TCq2    H4 1157   3.046   4.695  13.777  2.3409  1.0165  2.4616
   76MPD2     C 1158   2.482   0.695  12.288 -0.5410 -0.2793  0.1633
   76MPD2    C1 1159   2.429   0.659  12.167 -0.2641 -0.1875 -0.4919
   76MPD2    C2 1160   2.487   0.564  12.088 -0.1478  0.3392  0.0963
   76MPD2    C3 1161   2.597   0.487  12.138 -0.2141  0.2708 -0.2915
   76MPD2    C4 1162   2.638   0.518  12.260  0.0942 -0.1633  0.2729
   76MPD2    C5 1163   2.590   0.627  12.329  0.3258 -0.4079 -0.1789
   76MPD2     H 1164   2.444   0.553  11.989  1.2396  0.9794 -0.5759
   76MPD2    H1 1165   2.727   0.472  12.302  0.3168 -0.6632 -0.7461
   76MPD2    H2 1166   2.437   0.773  12.349 -1.1282  0.9364 -1.8023
   76MPD2    H3 1167   2.632   0.648  12.427 -1.3647 -1.2688  0.7243
   76MPD2     N 1168   2.652   0.386  12.061  0.1807  0.5725 -0.6095
   76MPD2    H5 1169   2.729   0.341  12.110  0.3787  1.6997  0.1260
   76MPD2    N1 1170   2.323   0.726  12.109 -0.2369  0.4766  0.1874
   76MPD2    H7 1171   2.295   0.697  12.016  1.2560 -1.2409  0.2683
   77TCq2    C1 1172   2.613   0.334  11.937 -0.4281  0.2694 -0.2664
   77TCq2    O2 1173   2.507   0.366  11.885 -0.2742  0.0244  0.4534
   77TCq2    C2 1174   2.688   0.220  11.890  0.1732  0.3218  0.2896
   77TCq2    C3 1175   2.608   0.131  11.820  0.3784 -0.7372  0.7176
   77TCq2    C4 1176   2.653   0.004  11.798 -0.5267  0.2723  0.3622
   77TCq2    C5 1177   2.771   4.696  11.858  0.6265  0.5233  0.0484
   77TCq2    C6 1178   2.836   0.053  11.946  0.5503  0.3442  0.1024
   77TCq2    C7 1179   2.801   0.186  11.961 -0.6730  0.7185 -0.8257
   77TCq2    C8 1180   2.952   4.725  12.027  0.0834  0.6244  0.0176
   77TCq2    O4 1181   2.990   4.615  11.992  0.5255 -0.5474  0.1485
   77TCq2    C9 1182   2.570   4.634  11.738 -0.0900 -0.3120  0.8385
   77TCq2    O5 1183   2.454   4.668  11.707  0.1722  0.2381 -0.6468
   77TCq2    O6 1184   2.588   4.512  11.776 -0.2269  0.0724 -0.6724
   77TCq2    H2 1185   2.512   0.166  11.785  1.0719  0.7726  0.3207
   77TCq2    H3 1186   2.800   4.592  11.847 -0.7340  0.3148 -1.6481
   77TCq2    H4 1187   2.857   0.257  12.021 -2.4791  0.0045  1.7352
   78MPD1     C 1188   1.266   0.346   1.210 -0.2380  0.1789 -0.0051
   78MPD1    C1 1189   1.308   0.222   1.240 -1.1521  0.5493  0.1644
   78MPD1    C2 1190   1.231   0.149   1.330  0.2371 -0.0213 -0.1468
   78MPD1    C3 1191   1.109   0.197   1.386 -0.4800  0.4787 -0.0345
   78MPD1    C4 1192   1.066   0.319   1.340 -0.2570 -0.2896  0.0431
   78MPD1    C5 1193   1.142   0.390   1.256 -0.0994 -0.6208 -0.1317
   78MPD1     H 1194   1.271   0.053   1.361 -0.1115 -0.5411 -1.2912
   78MPD1    H1 1195   0.971   0.356   1.375 -0.1138 -1.0941  1.2964
   78MPD1    H2 1196   1.320   0.407   1.139  4.1415 -1.3757  2.0335
   78MPD1    H3 1197   1.099   0.481   1.215 -1.5221 -0.8673  0.8002
   78MPD1     N 1198   1.028   0.133   1.478  0.2029  0.1161  0.2860
   78MPD1    H5 1199   0.946   0.181   1.511  1.5034  0.8490  2.4708
   78MPD1    N1 1200   1.445   0.187   1.209  0.0971  0.3842  0.1873
   78MPD1    H6 1201   1.496   0.233   1.134  0.7390  2.2064  1.7281
   78MPD1    H7 1202   1.467   0.088   1.200 -0.5457  0.1967  0.6853
   79TCq2    C1 1203   1.062   0.012   1.537  0.0930 -0.3543 -0.0594
   79TCq2    O2 1204   1.145   4.661   1.505  1.0484  0.0990 -0.0851
   79TCq2    C2 1205   0.983   4.704   1.659 -0.0220  0.4329 -0.8708
   79TCq2    C3 1206   0.971   4.568   1.677  0.1903  0.3571  0.3200
   79TCq2    C4 1207   0.853   4.522   1.744 -0.5915 -0.8519 -0.7069
   79TCq2    C5 1208   0.752   4.615   1.779 -0.2709  0.1769 -0.1888
   79TCq2    C6 1209   0.787   0.018   1.771  0.2194 -0.0337 -0.4234
   79TCq2    C7 1210   0.903   0.068   1.718  0.4939 -0.1616 -0.8338
   79TCq2    C8 1211   0.693   0.122   1.829  0.7221  0.2720 -0.2754
   79TCq2    O4 1212   0.698   0.238   1.787  0.0473 -0.5217  0.0230
   79TCq2    C9 1213   0.840   4.379   1.767 -0.3266  0.4294  0.4783
   79TCq2    O5 1214   0.750   4.348   1.849 -0.1255 -0.0793  0.0457
   79TCq2    O6 1215   0.906   4.300   1.698  0.8522 -0.1045  0.0851
   79TCq2    H2 1216   1.050   4.500   1.647  1.2936  1.4353  0.7766
   79TCq2    H3 1217   0.658   4.576   1.816 -0.1657  0.1248  0.0237
   79TCq2    H4 1218   0.919   0.174   1.701 -2.5232  0.0699 -2.1334
   80MPD2     C 1219   1.407   0.276  12.084  0.0298 -0.1651 -0.0948
   80MPD2    C1 1220   1.319   0.211  11.997 -0.4200 -0.1706 -0.6898
   80MPD2    C2 1221   1.187   0.259  11.993  0.1229  0.7405 -0.1521
   80MPD2    C3 1222   1.138   0.356  12.079 -0.1341  0.2978  0.4499
   80MPD2    C4 1223   1.230   0.404  12.169  0.1008 -0.0509 -0.6305
   80MPD2    C5 1224   1.363   0.374  12.161  0.0958 -0.9611 -0.4460
   80MPD2     H 1225   1.123   0.210  11.921 -2.4216  0.1464  2.4917
   80MPD2    H1 1226   1.208   0.487  12.235  3.7043  0.2012  0.2117
   80MPD2    H2 1227   1.512   0.250  12.094  0.2628 -0.4487 -3.4584
   80MPD2    H3 1228   1.434   0.436  12.215 -0.1280 -0.6686 -0.4847
   80MPD2     N 1229   1.003   0.400  12.073 -0.1518 -0.3928  0.3907
   80MPD2    H5 1230   0.975   0.463  12.148 -0.7120  0.0781 -0.2160
   80MPD2    N1 1231   1.361   0.113  11.900  0.6050  0.6108 -0.0543
   80MPD2    H7 1232   1.294   0.076  11.834 -0.1300 -0.3344  1.2120
   81TCq2    C1 1233   1.485   0.048  11.892 -0.2110  0.6419  0.1408
   81TCq2    O2 1234   1.589   0.078  11.946 -0.2223 -0.2469 -0.1708
   81TCq2    C2 1235   1.489   4.668  11.795  0.2119  1.2088 -0.1423
   81TCq2    C3 1236   1.610   4.630  11.743 -0.2077 -0.1249  0.1276
   81TCq2    C4 1237   1.615   4.544  11.634  0.3697  0.1461  0.2134
   81TCq2    C5 1238   1.494   4.485  11.603  0.0899  0.8361 -0.5229
   81TCq2    C6 1239   1.376   4.509  11.677 -0.7761  0.1435  0.6869
   81TCq2    C7 1240   1.370   4.601  11.775  0.0185 -0.1851 -0.3679
   81TCq2    C8 1241   1.258   4.434  11.641 -0.1770  0.1565 -0.3789
   81TCq2    O4 1242   1.241   4.405  11.523  0.3586 -0.8639  0.2812
   81TCq2    C9 1243   1.728   4.528  11.550  0.0975  0.5217 -0.1933
   81TCq2    O5 1244   1.695   4.503  11.430  0.5805 -0.2280 -0.0654
   81TCq2    O6 1245   1.846   4.551  11.590 -0.1154 -0.1909 -0.5716
   81TCq2    H2 1246   1.701   4.683  11.769  0.7952 -1.7606 -0.0588
   81TCq2    H3 1247   1.492   4.419  11.517  2.3389 -0.6007  0.5014
   81TCq2    H4 1248   1.276   4.617  11.826  0.1669 -1.4965  0.3186
   82MPD2     C 1249   3.487   4.054  10.634 -0.6406  0.3328  0.3016
   82MPD2    C1 1250   3.524   4.184  10.655  0.2756  0.4026 -0.2651
   82MPD2    C2 1251   3.626   4.214  10.743 -0.1694  0.3822 -0.7294
   82MPD2    C3 1252   3.681   4.105  10.820  0.2219 -0.0716  0.4937
   82MPD2    C4 1253   3.662   3.972  10.782  0.1086  0.2417 -0.3241
   82MPD2    C5 1254   3.575   3.955  10.678  0.2874 -0.4850  0.5971
   82MPD2     H 1255   3.662   4.316  10.749  3.9785 -1.1401  0.0510
   82MPD2    H1 1256   3.698   3.881  10.828 -0.8552  0.0434  0.0453
   82MPD2    H2 1257   3.418   4.014  10.561  1.3256 -0.4095 -1.1576
   82MPD2    H3 1258   3.556   3.852  10.649  0.2525 -0.5297  0.7780
   82MPD2     N 1259   3.773   4.130  10.928 -0.0968 -1.2758  0.5976
   82MPD2    H5 1260   3.817   4.049  10.971  1.6007 -0.7438 -0.1049
   82MPD2    N1 1261   3.451   4.284  10.585 -0.1211  0.1104  0.2770
   82MPD2    H7 1262   3.388   4.255  10.510 -0.9444  0.1673  0.9506
   83TCq2    C1 1263   3.794   4.259  10.972  0.1140 -1.1283 -0.5319
   83TCq2    O2 1264   3.760   4.371  10.932  0.2930  0.0638  0.6713
   83TCq2    C2 1265   3.897   4.253  11.075 -0.2719  0.2697  0.2558
   83TCq2    C3 1266   3.971   4.365  11.087 -0.2203 -0.8500 -0.7632
   83TCq2    C4 1267   4.051   4.375  11.195  0.1705  0.4080  0.0791
   83TCq2    C5 1268   4.086   4.277  11.277  0.0630 -0.8190  0.3349
   83TCq2    C6 1269   4.014   4.158  11.257 -0.0518 -0.1062 -0.8752
   83TCq2    C7 1270   3.920   4.147  11.154  0.9358  0.3499 -0.4320
   83TCq2    C8 1271   4.018   4.057  11.368 -0.2210 -0.3271 -0.2547
   83TCq2    O4 1272   3.954   3.951  11.368  0.3916 -0.0999  0.1200
   83TCq2    C9 1273   4.117   4.501  11.222 -0.1890  0.2909  0.3735
   83TCq2    O5 1274   4.225   4.508  11.286 -0.2685 -0.1423 -0.6625
   83TCq2    O6 1275   4.061   4.599  11.166 -0.0966  0.7076 -0.2468
   83TCq2    H2 1276   3.958   4.448  11.018  0.3062  1.4665  1.9415
   83TCq2    H3 1277   4.162   4.289  11.353 -0.2877  1.1303  0.3849
   83TCq2    H4 1278   3.854   4.061  11.158  1.1679  0.2385  1.1308
   84TCq2    C1 1279   0.681   2.758  11.484 -0.6478  0.2249  0.1890
   84TCq2    O2 1280   0.589   2.812  11.416  0.2712  0.1313  0.0676
   84TCq2    C2 1281   0.662   2.756  11.634  0.0936 -0.0345  0.0908
   84TCq2    C3 1282   0.750   2.697  11.724  0.7092 -0.2866  0.2684
   84TCq2    C4 1283   0.712   2.697  11.857 -0.8247  0.2064  0.8409
   84TCq2    C5 1284   0.609   2.773  11.899 -0.9601 -0.7071  0.3002
   84TCq2    C6 1285   0.531   2.843  11.810  0.1574  0.5391  0.1982
   84TCq2    C7 1286   0.551   2.830  11.674 -0.3039  0.0666  0.0263
   84TCq2    C8 1287   0.444   2.957  11.855 -0.6147 -0.3426  0.1453
   84TCq2    O4 1288   0.419   3.040  11.772  0.0671  0.4013  0.2071
   84TCq2    C9 1289   0.796   2.635  11.961  0.6551 -0.4787  0.3437
   84TCq2    O5 1290   0.763   2.662  12.078 -0.4225  0.0012  0.5245
   84TCq2    O6 1291   0.899   2.579  11.928 -0.1947 -0.0556 -0.2977
   84TCq2    H2 1292   0.834   2.638  11.691  0.7950  0.7558 -1.3909
   84TCq2    H3 1293   0.582   2.775  12.004  2.6441  2.0072  1.1702
   84TCq2    H4 1294   0.490   2.884  11.602  0.4893 -0.8747 -1.3618
   85MPD2     C 1295   0.900   1.815  16.049 -0.2667  0.1630  0.4898
   85MPD2    C1 1296   1.003   1.734  16.033  0.2175  0.1111  0.6211
   85MPD2    C2 1297   1.118   1.794  15.983 -0.3262 -0.4866 -0.4398
   85MPD2    C3 1298   1.125   1.924  15.935  0.0178  0.4992 -0.2829
   85MPD2    C4 1299   1.020   2.011  15.966  0.0754  0.0658  0.2140
   85MPD2    C5 1300   0.910   1.948  16.019  0.2562  0.5526  0.1195
   85MPD2     H 1301   1.204   1.731  15.965 -0.9343 -1.7266  0.9865
   85MPD2    H1 1302   1.020   2.117  15.943 -0.5709  0.2310  0.9868
   85MPD2    H2 1303   0.799   1.782  16.073 -0.6813  0.3913 -0.9437
   85MPD2    H3 1304   0.825   2.012  16.040 -0.3700  0.1134 -1.0933
   85MPD2     N 1305   1.242   1.960  15.866 -0.1094 -0.0095  0.4283
   85MPD2    H5 1306   1.308   1.887  15.842 -1.1691 -1.4600  1.9634
   85MPD2    N1 1307   0.985   1.598  16.050 -0.6097 -0.4915  0.0536
   85MPD2    H7 1308   1.068   1.543  16.029 -0.0526 -0.0541  1.1070
   86TCq2    C1 1309   1.258   2.076  15.800  0.2613 -0.5531  0.2646
   86TCq2    O2 1310   1.175   2.165  15.791  0.2930 -0.0577  0.4851
   86TCq2    C2 1311   1.372   2.077  15.713  0.6141  0.3711  0.5371
   86TCq2    C3 1312   1.353   2.136  15.595  0.0589 -0.2809  0.0996
   86TCq2    C4 1313   1.450   2.125  15.496 -0.2499 -0.7096 -0.2591
   86TCq2    C5 1314   1.569   2.058  15.514 -0.0945 -0.3923 -0.8327
   86TCq2    C6 1315   1.584   2.008  15.650 -0.3428 -0.1214  0.4145
   86TCq2    C7 1316   1.488   2.012  15.751 -0.4582  0.0053 -0.4456
   86TCq2    C8 1317   1.692   1.922  15.681 -0.0596 -0.3694 -0.4983
   86TCq2    O4 1318   1.675   1.843  15.777 -0.6123  0.1198  0.7439
   86TCq2    C9 1319   1.415   2.186  15.373 -0.5947 -0.8916 -0.0524
   86TCq2    O5 1320   1.317   2.257  15.373 -0.7550  0.2864 -0.1326
   86TCq2    O6 1321   1.492   2.169  15.274 -0.0409 -0.1016 -0.8131
   86TCq2    H2 1322   1.257   2.180  15.571 -1.4626 -3.4245  0.4467
   86TCq2    H3 1323   1.634   2.054  15.428 -0.5673 -0.4780 -1.1857
   86TCq2    H4 1324   1.501   1.957  15.843  1.9664  0.2885 -0.6178
   87MPD2     C 1325   2.702   0.902   1.699  0.0422  0.1517  0.7586
   87MPD2    C1 1326   2.711   0.833   1.578 -0.0840 -0.0512 -0.1106
   87MPD2    C2 1327   2.707   0.908   1.460  0.0505  0.5846 -0.1945
   87MPD2    C3 1328   2.691   1.044   1.463 -0.2703 -0.1804 -0.4967
   87MPD2    C4 1329   2.688   1.109   1.584 -0.0558 -0.5362  0.7395
   87MPD2    C5 1330   2.693   1.037   1.693 -0.7962  0.0134 -0.3509
   87MPD2     H 1331   2.741   0.864   1.367 -0.8062 -0.0207 -0.2154
   87MPD2    H1 1332   2.678   1.216   1.596  0.0500 -0.4500  0.0755
   87MPD2    H2 1333   2.717   0.861   1.798  1.3257  0.4702  0.6982
   87MPD2    H3 1334   2.688   1.089   1.788 -0.1989 -1.0936  0.2932
   87MPD2     N 1335   2.692   1.126   1.351  0.8597 -0.1951 -0.2392
   87MPD2    H5 1336   2.704   1.224   1.372 -1.3222 -0.1424  0.7139
   87MPD2    N1 1337   2.749   0.698   1.585 -0.1094 -0.3293 -0.4621
   87MPD2    H7 1338   2.753   0.657   1.678 -2.5890 -0.6290 -0.4938
   88TCq2    C1 1339   2.798   0.621   1.481 -0.6277  0.5952 -0.4174
   88TCq2    O2 1340   2.827   0.646   1.364  0.2813  0.3125  0.6663
   88TCq2    C2 1341   2.836   0.488   1.526 -0.4863 -0.2354 -1.1761
   88TCq2    C3 1342   2.802   0.447   1.649  0.8654  0.5423 -0.2717
   88TCq2    C4 1343   2.863   0.336   1.692  0.3054 -0.6333 -0.5465
   88TCq2    C5 1344   2.952   0.265   1.623  0.3364  0.4266  0.0628
   88TCq2    C6 1345   2.982   0.305   1.492  0.4574 -0.3625  0.2335
   88TCq2    C7 1346   2.932   0.420   1.449 -0.5493 -0.1152  0.2407
   88TCq2    C8 1347   3.075   0.226   1.416 -0.1730 -0.3305 -0.0784
   88TCq2    O4 1348   3.113   0.269   1.310  0.2517 -0.1311  0.0818
   88TCq2    C9 1349   2.864   0.311   1.840 -0.0842  0.2065  0.3792
   88TCq2    O5 1350   2.937   0.215   1.880  0.0684 -0.2891 -0.1457
   88TCq2    O6 1351   2.809   0.393   1.919 -0.1224 -0.2386 -0.7397
   88TCq2    H2 1352   2.720   0.482   1.712  0.6276 -0.7031  0.1000
   88TCq2    H3 1353   2.996   0.178   1.671  1.4817  0.5097 -0.8407
   88TCq2    H4 1354   2.961   0.456   1.351 -2.3900  0.6682 -0.0303
   89MPD2     C 1355   3.242   3.736   2.342  0.3601 -0.5957  0.0588
   89MPD2    C1 1356   3.231   3.652   2.229  0.2861  0.3588  0.1635
   89MPD2    C2 1357   3.349   3.628   2.156  0.1430  0.4288 -0.0200
   89MPD2    C3 1358   3.472   3.688   2.192 -0.3551 -0.0797 -0.3865
   89MPD2    C4 1359   3.483   3.766   2.309 -0.3144  0.7156  0.1891
   89MPD2    C5 1360   3.366   3.778   2.385 -0.0569  0.0592  0.8512
   89MPD2     H 1361   3.333   3.571   2.066  1.4159  0.7682 -0.4668
   89MPD2    H1 1362   3.574   3.814   2.341 -1.5283  2.2272  1.3808
   89MPD2    H2 1363   3.156   3.763   2.402  1.4616  0.0400  1.3740
   89MPD2    H3 1364   3.369   3.838   2.476  2.8308 -1.2251  1.6014
   89MPD2     N 1365   3.581   3.654   2.112  0.3557 -0.1882  0.3478
   89MPD2    H5 1366   3.562   3.599   2.029 -3.7837  0.7090  0.7003
   89MPD2    N1 1367   3.108   3.589   2.191 -0.1910 -0.0719  0.2679
   89MPD2    H7 1368   3.115   3.545   2.100 -3.3094  2.7160 -1.3308
   90TCq2    C1 1369   3.717   3.690   2.134 -0.5666  0.3524  0.4646
   90TCq2    O2 1370   3.756   3.721   2.246 -0.7613 -0.5828 -0.6148
   90TCq2    C2 1371   3.817   3.651   2.025 -0.4325  0.1272 -0.0912
   90TCq2    C3 1372   3.944   3.620   2.056  0.0058 -0.3647  0.1508
   90TCq2    C4 1373   4.030   3.571   1.970  0.1076  0.2624  0.0717
   90TCq2    C5 1374   3.993   3.541   1.848 -0.2324 -0.1548  0.0368
   90TCq2    C6 1375   3.860   3.574   1.815 -0.0841 -0.6055 -0.0713
   90TCq2    C7 1376   3.766   3.620   1.908 -0.0021  0.6579  0.2281
   90TCq2    C8 1377   3.803   3.536   1.688  0.2405 -0.0536  0.9778
   90TCq2    O4 1378   3.681   3.545   1.679  0.6386  0.6074 -0.2389
   90TCq2    C9 1379   4.169   3.554   2.009  0.6584  0.1046  0.1637
   90TCq2    O5 1380   4.249   3.526   1.915  0.0463 -0.0311 -0.8344
   90TCq2    O6 1381   4.198   3.580   2.132  0.7162 -0.3750  0.0294
   90TCq2    H2 1382   3.979   3.635   2.157  0.2014  2.5918 -0.3557
   90TCq2    H3 1383   4.071   3.501   1.784  0.6689  4.1508 -1.6148
   90TCq2    H4 1384   3.672   3.663   1.875  0.6048  1.2517 -0.7466
   91TMC2    C1 1385   1.334   2.500  17.135 -0.1738 -0.2634  0.4199
   91TMC2    C2 1386   1.225   2.510  17.218  0.6551 -0.3325 -0.3956
   91TMC2    C3 1387   1.123   2.589  17.170  0.2010 -0.3073 -0.6302
   91TMC2    C4 1388   1.344   2.564  17.016 -0.4946  0.3536  0.4777
   91TMC2    C5 1389   1.245   2.643  16.978 -0.3412 -1.0260 -0.4670
   91TMC2    C6 1390   1.128   2.648  17.049 -0.3449 -0.0815 -0.3147
   91TMC2     C 1391   1.450   2.434  17.195 -0.1641 -0.0677 -0.2328
   91TMC2     O 1392   1.435   2.365  17.297 -0.3498  0.3315  0.4654
   91TMC2     H 1393   1.221   2.453  17.311  0.9567 -0.0224 -0.1925
   91TMC2    H1 1394   1.429   2.546  16.951 -2.6465  0.2656 -2.2783
   91TMC2    H2 1395   1.052   2.720  17.022 -0.6752 -0.6407 -0.8837
   91TMC2    C7 1396   1.246   2.681  16.845  0.1974 -0.4909  0.1368
   91TMC2    C8 1397   0.989   2.584  17.227  0.3694  0.0226 -0.2370
   91TMC2    O1 1398   1.355   2.730  16.807 -0.6169 -0.2794  0.0088
   91TMC2    O2 1399   0.883   2.591  17.166 -0.2849  0.3833 -0.0751
   91TMC2    O5 1400   0.988   2.542  17.358 -0.3849  0.2719  0.2070
   91TMC2    H5 1401   1.082   2.532  17.387 -0.5711  0.5381  0.9167
   92MPD2     C 1402   1.727   2.347  17.275 -0.5462  0.6096 -0.2373
   92MPD2    C1 1403   1.698   2.440  17.176 -0.2009 -0.7430 -0.4235
   92MPD2    C2 1404   1.804   2.486  17.103 -0.1234 -0.3641 -0.1603
   92MPD2    C3 1405   1.937   2.461  17.138  0.6455  0.0465  0.4096
   92MPD2    C4 1406   1.963   2.373  17.244  0.5782  0.5834 -0.3949
   92MPD2    C5 1407   1.858   2.318  17.312 -0.4282  0.5237  0.1345
   92MPD2     H 1408   1.780   2.551  17.020 -0.5933 -0.3562 -0.0181
   92MPD2    H1 1409   2.065   2.353  17.277  0.2057 -1.7554 -0.7049
   92MPD2    H2 1410   1.648   2.298  17.332  0.9575 -0.6917  0.7355
   92MPD2    H3 1411   1.871   2.246  17.392 -0.2600  0.1229 -0.2557
   92MPD2     N 1412   2.039   2.514  17.062  0.3790 -0.1195 -0.0883
   92MPD2    H5 1413   2.023   2.542  16.966  0.5912 -1.1467 -0.4224
   92MPD2    N1 1414   1.567   2.479  17.140 -0.6143 -0.0847  0.4277
   92MPD2    H7 1415   1.563   2.543  17.062 -1.8377 -1.1779 -0.3979
   93MPD2     C 1416   2.216   3.176  14.039  0.2420  0.0486  0.9153
   93MPD2    C1 1417   2.219   3.061  14.113 -0.4141 -0.4982  0.0835
   93MPD2    C2 1418   2.110   2.977  14.114  0.3678  0.1432 -0.7229
   93MPD2    C3 1419   2.002   3.003  14.028  0.3453  0.4054  0.8595
   93MPD2    C4 1420   2.001   3.120  13.946  0.2885 -0.8473 -0.3254
   93MPD2    C5 1421   2.103   3.210  13.961  0.3316  0.1634  0.1162
   93MPD2     H 1422   2.117   2.884  14.169  1.9123  0.1898 -0.8401
   93MPD2    H1 1423   1.909   3.150  13.896  1.2762  0.8952 -1.1080
   93MPD2    H2 1424   2.296   3.248  14.036  1.1971 -0.9626  1.8904
   93MPD2    H3 1425   2.098   3.311  13.920 -2.7711  0.2095  0.6165
   93MPD2     N 1426   1.901   2.905  14.004  0.0633  0.7626  0.1611
   93MPD2    H5 1427   1.836   2.927  13.929  1.9481 -0.8052 -1.9254
   93MPD2    N1 1428   2.329   3.016  14.170  0.8710  0.1286  0.2312
   93MPD2    H7 1429   2.327   2.930  14.225 -0.7496  0.5477  0.8322
   94TCq2    C1 1430   2.453   3.073  14.148 -0.4799  0.1405 -0.0350
   94TCq2    O2 1431   2.492   3.147  14.058  0.0996  0.0339  0.3039
   94TCq2    C2 1432   2.559   3.010  14.224 -0.4746 -0.3690  0.2861
   94TCq2    C3 1433   2.532   2.972  14.347  0.3892 -0.6940 -0.0531
   94TCq2    C4 1434   2.639   2.944  14.432 -0.2936 -0.2967 -0.0199
   94TCq2    C5 1435   2.767   2.936  14.387  0.2056  0.4327 -0.2661
   94TCq2    C6 1436   2.785   2.980  14.256  0.4130  0.6482  0.5963
   94TCq2    C7 1437   2.684   3.023  14.176 -0.0031  0.3810  0.0156
   94TCq2    C8 1438   2.919   2.974  14.201 -0.1649 -0.2170  0.7464
   94TCq2    O4 1439   3.010   2.973  14.285 -0.2728 -0.6401 -0.1650
   94TCq2    C9 1440   2.622   2.932  14.573  0.1750 -0.0970 -0.0992
   94TCq2    O5 1441   2.720   2.887  14.636  0.6661  0.1349 -0.7352
   94TCq2    O6 1442   2.502   2.941  14.617  0.9316  0.0882  0.0631
   94TCq2    H2 1443   2.437   2.981  14.400 -0.9393 -0.3678 -2.5215
   94TCq2    H3 1444   2.858   2.923  14.445 -0.7628  1.2105  1.4344
   94TCq2    H4 1445   2.701   3.077  14.084 -1.2453  1.0628  0.1787
   95TMC2    C1 1446   2.972   4.160  16.225  1.0879 -0.1347  0.3666
   95TMC2    C2 1447   2.925   4.030  16.214 -0.2298  0.0545  0.4183
   95TMC2    C3 1448   2.855   3.981  16.326  0.2846  0.7927  0.2440
   95TMC2    C4 1449   2.940   4.238  16.329  0.7392 -0.3348  0.2731
   95TMC2    C5 1450   2.866   4.186  16.434 -0.4524 -0.3610  0.0209
   95TMC2    C6 1451   2.815   4.053  16.429 -0.1277  0.1457 -0.5107
   95TMC2     C 1452   3.036   4.222  16.115 -0.2526 -0.3897 -0.7809
   95TMC2     O 1453   3.056   4.341  16.114  0.1305 -0.1622 -0.5505
   95TMC2     H 1454   2.968   3.962  16.141 -2.8922 -2.2345  1.0225
   95TMC2    H1 1455   2.991   4.334  16.334 -1.8828  1.1204 -0.5187
   95TMC2    H2 1456   2.768   4.006  16.515  0.0658  3.0624  1.1936
   95TMC2    C7 1457   2.836   4.256  16.554 -0.1298 -0.2697  0.1952
   95TMC2    C8 1458   2.786   3.854  16.302  0.4059 -0.6492  0.5584
   95TMC2    O1 1459   2.807   4.200  16.660 -0.0616 -0.7375  0.5511
   95TMC2    O2 1460   2.844   3.753  16.342 -0.2943 -0.1183  0.4119
   95TMC2    O5 1461   2.747   3.869  16.173  0.3960  0.3468  0.0242
   95TMC2    H5 1462   2.704   3.956  16.158  1.5355  0.9662  0.3600
   96MPD2     C 1463   3.313   4.200  15.677  0.0143 -0.2308 -0.2281
   96MPD2    C1 1464   3.300   4.299  15.765 -0.5422 -0.0111 -0.2851
   96MPD2    C2 1465   3.226   4.273  15.879  0.1935  0.2028  0.0522
   96MPD2    C3 1466   3.155   4.156  15.899  0.4804 -0.0510 -0.3344
   96MPD2    C4 1467   3.166   4.059  15.806 -0.3517 -0.5049 -0.1912
   96MPD2    C5 1468   3.257   4.077  15.707 -0.2288 -0.0768  0.2367
   96MPD2     H 1469   3.219   4.343  15.961  0.3787 -2.1089  2.0494
   96MPD2    H1 1470   3.111   3.966  15.799 -2.3463  0.6491  0.1339
   96MPD2    H2 1471   3.365   4.216  15.583 -2.4121  0.1237 -1.5287
   96MPD2    H3 1472   3.267   4.000  15.631 -1.7929 -0.0905  0.0428
   96MPD2     N 1473   3.070   4.132  16.011  0.0200 -0.2275  0.7196
   96MPD2    H5 1474   3.028   4.039  16.007  1.0183 -0.5458 -3.0577
   96MPD2    N1 1475   3.355   4.427  15.725 -0.0081 -0.2619 -0.2415
   96MPD2    H7 1476   3.387   4.432  15.629  2.1901  0.0114  0.5237
   97MPD2     C 1477   0.641   2.828   1.573 -0.1902 -0.2639  0.5995
   97MPD2    C1 1478   0.550   2.725   1.586  0.0912  0.3898  0.0256
   97MPD2    C2 1479   0.473   2.690   1.475  0.4094  0.1687  0.1212
   97MPD2    C3 1480   0.493   2.746   1.349  0.3009  0.1945 -0.1083
   97MPD2    C4 1481   0.590   2.848   1.342  0.1394 -0.6649 -0.0144
   97MPD2    C5 1482   0.671   2.883   1.450  0.4960 -0.1679  0.0784
   97MPD2     H 1483   0.409   2.604   1.492  0.5403  0.3283  1.4333
   97MPD2    H1 1484   0.615   2.898   1.250 -0.1708  2.4511  1.5916
   97MPD2    H2 1485   0.710   2.855   1.653 -0.1553  1.0184  0.1358
   97MPD2    H3 1486   0.756   2.950   1.441 -0.4851  1.0637 -0.1864
   97MPD2     N 1487   0.431   2.697   1.232  0.4742 -0.9893 -0.4955
   97MPD2    H5 1488   0.468   2.715   1.139  2.3407 -0.5236  0.3449
   97MPD2    N1 1489   0.541   2.657   1.711 -0.2926 -0.3929  0.0150
   97MPD2    H7 1490   0.589   2.696   1.792 -0.7685 -1.9613  1.0524
   98TCq2    C1 1491   0.313   2.624   1.238  0.2310  0.2159 -0.0575
   98TCq2    O2 1492   0.254   2.593   1.338 -0.2160  0.0374  0.0165
   98TCq2    C2 1493   0.269   2.581   1.110  0.6578  0.0400 -0.3253
   98TCq2    C3 1494   0.163   2.492   1.115 -0.4315  0.2801  0.0736
   98TCq2    C4 1495   0.112   2.440   1.003 -0.1307  0.9853 -0.2553
   98TCq2    C5 1496   0.175   2.472   0.889 -0.3257  0.3404 -0.1423
   98TCq2    C6 1497   0.295   2.545   0.882  0.0306 -0.4514 -0.7791
   98TCq2    C7 1498   0.346   2.604   0.995  0.3339 -0.3219  0.5709
   98TCq2    C8 1499   0.356   2.595   0.761 -0.0912 -0.6606  0.1835
   98TCq2    O4 1500   0.474   2.630   0.762 -0.2106  0.0624 -0.1505
   98TCq2    C9 1501   4.712   2.376   0.993  0.4555 -0.9344  0.1166
   98TCq2    O5 1502   4.630   2.390   1.083  0.6030 -1.1932 -0.0748
   98TCq2    O6 1503   4.680   2.331   0.881 -0.1663 -0.0386 -0.3487
   98TCq2    H2 1504   0.113   2.469   1.209 -1.5019 -0.4237 -0.6582
   98TCq2    H3 1505   0.136   2.431   0.797 -1.1399 -0.0941  0.3961
   98TCq2    H4 1506   0.426   2.678   0.992  0.4289 -0.4234  0.6187
   99MPD2     C 1507   3.921   4.052   2.019  0.1650 -0.0477 -0.2426
   99MPD2    C1 1508   3.785   4.036   2.025  0.5028 -0.3705  0.1671
   99MPD2    C2 1509   3.719   3.996   1.908  0.1379  0.0499  1.5071
   99MPD2    C3 1510   3.787   3.970   1.790  0.8585 -0.2777 -0.9860
   99MPD2    C4 1511   3.923   4.000   1.793  0.8944  0.4588 -0.0468
   99MPD2    C5 1512   3.984   4.039   1.904  0.2861  0.4758 -0.3383
   99MPD2     H 1513   3.615   3.965   1.909  0.1052  0.1094  0.0679
   99MPD2    H1 1514   3.986   3.991   1.705 -1.0563  0.8160 -1.4881
   99MPD2    H2 1515   3.981   4.077   2.106 -0.9079  0.3224  0.3881
   99MPD2    H3 1516   4.089   4.064   1.896  0.5038 -0.3316 -0.0235
   99MPD2     N 1517   3.716   3.937   1.671  0.0519 -0.2049 -0.4882
   99MPD2    H5 1518   3.616   3.930   1.683 -0.0584 -1.1389 -1.9587
   99MPD2    N1 1519   3.707   4.056   2.140  0.2000  0.5191  0.9601
   99MPD2    H7 1520   3.610   4.026   2.140  0.5380 -0.5784  2.0944
  100TCq2    C1 1521   3.756   4.132   2.250  0.2790 -0.4280  0.3680
  100TCq2    O2 1522   3.870   4.161   2.282 -0.1868 -0.3332  0.2188
  100TCq2    C2 1523   3.643   4.145   2.345 -0.0788 -0.4845 -0.1943
  100TCq2    C3 1524   3.689   4.153   2.476  0.2569 -0.1265 -0.1173
  100TCq2    C4 1525   3.591   4.162   2.572  0.2445  0.5990 -0.5592
  100TCq2    C5 1526   3.459   4.156   2.543 -0.3690  0.0328  0.3716
  100TCq2    C6 1527   3.420   4.141   2.413 -0.6633 -0.0425 -0.2561
  100TCq2    C7 1528   3.512   4.140   2.306  0.6131 -0.9276 -0.2887
  100TCq2    C8 1529   3.279   4.168   2.379 -0.0775 -1.1124 -0.0781
  100TCq2    O4 1530   3.217   4.223   2.474 -0.1723  0.5493 -0.4488
  100TCq2    C9 1531   3.617   4.164   2.712 -0.1217  0.0196 -0.2928
  100TCq2    O5 1532   3.529   4.205   2.797 -0.1886  0.0189 -0.1612
  100TCq2    O6 1533   3.736   4.136   2.741  0.1904  0.2598 -0.0932
  100TCq2    H2 1534   3.795   4.147   2.499  0.0239  0.0972  1.0268
  100TCq2    H3 1535   3.389   4.157   2.625 -0.8452 -1.3656 -0.0151
  100TCq2    H4 1536   3.475   4.150   2.205  0.0741 -0.2263 -0.0229
  101MPD2     C 1537   4.674   0.629  12.590  0.5442  0.4836  0.0361
  101MPD2    C1 1538   4.538   0.610  12.561  0.3091 -0.1597 -0.6144
  101MPD2    C2 1539   4.458   0.533  12.644 -0.1626  0.0681 -0.7984
  101MPD2    C3 1540   4.513   0.474  12.758  0.0848  0.0501 -0.0268
  101MPD2    C4 1541   4.650   0.500  12.786 -0.5021  0.2541  0.1091
  101MPD2    C5 1542   4.724   0.579  12.711  0.4450  0.4373 -0.0810
  101MPD2     H 1543   4.358   0.498  12.621 -0.4201  0.7160 -0.6541
  101MPD2    H1 1544   4.699   0.447  12.867 -1.0330  0.8979  0.8437
  101MPD2    H2 1545   0.018   0.680  12.528  1.4099  0.5069  1.0572
  101MPD2    H3 1546   0.098   0.591  12.742  0.9227 -0.4808 -1.2896
  101MPD2     N 1547   4.440   0.385  12.841 -0.1554  0.6180 -0.1415
  101MPD2    H5 1548   4.354   0.340  12.811 -0.5127  2.5857 -2.0891
  101MPD2    N1 1549   4.494   0.663  12.435 -0.1107 -0.3402 -0.1274
  101MPD2    H7 1550   4.567   0.704  12.377 -1.1109  2.5570  0.7049
  102TCq2    C1 1551   4.551   0.892  12.013  0.8230  0.3616 -0.3210
  102TCq2    O2 1552   4.657   0.851  12.065 -0.4717 -0.3926  0.0010
  102TCq2    C2 1553   4.431   0.844  12.070  0.1285 -0.3676  0.0738
  102TCq2    C3 1554   4.317   0.920  12.060 -0.6674  0.2305  0.8645
  102TCq2    C4 1555   4.219   0.893  12.153 -0.7453  0.0419  0.1977
  102TCq2    C5 1556   4.232   0.797  12.250  0.1320 -0.2730  0.7507
  102TCq2    C6 1557   4.347   0.732  12.262 -0.3036  0.6509  0.2245
  102TCq2    C7 1558   4.445   0.749  12.169  0.5285 -0.1205  0.3872
  102TCq2    C8 1559   4.363   0.655  12.389  0.3596 -0.6001  0.0582
  102TCq2    O4 1560   4.255   0.633  12.444 -0.0829  0.2613 -0.0642
  102TCq2    C9 1561   4.095   0.966  12.150  0.2531 -0.4581 -0.2839
  102TCq2    O5 1562   4.089   1.075  12.089 -0.3109  0.2857 -0.0545
  102TCq2    O6 1563   4.000   0.911  12.217 -0.4823 -0.1176 -0.1533
  102TCq2    H2 1564   4.298   0.994  11.984  0.3769 -0.5061 -0.1196
  102TCq2    H3 1565   4.166   0.805  12.336 -0.6283 -0.5833  0.1922
  102TCq2    H4 1566   4.543   0.701  12.170  1.6163  2.1257  0.9032
  103TMC2    C1 1567   3.260   0.463  12.596 -0.2865 -0.1680 -0.5949
  103TMC2    C2 1568   3.388   0.468  12.624 -0.1995  0.1454  0.0049
  103TMC2    C3 1569   3.427   0.528  12.742  0.1122  0.1582  0.1497
  103TMC2    C4 1570   3.158   0.511  12.682  0.4159 -1.1597  0.0384
  103TMC2    C5 1571   3.205   0.578  12.794  0.0586  0.3711 -0.1992
  103TMC2    C6 1572   3.333   0.588  12.821  0.2971  0.3581 -0.2821
  103TMC2     C 1573   3.217   0.379  12.482 -0.5418  0.6525  0.1651
  103TMC2     O 1574   3.104   0.409  12.442 -0.3867  0.2749 -0.0995
  103TMC2     H 1575   3.463   0.427  12.557 -0.0551  1.1935 -0.4728
  103TMC2    H1 1576   3.052   0.503  12.660  0.6995 -0.2138 -1.6815
  103TMC2    H2 1577   3.363   0.612  12.922  1.1355 -3.0552  0.2666
  103TMC2    C7 1578   3.112   0.603  12.900 -1.0941  0.5745 -0.1504
  103TMC2    C8 1579   3.563   0.569  12.741 -0.3369 -0.0964  0.1286
  103TMC2    O1 1580   2.998   0.556  12.895 -0.3642 -0.1699  0.4442
  103TMC2    O2 1581   3.645   0.497  12.689 -0.0245  0.1205  0.2316
  103TMC2    O5 1582   3.576   0.675  12.829 -0.1824 -0.1595 -0.0058
  103TMC2    H5 1583   3.492   0.723  12.844 -0.3804 -0.5985  0.2949
  104MPD2     C 1584   3.376   0.115  12.281  0.0677  0.3566 -0.5357
  104MPD2    C1 1585   3.274   0.192  12.329 -0.8269  0.0329 -0.4844
  104MPD2    C2 1586   3.147   0.175  12.276 -0.0946 -0.2200 -0.1481
  104MPD2    C3 1587   3.120   0.070  12.191 -0.1436  0.3995  0.2258
  104MPD2    C4 1588   3.230   4.721  12.135  0.4027 -0.4459  0.2300
  104MPD2    C5 1589   3.351   0.020  12.186  0.4492 -0.2258 -0.3908
  104MPD2     H 1590   3.060   0.224  12.319  2.7440  2.4172  2.5940
  104MPD2    H1 1591   3.218   4.653  12.051 -2.0515  0.5301 -0.2198
  104MPD2    H2 1592   3.473   0.114  12.330 -0.6505 -0.3682  0.8950
  104MPD2    H3 1593   3.440   4.692  12.161 -0.9366 -2.8813  0.6236
  104MPD2     N 1594   2.990   0.069  12.132  0.2378 -0.2029  0.2838
  104MPD2    H5 1595   2.935   0.150  12.157 -0.1677 -0.6531  0.8389
  104MPD2    N1 1596   3.308   0.289  12.425 -0.5406  1.0139  0.2823
  104MPD2    H7 1597   3.401   0.288  12.467 -0.8032 -1.4226  0.8284
  105MPD2     C 1598   4.193   4.286   0.496  0.1119 -0.7962  0.0172
  105MPD2    C1 1599   4.162   4.402   0.439  0.2883 -0.1687 -0.2289
  105MPD2    C2 1600   4.096   4.491   0.518 -1.1481 -0.4210 -0.6467
  105MPD2    C3 1601   4.053   4.461   0.650 -0.6857  0.5145 -0.4611
  105MPD2    C4 1602   4.091   4.342   0.698  0.5043  0.7008  0.7966
  105MPD2    C5 1603   4.159   4.259   0.617  0.2565  0.2424  0.4577
  105MPD2     H 1604   4.067   4.589   0.481  0.3400 -0.1742 -1.1571
  105MPD2    H1 1605   4.056   4.305   0.793 -1.0536  0.3218  0.0793
  105MPD2    H2 1606   4.265   4.214   0.457 -0.4278  0.9800 -4.2277
  105MPD2    H3 1607   4.209   4.172   0.658 -2.2313 -1.8854 -1.0611
  105MPD2     N 1608   3.971   4.548   0.718  0.0598 -0.3086  0.0517
  105MPD2    H5 1609   3.945   4.629   0.663  0.5322  0.3818  0.8444
  105MPD2    N1 1610   4.199   4.428   0.307  0.3992  0.3162 -0.1337
  105MPD2    H7 1611   4.172   4.518   0.270  0.5306  0.2144 -0.4788
  106TCq2    C1 1612   3.940   4.541   0.853  1.2605 -0.2650 -0.0914
  106TCq2    O2 1613   3.979   4.450   0.925 -0.1079  0.5001  0.4202
  106TCq2    C2 1614   3.818   4.604   0.896  0.7568 -0.3630  0.8059
  106TCq2    C3 1615   3.779   4.718   0.829 -0.0630  0.2286 -0.2391
  106TCq2    C4 1616   3.700   0.080   0.892 -0.6979  0.1955  0.4179
  106TCq2    C5 1617   3.636   0.050   1.007  0.5965 -0.4145  0.4026
  106TCq2    C6 1618   3.663   4.653   1.066 -0.1310 -0.2580  0.1160
  106TCq2    C7 1619   3.756   4.573   1.016 -0.1389  0.3592 -0.6898
  106TCq2    C8 1620   3.611   4.610   1.195  0.1995  0.4068  0.8735
  106TCq2    O4 1621   3.670   4.532   1.267  0.5761 -0.1173  0.1724
  106TCq2    C9 1622   3.680   0.211   0.829 -0.5469  0.0650 -1.2528
  106TCq2    O5 1623   3.600   0.288   0.890 -0.2654  0.4862 -0.5485
  106TCq2    O6 1624   3.740   0.238   0.721 -0.1178 -0.1570  0.1269
  106TCq2    H2 1625   3.824   0.017   0.734  2.7411 -0.6853  0.7961
  106TCq2    H3 1626   3.585   0.126   1.064 -3.0181 -2.2592 -0.3810
  106TCq2    H4 1627   3.782   4.486   1.076 -1.5252  0.0158 -0.5996
  107TMC2    C1 1628   4.633   3.756  11.964  0.3274  0.0645 -1.5454
  107TMC2    C2 1629   4.695   3.770  11.843  0.5791 -0.0113 -0.5762
  107TMC2    C3 1630   0.048   3.666  11.794  0.4294 -0.0260  0.1095
  107TMC2    C4 1631   4.662   3.653  12.046  0.6608 -0.7890 -0.2614
  107TMC2    C5 1632   0.023   3.559  11.998 -0.6240  0.5806  0.7186
  107TMC2    C6 1633   0.066   3.555  11.871 -1.0752 -0.0798 -0.3814
  107TMC2     C 1634   4.570   3.868  12.025  0.5321  0.0508 -0.1068
  107TMC2     O 1635   4.504   3.845  12.123 -0.1264  0.3341 -0.1112
  107TMC2     H 1636   4.662   3.840  11.767 -0.4882  0.7610  0.6237
  107TMC2    H1 1637   4.617   3.643  12.144  0.2179  2.5317 -0.1139
  107TMC2    H2 1638   0.106   3.468  11.821 -0.1308  0.8238 -1.2187
  107TMC2    C7 1639   0.083   3.464  12.097 -0.2556  0.6766  0.4074
  107TMC2    C8 1640   0.081   3.663  11.654  0.1601 -0.1723  0.3341
  107TMC2    O1 1641   0.063   3.483  12.218  0.0398 -0.0342 -0.3068
  107TMC2    O2 1642   0.108   3.555  11.601  0.1232 -0.5537 -0.0785
  107TMC2    O5 1643   0.104   3.789  11.621  0.1493 -0.3758  0.1093
  107TMC2    H5 1644   0.083   3.844  11.699 -0.0206  0.2459 -0.3746
  108MPD2     C 1645   4.550   4.220  11.897 -0.0192 -0.3897 -0.1148
  108MPD2    C1 1646   4.543   4.110  11.988 -0.3556 -0.1702  0.1204
  108MPD2    C2 1647   4.477   4.135  12.108 -0.1218 -0.1757  0.4609
  108MPD2    C3 1648   4.409   4.255  12.136  0.7174  0.2893  0.1010
  108MPD2    C4 1649   4.406   4.353  12.041  0.4166 -0.0727  0.0058
  108MPD2    C5 1650   4.486   4.341  11.926 -0.3630 -0.0270 -0.2252
  108MPD2     H 1651   4.478   4.061  12.188  1.5521 -0.2970  0.3179
  108MPD2    H1 1652   4.347   4.442  12.058  2.1809  0.9786  0.6577
  108MPD2    H2 1653   4.597   4.216  11.799  0.6955  0.8386  0.1743
  108MPD2    H3 1654   4.493   4.425  11.858 -1.2103 -0.0272 -0.3144
  108MPD2     N 1655   4.326   4.265  12.252  0.2321  0.8634  0.3954
  108MPD2    H5 1656   4.255   4.338  12.252 -1.6512 -0.9751 -0.3020
  108MPD2    N1 1657   4.601   3.985  11.954 -0.2315 -0.6685  0.0668
  108MPD2    H7 1658   4.661   3.983  11.872  0.0629 -1.3578  0.2916
  109MPD2     C 1659   0.600   0.914   2.468 -0.2186 -0.3984  0.0362
  109MPD2    C1 1660   0.518   0.994   2.397  0.7750  0.5232 -0.0098
  109MPD2    C2 1661   0.499   1.126   2.434  0.3471 -0.1025 -0.3397
  109MPD2    C3 1662   0.576   1.184   2.533  0.5305 -0.3871  0.2773
  109MPD2    C4 1663   0.652   1.095   2.612  0.6912 -0.3427 -0.3960
  109MPD2    C5 1664   0.677   0.967   2.571 -0.5956 -0.4806 -0.0671
  109MPD2     H 1665   0.444   1.196   2.372  1.7114 -0.6839 -2.1870
  109MPD2    H1 1666   0.711   1.135   2.693  0.0922  3.8299 -2.0237
  109MPD2    H2 1667   0.616   0.810   2.439  0.2806 -0.7411  1.5452
  109MPD2    H3 1668   0.751   0.902   2.617 -0.7891 -1.2289 -0.8057
  109MPD2     N 1669   0.567   1.326   2.560  0.5583  0.3087 -0.5223
  109MPD2    H5 1670   0.498   1.379   2.508  0.8071 -0.2185 -1.4029
  109MPD2    N1 1671   0.465   0.927   2.278 -0.2911 -0.3330 -0.1059
  109MPD2    H7 1672   0.480   0.827   2.271  1.6108 -0.0259 -0.3826
  110TCq2    C1 1673   0.616   1.397   2.663  0.1451  0.1857  0.1301
  110TCq2    O2 1674   0.683   1.356   2.758 -0.5719 -0.0791 -0.2373
  110TCq2    C2 1675   0.567   1.543   2.676  0.2772 -0.2685  0.1556
  110TCq2    C3 1676   0.563   1.603   2.799 -0.5754  0.2936 -0.3897
  110TCq2    C4 1677   0.536   1.731   2.815  0.0522 -0.1183  0.2785
  110TCq2    C5 1678   0.492   1.803   2.707  0.1472 -0.2077 -0.2612
  110TCq2    C6 1679   0.486   1.746   2.578 -0.6965 -0.1458 -0.9976
  110TCq2    C7 1680   0.531   1.616   2.568 -0.1776  0.4580  0.2293
  110TCq2    C8 1681   0.448   1.827   2.466 -0.3070 -0.1602 -0.1027
  110TCq2    O4 1682   0.434   1.945   2.487  0.0152 -0.6135 -0.1325
  110TCq2    C9 1683   0.546   1.794   2.936 -0.5016  0.4539 -0.7603
  110TCq2    O5 1684   0.532   1.918   2.936 -0.0896 -0.4725  0.3747
  110TCq2    O6 1685   0.563   1.720   3.036  0.0156 -0.1861  0.2186
  110TCq2    H2 1686   0.593   1.554   2.891 -0.5228 -1.6097 -1.4218
  110TCq2    H3 1687   0.456   1.904   2.718  1.6607  0.4542 -1.3665
  110TCq2    H4 1688   0.541   1.568   2.471 -1.2754 -0.7408  0.7095
  111TMC2    C1 1689   0.286   0.723  11.268  0.6795  0.4249  0.4010
  111TMC2    C2 1690   0.254   0.640  11.372  0.5724 -0.6725  0.2080
  111TMC2    C3 1691   0.358   0.561  11.416 -0.5467  0.1551 -0.2741
  111TMC2    C4 1692   0.413   0.722  11.209 -0.3454  0.2949  0.5485
  111TMC2    C5 1693   0.513   0.654  11.265  0.3384  0.1367  0.0353
  111TMC2    C6 1694   0.487   0.573  11.372  0.6621 -0.0189 -0.1769
  111TMC2     C 1695   0.191   0.812  11.208 -0.2880 -0.3020  0.2183
  111TMC2     O 1696   0.212   0.847  11.095  0.0646 -0.2898  0.0487
  111TMC2     H 1697   0.164   0.635  11.432 -0.3360 -2.5035 -1.3120
  111TMC2    H1 1698   0.439   0.778  11.120  2.2432 -0.8667  0.5756
  111TMC2    H2 1699   0.565   0.501  11.395  0.5915  0.2326  0.8515
  111TMC2    C7 1700   0.650   0.703  11.267  0.4929  0.8002 -0.7809
  111TMC2    C8 1701   0.342   0.481  11.535  0.2344  0.0593  0.1644
  111TMC2    O1 1702   0.715   0.681  11.368  0.3406  0.0157 -0.0098
  111TMC2    O2 1703   0.260   0.391  11.551 -0.6449 -0.0361  0.1545
  111TMC2    O5 1704   0.454   0.500  11.611 -0.4691  0.5434 -0.0355
  111TMC2    H5 1705   0.507   0.579  11.585 -1.4257  1.0721 -0.4233
  112MPD2     C 1706   4.482   1.076  11.223 -0.6034 -0.2877  0.3656
  112MPD2    C1 1707   4.556   1.042  11.113  0.3117 -0.4135 -0.4476
  112MPD2    C2 1708   4.681   0.982  11.147 -0.0312 -0.1914  0.4486
  112MPD2    C3 1709   4.717   0.938  11.272  0.2116  0.2031  0.2764
  112MPD2    C4 1710   4.631   0.959  11.373  0.5794  0.4452 -0.1117
  112MPD2    C5 1711   4.520   1.035  11.346 -0.3504  0.0312  0.1996
  112MPD2     H 1712   0.009   0.953  11.059 -2.3647 -1.8782 -0.4756
  112MPD2    H1 1713   4.647   0.919  11.473  1.8616  0.2720 -0.3914
  112MPD2    H2 1714   4.386   1.125  11.214 -0.8254 -0.3759  2.2689
  112MPD2    H3 1715   4.453   1.060  11.428  0.2158  1.1614  0.3144
  112MPD2     N 1716   0.100   0.860  11.299 -0.2089 -0.2102  0.1446
  112MPD2    H5 1717   0.123   0.848  11.397 -0.4993 -0.6796  0.1580
  112MPD2    N1 1718   4.524   1.070  10.979  0.6601 -0.0081  0.1219
  112MPD2    H7 1719   4.593   1.037  10.911  0.0433 -0.4013 -0.3080
  113MPD2     C 1720   2.961   4.099   0.903 -0.1261 -0.3566  0.3883
  113MPD2    C1 1721   2.869   4.186   0.948 -0.2493  0.2371 -0.2162
  113MPD2    C2 1722   2.756   4.208   0.869  0.2318 -0.2332  0.2855
  113MPD2    C3 1723   2.747   4.151   0.745  0.1687 -0.2603  0.3826
  113MPD2    C4 1724   2.850   4.072   0.696 -0.2586  0.5363 -0.7133
  113MPD2    C5 1725   2.950   4.035   0.781  0.1116  1.2043  0.5659
  113MPD2     H 1726   2.685   4.281   0.907 -0.8059 -1.7478  1.2070
  113MPD2    H1 1727   2.849   4.022   0.600  1.8999 -0.0109 -0.4649
  113MPD2    H2 1728   3.053   4.073   0.954 -0.3232 -1.5724  0.1226
  113MPD2    H3 1729   3.034   3.972   0.755 -0.7324 -0.4203  1.7858
  113MPD2     N 1730   2.632   4.169   0.661  0.3317  0.6863 -0.3512
  113MPD2    H5 1731   2.621   4.105   0.583  0.7593  0.5043 -0.2592
  113MPD2    N1 1732   2.886   4.261   1.063 -0.0108 -0.3967 -0.3273
  113MPD2    H7 1733   2.805   4.312   1.095  0.9518 -0.5584  2.3411
  114TCq2    C1 1734   2.526   4.251   0.694  0.6301  0.1282 -0.0422
  114TCq2    O2 1735   2.531   4.364   0.746  0.5869 -0.1277  0.3060
  114TCq2    C2 1736   2.410   4.222   0.606  0.5996  0.7135  1.0843
  114TCq2    C3 1737   2.330   4.324   0.562  0.5134 -1.3870  0.1086
  114TCq2    C4 1738   2.199   4.291   0.520  0.4487 -0.2828  0.7048
  114TCq2    C5 1739   2.143   4.168   0.530 -0.7562  0.1140 -0.1649
  114TCq2    C6 1740   2.232   4.072   0.580 -0.1385  0.0738  0.1401
  114TCq2    C7 1741   2.360   4.094   0.615 -0.3765 -0.0198 -0.3608
  114TCq2    C8 1742   2.170   3.946   0.618  0.4747 -0.2547  0.0585
  114TCq2    O4 1743   2.069   3.909   0.561  0.4714  0.5354  0.1646
  114TCq2    C9 1744   2.114   4.394   0.462 -0.5209 -0.3343 -0.8682
  114TCq2    O5 1745   2.158   4.508   0.452 -0.0661 -0.5330  0.0024
  114TCq2    O6 1746   2.000   4.354   0.425 -0.5270  0.1965  0.3432
  114TCq2    H2 1747   2.368   4.425   0.550  0.8497 -1.5400 -0.1236
  114TCq2    H3 1748   2.038   4.147   0.515 -0.1820 -1.3019 -2.1154
  114TCq2    H4 1749   2.436   4.020   0.637 -1.9911 -1.4827  0.3063
  115TMC2    C1 1750   3.778   1.941   0.153 -0.5396 -0.0299  0.6198
  115TMC2    C2 1751   3.777   1.915   0.288 -0.2750 -0.0529  0.8893
  115TMC2    C3 1752   3.792   2.016   0.374  0.0969  0.4155  0.3416
  115TMC2    C4 1753   3.812   2.063   0.097  0.4482  0.2048  0.3260
  115TMC2    C5 1754   3.838   2.167   0.185 -0.1774 -0.2756 -1.0153
  115TMC2    C6 1755   3.839   2.137   0.317  0.9557  0.2909  0.2838
  115TMC2     C 1756   3.722   1.831   0.075  0.1436  0.5229  0.2168
  115TMC2     O 1757   3.690   1.730   0.135  0.8568 -0.4951  0.6135
  115TMC2     H 1758   3.736   1.823   0.327 -1.4068 -0.3826 -1.1013
  115TMC2    H1 1759   3.846   2.072  17.708 -2.4603 -2.1311 -0.8587
  115TMC2    H2 1760   3.865   2.216   0.386  2.6050  0.0577 -0.0741
  115TMC2    C7 1761   3.871   2.296   0.138  0.0678  0.3934 -0.4809
  115TMC2    C8 1762   3.852   1.982   0.495  0.1240  0.6434  0.0857
  115TMC2    O1 1763   3.901   2.374   0.227  0.1925 -0.6270  0.3241
  115TMC2    O2 1764   3.936   2.056   0.552 -0.2513  0.0917 -0.7528
  115TMC2    O5 1765   3.747   1.920   0.556 -0.3191 -0.4031 -0.0702
  115TMC2    H5 1766   3.672   1.899   0.497 -1.6494  1.9948  0.7493
  116MPD2     C 1767   3.483   1.651  17.373  0.7097  0.0430 -0.1383
  116MPD2    C1 1768   3.516   1.591  17.493 -0.1088  0.8879  0.1191
  116MPD2    C2 1769   3.595   1.658  17.585 -0.0983 -0.7462  0.5478
  116MPD2    C3 1770   3.635   1.787  17.561  0.1560 -0.3058 -0.1076
  116MPD2    C4 1771   3.610   1.839  17.435 -0.0431 -0.7597  0.4309
  116MPD2    C5 1772   3.542   1.777  17.337 -0.1963  0.0232 -0.2149
  116MPD2     H 1773   3.599   1.608  17.681  2.2965  0.8880  1.3012
  116MPD2    H1 1774   3.647   1.937  17.407  0.5001 -1.1501 -0.2252
  116MPD2    H2 1775   3.433   1.589  17.300  1.0114  1.9358 -1.9729
  116MPD2    H3 1776   3.527   1.815  17.237 -0.8557  1.9996  0.6459
  116MPD2     N 1777   3.695   1.866  17.660  0.6111  0.3169 -0.1643
  116MPD2    H5 1778   3.724   1.959  17.634  3.1272 -0.5059 -0.3470
  116MPD2    N1 1779   3.465   1.461  17.514  0.0037  0.3204 -0.4205
  116MPD2    H7 1780   3.398   1.429  17.444  1.7688 -3.1247 -0.5425
  117TMC2    C1 1781   2.009   3.108  14.496  0.1873 -0.1692 -0.7751
  117TMC2    C2 1782   2.044   3.063  14.622 -0.3009 -0.5761 -0.2654
  117TMC2    C3 1783   2.174   3.061  14.653 -0.0028 -0.1604  0.2512
  117TMC2    C4 1784   2.101   3.162  14.405  0.3492  0.2117 -0.4918
  117TMC2    C5 1785   2.232   3.175  14.454 -0.3398 -0.2596  0.1404
  117TMC2    C6 1786   2.273   3.122  14.578  0.2155  0.3774  0.0361
  117TMC2     C 1787   1.890   3.050  14.439 -0.6317 -0.4223 -0.8748
  117TMC2     O 1788   1.834   2.962  14.503 -0.0316  0.0692 -0.3671
  117TMC2     H 1789   1.971   3.018  14.689 -2.4643  1.5148 -1.1887
  117TMC2    H1 1790   2.067   3.209  14.314 -1.2154  0.8449  0.4247
  117TMC2    H2 1791   2.372   3.136  14.620  1.4508 -1.3979 -2.2709
  117TMC2    C7 1792   2.311   3.284  14.400  0.5050 -0.5775 -0.5286
  117TMC2    C8 1793   2.208   3.015  14.785 -0.4161  0.4772  0.1827
  117TMC2    O1 1794   2.434   3.256  14.397 -0.6937 -0.1827 -0.5481
  117TMC2    O2 1795   2.123   3.009  14.876 -0.0451  0.3666  0.5967
  117TMC2    O5 1796   2.346   2.987  14.799 -0.3213  0.5225 -0.4404
  117TMC2    H5 1797   2.390   2.978  14.712  1.4122  2.2568  0.2587
  118MPD2     C 1798   2.196   3.623  14.297  0.5442 -0.0132 -0.2688
  118MPD2    C1 1799   2.290   3.523  14.313 -0.5088 -0.2989  0.1156
  118MPD2    C2 1800   2.422   3.558  14.306 -0.0959 -0.1218  0.2909
  118MPD2    C3 1801   2.459   3.685  14.263  0.3060  0.3818  0.3306
  118MPD2    C4 1802   2.357   3.775  14.230 -0.0625  0.1935 -0.3928
  118MPD2    C5 1803   2.231   3.748  14.253 -0.6270 -0.1256  0.4317
  118MPD2     H 1804   2.503   3.491  14.331 -0.4177  0.3962  2.7313
  118MPD2    H1 1805   2.380   3.870  14.184 -0.4259  0.3427 -0.2608
  118MPD2    H2 1806   2.089   3.609  14.302  0.6115 -0.2576  0.5120
  118MPD2    H3 1807   2.158   3.825  14.231 -0.0309  0.1590 -0.5126
  118MPD2     N 1808   2.592   3.711  14.226 -0.0928  0.3688  0.3665
  118MPD2    H5 1809   2.602   3.789  14.162  1.3923  0.3710  0.6063
  118MPD2    N1 1810   2.241   3.397  14.359  0.2437  0.3313  0.0432
  118MPD2    H7 1811   2.141   3.393  14.373  0.4188 -1.5117  0.7496
  119MPD2     C 1812   0.764   4.562  13.718  0.8418  0.5123 -0.4033
  119MPD2    C1 1813   0.650   4.611  13.780  0.2774  0.1562 -0.7725
  119MPD2    C2 1814   0.526   4.591  13.717  0.3678 -0.3245 -0.3294
  119MPD2    C3 1815   0.522   4.491  13.617 -0.5606  0.2449 -0.2972
  119MPD2    C4 1816   0.645   4.447  13.561 -0.6022  0.5066 -0.4811
  119MPD2    C5 1817   0.760   4.480  13.611 -0.3666 -0.1033  0.4402
  119MPD2     H 1818   0.439   4.650  13.741  0.2793 -0.3381 -0.6191
  119MPD2    H1 1819   0.645   4.364  13.491 -2.8479 -0.2425  0.3920
  119MPD2    H2 1820   0.862   4.590  13.756  1.5469 -1.5775 -0.6581
  119MPD2    H3 1821   0.852   4.442  13.567 -0.3800 -2.5593  2.4841
  119MPD2     N 1822   0.404   4.427  13.574  0.2677  0.4148  0.5426
  119MPD2    H5 1823   0.404   4.360  13.499 -0.3750 -0.2493  1.1324
  119MPD2    N1 1824   0.662   4.691  13.899 -0.1482 -0.7608 -0.1003
  119MPD2    H7 1825   0.750   0.006  13.922 -1.3726  1.0516  1.1362
  120TCq2    C1 1826   0.282   4.431  13.630 -0.4680 -0.8830 -0.0666
  120TCq2    O2 1827   0.238   4.485  13.732 -0.5730  0.1197 -0.4102
  120TCq2    C2 1828   0.197   4.343  13.556 -0.0545 -0.7071  0.8146
  120TCq2    C3 1829   0.227   4.302  13.426 -0.0316  0.3253  0.3661
  120TCq2    C4 1830   0.120   4.266  13.347  0.1253  0.4655  0.5306
  120TCq2    C5 1831   4.721   4.262  13.396 -0.7555 -0.6025 -0.7210
  120TCq2    C6 1832   4.694   4.310  13.521 -0.1108 -0.2524 -0.2851
  120TCq2    C7 1833   0.072   4.333  13.606  0.1154 -0.6443 -0.4182
  120TCq2    C8 1834   4.555   4.304  13.561 -0.4056 -0.4711  0.4237
  120TCq2    O4 1835   4.477   4.298  13.466 -0.7076 -1.1858  0.0741
  120TCq2    C9 1836   0.156   4.202  13.221  0.8957 -0.1348  0.2088
  120TCq2    O5 1837   0.280   4.186  13.204  0.2136 -0.8086  0.1226
  120TCq2    O6 1838   0.060   4.179  13.135 -0.3689 -0.5730  0.6517
  120TCq2    H2 1839   0.328   4.310  13.389 -0.0163  0.2637  0.3946
  120TCq2    H3 1840   4.653   4.223  13.321 -1.4702  0.6805 -0.7510
  120TCq2    H4 1841   0.044   4.357  13.708  1.4167 -1.8876  0.2207
  121TMC2    C1 1842   2.197   1.525  14.020  0.3254 -0.1472  1.0699
  121TMC2    C2 1843   2.124   1.620  14.089  0.5733 -0.4308  0.0149
  121TMC2    C3 1844   1.988   1.605  14.091 -0.3052  0.3362  0.1112
  121TMC2    C4 1845   2.140   1.409  13.971  0.3073  0.3553 -0.1850
  121TMC2    C5 1846   2.007   1.397  13.983 -0.8021  0.3632  0.0748
  121TMC2    C6 1847   1.928   1.502  14.029 -0.2097 -0.5294 -0.3406
  121TMC2     C 1848   2.330   1.564  13.998  0.2645 -0.5719 -0.5164
  121TMC2     O 1849   2.385   1.635  14.082  0.4198  0.1072  0.1167
  121TMC2     H 1850   2.170   1.694  14.154  0.1664 -0.4910  0.3712
  121TMC2    H1 1851   2.198   1.327  13.930  1.3083  0.8210  0.2858
  121TMC2    H2 1852   1.820   1.492  14.030 -0.0431 -2.4010 -1.9731
  121TMC2    C7 1853   1.954   1.273  13.937  1.4525  0.2167  0.6064
  121TMC2    C8 1854   1.915   1.715  14.152  0.8691 -0.1472 -0.1223
  121TMC2    O1 1855   2.023   1.176  13.917 -0.5182  0.5299 -0.4309
  121TMC2    O2 1856   1.935   1.833  14.119 -0.1435  0.2040 -0.0449
  121TMC2    O5 1857   1.795   1.667  14.194 -0.1512 -0.3111 -0.6743
  121TMC2    H5 1858   1.790   1.569  14.206 -0.1986  0.1990  3.7452
  122MPD2     C 1859   2.613   1.605  13.910  1.1923  0.4019 -0.2802
  122MPD2    C1 1860   2.509   1.562  13.837 -0.3811 -0.1202 -0.3339
  122MPD2    C2 1861   2.541   1.530  13.700  0.0232  0.1771 -0.2724
  122MPD2    C3 1862   2.667   1.542  13.641  0.4894  0.4013 -0.7078
  122MPD2    C4 1863   2.768   1.589  13.718 -0.1416  0.4812 -0.5056
  122MPD2    C5 1864   2.744   1.612  13.856  0.4008  0.1003  0.1751
  122MPD2     H 1865   2.457   1.490  13.644  1.6047 -0.7572 -1.9859
  122MPD2    H1 1866   2.873   1.584  13.692  0.4676 -2.9255  2.6212
  122MPD2    H2 1867   2.601   1.630  14.015 -3.0918  0.2554 -0.7197
  122MPD2    H3 1868   2.828   1.637  13.921  1.1741 -0.5209 -0.5749
  122MPD2     N 1869   2.692   1.510  13.508 -0.8771  0.7296 -0.8016
  122MPD2    H5 1870   2.776   1.552  13.469  0.5479 -0.6998  0.7311
  122MPD2    N1 1871   2.377   1.538  13.875 -0.0785  0.0779 -0.5438
  122MPD2    H7 1872   2.312   1.495  13.809  0.9528 -0.1466 -1.3987
  123MPD2     C 1873   4.454   3.790   8.751 -0.0108  0.1756 -0.9383
  123MPD2    C1 1874   4.481   3.833   8.881  0.2132  0.0074 -0.4947
  123MPD2    C2 1875   4.603   3.792   8.942 -0.5746 -0.8005  0.2819
  123MPD2    C3 1876   4.700   3.723   8.870 -0.3526 -0.4989  0.7749
  123MPD2    C4 1877   4.666   3.690   8.740  0.2439  0.1839 -0.4620
  123MPD2    C5 1878   4.546   3.713   8.686  0.6577 -0.8441 -0.3342
  123MPD2     H 1879   4.622   3.805   9.048 -0.1786 -0.0617  0.1197
  123MPD2    H1 1880   4.724   3.615   8.687  1.3442  0.2326  0.6774
  123MPD2    H2 1881   4.356   3.792   8.705 -0.7958  2.6302  0.7987
  123MPD2    H3 1882   4.517   3.654   8.600  2.8643  0.3008 -1.8731
  123MPD2     N 1883   0.088   3.672   8.938  0.5103 -0.7614 -0.2146
  123MPD2    H5 1884   0.102   3.693   9.036 -0.3966 -0.9172 -0.0454
  123MPD2    N1 1885   4.378   3.911   8.944 -0.2762 -0.1719 -0.3580
  123MPD2    H7 1886   4.304   3.937   8.880 -0.1785 -1.0973 -0.8397
  124TCq2    C1 1887   0.188   3.597   8.877 -0.5609 -0.1099 -0.2904
  124TCq2    O2 1888   0.214   3.578   8.759 -0.5638 -0.5339  0.2511
  124TCq2    C2 1889   0.294   3.540   8.963  0.6706  0.1252  0.5035
  124TCq2    C3 1890   0.417   3.500   8.908  0.9572 -0.0222 -0.3097
  124TCq2    C4 1891   0.518   3.471   8.995 -0.4181  0.1037 -0.2948
  124TCq2    C5 1892   0.504   3.474   9.127  0.2352  0.7275  0.4236
  124TCq2    C6 1893   0.388   3.516   9.177  0.2437 -0.3186 -0.4532
  124TCq2    C7 1894   0.278   3.538   9.099  0.4149  0.1458  0.5019
  124TCq2    C8 1895   0.369   3.509   9.322 -0.2471  0.3165  0.0386
  124TCq2    O4 1896   0.459   3.455   9.386  0.1550 -0.5583  0.4586
  124TCq2    C9 1897   0.641   3.419   8.934 -0.5904 -0.1541  0.3963
  124TCq2    O5 1898   0.743   3.415   9.011 -0.0936  0.6140  0.6727
  124TCq2    O6 1899   0.633   3.363   8.820  0.1140 -0.2822  0.3085
  124TCq2    H2 1900   0.422   3.503   8.800  0.2098  1.4297 -0.3138
  124TCq2    H3 1901   0.592   3.457   9.187 -0.0741  0.2314  0.7320
  124TCq2    H4 1902   0.187   3.574   9.145  1.3854  0.8979  1.8414
  125TMC2    C1 1903   1.574   0.700   8.668 -0.8123 -0.3825  0.6890
  125TMC2    C2 1904   1.553   0.800   8.576 -0.2614 -1.2270  0.0817
  125TMC2    C3 1905   1.528   0.930   8.607 -0.3413 -0.0637 -0.0212
  125TMC2    C4 1906   1.565   0.736   8.799 -0.4253 -0.7350 -0.1314
  125TMC2    C5 1907   1.534   0.868   8.827 -0.3053 -0.1384  0.1116
  125TMC2    C6 1908   1.508   0.969   8.736  0.1570  0.7032  0.1699
  125TMC2     C 1909   1.631   0.569   8.635  0.0145 -1.0347  0.2813
  125TMC2     O 1910   1.662   0.500   8.734 -0.0165 -0.2105 -0.1288
  125TMC2     H 1911   1.582   0.773   8.475 -0.2173  3.2711 -1.1019
  125TMC2    H1 1912   1.583   0.663   8.878  0.7403 -3.0339 -2.5386
  125TMC2    H2 1913   1.485   1.070   8.768  1.1081  0.7345  0.7277
  125TMC2    C7 1914   1.563   0.911   8.966  0.3504  0.4088 -0.9275
  125TMC2    C8 1915   1.466   1.012   8.504 -0.1576  0.4496  0.2820
  125TMC2    O1 1916   1.546   1.032   8.993 -0.5305 -0.5498 -0.1410
  125TMC2    O2 1917   1.519   1.026   8.396  0.0916  0.5374  0.2844
  125TMC2    O5 1918   1.356   1.070   8.548 -0.2151 -0.2634 -0.2183
  125TMC2    H5 1919   1.317   1.025   8.626  0.4142  0.6472  0.6224
  126MPD1     C 1920   1.783   0.191   8.329  0.1044  0.2524 -0.5520
  126MPD1    C1 1921   1.742   0.294   8.242 -0.2762  0.0328  0.4217
  126MPD1    C2 1922   1.700   0.407   8.316 -0.0108 -0.0381  0.4723
  126MPD1    C3 1923   1.705   0.424   8.452 -0.0215  0.6676 -0.1994
  126MPD1    C4 1924   1.760   0.323   8.525 -0.7708  1.0010 -0.2092
  126MPD1    C5 1925   1.795   0.205   8.464 -0.0987  0.5953 -0.2327
  126MPD1     H 1926   1.664   0.483   8.248  1.0024 -0.2511 -0.3038
  126MPD1    H1 1927   1.778   0.327   8.632 -0.4628  2.2670 -0.3058
  126MPD1    H2 1928   1.802   0.091   8.292  1.7914 -0.1794  1.4363
  126MPD1    H3 1929   1.821   0.120   8.526  0.1043  0.5006 -0.4490
  126MPD1     N 1930   1.654   0.546   8.506  0.3831 -0.2690 -0.7862
  126MPD1    H5 1931   1.637   0.618   8.436 -2.1701 -1.1754 -1.1340
  126MPD1    N1 1932   1.711   0.265   8.109 -0.0526 -0.1346 -0.2055
  126MPD1    H6 1933   1.717   0.354   8.060  2.4901 -0.4264 -0.3875
  126MPD1    H7 1934   1.777   0.206   8.058 -0.5413 -0.9842  0.1342
  127MPD2     C 1935   2.372   4.366   9.941  0.0733  0.5639 -0.6531
  127MPD2    C1 1936   2.448   4.329  10.050  0.4806  1.0225 -0.3001
  127MPD2    C2 1937   2.542   4.419  10.092 -0.5182  0.1254  0.1719
  127MPD2    C3 1938   2.552   4.546  10.048  0.4562 -0.3564  0.0648
  127MPD2    C4 1939   2.470   4.588   9.942 -0.7810 -0.1230  0.3407
  127MPD2    C5 1940   2.386   4.492   9.889 -0.1046  0.1835  0.1948
  127MPD2     H 1941   2.611   4.389  10.171  1.4001  1.6602 -0.9322
  127MPD2    H1 1942   2.480   4.678   9.883 -4.4172  1.0181  1.4715
  127MPD2    H2 1943   2.295   4.299   9.903  1.7372 -1.2971 -0.7573
  127MPD2    H3 1944   2.324   4.525   9.807 -0.0182 -0.5594 -0.1695
  127MPD2     N 1945   2.659   4.635  10.090 -0.2948  0.5050  0.4088
  127MPD2    H5 1946   2.680   4.714  10.030 -1.3492 -0.7246 -1.6110
  127MPD2    N1 1947   2.437   4.198  10.093 -0.4525 -0.1737 -0.0117
  127MPD2    H7 1948   2.368   4.140  10.047  0.3973 -1.6147  0.5213
  128TCq2    C1 1949   2.499   4.140  10.195  0.4255  0.1308 -0.1600
  128TCq2    O2 1950   2.533   4.191  10.300  0.1878  0.2703  0.3039
  128TCq2    C2 1951   2.464   4.000  10.210 -0.3391  0.2631  0.1284
  128TCq2    C3 1952   2.427   3.960  10.338 -1.0787  0.8819 -0.0148
  128TCq2    C4 1953   2.359   3.841  10.348 -0.1465 -0.6328  0.2655
  128TCq2    C5 1954   2.342   3.760  10.240  0.1331  0.0775 -0.1936
  128TCq2    C6 1955   2.381   3.805  10.116  0.7664  0.2836 -0.5002
  128TCq2    C7 1956   2.432   3.930  10.097 -0.9815 -0.5857  0.1622
  128TCq2    C8 1957   2.410   3.710  10.007  0.0291 -0.2672  0.2193
  128TCq2    O4 1958   2.476   3.750   9.910 -0.2217  0.8181 -0.1238
  128TCq2    C9 1959   2.324   3.793  10.481  0.1561 -0.0953 -0.3203
  128TCq2    O5 1960   2.352   3.872  10.576 -0.8170  0.6100 -0.7661
  128TCq2    O6 1961   2.250   3.699  10.488 -0.1360 -0.4741  0.0255
  128TCq2    H2 1962   2.442   4.028  10.421 -0.6569  0.9376 -0.1424
  128TCq2    H3 1963   2.300   3.662  10.259  1.5051 -0.5229 -0.2632
  128TCq2    H4 1964   2.459   3.964   9.998  0.0922  1.3424  1.1085
  129MPD2     C 1965   1.182   0.373   0.826  0.5347  0.6940 -0.9734
  129MPD2    C1 1966   1.070   0.338   0.897  0.4967  0.6317  0.2814
  129MPD2    C2 1967   0.984   0.431   0.939 -0.0226 -0.2295  0.1658
  129MPD2    C3 1968   1.004   0.562   0.911  0.0347  0.3931 -0.5565
  129MPD2    C4 1969   1.112   0.599   0.836 -0.1897  0.0933 -0.6984
  129MPD2    C5 1970   1.200   0.501   0.801 -0.2900 -0.0142  0.1604
  129MPD2     H 1971   0.899   0.399   0.998 -2.2834  1.0351 -2.4094
  129MPD2    H1 1972   1.119   0.700   0.797  0.8373 -0.0413 -0.8670
  129MPD2    H2 1973   1.258   0.301   0.797  1.1533  0.4050  1.3590
  129MPD2    H3 1974   1.279   0.529   0.733  0.4030 -0.4183  0.7915
  129MPD2     N 1975   0.910   0.658   0.955  0.3700  0.0755  0.3691
  129MPD2    H5 1976   0.828   0.615   0.995  0.5852  0.3952  1.1622
  129MPD2    N1 1977   1.059   0.211   0.955  0.9392 -0.1905 -0.1537
  129MPD2    H7 1978   0.980   0.194   1.017  0.3512 -0.5631 -0.9960
  130TCq2    C1 1979   1.141   0.103   0.938 -0.4839  0.9852  0.8149
  130TCq2    O2 1980   1.240   0.093   0.868 -0.1044 -0.4232 -0.4721
  130TCq2    C2 1981   1.122   4.721   1.030  0.0224  0.2119  0.2587
  130TCq2    C3 1982   1.202   4.612   1.016 -0.3390 -1.0274 -0.3551
  130TCq2    C4 1983   1.173   4.504   1.098  0.0486  0.5723  0.1072
  130TCq2    C5 1984   1.066   4.508   1.184  0.1588 -0.4496  0.3785
  130TCq2    C6 1985   0.993   4.621   1.207 -0.6876  0.1842 -0.5804
  130TCq2    C7 1986   1.017   0.002   1.123  0.0249  0.2643 -0.5286
  130TCq2    C8 1987   0.860   4.622   1.276 -0.3329  0.0551 -0.2063
  130TCq2    O4 1988   0.805   4.723   1.300  0.1514 -0.4340 -0.3029
  130TCq2    C9 1989   1.245   4.385   1.076 -0.2256 -0.4215  0.6648
  130TCq2    O5 1990   1.359   4.409   1.035  0.6090 -0.4309 -0.1306
  130TCq2    O6 1991   1.196   4.273   1.113 -0.4087 -0.5161 -0.3157
  130TCq2    H2 1992   1.270   4.599   0.932  0.3810 -2.0901  0.3854
  130TCq2    H3 1993   1.062   4.424   1.253 -1.0346 -0.7276 -0.0281
  130TCq2    H4 1994   0.969   0.097   1.143  1.1897  1.3571 -2.9406
  131MPD2     C 1995   4.405   4.543   9.717 -0.0639  0.8096  0.1899
  131MPD2    C1 1996   4.479   4.544   9.602  0.6757  0.3376  0.5069
  131MPD2    C2 1997   4.433   4.481   9.492  0.3362 -0.1609 -0.1929
  131MPD2    C3 1998   4.301   4.436   9.480  0.5766  0.2767 -1.1023
  131MPD2    C4 1999   4.226   4.431   9.592 -0.5282  0.4385  0.3873
  131MPD2    C5 2000   4.275   4.496   9.706  0.3207  0.1992 -0.2106
  131MPD2     H 2001   4.491   4.476   9.401  1.2316  1.7797  0.2649
  131MPD2    H1 2002   4.124   4.393   9.593  0.2122 -1.5534  0.4732
  131MPD2    H2 2003   4.447   4.584   9.808  2.3125 -1.0860 -0.0402
  131MPD2    H3 2004   4.206   4.497   9.790 -1.6906  1.2892 -1.8668
  131MPD2     N 2005   4.274   4.353   9.370  0.1227 -0.2195  0.4812
  131MPD2    H5 2006   4.354   4.339   9.309 -1.2927  1.6952 -1.8082
  131MPD2    N1 2007   4.614   4.583   9.612  0.2230 -0.5637 -0.5004
  131MPD2    H7 2008   4.646   4.627   9.697  0.3330  1.5492 -1.6257
  132TCq2    C1 2009   0.329   0.177   9.456  0.2640 -0.4495 -0.1656
  132TCq2    O2 2010   0.327   0.141   9.339 -0.4630 -0.6104 -0.2483
  132TCq2    C2 2011   0.248   0.103   9.541 -0.2951  0.2195 -0.4442
  132TCq2    C3 2012   0.278   0.096   9.678  0.4664  0.0609 -0.0730
  132TCq2    C4 2013   0.224   4.724   9.751 -0.4847  0.1424 -0.2179
  132TCq2    C5 2014   0.132   4.639   9.699 -0.0175 -0.8195  0.2481
  132TCq2    C6 2015   0.099   4.654   9.568  0.7452  0.0511  0.3356
  132TCq2    C7 2016   0.151   0.026   9.488  0.6628  0.2464  0.6872
  132TCq2    C8 2017   4.707   4.595   9.513 -0.1838  0.1175 -0.9876
  132TCq2    O4 2018   4.700   4.575   9.388 -0.2943 -0.0698 -0.7042
  132TCq2    C9 2019   0.266   4.705   9.886 -0.2272  0.0794  0.0737
  132TCq2    O5 2020   0.342   0.061   9.939 -0.4707  0.0387  0.3148
  132TCq2    O6 2021   0.211   4.608   9.948 -0.2546 -0.4788 -0.9270
  132TCq2    H2 2022   0.353   0.163   9.719  0.5671  0.1069 -0.3322
  132TCq2    H3 2023   0.111   4.548   9.755 -0.6525 -0.1419  1.1026
  132TCq2    H4 2024   0.111   0.044   9.389 -0.7180 -2.0542  0.8249
  133MPD2     C 2025   4.095   4.300   8.746 -0.1690 -0.2680 -0.2404
  133MPD2    C1 2026   4.207   4.332   8.815  0.2720 -0.1690 -0.2522
  133MPD2    C2 2027   4.205   4.428   8.918  0.0885  0.8593  0.5769
  133MPD2    C3 2028   4.082   4.480   8.957  1.0253  0.6256 -0.4091
  133MPD2    C4 2029   3.970   4.446   8.896  0.2842  0.4383  0.0849
  133MPD2    C5 2030   3.979   4.357   8.791 -0.2384  0.1926  0.0675
  133MPD2     H 2031   4.293   4.446   8.979  0.4773 -1.7447  0.7734
  133MPD2    H1 2032   3.873   4.490   8.915 -0.3212 -0.5967 -0.6149
  133MPD2    H2 2033   4.088   4.243   8.655 -3.9026  1.4025 -1.0103
  133MPD2    H3 2034   3.889   4.332   8.736 -0.7598  1.1418  0.4729
  133MPD2     N 2035   4.057   4.565   9.067  0.1325 -0.0266  0.6761
  133MPD2    H5 2036   3.961   4.594   9.085  0.0504  0.8862 -1.2032
  133MPD2    N1 2037   4.325   4.271   8.762  0.0719  0.1466  0.2748
  133MPD2    H7 2038   4.311   4.198   8.693  0.9102 -2.2335  2.6420
  134TCq2    C1 2039   4.455   4.278   8.815  0.2453  0.0811  0.1031
  134TCq2    O2 2040   4.485   4.327   8.926 -0.0829  0.3451 -0.0068
  134TCq2    C2 2041   4.547   4.192   8.745 -0.3687  0.6190 -0.2119
  134TCq2    C3 2042   4.527   4.154   8.616  0.1045 -0.0404 -0.0055
  134TCq2    C4 2043   4.625   4.075   8.559  0.8370  0.4178  0.5361
  134TCq2    C5 2044   0.006   4.031   8.629 -0.2592 -0.7178  0.4274
  134TCq2    C6 2045   0.022   4.077   8.757 -0.1639 -0.2986 -0.9281
  134TCq2    C7 2046   4.660   4.163   8.813  0.1423  0.0664  0.2832
  134TCq2    C8 2047   0.143   4.035   8.841 -0.5864 -0.1853  0.0812
  134TCq2    O4 2048   0.147   4.076   8.957 -0.3079 -0.3076 -0.2629
  134TCq2    C9 2049   4.596   4.018   8.426 -0.6115 -0.0939  0.0550
  134TCq2    O5 2050   4.699   3.970   8.363  0.4859  0.1383 -0.6843
  134TCq2    O6 2051   4.489   4.047   8.371 -0.1163 -0.2849 -0.0794
  134TCq2    H2 2052   4.433   4.185   8.570 -0.5419 -1.1190  0.5824
  134TCq2    H3 2053   0.067   3.958   8.576 -1.5937 -0.0914 -1.9864
  134TCq2    H4 2054   4.677   4.181   8.918  0.8258  1.5860 -0.0873
  135MPD2     C 2055   1.490   1.521   9.413 -0.6235 -0.1240  0.5694
  135MPD2    C1 2056   1.561   1.429   9.496 -0.1487 -0.2626  0.6170
  135MPD2    C2 2057   1.663   1.358   9.441 -0.8054 -0.4696 -0.0466
  135MPD2    C3 2058   1.689   1.367   9.304 -0.3152 -0.3518  0.0879
  135MPD2    C4 2059   1.617   1.455   9.228  0.2194  0.4993 -0.2218
  135MPD2    C5 2060   1.521   1.532   9.281 -0.0870  0.4519 -0.0662
  135MPD2     H 2061   1.715   1.284   9.501  1.5406  1.9029  0.8777
  135MPD2    H1 2062   1.620   1.450   9.120  0.5004 -1.7115 -0.1067
  135MPD2    H2 2063   1.411   1.589   9.443 -1.1620  1.0166 -3.4782
  135MPD2    H3 2064   1.465   1.601   9.219 -1.0576  1.2405  1.6904
  135MPD2     N 2065   1.777   1.282   9.233 -0.3472  0.0375  0.1956
  135MPD2    H5 2066   1.792   1.306   9.135 -1.7506  0.0940 -0.0030
  135MPD2    N1 2067   1.530   1.409   9.635 -0.0559  0.0703  0.3876
  135MPD2    H7 2068   1.588   1.347   9.691  1.1538  0.2785 -0.6248
  136TCq2    C1 2069   1.439   1.482   9.714  0.1273 -0.6473 -0.4538
  136TCq2    O2 2070   1.358   1.566   9.676  0.4981 -0.3821 -0.6695
  136TCq2    C2 2071   1.424   1.430   9.850  0.2121  0.4453  0.3293
  136TCq2    C3 2072   1.423   1.294   9.877 -0.2147  0.7493 -0.3001
  136TCq2    C4 2073   1.356   1.241   9.983  0.4767  0.2713  0.0648
  136TCq2    C5 2074   1.287   1.323  10.070  0.1484 -0.3452 -0.0973
  136TCq2    C6 2075   1.297   1.459  10.038 -0.1268 -0.6332 -0.1924
  136TCq2    C7 2076   1.354   1.513   9.929 -0.3628  0.1607 -0.1417
  136TCq2    C8 2077   1.235   1.543  10.138  0.0896  0.2527 -0.1034
  136TCq2    O4 2078   1.236   1.666  10.113  0.0828 -0.7956  0.2301
  136TCq2    C9 2079   1.363   1.102   9.997 -0.9404 -0.0041  0.0894
  136TCq2    O5 2080   1.286   1.046  10.081 -0.0120  0.3753 -0.1331
  136TCq2    O6 2081   1.443   1.035   9.924  0.1345  0.2504  0.0597
  136TCq2    H2 2082   1.457   1.220   9.807  0.0768 -0.2133  0.8621
  136TCq2    H3 2083   1.218   1.280  10.143 -1.3857  0.4463 -1.0919
  136TCq2    H4 2084   1.342   1.618   9.908  0.3380  0.2426 -0.1303
  137MPD2     C 2085   1.977   0.154  10.187 -0.4643  0.2697 -0.1420
  137MPD2    C1 2086   1.909   0.265  10.148  0.2716  0.0601 -0.6855
  137MPD2    C2 2087   1.848   0.349  10.245 -0.1286 -0.4918 -0.0766
  137MPD2    C3 2088   1.867   0.327  10.380  0.0902  0.3487  0.0240
  137MPD2    C4 2089   1.934   0.208  10.415 -0.2582 -0.4953 -0.4205
  137MPD2    C5 2090   1.979   0.122  10.317  0.1137  0.1704  0.4503
  137MPD2     H 2091   1.792   0.435  10.211  0.9202 -0.0709 -0.7738
  137MPD2    H1 2092   1.952   0.183  10.519 -2.5752  2.2367  0.6306
  137MPD2    H2 2093   2.015   0.093  10.106  0.7249  1.2985 -0.3659
  137MPD2    H3 2094   2.029   0.028  10.340 -0.6301 -0.3130  0.1187
  137MPD2     N 2095   1.812   0.415  10.476  0.7491 -0.4740  0.1247
  137MPD2    H5 2096   1.765   0.496  10.436  2.7477 -0.2928 -1.8357
  137MPD2    N1 2097   1.915   0.292  10.006 -0.4254 -0.6826 -0.2081
  137MPD2    H7 2098   1.957   0.220   9.949  0.7450 -0.8417  0.8734
  138TCq2    C1 2099   1.862   0.405   9.947  0.1496 -0.4912 -0.5077
  138TCq2    O2 2100   1.781   0.485   9.993 -0.4544  0.4857 -0.1298
  138TCq2    C2 2101   1.883   0.415   9.809  0.1368  0.2675  0.2350
  138TCq2    C3 2102   1.987   0.349   9.750  0.3678  0.3822 -0.2962
  138TCq2    C4 2103   1.991   0.323   9.618 -0.1689 -0.0805  0.4370
  138TCq2    C5 2104   1.890   0.377   9.542 -0.4373 -0.3491  0.0893
  138TCq2    C6 2105   1.795   0.459   9.596 -0.1088  0.6096 -0.3860
  138TCq2    C7 2106   1.791   0.474   9.735  0.5713  0.0224  0.0357
  138TCq2    C8 2107   1.686   0.492   9.508  0.0659  0.1876 -0.0291
  138TCq2    O4 2108   1.678   0.425   9.403 -0.0851  0.9581 -0.2900
  138TCq2    C9 2109   2.095   0.234   9.560  0.0305 -0.0599 -0.1496
  138TCq2    O5 2110   2.164   0.171   9.643  0.0528 -0.1767  0.1632
  138TCq2    O6 2111   2.088   0.218   9.436  0.4266 -0.2535 -0.1313
  138TCq2    H2 2112   2.064   0.314   9.818 -0.5989 -2.6654 -0.7439
  138TCq2    H3 2113   1.901   0.350   9.437 -0.3076  1.7463 -0.4272
  138TCq2    H4 2114   1.703   0.514   9.785 -0.4044 -2.4412  0.2892
  139TMC2    C1 2115   1.754   3.752  13.664 -0.4035  0.8468  0.0165
  139TMC2    C2 2116   1.695   3.737  13.546 -0.0884 -0.2083 -0.6318
  139TMC2    C3 2117   1.620   3.837  13.497 -0.3164  0.0966  0.1594
  139TMC2    C4 2118   1.742   3.868  13.746 -0.5159 -0.3621 -0.0964
  139TMC2    C5 2119   1.658   3.966  13.694 -0.3508 -0.4982  0.5147
  139TMC2    C6 2120   1.602   3.956  13.572 -0.3742 -0.4500 -0.0545
  139TMC2     C 2121   1.852   3.649  13.684  0.0037  0.1805 -0.1870
  139TMC2     O 2122   1.842   3.544  13.620 -0.5794 -0.1962  0.5923
  139TMC2     H 2123   1.695   3.643  13.492  0.5189  0.4195 -1.7317
  139TMC2    H1 2124   1.753   3.862  13.854  0.7158  1.2234 -0.1318
  139TMC2    H2 2125   1.543   4.037  13.531  0.5906 -0.3399 -1.2005
  139TMC2    C7 2126   1.634   4.096  13.757 -0.5828  0.3105 -0.0503
  139TMC2    C8 2127   1.521   3.810  13.394 -0.4953  0.3576  0.2480
  139TMC2    O1 2128   1.533   4.160  13.723  0.1665 -0.1572  0.2592
  139TMC2    O2 2129   1.424   3.737  13.404 -0.5244  0.1746  0.4603
  139TMC2    O5 2130   1.549   3.888  13.290 -0.5882  0.6360 -0.1446
  139TMC2    H5 2131   1.631   3.941  13.298 -0.8815  1.0284  0.3145
  140MPD2     C 2132   2.148   3.644  13.902 -0.1783  0.5416  0.6093
  140MPD2    C1 2133   2.077   3.622  13.782 -0.0927 -0.3531  0.1544
  140MPD2    C2 2134   2.129   3.536  13.682 -0.4918 -0.0715 -0.1759
  140MPD2    C3 2135   2.250   3.471  13.709 -0.2658  0.2058 -0.2418
  140MPD2    C4 2136   2.318   3.502  13.820  0.1701  0.3302 -0.8839
  140MPD2    C5 2137   2.270   3.580  13.918 -0.1331 -0.6639  0.3546
  140MPD2     H 2138   2.071   3.513  13.593  1.8644 -0.5792 -1.5790
  140MPD2    H1 2139   2.407   3.442  13.831 -0.4097 -0.2975  0.4991
  140MPD2    H2 2140   2.101   3.713  13.971  0.3509  0.7537  0.7642
  140MPD2    H3 2141   2.327   3.597  14.009  1.8406 -0.1418 -0.9840
  140MPD2     N 2142   2.298   3.397  13.600 -0.0765 -0.1909 -0.3099
  140MPD2    H5 2143   2.236   3.374  13.524 -0.2833  0.5953 -0.3801
  140MPD2    N1 2144   1.951   3.687  13.769 -0.4496 -0.1733 -0.0458
  140MPD2    H7 2145   1.937   3.772  13.824 -0.5507 -1.0367  1.2542
  141TCq2    C1 2146   2.626   0.294  14.412 -0.1395  0.0126 -0.0182
  141TCq2    O2 2147   2.539   0.336  14.337  0.2620 -0.5810 -0.0051
  141TCq2    C2 2148   2.594   0.258  14.551  0.2086 -0.0031  0.1728
  141TCq2    C3 2149   2.685   0.181  14.620 -0.5876  0.2963  0.3280
  141TCq2    C4 2150   2.685   0.193  14.754 -0.9385  0.0959  0.1867
  141TCq2    C5 2151   2.609   0.284  14.822 -0.5295  0.3849 -0.1564
  141TCq2    C6 2152   2.515   0.356  14.752 -0.1043 -0.1676  0.9354
  141TCq2    C7 2153   2.506   0.339  14.620  0.7178  0.3728 -0.0644
  141TCq2    C8 2154   2.428   0.449  14.821  0.5199 -0.2958  0.4717
  141TCq2    O4 2155   2.389   0.415  14.928  0.0565 -0.4839 -0.2786
  141TCq2    C9 2156   2.780   0.110  14.815 -0.0385 -0.1021 -0.0599
  141TCq2    O5 2157   2.806   4.727  14.764 -0.3520 -0.2870 -0.1512
  141TCq2    O6 2158   2.796   0.138  14.937  0.1620 -0.5955  0.4895
  141TCq2    H2 2159   2.741   0.104  14.567  1.0214  1.4207  0.3749
  141TCq2    H3 2160   2.617   0.282  14.930  0.3188  2.9715 -0.1682
  141TCq2    H4 2161   2.418   0.383  14.574 -1.0293 -2.3523  0.6982
  142MPD2     C 2162   0.433   2.652  10.310 -0.5046  0.0730 -0.1156
  142MPD2    C1 2163   0.349   2.719  10.223 -0.2154 -0.1670 -0.4255
  142MPD2    C2 2164   0.388   2.846  10.179  0.0282  1.2358 -0.9042
  142MPD2    C3 2165   0.501   2.906  10.234 -0.3775  0.1389  0.5794
  142MPD2    C4 2166   0.580   2.837  10.321  0.6907 -0.5188 -0.4665
  142MPD2    C5 2167   0.541   2.711  10.363  0.8694  0.9806  0.3186
  142MPD2     H 2168   0.331   2.897  10.103 -0.8109  0.6208 -0.6773
  142MPD2    H1 2169   0.673   2.883  10.353  0.8891  0.0111 -1.8126
  142MPD2    H2 2170   0.410   2.552  10.346 -1.6917 -0.2503 -1.7569
  142MPD2    H3 2171   0.606   2.640  10.413 -0.5703 -0.8021 -0.3373
  142MPD2     N 2172   0.538   3.036  10.207 -0.3698  0.7929 -0.2255
  142MPD2    H5 2173   0.622   3.074  10.250  1.1735 -0.5216 -2.1078
  142MPD2    N1 2174   0.228   2.660  10.177  0.8748 -0.8423  0.1321
  142MPD2    H7 2175   0.214   2.564  10.208  1.5381 -1.1154 -0.3900
  143TCq2    C1 2176   0.460   3.130  10.144 -0.1911 -0.7765  0.1738
  143TCq2    O2 2177   0.341   3.122  10.120 -0.3358 -0.1013  0.9909
  143TCq2    C2 2178   0.533   3.256  10.105 -0.4540 -0.8271 -0.0293
  143TCq2    C3 2179   0.673   3.255  10.125 -0.2367 -0.3399 -0.2018
  143TCq2    C4 2180   0.742   3.348  10.057 -0.6946 -0.1988 -0.8096
  143TCq2    C5 2181   0.682   3.438   9.970  0.5805 -0.3419 -0.1565
  143TCq2    C6 2182   0.546   3.438   9.965 -0.1647  0.2786  0.8893
  143TCq2    C7 2183   0.468   3.346  10.030  0.5609  0.3229  0.2579
  143TCq2    C8 2184   0.490   3.502   9.848  0.1283  0.3883  0.3687
  143TCq2    O4 2185   0.570   3.505   9.752  0.1044 -0.0597 -0.2993
  143TCq2    C9 2186   0.887   3.345  10.062  1.0867 -0.6640 -0.8234
  143TCq2    O5 2187   0.949   3.394   9.965  0.1746  0.2630 -0.1973
  143TCq2    O6 2188   0.936   3.320  10.173  0.6914  0.0308  0.1659
  143TCq2    H2 2189   0.720   3.188  10.196 -0.2616 -1.7354 -1.5106
  143TCq2    H3 2190   0.741   3.511   9.917 -1.4643  1.1693 -0.3741
  143TCq2    H4 2191   0.362   3.333  10.012  0.4136 -0.0454  1.4057
  144MPD2     C 2192   2.472   3.257   0.875 -0.3281  0.5936  0.1661
  144MPD2    C1 2193   2.528   3.138   0.825  0.5148  0.0040  0.3649
  144MPD2    C2 2194   2.650   3.093   0.873 -0.2264 -0.3454  0.2074
  144MPD2    C3 2195   2.717   3.153   0.978  0.4429 -0.0712 -0.8332
  144MPD2    C4 2196   2.656   3.269   1.028  0.7050 -0.8021  0.5094
  144MPD2    C5 2197   2.533   3.311   0.987  0.2749 -0.2393 -0.3903
  144MPD2     H 2198   2.692   3.008   0.820 -2.4456  0.1232 -2.3375
  144MPD2    H1 2199   2.698   3.323   1.112  3.8967  0.6253 -1.9823
  144MPD2    H2 2200   2.378   3.296   0.838  0.9871  1.6842 -1.9951
  144MPD2    H3 2201   2.485   3.389   1.045 -0.1914  1.0733 -2.5398
  144MPD2     N 2202   2.847   3.116   1.027  0.1311  0.4073 -0.5767
  144MPD2    H5 2203   2.889   3.176   1.097  0.4231  1.2422 -1.4710
  144MPD2    N1 2204   2.471   3.054   0.721  0.0812  0.4545 -0.1344
  144MPD2    H7 2205   2.526   2.970   0.705 -0.1052  0.5329 -1.1975
  145TCq2    C1 2206   2.923   3.015   0.970  0.1696  0.1586  0.1962
  145TCq2    O2 2207   2.893   2.929   0.890 -0.1391 -0.1239  0.1118
  145TCq2    C2 2208   3.060   3.024   1.008 -0.1563 -0.6822  0.2568
  145TCq2    C3 2209   3.131   2.920   0.964 -0.0879  0.2324  0.6135
  145TCq2    C4 2210   3.261   2.922   0.991 -0.2855 -0.1917 -0.6168
  145TCq2    C5 2211   3.320   3.033   1.048 -0.0250  0.5710 -0.1238
  145TCq2    C6 2212   3.242   3.144   1.066 -0.4078  0.4733 -1.1362
  145TCq2    C7 2213   3.106   3.142   1.062  0.5396 -0.2348  0.4176
  145TCq2    C8 2214   3.309   3.245   1.158 -0.4474  0.4283 -0.3361
  145TCq2    O4 2215   3.417   3.207   1.206  0.0474  0.1167  0.3513
  145TCq2    C9 2216   3.339   2.810   0.955 -0.0381  0.7148  0.2453
  145TCq2    O5 2217   3.456   2.802   1.004 -0.1743  0.1001  0.3559
  145TCq2    O6 2218   3.295   2.744   0.854 -0.2887  0.0233  0.7792
  145TCq2    H2 2219   3.094   2.837   0.905 -1.6664  1.1306  0.3467
  145TCq2    H3 2220   3.425   3.034   1.073 -0.1105 -0.3749  0.2861
  145TCq2    H4 2221   3.048   3.231   1.085 -0.3206 -0.8326  0.5597
  146TMC2    C1 2222   4.000   1.377  12.887 -0.4147  0.2421 -0.2621
  146TMC2    C2 2223   3.874   1.423  12.861  0.4774  0.2613 -0.1802
  146TMC2    C3 2224   3.805   1.374  12.755 -0.0967 -0.3777 -0.8850
  146TMC2    C4 2225   4.075   1.301  12.793  0.1351  0.1280  0.1477
  146TMC2    C5 2226   4.006   1.274  12.677 -0.4458 -0.0472  0.1806
  146TMC2    C6 2227   3.871   1.295  12.660 -0.0912 -0.5044 -0.3330
  146TMC2     C 2228   4.067   1.480  12.964  0.3633 -0.7304  0.1948
  146TMC2     O 2229   4.011   1.587  12.971 -0.6427  0.1948 -0.5774
  146TMC2     H 2230   3.820   1.485  12.932  0.2213 -0.8458  0.5939
  146TMC2    H1 2231   4.183   1.313  12.798  0.3241 -1.4074 -0.3369
  146TMC2    H2 2232   3.810   1.275  12.573  1.3785 -1.8562 -1.0396
  146TMC2    C7 2233   4.074   1.263  12.547 -0.0799 -0.0270  0.1458
  146TMC2    C8 2234   3.696   1.447  12.704  0.2223 -0.4546  0.2193
  146TMC2    O1 2235   4.021   1.286  12.437 -0.6475 -0.2183  0.2554
  146TMC2    O2 2236   3.707   1.506  12.594 -0.0523 -0.6784 -0.0530
  146TMC2    O5 2237   3.620   1.493  12.799 -0.3706  0.3644 -0.5836
  146TMC2    H5 2238   3.610   1.429  12.873  0.6426 -0.0363 -0.8043
  147MPD2     C 2239   4.516   1.135  12.311  0.1701  0.3337 -0.0790
  147MPD2    C1 2240   4.534   1.120  12.447 -0.7779 -0.3043 -0.1481
  147MPD2    C2 2241   4.427   1.148  12.534  0.2931  0.5235 -0.6805
  147MPD2    C3 2242   4.302   1.190  12.482 -0.4764  0.7126 -0.2360
  147MPD2    C4 2243   4.286   1.205  12.343  0.7378  0.9910 -0.6100
  147MPD2    C5 2244   4.394   1.186  12.257  0.0960  0.8280 -0.2173
  147MPD2     H 2245   4.427   1.128  12.640  2.5822  1.5347 -0.5041
  147MPD2    H1 2246   4.199   1.256  12.301 -0.5693 -0.4821  0.3254
  147MPD2    H2 2247   4.585   1.111  12.232  0.9958 -0.0794  0.7663
  147MPD2    H3 2248   4.393   1.202  12.150  0.0693  0.8025 -0.2209
  147MPD2     N 2249   4.205   1.222  12.573  0.5185  0.3779 -0.0598
  147MPD2    H5 2250   4.243   1.209  12.667  0.7744  1.2243 -0.0513
  147MPD2    N1 2251   4.659   1.069  12.490  0.1892 -0.0303  0.1761
  147MPD2    H7 2252   4.717   1.028  12.418 -0.0961  1.4512 -0.8851
  148MPD2     C 2253   4.440   0.369  10.358  0.0437 -0.6931  0.0154
  148MPD2    C1 2254   4.519   0.268  10.397  0.1321  0.0849 -0.4789
  148MPD2    C2 2255   4.479   0.150  10.458  0.1205  0.1920  0.3034
  148MPD2    C3 2256   4.347   0.141  10.487  0.1433 -0.4080 -0.0248
  148MPD2    C4 2257   4.262   0.239  10.441  0.4487  0.0377 -0.1429
  148MPD2    C5 2258   4.308   0.348  10.373 -0.1687  0.1978  0.3494
  148MPD2     H 2259   4.549   0.076  10.495 -2.5681 -1.4926  2.0330
  148MPD2    H1 2260   4.155   0.239  10.461  0.3847 -0.5496 -0.4984
  148MPD2    H2 2261   4.476   0.456  10.305 -0.0378  1.4121  3.3900
  148MPD2    H3 2262   4.238   0.421  10.333 -2.3544 -1.6448  0.8085
  148MPD2     N 2263   4.291   0.034  10.558  0.0908  0.0009 -0.3113
  148MPD2    H5 2264   4.190   0.028  10.564  0.2904 -2.0773  0.7652
  148MPD2    N1 2265   4.659   0.284  10.405  0.4741 -0.3645 -0.0100
  148MPD2    H7 2266   4.712   0.201  10.431  0.4894 -1.2184 -2.7511
  149TCq2    C1 2267   0.009   0.397  10.381 -0.3983  0.4070 -0.3356
  149TCq2    O2 2268   4.701   0.496  10.318  0.4467  0.2611  0.0541
  149TCq2    C2 2269   0.153   0.379  10.403  0.4204 -0.1924  0.4747
  149TCq2    C3 2270   0.248   0.425  10.314 -0.0703 -0.1881 -0.8099
  149TCq2    C4 2271   0.380   0.409  10.348  0.4930 -0.1801  0.2878
  149TCq2    C5 2272   0.421   0.323  10.446  0.3707 -0.2666 -0.4070
  149TCq2    C6 2273   0.321   0.276  10.534 -0.1086 -0.0806 -0.2771
  149TCq2    C7 2274   0.190   0.312  10.518  0.0334 -0.0286  0.0508
  149TCq2    C8 2275   0.326   0.138  10.577 -0.2782 -0.1483  0.0785
  149TCq2    O4 2276   0.261   0.104  10.673 -0.2503  0.1626 -0.1302
  149TCq2    C9 2277   0.473   0.426  10.235  0.1726 -0.0175 -0.4977
  149TCq2    O5 2278   0.434   0.492  10.134 -0.1406 -0.4927  0.0977
  149TCq2    O6 2279   0.598   0.395  10.253 -0.6690 -0.3094 -1.3118
  149TCq2    H2 2280   0.216   0.467  10.219 -0.8482  0.6455 -0.1934
  149TCq2    H3 2281   0.520   0.283  10.462 -0.7398 -2.6742  0.3764
  149TCq2    H4 2282   0.114   0.267  10.582 -0.6603  0.7397 -0.2295
  150MPD2     C 2283   1.326   4.233  12.205  0.4112 -0.1512  0.2515
  150MPD2    C1 2284   1.379   4.214  12.076 -0.1450 -0.1632  0.3305
  150MPD2    C2 2285   1.518   4.241  12.064 -0.2440 -0.6973 -0.9697
  150MPD2    C3 2286   1.598   4.281  12.168  0.1413 -0.0873  0.6533
  150MPD2    C4 2287   1.537   4.316  12.289 -0.3403  0.5993  0.0440
  150MPD2    C5 2288   1.405   4.285  12.304 -0.2701 -0.0612 -0.5540
  150MPD2     H 2289   1.577   4.231  11.973  0.6169  1.0989 -0.6061
  150MPD2    H1 2290   1.598   4.372  12.359 -0.5449  1.2660 -0.3051
  150MPD2    H2 2291   1.220   4.219  12.223  0.7521 -1.1779  1.4123
  150MPD2    H3 2292   1.352   4.324  12.391  1.0161  1.6734 -0.5508
  150MPD2     N 2293   1.735   4.300  12.152 -0.0505 -0.2129 -0.0253
  150MPD2    H5 2294   1.784   4.353  12.223  0.5517  0.7644 -1.1711
  150MPD2    N1 2295   1.289   4.170  11.980 -0.2877  0.2321 -0.1107
  150MPD2    H7 2296   1.194   4.150  12.011 -0.4566 -1.9844 -2.1440
  151TCq2    C1 2297   1.815   4.249  12.052  0.2126 -0.0650  0.5784
  151TCq2    O2 2298   1.789   4.191  11.952  0.0594 -0.7919  0.4380
  151TCq2    C2 2299   1.956   4.282  12.080  0.1037 -0.2578  0.0977
  151TCq2    C3 2300   2.030   4.317  11.971  0.1439  0.4483  0.6021
  151TCq2    C4 2301   2.150   4.378  11.990 -0.0940 -0.2975 -0.2154
  151TCq2    C5 2302   2.200   4.404  12.113  0.3510 -1.1318  0.1509
  151TCq2    C6 2303   2.131   4.365  12.216 -0.4448  0.5250 -0.6131
  151TCq2    C7 2304   2.007   4.301  12.208 -0.4003  0.5471  0.4150
  151TCq2    C8 2305   2.202   4.355  12.338 -0.1375  0.0682 -0.3437
  151TCq2    O4 2306   2.283   4.444  12.359 -0.2037  0.2511 -0.0894
  151TCq2    C9 2307   2.228   4.412  11.870  0.5436 -0.4826 -0.3269
  151TCq2    O5 2308   2.342   4.464  11.895  0.1624 -0.0742  0.4651
  151TCq2    O6 2309   2.160   4.430  11.767  0.3435 -0.5462 -0.3156
  151TCq2    H2 2310   1.987   4.306  11.872  1.5791 -1.9488  0.2375
  151TCq2    H3 2311   2.300   4.442  12.127 -0.1968 -0.1661  1.4782
  151TCq2    H4 2312   1.951   4.286  12.300 -1.3926 -1.1212 -0.4433
  152MPD2     C 2313   1.262   3.976  12.869 -0.1155 -0.0320 -0.4284
  152MPD2    C1 2314   1.311   4.021  12.750  0.1180 -0.0776 -0.2544
  152MPD2    C2 2315   1.230   4.039  12.642 -0.6013  0.4667  0.0162
  152MPD2    C3 2316   1.096   4.018  12.655  0.1585  0.2290  0.3557
  152MPD2    C4 2317   1.040   3.970  12.771  0.1593 -0.2365  0.3107
  152MPD2    C5 2318   1.126   3.957  12.878  0.2364  0.1170  1.0165
  152MPD2     H 2319   1.267   4.082  12.549 -1.6900 -0.0008 -0.6371
  152MPD2    H1 2320   0.938   3.934  12.780  0.1921 -0.0275  1.5441
  152MPD2    H2 2321   1.320   3.951  12.958 -1.2433  1.1453  0.6388
  152MPD2    H3 2322   1.079   3.920  12.969 -0.1596 -2.4586 -0.2420
  152MPD2     N 2323   1.018   4.060  12.547  0.5279  0.1016  0.4012
  152MPD2    H5 2324   1.067   4.105  12.471  2.6339 -0.9662  1.1464
  152MPD2    N1 2325   1.450   4.045  12.744  0.1937  0.3241 -0.7436
  152MPD2    H7 2326   1.494   4.025  12.833  0.4764  0.4045 -0.8660
  153TCq2    C1 2327   1.527   4.065  12.636  0.1247  0.2166  0.8520
  153TCq2    O2 2328   1.503   4.078  12.512  0.5452  0.4159  0.0666
  153TCq2    C2 2329   1.670   4.077  12.667 -0.5871 -0.1673 -0.5007
  153TCq2    C3 2330   1.728   4.017  12.779  0.5058  0.5359  0.3562
  153TCq2    C4 2331   1.850   4.068  12.822  0.2968  0.2695 -0.4565
  153TCq2    C5 2332   1.916   4.162  12.749 -0.6719 -0.5645  0.1526
  153TCq2    C6 2333   1.859   4.214  12.632 -0.6950 -0.0423 -0.4176
  153TCq2    C7 2334   1.741   4.164  12.591 -0.5625  0.4330  0.6706
  153TCq2    C8 2335   1.898   4.341  12.576  0.0966 -0.4094  0.4508
  153TCq2    O4 2336   1.839   4.380  12.475 -0.1960  0.5465 -0.2001
  153TCq2    C9 2337   1.899   4.042  12.956 -0.6922  0.1640  0.0314
  153TCq2    O5 2338   1.832   3.951  13.012 -0.3986 -0.0604  0.0490
  153TCq2    O6 2339   1.997   4.106  12.997 -0.1472  0.4941  0.4084
  153TCq2    H2 2340   1.663   3.953  12.838 -1.5985  1.6976 -0.6930
  153TCq2    H3 2341   2.009   4.206  12.782 -1.0828 -0.7663  1.5675
  153TCq2    H4 2342   1.700   4.209  12.501  1.2875 -0.9003 -0.8481
  154MPD2     C 2343   3.386   0.157   0.367  0.2081  0.1955 -0.2913
  154MPD2    C1 2344   3.330   0.085   0.469  0.1028 -0.1944  0.2616
  154MPD2    C2 2345   3.195   0.102   0.502  0.5713 -0.5219 -0.8123
  154MPD2    C3 2346   3.121   0.189   0.433  0.4454  0.0683  0.0995
  154MPD2    C4 2347   3.173   0.252   0.325  0.5222 -0.6896 -0.7873
  154MPD2    C5 2348   3.310   0.241   0.288  0.8516 -0.5157  0.1519
  154MPD2     H 2349   3.142   0.052   0.582  2.7545 -1.0568  0.2944
  154MPD2    H1 2350   3.113   0.310   0.256  0.3516 -0.6949 -0.6435
  154MPD2    H2 2351   3.487   0.136   0.332  0.3609 -1.2132  0.9633
  154MPD2    H3 2352   3.344   0.301   0.205 -0.0777  0.4324  0.4569
  154MPD2     N 2353   2.985   0.209   0.480  0.0396 -0.3202 -0.2659
  154MPD2    H5 2354   2.948   0.147   0.551  2.1290  0.5605  1.5755
  154MPD2    N1 2355   3.412   4.701   0.520 -0.4084 -1.1467  0.5881
  154MPD2    H7 2356   3.507   4.688   0.486 -0.5750  1.8728 -1.0591
  155TCq2    C1 2357   3.385   4.619   0.625  0.0189  0.6280  0.4481
  155TCq2    O2 2358   3.292   4.611   0.703  0.4181 -0.0382 -0.0676
  155TCq2    C2 2359   3.502   4.528   0.638 -0.4782 -0.2433  0.3974
  155TCq2    C3 2360   3.508   4.459   0.757 -0.9057  0.2407 -0.6375
  155TCq2    C4 2361   3.598   4.354   0.775  0.7343 -0.2832  0.2421
  155TCq2    C5 2362   3.687   4.339   0.672  0.4880  0.0036  0.1247
  155TCq2    C6 2363   3.685   4.414   0.553 -0.0910  0.5715  0.0017
  155TCq2    C7 2364   3.587   4.501   0.527 -0.2394  0.1975 -0.0144
  155TCq2    C8 2365   3.725   4.330   0.437  0.2424  0.8985  0.4405
  155TCq2    O4 2366   3.738   4.209   0.461  0.1596 -0.5858 -0.1058
  155TCq2    C9 2367   3.599   4.257   0.889  0.0194 -0.3946  0.5665
  155TCq2    O5 2368   3.510   4.269   0.978 -0.3292  0.2637 -0.5762
  155TCq2    O6 2369   3.689   4.172   0.898  0.3887  0.0562  0.0971
  155TCq2    H2 2370   3.430   4.469   0.832  1.1522  3.5484  1.0874
  155TCq2    H3 2371   3.767   4.267   0.683  0.2247 -0.2630  0.2787
  155TCq2    H4 2372   3.560   4.532   0.427 -1.5263 -1.1580 -0.0828
  156MPD2     C 2373   1.770   1.352  12.565 -0.0460  0.6306  0.7837
  156MPD2    C1 2374   1.769   1.455  12.474  0.0022 -0.0227 -0.9119
  156MPD2    C2 2375   1.703   1.569  12.503  0.4190  0.3327  0.5939
  156MPD2    C3 2376   1.655   1.600  12.633 -0.2005 -0.1407 -0.2488
  156MPD2    C4 2377   1.663   1.502  12.727  0.2922 -0.7215  0.7111
  156MPD2    C5 2378   1.705   1.376  12.689 -0.5695 -0.0971 -0.2610
  156MPD2     H 2379   1.706   1.650  12.432  0.0379 -0.5905 -0.4695
  156MPD2    H1 2380   1.611   1.511  12.822 -0.2288 -0.3590  0.3929
  156MPD2    H2 2381   1.813   1.253  12.552 -0.2177  0.2731  2.7968
  156MPD2    H3 2382   1.697   1.294  12.759  0.9420  0.6595  0.7929
  156MPD2     N 2383   1.630   1.735  12.672  0.3377  0.3885  0.5451
  156MPD2    H5 2384   1.642   1.798  12.594  2.2316  1.3033  1.5542
  156MPD2    N1 2385   1.842   1.431  12.359 -0.1614  0.3201  0.6471
  156MPD2    H7 2386   1.894   1.345  12.359 -0.5137  0.1070  0.3196
  157TCq2    C1 2387   1.847   1.511  12.252 -0.4369 -0.7433  0.1828
  157TCq2    O2 2388   1.776   1.606  12.224 -0.1401 -0.1253  0.0546
  157TCq2    C2 2389   1.959   1.474  12.167 -0.2370  0.8432  0.3938
  157TCq2    C3 2390   2.061   1.399  12.214  0.2904 -0.3086 -0.1297
  157TCq2    C4 2391   2.167   1.366  12.126  0.1544 -0.2884 -0.0556
  157TCq2    C5 2392   2.153   1.397  11.996 -0.5414  0.4913  0.0606
  157TCq2    C6 2393   2.047   1.474  11.952 -0.1058  0.1169  0.6206
  157TCq2    C7 2394   1.945   1.513  12.037  0.3289  0.3126  0.3724
  157TCq2    C8 2395   2.041   1.501  11.813  0.1572  0.2365 -0.6183
  157TCq2    O4 2396   2.111   1.426  11.744  0.7918 -0.0678 -0.2032
  157TCq2    C9 2397   2.275   1.288  12.175  0.2794 -0.9186 -0.3308
  157TCq2    O5 2398   2.359   1.241  12.098  0.0895  0.3827  0.0336
  157TCq2    O6 2399   2.264   1.237  12.289 -0.2277  0.0004 -0.4020
  157TCq2    H2 2400   2.059   1.365  12.316  2.8535  1.2770  0.4479
  157TCq2    H3 2401   2.224   1.352  11.929  1.4019  1.4460  1.4760
  157TCq2    H4 2402   1.861   1.575  12.007  1.1167 -0.1739 -2.8513
  158TMC2    C1 2403   1.518   0.361  13.126  0.8182 -0.4965  0.4251
  158TMC2    C2 2404   1.503   0.373  12.987 -0.3238  0.1437 -1.0701
  158TMC2    C3 2405   1.379   0.386  12.935  0.0198 -0.7923 -0.0014
  158TMC2    C4 2406   1.414   0.364  13.203 -0.4895 -0.7173 -0.3483
  158TMC2    C5 2407   1.291   0.383  13.149  0.7329  0.6788 -0.1200
  158TMC2    C6 2408   1.270   0.401  13.015 -0.0738  0.5163  0.0951
  158TMC2     C 2409   1.647   0.349  13.177 -0.3549 -0.0871 -0.3726
  158TMC2     O 2410   1.734   0.336  13.089  0.4575  0.4657 -0.0818
  158TMC2     H 2411   1.586   0.371  12.917 -0.3588  1.9350 -1.1635
  158TMC2    H1 2412   1.413   0.348  13.310  0.2423  0.4199 -0.1773
  158TMC2    H2 2413   1.171   0.408  12.973  0.0434  1.4638 -0.0350
  158TMC2    C7 2414   1.170   0.379  13.240 -0.0301 -0.4808  0.4309
  158TMC2    C8 2415   1.376   0.358  12.799  0.1726  0.3643 -0.4553
  158TMC2    O1 2416   1.069   0.397  13.173 -0.6171  0.4526  0.0023
  158TMC2    O2 2417   1.448   0.416  12.719  0.9592 -0.0567  0.5031
  158TMC2    O5 2418   1.246   0.337  12.773  0.1308  0.7002 -0.8097
  158TMC2    H5 2419   1.209   0.276  12.840  1.1707 -1.4471 -2.1868
  159MPD2     C 2420   2.022   0.287  13.519  0.5757 -0.6536 -0.3296
  159MPD2    C1 2421   1.914   0.338  13.582 -0.1189 -0.2396  0.2205
  159MPD2    C2 2422   1.791   0.349  13.519 -0.0732  0.1224  0.5362
  159MPD2    C3 2423   1.784   0.324  13.382  0.7501 -0.1452 -0.6985
  159MPD2    C4 2424   1.899   0.273  13.313  0.3146  0.6987  0.2909
  159MPD2    C5 2425   2.015   0.250  13.386 -0.6837 -0.0616  0.0516
  159MPD2     H 2426   1.702   0.375  13.575  0.7611 -1.3184  2.5051
  159MPD2    H1 2427   1.894   0.245  13.208 -1.7965  1.1301  0.2750
  159MPD2    H2 2428   2.112   0.259  13.573  1.4339  1.2590 -0.7424
  159MPD2    H3 2429   2.104   0.219  13.332 -0.5040 -2.8182  1.9593
  159MPD2     N 2430   1.663   0.354  13.312  0.2778  0.3439  0.8688
  159MPD2    H5 2431   1.581   0.370  13.369 -1.8897  0.0137 -2.1472
  159MPD2    N1 2432   1.936   0.376  13.713  0.1284 -0.5736  0.3346
  159MPD2    H7 2433   2.028   0.371  13.755  0.6586  0.5594 -0.6853
  160TMC2    C1 2434   1.962   3.572   1.162  0.0529  0.2831 -0.4228
  160TMC2    C2 2435   2.083   3.583   1.230 -0.3136 -0.2780 -0.5074
  160TMC2    C3 2436   2.145   3.698   1.217  0.8637  0.4435  0.0649
  160TMC2    C4 2437   1.921   3.669   1.079  0.4544  0.3229 -0.2014
  160TMC2    C5 2438   1.995   3.785   1.068 -0.8068  0.6822  0.2800
  160TMC2    C6 2439   2.108   3.802   1.141  0.3080 -0.3462 -0.3799
  160TMC2     C 2440   1.879   3.458   1.189  0.2358  1.0521 -0.3970
  160TMC2     O 2441   1.911   3.378   1.278 -0.1032 -0.0429 -0.0601
  160TMC2     H 2442   2.119   3.498   1.286  0.2853  0.3132  0.0144
  160TMC2    H1 2443   1.840   3.667   1.007  0.7138  0.1599 -0.4880
  160TMC2    H2 2444   2.184   3.876   1.117  1.3080 -0.8496  1.2899
  160TMC2    C7 2445   1.960   3.889   0.972  0.1726 -0.0526  0.0627
  160TMC2    C8 2446   2.282   3.698   1.262  0.3608  1.1396  0.1650
  160TMC2    O1 2447   1.883   3.844   0.889  0.2089  0.0964 -0.0347
  160TMC2    O2 2448   2.372   3.762   1.207 -0.4642 -0.0467  0.2977
  160TMC2    O5 2449   2.302   3.613   1.368 -0.3317  0.2469  0.3435
  160TMC2    H5 2450   2.215   3.579   1.400 -0.9094 -0.8259 -2.2645
  161MPD2     C 2451   1.622   3.293   1.254  0.2211  0.2191 -0.5571
  161MPD2    C1 2452   1.640   3.387   1.155 -0.8626 -0.0474 -0.3498
  161MPD2    C2 2453   1.534   3.405   1.072  0.0602 -0.3515 -0.3150
  161MPD2    C3 2454   1.412   3.354   1.103  0.3836 -0.7324 -0.2367
  161MPD2    C4 2455   1.400   3.256   1.199 -0.1854  0.2978  0.3600
  161MPD2    C5 2456   1.506   3.217   1.272  0.0946 -0.3591 -0.7625
  161MPD2     H 2457   1.547   3.464   0.982  0.3766 -3.0385 -2.0204
  161MPD2    H1 2458   1.313   3.198   1.228 -1.1789  0.7116 -1.7682
  161MPD2    H2 2459   1.699   3.260   1.323  1.2233 -0.5693 -2.0746
  161MPD2    H3 2460   1.493   3.140   1.347 -1.4682  1.1185  0.4889
  161MPD2     N 2461   1.300   3.406   1.034  0.0973 -0.3081  0.2641
  161MPD2    H5 2462   1.212   3.361   1.055  0.4113 -0.6225  0.9201
  161MPD2    N1 2463   1.759   3.459   1.124  0.4861 -0.3566  0.5275
  161MPD2    H7 2464   1.753   3.530   1.052  0.5357 -0.3040  0.5754
  162TMC2    C1 2465   4.376   0.381   1.043  0.6077  0.1355  0.1170
  162TMC2    C2 2466   4.283   0.457   0.975  0.1245  0.9814  0.3966
  162TMC2    C3 2467   4.206   0.541   1.054  0.3258  0.0614  0.8645
  162TMC2    C4 2468   4.390   0.375   1.179  0.1181  0.3401  1.2840
  162TMC2    C5 2469   4.319   0.471   1.247  0.2033 -0.2741 -0.0503
  162TMC2    C6 2470   4.223   0.548   1.190 -0.5557  0.3900  0.4925
  162TMC2     C 2471   4.460   0.296   0.960  0.4593 -0.4548  0.2726
  162TMC2     O 2472   4.485   0.334   0.842  0.3834 -0.8680  0.5718
  162TMC2     H 2473   4.286   0.458   0.866  1.3361  0.1954  0.4148
  162TMC2    H1 2474   4.466   0.314   1.227  0.3538 -0.4995 -0.1801
  162TMC2    H2 2475   4.162   0.623   1.238  1.8218  2.0898  0.8533
  162TMC2    C7 2476   4.369   0.525   1.374  0.0709  0.7630  0.6175
  162TMC2    C8 2477   4.132   0.642   0.982 -0.9236 -0.4992  0.3619
  162TMC2    O1 2478   4.296   0.606   1.425  0.2902  0.3759  0.1024
  162TMC2    O2 2479   4.145   0.668   0.862  0.6411 -0.9435  0.4458
  162TMC2    O5 2480   4.008   0.653   1.040 -0.1780  0.1005 -0.1016
  162TMC2    H5 2481   3.997   0.601   1.122 -0.0505 -0.5595 -0.4988
  163MPD2     C 2482   0.086   4.650   0.943  0.7411  0.9693 -0.3182
  163MPD2    C1 2483   0.046   0.009   0.846 -0.3827  0.1170 -0.6841
  163MPD2    C2 2484   4.680   0.100   0.881 -0.4870 -0.0900 -0.2904
  163MPD2    C3 2485   4.609   0.094   0.998 -0.2271 -0.1213  0.0477
  163MPD2    C4 2486   4.637   4.719   1.086 -0.4815  0.1211  0.2510
  163MPD2    C5 2487   0.015   4.632   1.059  0.3101  0.5239  0.2423
  163MPD2     H 2488   4.655   0.183   0.815  0.8319  1.0018  0.5637
  163MPD2    H1 2489   4.600   4.720   1.188  0.5529 -0.2412  0.6233
  163MPD2    H2 2490   0.166   4.578   0.929 -1.4288 -1.0574 -2.3765
  163MPD2    H3 2491   0.044   4.561   1.135 -1.3480  0.0279  0.4298
  163MPD2     N 2492   4.504   0.186   1.031 -0.7540 -0.4991  0.4351
  163MPD2    H5 2493   4.465   0.164   1.122 -0.0591  0.3006  0.9282
  163MPD2    N1 2494   0.122   0.009   0.720  0.5444  0.1015  0.3632
  163MPD2    H7 2495   0.201   4.674   0.713  0.2077 -0.1149 -1.4776
  164TCq2    C1 2496   0.565   0.316  10.861 -0.4760 -0.0254 -0.5488
  164TCq2    O2 2497   0.496   0.221  10.891  0.1034 -0.2716 -0.2735
  164TCq2    C2 2498   0.497   0.440  10.855 -0.2106 -0.6576  0.5737
  164TCq2    C3 2499   0.560   0.564  10.828  0.0227  0.8440 -0.4307
  164TCq2    C4 2500   0.489   0.675  10.848 -0.2116  0.1961 -0.0000
  164TCq2    C5 2501   0.353   0.675  10.873 -0.7817  1.0885  0.2970
  164TCq2    C6 2502   0.302   0.556  10.916 -0.1080 -0.6044  0.6942
  164TCq2    C7 2503   0.363   0.435  10.887 -1.1254 -0.4619 -0.7225
  164TCq2    C8 2504   0.164   0.549  10.954 -0.1053  0.3967 -0.0112
  164TCq2    O4 2505   0.087   0.628  10.899  0.4096  0.1978 -0.2630
  164TCq2    C9 2506   0.559   0.800  10.858 -0.1179 -0.2772 -0.5666
  164TCq2    O5 2507   0.681   0.798  10.855  0.8604 -0.6132 -0.6747
  164TCq2    O6 2508   0.484   0.903  10.865 -0.8334 -0.1442  0.6822
  164TCq2    H2 2509   0.667   0.573  10.818  0.1393  1.5532  1.5003
  164TCq2    H3 2510   0.305   0.769  10.897 -2.9334  0.2435 -0.6568
  164TCq2    H4 2511   0.310   0.344  10.913 -2.1205 -0.0202 -1.2065
  165MPD2     C 2512   0.543   2.317   0.955  0.2388 -0.1175  0.4288
  165MPD2    C1 2513   0.545   2.303   1.090  0.3170 -0.8250 -0.4772
  165MPD2    C2 2514   0.612   2.394   1.166  0.1429  0.4445 -0.4499
  165MPD2    C3 2515   0.690   2.494   1.110  0.2490 -0.2013  0.3133
  165MPD2    C4 2516   0.690   2.506   0.974  0.2356 -0.6050  0.5062
  165MPD2    C5 2517   0.612   2.423   0.901  0.7450 -0.7329 -0.5179
  165MPD2     H 2518   0.614   2.376   1.273  1.7265  1.7486 -0.2591
  165MPD2    H1 2519   0.758   2.578   0.930 -1.1633  0.4660  0.0948
  165MPD2    H2 2520   0.497   2.248   0.885 -0.8883  1.3469 -0.2919
  165MPD2    H3 2521   0.625   2.438   0.794  0.9893  1.1111 -0.2372
  165MPD2     N 2522   0.795   2.576   1.169 -0.3151 -0.4374  0.2987
  165MPD2    H5 2523   0.842   2.645   1.112 -0.3982  1.1232  2.1189
  165MPD2    N1 2524   0.470   2.197   1.143  0.1443  0.6390  0.1927
  165MPD2    H7 2525   0.409   2.142   1.084  0.5367 -0.4837  0.8278
  166TCq2    C1 2526   0.829   2.578   1.298 -0.6908 -0.4548 -0.0284
  166TCq2    O2 2527   0.810   2.486   1.378  0.2747 -0.3142 -0.1256
  166TCq2    C2 2528   0.934   2.675   1.323 -0.4283 -0.0710 -0.8056
  166TCq2    C3 2529   0.986   2.675   1.452 -0.4011  0.2053  0.8090
  166TCq2    C4 2530   1.090   2.763   1.482  0.0166  0.3190 -0.1011
  166TCq2    C5 2531   1.154   2.830   1.381  0.2602 -0.5717 -0.0873
  166TCq2    C6 2532   1.105   2.833   1.251  0.1263 -0.2693  0.2440
  166TCq2    C7 2533   0.991   2.757   1.225  0.0721 -0.1962 -0.0428
  166TCq2    C8 2534   1.175   2.913   1.149 -0.5487 -0.8914 -0.1480
  166TCq2    O4 2535   1.286   2.957   1.171 -0.3185 -0.0608 -0.2413
  166TCq2    C9 2536   1.139   2.777   1.619 -0.0809 -0.2314  0.2682
  166TCq2    O5 2537   1.090   2.701   1.707 -0.3026  0.5787  0.0247
  166TCq2    O6 2538   1.258   2.820   1.639  0.0579  0.1187  0.0621
  166TCq2    H2 2539   0.948   2.621   1.538  0.5771  1.1792  1.8520
  166TCq2    H3 2540   1.238   2.891   1.410  0.2444 -0.6691  0.1570
  166TCq2    H4 2541   0.972   2.746   1.119 -1.5843 -0.1844  0.2579
  167TMC2    C1 2542   4.210   4.466  13.128  0.2054  0.6404  0.0114
  167TMC2    C2 2543   4.119   4.390  13.192  0.4984  0.3283  0.4038
  167TMC2    C3 2544   4.023   4.322  13.116 -0.5702  0.3111 -0.1058
  167TMC2    C4 2545   4.207   4.478  12.993  0.6034  0.5339 -0.9811
  167TMC2    C5 2546   4.115   4.408  12.920 -0.7998  0.2276  0.1835
  167TMC2    C6 2547   4.020   4.328  12.979 -0.2226  0.0002  0.3538
  167TMC2     C 2548   4.331   4.503  13.192  0.3784 -0.3315  0.0400
  167TMC2     O 2549   4.333   4.511  13.310  0.3719  0.1956 -0.5469
  167TMC2     H 2550   4.114   4.384  13.301 -1.4048 -3.8717  0.0884
  167TMC2    H1 2551   4.256   4.560  12.941  0.9182  0.4234 -0.8550
  167TMC2    H2 2552   3.932   4.293  12.926  0.4662 -1.0410 -0.1102
  167TMC2    C7 2553   4.094   4.453  12.783  1.1088  0.6856  0.1393
  167TMC2    C8 2554   3.910   4.257  13.178 -0.0012 -0.0400 -0.1393
  167TMC2    O1 2555   3.981   4.447  12.734  0.1564  0.5626  0.2743
  167TMC2    O2 2556   3.871   4.149  13.140  0.3720  0.0503  0.6271
  167TMC2    O5 2557   3.835   4.341  13.262  0.1484 -0.3131 -0.5788
  167TMC2    H5 2558   3.882   4.424  13.285 -2.3153  1.5549 -2.2581
  168MPD2     C 2559   4.587   4.655  13.249 -0.3120  0.9892 -0.4918
  168MPD2    C1 2560   4.530   4.626  13.126  0.0379  0.2805 -0.1005
  168MPD2    C2 2561   4.582   4.683  13.014 -0.4086  1.4213 -0.1342
  168MPD2    C3 2562   4.700   0.020  13.012  0.3346 -0.2572 -0.9372
  168MPD2    C4 2563   0.035   0.042  13.133  0.5389 -0.4560 -0.6521
  168MPD2    C5 2564   4.706   0.002  13.254  0.4024  0.1788  0.1876
  168MPD2     H 2565   4.534   4.661  12.919  0.4926 -0.9041 -0.0692
  168MPD2    H1 2566   0.124   0.104  13.134  1.1231 -1.3766  2.0964
  168MPD2    H2 2567   4.543   4.619  13.341 -0.5978  0.0955 -0.9846
  168MPD2    H3 2568   0.020   0.028  13.350  0.8865 -3.5743  1.0151
  168MPD2     N 2569   0.023   0.071  12.890  0.2294  0.1241  0.0092
  168MPD2    H5 2570   0.117   0.108  12.892  1.1020 -2.3075  2.3343
  168MPD2    N1 2571   4.422   4.547  13.100 -0.5454  0.5043  0.5830
  168MPD2    H7 2572   4.411   4.514  13.005 -0.7797  0.7039  0.5423
  169MPD1     C 2573   3.167   3.724   9.156  0.4633  0.4552  0.2009
  169MPD1    C1 2574   3.186   3.627   9.250 -0.0995 -0.3451 -0.4044
  169MPD1    C2 2575   3.081   3.537   9.254 -0.2058 -0.1294 -0.3168
  169MPD1    C3 2576   2.982   3.525   9.162  0.2182  0.4847  0.5752
  169MPD1    C4 2577   2.963   3.627   9.070  0.5037  0.6689 -0.7570
  169MPD1    C5 2578   3.059   3.726   9.069 -0.3993  0.4909 -1.0603
  169MPD1     H 2579   3.083   3.458   9.328  1.9555 -0.4269 -0.6647
  169MPD1    H1 2580   2.870   3.632   9.015  0.5601 -2.3941 -1.1157
  169MPD1    H2 2581   3.222   3.818   9.153  0.5971  0.3151 -1.5903
  169MPD1    H3 2582   3.035   3.808   9.003 -1.4569 -2.3679 -4.2043
  169MPD1     N 2583   2.902   3.411   9.166 -0.3736  0.1126  0.2645
  169MPD1    H5 2584   2.929   3.337   9.229  0.2801  0.6562  0.6289
  169MPD1    N1 2585   3.271   3.636   9.357 -0.3202  0.1332 -0.1656
  169MPD1    H6 2586   3.291   3.545   9.397  1.2487 -0.1153 -1.5147
  169MPD1    H7 2587   3.364   3.669   9.333 -0.4062 -0.0228 -0.7389
  170MPD1     C 2588   4.335   2.908  13.281 -0.0713  0.4447  0.2648
  170MPD1    C1 2589   4.457   2.960  13.244 -0.4970 -0.6293 -0.0284
  170MPD1    C2 2590   4.547   2.992  13.348 -0.1233  0.2200 -0.4271
  170MPD1    C3 2591   4.522   2.966  13.482 -0.5404  0.4787  0.0919
  170MPD1    C4 2592   4.395   2.911  13.513 -0.5895  0.0464  0.5831
  170MPD1    C5 2593   4.306   2.870  13.411  0.2662 -0.1368  0.7330
  170MPD1     H 2594   4.642   3.036  13.320  0.9033 -2.3721 -1.0231
  170MPD1    H1 2595   4.371   2.875  13.612  0.7547 -1.5179  0.3414
  170MPD1    H2 2596   4.256   2.904  13.207 -0.5799  1.1598  0.7579
  170MPD1    H3 2597   4.212   2.824  13.440 -0.5727  0.2565 -1.4006
  170MPD1     N 2598   4.618   3.001  13.578  0.3333 -0.7099  0.6672
  170MPD1    H5 2599   4.697   3.049  13.537 -0.1910  0.9265  1.5616
  170MPD1    N1 2600   4.473   3.003  13.108  0.1023 -0.1476 -0.2597
  170MPD1    H6 2601   4.571   3.017  13.084  0.2549  0.1156  0.5114
  170MPD1    H7 2602   4.427   2.936  13.048  0.1674 -0.9645  0.6021
  171MPD1     C 2603   3.947   3.985  15.548  0.1420 -0.5707 -0.1704
  171MPD1    C1 2604   4.075   3.984  15.590 -0.0217 -0.8207  0.8274
  171MPD1    C2 2605   4.134   3.864  15.629 -0.4405  0.4725 -0.1661
  171MPD1    C3 2606   4.068   3.745  15.607  0.3856  0.5254  0.0023
  171MPD1    C4 2607   3.934   3.750  15.559  0.6359  0.1848  0.7459
  171MPD1    C5 2608   3.873   3.870  15.529  0.4035  0.5290  0.1153
  171MPD1     H 2609   4.238   3.865  15.658 -1.3433  2.5831  2.9860
  171MPD1    H1 2610   3.871   3.662  15.552 -0.0341  0.8079 -1.0319
  171MPD1    H2 2611   3.897   4.078  15.525  1.2215  1.0176  3.9707
  171MPD1    H3 2612   3.768   3.871  15.502  0.1137  0.6762  1.2583
  171MPD1     N 2613   4.125   3.627  15.652  0.0480 -1.0017 -0.1908
  171MPD1    H5 2614   4.215   3.640  15.697  1.0640 -0.9174 -2.2210
  171MPD1    N1 2615   4.132   4.104  15.645  0.1062  0.5491 -0.5613
  171MPD1    H6 2616   4.233   4.106  15.628  0.1576  0.7989 -0.2214
  171MPD1    H7 2617   4.095   4.189  15.602 -2.1425 -1.4669 -2.5161
  172MPD1     C 2618   2.819   2.452   0.258  0.1931 -0.3077 -0.3641
  172MPD1    C1 2619   2.719   2.537   0.295  0.0062  0.2023  0.6574
  172MPD1    C2 2620   2.754   2.648   0.374  0.0840  0.6129  0.4221
  172MPD1    C3 2621   2.886   2.670   0.413 -0.4458  0.9270  0.7948
  172MPD1    C4 2622   2.980   2.577   0.373  0.2115 -0.8140  0.4033
  172MPD1    C5 2623   2.944   2.471   0.296  0.4126 -0.2965  0.2846
  172MPD1     H 2624   2.675   2.715   0.405 -0.5034 -0.3324  0.9776
  172MPD1    H1 2625   3.084   2.582   0.402  0.2716 -1.7032  0.3496
  172MPD1    H2 2626   2.784   2.379   0.186  1.6727 -0.1742 -1.2053
  172MPD1    H3 2627   3.018   2.398   0.264 -1.4818 -1.6930 -0.8901
  172MPD1     N 2628   2.936   2.774   0.491  0.3968 -0.4414 -0.2268
  172MPD1    H5 2629   3.033   2.762   0.519  0.0931  1.5033  1.6970
  172MPD1    N1 2630   2.586   2.488   0.286 -0.1650 -0.1931  0.1663
  172MPD1    H6 2631   2.558   2.441   0.200  0.7888  0.6639 -0.6147
  172MPD1    H7 2632   2.515   2.559   0.299  0.7527  0.4585  1.5816
  173MPD1     C 2633   4.304   3.111  14.806 -0.1183 -0.5659 -0.6028
  173MPD1    C1 2634   4.281   3.061  14.680 -1.0358 -0.1745 -0.1243
  173MPD1    C2 2635   4.230   2.926  14.677  0.2190 -0.7332 -0.1315
  173MPD1    C3 2636   4.182   2.864  14.797 -0.6983  0.5061 -0.4297
  173MPD1    C4 2637   4.193   2.934  14.914 -0.4987  0.5312 -0.5376
  173MPD1    C5 2638   4.256   3.057  14.915 -0.3096  0.0923 -0.0366
  173MPD1     H 2639   4.212   2.877  14.582 -0.3813 -0.0014 -0.3961
  173MPD1    H1 2640   4.163   2.887  15.007  1.8756  0.0129 -0.0360
  173MPD1    H2 2641   4.343   3.212  14.814 -0.8882 -0.2563 -0.6534
  173MPD1    H3 2642   4.277   3.107  15.008  2.2928 -2.1722  0.5699
  173MPD1     N 2643   4.132   2.736  14.790 -0.2770 -0.4688  0.5606
  173MPD1    H5 2644   4.112   2.695  14.699  0.2367 -1.9792  1.1304
  173MPD1    N1 2645   4.332   3.126  14.567 -0.3089  0.3818  0.0416
  173MPD1    H6 2646   4.337   3.226  14.587 -0.5538  0.2584  0.7202
  173MPD1    H7 2647   4.288   3.103  14.478  0.6912 -1.3660 -0.0071
  174MPD1     C 2648   4.173   2.262  14.104  0.1814 -0.5663 -0.3221
  174MPD1    C1 2649   4.063   2.208  14.155  0.0798 -0.6377  0.1805
  174MPD1    C2 2650   4.024   2.243  14.283  0.0211  0.5685 -0.6456
  174MPD1    C3 2651   4.096   2.339  14.356 -0.0800 -0.6030 -0.4765
  174MPD1    C4 2652   4.210   2.389  14.299  0.0605  0.1525  0.1452
  174MPD1    C5 2653   4.249   2.353  14.171 -0.6613  0.7447 -0.3492
  174MPD1     H 2654   3.929   2.202  14.315 -1.1007  3.1861 -0.6951
  174MPD1    H1 2655   4.274   2.455  14.356  0.7749 -1.4209  1.1545
  174MPD1    H2 2656   4.194   2.255  13.998  0.8684 -0.6650 -0.1800
  174MPD1    H3 2657   4.335   2.389  14.116 -0.7016  3.1735  1.1859
  174MPD1     N 2658   4.064   2.384  14.494 -0.4314  0.3677  0.4431
  174MPD1    H5 2659   4.094   2.475  14.528  0.4609 -0.2133  1.2270
  174MPD1    N1 2660   3.983   2.132  14.064 -0.3261  1.0947 -0.5551
  174MPD1    H6 2661   4.036   2.063  14.011  0.1686  0.1029  1.2266
  174MPD1    H7 2662   3.914   2.086  14.124 -1.3550  1.3314 -1.5550
  175MPD1     C 2663   2.910   3.473  15.883 -1.3151  0.1032 -0.2771
  175MPD1    C1 2664   3.026   3.445  15.947  0.4655 -0.4699  0.0421
  175MPD1    C2 2665   3.015   3.425  16.084 -0.1711 -0.1645  0.5128
  175MPD1    C3 2666   2.897   3.448  16.155  0.4397  0.2314 -0.3702
  175MPD1    C4 2667   2.785   3.480  16.085 -0.2587 -0.4999 -0.1221
  175MPD1    C5 2668   2.791   3.499  15.950 -0.0954  0.3183  0.4914
  175MPD1     H 2669   3.104   3.400  16.141  0.0189 -0.1829  0.2109
  175MPD1    H1 2670   2.696   3.485  16.146 -0.6339  1.8611 -0.8283
  175MPD1    H2 2671   2.904   3.490  15.776 -0.1159  1.1268 -0.1750
  175MPD1    H3 2672   2.710   3.553  15.901  0.9782  1.5527  0.0489
  175MPD1     N 2673   2.891   3.457  16.296  0.1919 -0.8547 -0.2114
  175MPD1    H5 2674   2.798   3.479  16.330  1.3934  1.4723  1.5081
  175MPD1    N1 2675   3.148   3.409  15.875 -0.4456 -0.1176  0.2967
  175MPD1    H6 2676   3.237   3.434  15.918 -1.7011  2.6910  1.2883
  175MPD1    H7 2677   3.148   3.455  15.784  1.4584  0.4303  0.5911
  176MPD1     C 2678   0.014   0.331  16.564 -0.3463 -0.2245  0.5359
  176MPD1    C1 2679   0.020   0.460  16.519 -0.1526 -0.4290 -0.5796
  176MPD1    C2 2680   4.672   0.559  16.581  0.6076 -0.8567 -0.2419
  176MPD1    C3 2681   4.616   0.532  16.709 -0.7265 -1.0073  0.0735
  176MPD1    C4 2682   4.624   0.402  16.761 -0.0632 -0.0577 -0.2335
  176MPD1    C5 2683   4.680   0.302  16.688  0.3181 -0.8084  0.0914
  176MPD1     H 2684   4.666   0.657  16.534 -1.7360 -0.8534  0.0707
  176MPD1    H1 2685   4.575   0.358  16.846 -0.3408  0.5044 -0.1008
  176MPD1    H2 2686   0.060   0.247  16.515 -0.9981  1.3454 -2.7471
  176MPD1    H3 2687   4.694   0.202  16.727 -1.6747 -0.0926  2.6338
  176MPD1     N 2688   4.543   0.634  16.775  0.1397 -0.0088  0.1861
  176MPD1    H5 2689   4.538   0.725  16.731  1.5141 -1.1829 -2.3973
  176MPD1    N1 2690   0.073   0.490  16.392 -0.1286  0.0884 -0.2070
  176MPD1    H6 2691   0.135   0.417  16.359 -0.2051  0.0440 -0.2533
  176MPD1    H7 2692   0.118   0.581  16.394  1.2978 -0.5904 -2.4882
  177MPD1     C 2693   3.287   4.726  10.893 -1.0530 -0.1686  0.0280
  177MPD1    C1 2694   3.202   4.621  10.859  0.1161  0.1531 -0.0632
  177MPD1    C2 2695   3.150   4.624  10.731 -0.8376  0.2943  1.0345
  177MPD1    C3 2696   3.175   4.726  10.641 -0.4146 -0.4595 -0.3021
  177MPD1    C4 2697   3.234   0.107  10.691 -0.4446  1.0158  0.3298
  177MPD1    C5 2698   3.295   0.106  10.811 -0.2637 -0.3002 -0.0351
  177MPD1     H 2699   3.081   4.545  10.704 -0.3375  0.6948 -1.4579
  177MPD1    H1 2700   3.244   0.203  10.642 -1.8518  1.2620  0.5358
  177MPD1    H2 2701   3.330   0.008  10.991 -0.4379  0.1275 -0.2742
  177MPD1    H3 2702   3.351   0.194  10.839  1.6177 -0.8480 -2.0707
  177MPD1     N 2703   3.103   4.727  10.516 -0.0583 -0.1482  0.1777
  177MPD1    H5 2704   3.033   4.657  10.496 -1.5865  0.9101  1.7920
  177MPD1    N1 2705   3.164   4.520  10.949 -0.2787 -0.9389  0.9074
  177MPD1    H6 2706   3.099   4.454  10.905 -0.2073  0.7584 -1.7583
  177MPD1    H7 2707   3.116   4.556  11.031 -0.5654  0.3599  0.1836
  178MPD1     C 2708   4.310   1.364   0.457  0.0216 -0.2778 -0.6025
  178MPD1    C1 2709   4.367   1.251   0.412  0.2114  0.5018 -0.1888
  178MPD1    C2 2710   4.437   1.257   0.296  0.0932  0.1542  0.8854
  178MPD1    C3 2711   4.474   1.375   0.229 -0.4949  0.3646 -0.1161
  178MPD1    C4 2712   4.423   1.490   0.286 -0.0065  0.0716 -0.5344
  178MPD1    C5 2713   4.337   1.482   0.395  0.1512 -0.4561  0.0284
  178MPD1     H 2714   4.462   1.159   0.258  0.1597  0.8092 -0.7385
  178MPD1    H1 2715   4.442   1.590   0.248 -1.4063 -0.1348 -1.7901
  178MPD1    H2 2716   4.245   1.360   0.544 -0.7009 -3.4026 -1.2921
  178MPD1    H3 2717   4.302   1.574   0.441  2.1846  0.2901  0.0756
  178MPD1     N 2718   4.568   1.384   0.134 -0.0712  0.2859  0.2652
  178MPD1    H5 2719   4.595   1.479   0.110 -2.0831  0.6268 -0.5851
  178MPD1    N1 2720   4.328   1.129   0.470  0.1119  0.1398  0.3472
  178MPD1    H6 2721   4.400   1.058   0.457  0.3952  0.3131  0.9699
  178MPD1    H7 2722   4.322   1.156   0.568 -0.1923 -0.5203  0.5059
  179MPD1     C 2723   0.711   0.235  15.776 -0.0148  0.2288 -0.1266
  179MPD1    C1 2724   0.589   0.228  15.708  0.2711 -0.1504  1.1521
  179MPD1    C2 2725   0.485   0.158  15.780 -0.0108 -0.2268  0.4395
  179MPD1    C3 2726   0.511   0.088  15.901  0.8622  0.2714  0.0246
  179MPD1    C4 2727   0.637   0.100  15.955  0.1052 -0.1335  0.0826
  179MPD1    C5 2728   0.737   0.171  15.887 -0.3020  0.2518  0.1146
  179MPD1     H 2729   0.387   0.164  15.734  1.1273 -1.5427 -2.1344
  179MPD1    H1 2730   0.658   0.052  16.050 -1.1455 -0.1420  0.3484
  179MPD1    H2 2731   0.793   0.282  15.723  0.0641  0.7128  0.4247
  179MPD1    H3 2732   0.833   0.171  15.937 -1.0327  0.5157  1.4979
  179MPD1     N 2733   0.419   0.014  15.980 -0.2798  0.0173  1.0909
  179MPD1    H5 2734   0.452   4.711  16.071  1.8914 -1.7179 -0.2985
  179MPD1    N1 2735   0.559   0.314  15.601 -0.1245  0.0768 -0.6804
  179MPD1    H6 2736   0.645   0.341  15.555 -0.7356 -1.2247 -2.5887
  179MPD1    H7 2737   0.489   0.277  15.538 -0.0008 -0.0082 -0.7685
  180MPD1     C 2738   0.203   1.639  15.206  0.5233 -0.0413  0.2879
  180MPD1    C1 2739   0.298   1.654  15.106  0.1082  0.1741  0.2389
  180MPD1    C2 2740   0.253   1.649  14.974 -1.0925  0.0272  0.3317
  180MPD1    C3 2741   0.117   1.622  14.947 -0.3584  0.5052 -0.2819
  180MPD1    C4 2742   0.031   1.595  15.052 -0.5282  0.5301  0.2168
  180MPD1    C5 2743   0.076   1.612  15.180  0.8879  0.4010  0.0295
  180MPD1     H 2744   0.320   1.666  14.890 -1.1478  1.9662  0.6916
  180MPD1    H1 2745   4.665   1.542  15.045 -0.4142  0.1007  1.9527
  180MPD1    H2 2746   0.224   1.655  15.311 -1.1596 -0.2753  0.6497
  180MPD1    H3 2747   0.009   1.588  15.262  1.3996  0.9898  0.6164
  180MPD1     N 2748   0.076   1.608  14.814 -0.1863 -0.1231 -0.1182
  180MPD1    H5 2749   0.140   1.644  14.743 -0.2897 -1.4288 -0.8644
  180MPD1    N1 2750   0.424   1.708  15.144  0.2355 -0.4670 -0.5620
  180MPD1    H6 2751   0.448   1.681  15.240  1.5909  0.0652 -0.7608
  180MPD1    H7 2752   0.498   1.675  15.083 -0.5461 -0.0710 -1.7182
  181MPD1     C 2753   1.499   2.386  10.630 -0.0607 -0.4992 -0.3221
  181MPD1    C1 2754   1.553   2.513  10.619  0.4429 -0.4722 -0.5334
  181MPD1    C2 2755   1.603   2.556  10.497  0.1715  0.2257 -0.5363
  181MPD1    C3 2756   1.637   2.462  10.396  0.2289 -0.8697 -0.5164
  181MPD1    C4 2757   1.601   2.338  10.420  0.0757 -0.1232 -0.2359
  181MPD1    C5 2758   1.524   2.297  10.527  0.6216  0.8809  1.0408
  181MPD1     H 2759   1.620   2.663  10.490  0.6801  0.1557 -0.3762
  181MPD1    H1 2760   1.634   2.258  10.355 -0.4835 -1.4911  1.1541
  181MPD1    H2 2761   1.440   2.350  10.714  0.4887  3.5669  1.7839
  181MPD1    H3 2762   1.499   2.193  10.539 -0.9673  1.1059 -0.3613
  181MPD1     N 2763   1.697   2.496  10.275 -0.2318 -0.2314 -0.4995
  181MPD1    H5 2764   1.680   2.440  10.192 -1.3477  0.4898 -0.7613
  181MPD1    N1 2765   1.519   2.611  10.705 -0.4992 -0.7284  0.5526
  181MPD1    H6 2766   1.533   2.577  10.800  1.3635  1.7646  1.1671
  181MPD1    H7 2767   1.594   2.680  10.706 -0.4201 -0.8118  0.2653
  182MPD1     C 2768   2.418   1.303   1.491 -0.9514 -0.0197  1.0363
  182MPD1    C1 2769   2.475   1.406   1.416 -0.6567  0.5471  0.4661
  182MPD1    C2 2770   2.447   1.412   1.279  0.1217  0.3870  0.0496
  182MPD1    C3 2771   2.355   1.330   1.224  0.2869 -0.2305 -0.0455
  182MPD1    C4 2772   2.285   1.237   1.303  0.4607  0.3468 -0.4716
  182MPD1    C5 2773   2.321   1.223   1.434  0.0639  0.2020 -0.3590
  182MPD1     H 2774   2.495   1.484   1.215 -1.8239  0.7479 -1.0078
  182MPD1    H1 2775   2.213   1.167   1.262 -0.1501  1.0478 -0.6042
  182MPD1    H2 2776   2.437   1.293   1.597  1.2936  2.0212  0.8148
  182MPD1    H3 2777   2.274   1.145   1.493  1.4838 -0.2332  0.1726
  182MPD1     N 2778   2.321   1.319   1.090 -0.5572  0.8852 -0.1602
  182MPD1    H5 2779   2.256   1.244   1.073 -0.5392  0.8390 -0.0247
  182MPD1    N1 2780   2.578   1.487   1.474 -0.2061  0.3001 -0.0038
  182MPD1    H6 2781   2.560   1.500   1.573 -1.5694  0.9915 -0.3408
  182MPD1    H7 2782   2.576   1.584   1.442 -0.3591  0.2825 -0.0504
  183MPD1     C 2783   2.130   1.640   8.533 -0.0368  0.6239  0.0515
  183MPD1    C1 2784   2.044   1.744   8.552  0.5656  0.0476  0.3767
  183MPD1    C2 2785   2.058   1.818   8.674  0.1368 -0.0817  0.4141
  183MPD1    C3 2786   2.164   1.786   8.762 -0.4338  0.4343  0.2623
  183MPD1    C4 2787   2.249   1.684   8.729 -0.2651  0.0383 -0.6096
  183MPD1    C5 2788   2.232   1.606   8.621  0.5400 -0.5658 -0.1528
  183MPD1     H 2789   1.982   1.890   8.702  1.4754  1.4446  0.1184
  183MPD1    H1 2790   2.336   1.657   8.788  1.3606  1.2690 -2.4540
  183MPD1    H2 2791   2.129   1.576   8.446  2.4378  1.0417 -0.2690
  183MPD1    H3 2792   2.301   1.525   8.600  0.5535 -0.5056 -0.3446
  183MPD1     N 2793   2.168   1.852   8.885 -0.2899 -0.1628  0.1684
  183MPD1    H5 2794   2.090   1.913   8.906 -0.1454 -0.2551  0.9686
  183MPD1    N1 2795   1.926   1.753   8.479  0.2639 -0.1209 -0.2227
  183MPD1    H6 2796   1.932   1.725   8.381  0.2436 -1.2983  0.1141
  183MPD1    H7 2797   1.887   1.847   8.477  0.2114 -0.1184  0.7760
  184MPD1     C 2798   2.806   4.404  10.862  0.1275  0.0591  0.3260
  184MPD1    C1 2799   2.703   4.317  10.891 -0.5391 -0.2719  0.4090
  184MPD1    C2 2800   2.589   4.311  10.807 -0.0277 -0.6383 -0.5251
  184MPD1    C3 2801   2.580   4.398  10.700 -0.0169 -0.0947  0.9767
  184MPD1    C4 2802   2.666   4.508  10.693 -0.3816  0.1058  0.6553
  184MPD1    C5 2803   2.772   4.508  10.778  0.2110  0.1028 -0.1846
  184MPD1     H 2804   2.508   4.239  10.817  0.2855 -0.9360 -0.1556
  184MPD1    H1 2805   2.655   4.581  10.613 -1.7880  2.7449  3.2312
  184MPD1    H2 2806   2.894   4.416  10.924  1.3332 -0.5887 -1.2582
  184MPD1    H3 2807   2.849   4.584  10.786 -1.3147  1.5240  0.9666
  184MPD1     N 2808   2.479   4.396  10.606 -0.4778  0.3565  0.1379
  184MPD1    H5 2809   2.478   4.469  10.535  2.4720  1.4919  1.2663
  184MPD1    N1 2810   2.727   4.226  10.985  0.0351  0.1509 -0.0040
  184MPD1    H6 2811   2.640   4.203  11.033  0.3658  1.1093  1.0376
  184MPD1    H7 2812   2.803   4.244  11.050 -0.7644  0.1560  0.9364
  185MPD1     C 2813   1.514   4.045  10.204  0.2293 -0.3992 -0.5012
  185MPD1    C1 2814   1.603   3.979  10.287  0.3763  0.1515 -1.0437
  185MPD1    C2 2815   1.723   4.037  10.326  0.0143  0.0831 -0.2914
  185MPD1    C3 2816   1.768   4.148  10.259 -0.2213 -1.5195 -0.0867
  185MPD1    C4 2817   1.682   4.208  10.170 -0.2083 -0.0597  0.9857
  185MPD1    C5 2818   1.559   4.159  10.140  0.0015 -0.8066 -0.2156
  185MPD1     H 2819   1.785   4.003  10.408  1.9694  0.8431 -1.4665
  185MPD1    H1 2820   1.718   4.300  10.124  1.2441 -1.2669 -0.2909
  185MPD1    H2 2821   1.427   3.992  10.167  0.5580 -0.9651 -0.4671
  185MPD1    H3 2822   1.499   4.196  10.057  0.0991  1.4125  0.6932
  185MPD1     N 2823   1.893   4.210  10.279 -0.0647  0.4100 -0.4765
  185MPD1    H5 2824   1.897   4.306  10.247 -0.2844  0.1137 -1.3843
  185MPD1    N1 2825   1.574   3.857  10.347 -0.6383  0.0477  0.2916
  185MPD1    H6 2826   1.488   3.814  10.312 -0.8983 -0.5332  1.6272
  185MPD1    H7 2827   1.555   3.867  10.447 -0.7140  0.4840  0.2334
  186MPD1     C 2828   4.695   0.794  16.038  0.1085  0.3925 -0.1944
  186MPD1    C1 2829   0.060   0.855  16.108  0.2209 -0.3014  0.2156
  186MPD1    C2 2830   0.181   0.796  16.139  1.0624 -0.3480 -0.4392
  186MPD1    C3 2831   0.218   0.673  16.085 -0.5162  0.3836  0.3337
  186MPD1    C4 2832   0.112   0.606  16.025  0.3026 -0.4804 -0.1035
  186MPD1    C5 2833   4.716   0.661  16.008 -0.6536 -0.0814 -0.3647
  186MPD1     H 2834   0.245   0.847  16.211 -0.3871  3.2086 -1.6568
  186MPD1    H1 2835   0.131   0.509  15.980  1.4256  0.9305 -2.6324
  186MPD1    H2 2836   4.594   0.835  16.037 -0.1659 -0.2993 -0.5738
  186MPD1    H3 2837   4.628   0.615  15.965 -0.9652 -0.0884  0.2834
  186MPD1     N 2838   0.350   0.614  16.099 -0.8890 -0.5906 -0.2539
  186MPD1    H5 2839   0.354   0.523  16.054 -2.1629 -0.2916 -0.9924
  186MPD1    N1 2840   0.021   0.975  16.166  0.0762 -0.2009 -0.0504
  186MPD1    H6 2841   0.094   1.044  16.185 -0.5598  0.9110 -1.6516
  186MPD1    H7 2842   4.680   1.013  16.103  1.3291 -0.4003 -1.5489
  187MPD1     C 2843   4.305   2.098   0.067  0.2869 -0.1579 -0.0804
  187MPD1    C1 2844   4.357   1.981   0.019 -0.0959  0.1358  0.2436
  187MPD1    C2 2845   4.383   1.979  17.595  0.5665  0.1080 -0.6374
  187MPD1    C3 2846   4.358   2.087  17.514 -0.4472  0.1951 -0.4281
  187MPD1    C4 2847   4.307   2.196  17.575 -1.0052 -0.3092  0.2016
  187MPD1    C5 2848   4.291   2.207  17.707 -0.0778  0.1591  0.4161
  187MPD1     H 2849   4.418   1.888  17.548  3.5802  0.2719  1.2218
  187MPD1    H1 2850   4.273   2.283  17.520 -0.4590 -0.2437 -0.0348
  187MPD1    H2 2851   4.281   2.107   0.172  0.8022 -0.0566  0.0280
  187MPD1    H3 2852   4.232   2.290   0.031 -1.1392 -0.1631 -0.5404
  187MPD1     N 2853   4.390   2.089  17.378 -0.4988  0.1956 -0.0441
  187MPD1    H5 2854   4.369   2.179  17.336  1.1470  1.3362  1.5496
  187MPD1    N1 2855   4.374   1.867   0.103 -0.2144 -0.2680 -1.1349
  187MPD1    H6 2856   4.409   1.905   0.192  0.0157 -0.4592 -1.1453
  187MPD1    H7 2857   4.430   1.796   0.058 -1.0542 -1.4636 -0.2794
  188MPD1     C 2858   4.555   1.487  10.775 -0.5685  0.5164  0.5337
  188MPD1    C1 2859   4.454   1.544  10.697  0.5703 -0.0422 -0.0835
  188MPD1    C2 2860   4.439   1.497  10.562  0.3027  0.1705  0.1895
  188MPD1    C3 2861   4.530   1.406  10.509 -0.6187  0.3177 -0.5740
  188MPD1    C4 2862   4.627   1.358  10.597  0.5634 -0.3944  0.0428
  188MPD1    C5 2863   4.639   1.397  10.729 -0.4144 -0.4007  0.0027
  188MPD1     H 2864   4.356   1.534  10.502  1.0608  0.4317 -0.6923
  188MPD1    H1 2865   4.700   1.291  10.552  0.6529  0.4420 -1.0623
  188MPD1    H2 2866   4.558   1.498  10.883  0.3364  0.4110  0.5210
  188MPD1    H3 2867   4.714   1.347  10.789 -1.8894 -3.4507 -0.6719
  188MPD1     N 2868   4.539   1.363  10.375  0.4793 -0.7713 -0.2433
  188MPD1    H5 2869   4.601   1.286  10.354  0.7406 -1.1195  1.7912
  188MPD1    N1 2870   4.353   1.624  10.759  0.3269 -0.2854  0.4827
  188MPD1    H6 2871   4.344   1.687  10.680  1.3337 -0.2747  0.3718
  188MPD1    H7 2872   4.405   1.683  10.824  1.5573  0.8956 -1.5714
  189MPD1     C 2873   1.281   2.325   0.041 -0.1498 -0.2935  0.1482
  189MPD1    C1 2874   1.154   2.293   0.059 -0.4490 -0.0604  0.3147
  189MPD1    C2 2875   1.068   2.403   0.093  0.6157  0.0525 -0.1620
  189MPD1    C3 2876   1.114   2.528   0.113 -0.1694 -0.1709 -0.2403
  189MPD1    C4 2877   1.248   2.539   0.114 -0.0071  0.5531 -0.2159
  189MPD1    C5 2878   1.329   2.447   0.066 -0.1653  0.2521 -0.1776
  189MPD1     H 2879   0.961   2.387   0.085  0.5302  1.5366 -1.9177
  189MPD1    H1 2880   1.296   2.631   0.145  0.8113 -0.1225  0.5321
  189MPD1    H2 2881   1.352   2.249   0.012  1.5451  0.6372  1.8233
  189MPD1    H3 2882   1.435   2.464   0.050 -0.2562  1.2777  0.2760
  189MPD1     N 2883   1.028   2.629   0.153  0.3175 -0.0266  0.0610
  189MPD1    H5 2884   0.935   2.606   0.188  0.5380 -1.0602 -0.0213
  189MPD1    N1 2885   1.108   2.166   0.015 -0.3457  0.2767  0.0599
  189MPD1    H6 2886   1.167   2.087   0.041  0.7170  1.5077  1.3635
  189MPD1    H7 2887   1.019   2.138   0.057 -0.0011  0.2764  0.7930
  190MPD1     C 2888   4.429   0.715  15.608 -0.6760  0.2281 -0.0436
  190MPD1    C1 2889   4.434   0.823  15.685 -0.1747  0.4274  0.3114
  190MPD1    C2 2890   4.559   0.888  15.693 -0.4409 -0.5112 -0.8683
  190MPD1    C3 2891   4.669   0.846  15.618 -0.3258 -0.0496  0.2402
  190MPD1    C4 2892   4.652   0.745  15.525  0.8178 -0.2778  0.8255
  190MPD1    C5 2893   4.534   0.685  15.522  0.2302 -0.3049 -0.1928
  190MPD1     H 2894   4.570   0.960  15.773 -3.4557  1.4396 -2.1968
  190MPD1    H1 2895   0.006   0.710  15.463  0.2146  1.4043 -0.9381
  190MPD1    H2 2896   4.341   0.653  15.601 -0.8823  0.0296  4.7716
  190MPD1    H3 2897   4.524   0.610  15.444 -1.4291  1.4765 -1.6760
  190MPD1     N 2898   0.067   0.910  15.655  0.1177 -0.1179  0.1125
  190MPD1    H5 2899   0.070   0.966  15.740 -0.5841 -0.5822  0.4424
  190MPD1    N1 2900   4.341   0.853  15.778 -0.3133 -0.7723  0.0442
  190MPD1    H6 2901   4.327   0.950  15.806  4.8367  0.0875 -0.3764
  190MPD1    H7 2902   4.247   0.826  15.750 -0.4037 -0.4501  0.0356
  191MPD1     C 2903   4.281   2.410  13.205 -0.4839 -0.3254 -0.2756
  191MPD1    C1 2904   4.145   2.441  13.194 -0.0008  0.7676 -0.2715
  191MPD1    C2 2905   4.098   2.557  13.132  0.1524 -0.2975  0.2677
  191MPD1    C3 2906   4.191   2.636  13.076 -0.5646  0.1194 -0.3810
  191MPD1    C4 2907   4.327   2.608  13.073 -0.0410 -0.3247 -0.8468
  191MPD1    C5 2908   4.374   2.498  13.146 -0.4102 -0.1908  0.8763
  191MPD1     H 2909   3.993   2.582  13.142 -0.1284 -1.3355 -0.0894
  191MPD1    H1 2910   4.404   2.675  13.035 -2.6446  1.9609 -2.1216
  191MPD1    H2 2911   4.307   2.322  13.263  0.4957 -1.3924 -2.3175
  191MPD1    H3 2912   4.479   2.485  13.171  0.3511  2.1587 -1.0898
  191MPD1     N 2913   4.146   2.750  12.999  0.5797 -0.4665 -1.0278
  191MPD1    H5 2914   4.047   2.771  12.987  0.5403  0.2665  0.4817
  191MPD1    N1 2915   4.057   2.368  13.274  0.8100  0.2912 -0.5780
  191MPD1    H6 2916   4.090   2.272  13.279 -0.2580 -0.1758 -2.5035
  191MPD1    H7 2917   3.963   2.366  13.234  1.2590  0.8003 -1.6513
  192MPD1     C 2918   3.324   2.991  12.610  0.2619  0.4896  0.3230
  192MPD1    C1 2919   3.414   2.879  12.590  0.1221  0.7122  0.0669
  192MPD1    C2 2920   3.545   2.904  12.609  0.6322  0.6987 -0.1930
  192MPD1    C3 2921   3.600   3.017  12.666  0.1079  0.5928  0.2573
  192MPD1    C4 2922   3.513   3.121  12.691  0.5853  0.6704 -0.2238
  192MPD1    C5 2923   3.379   3.108  12.660 -0.1194  0.0510  0.1268
  192MPD1     H 2924   3.605   2.821  12.573  0.0254  0.5315 -0.8194
  192MPD1    H1 2925   3.544   3.216  12.731 -0.2813 -1.2065  4.9606
  192MPD1    H2 2926   3.218   2.985  12.590  1.3074 -2.4269 -4.1873
  192MPD1    H3 2927   3.309   3.187  12.685  0.9486  0.5666  1.4918
  192MPD1     N 2928   3.744   3.037  12.682  0.1945  0.6020  0.0726
  192MPD1    H5 2929   3.771   3.132  12.708  0.1622  0.0635  2.1100
  192MPD1    N1 2930   3.375   2.762  12.526  0.3584  0.2391  0.3339
  192MPD1    H6 2931   3.274   2.750  12.532  0.3875 -0.9534 -1.6184
  192MPD1    H7 2932   3.413   2.678  12.570  0.8163  1.2085  1.7991
  193MPD1     C 2933   3.600   3.224  16.447 -0.2406  1.2890  0.5632
  193MPD1    C1 2934   3.563   3.269  16.573  0.1943  0.1451  0.2045
  193MPD1    C2 2935   3.657   3.335  16.657  0.6218  0.5695 -0.2567
  193MPD1    C3 2936   3.787   3.328  16.632 -0.1080 -0.1773  0.2247
  193MPD1    C4 2937   3.825   3.264  16.522  0.1780  0.7503 -0.0566
  193MPD1    C5 2938   3.731   3.223  16.426 -0.4275 -0.8639 -0.6500
  193MPD1     H 2939   3.627   3.363  16.757 -0.2562  1.4442 -0.7684
  193MPD1    H1 2940   3.931   3.248  16.505 -0.0943 -1.7835  0.5747
  193MPD1    H2 2941   3.528   3.179  16.380  3.0972 -0.3253 -1.9106
  193MPD1    H3 2942   3.757   3.185  16.328  1.2063  0.5447 -0.7678
  193MPD1     N 2943   3.889   3.371  16.729  0.1436  0.2774 -0.0433
  193MPD1    H5 2944   3.986   3.352  16.707  0.4615 -0.7159  2.2260
  193MPD1    N1 2945   3.426   3.274  16.605  0.2083 -0.3766 -0.7345
  193MPD1    H6 2946   3.367   3.201  16.567 -1.8161  0.6655  0.3777
  193MPD1    H7 2947   3.401   3.287  16.703  1.5590  1.4420 -0.6250
  194MPD1     C 2948   1.977   1.284  16.286  0.6076  0.4832  0.1729
  194MPD1    C1 2949   2.059   1.212  16.216 -0.2562 -0.7293 -0.6436
  194MPD1    C2 2950   2.141   1.123  16.287  0.2115  0.5246 -0.6129
  194MPD1    C3 2951   2.147   1.120  16.423 -0.1791  0.3617  0.4421
  194MPD1    C4 2952   2.062   1.205  16.491  0.4854 -0.2976 -0.3154
  194MPD1    C5 2953   1.974   1.281  16.424  0.4805 -0.6832 -0.1525
  194MPD1     H 2954   2.199   1.055  16.225  0.1119 -0.1610  0.0455
  194MPD1    H1 2955   2.064   1.214  16.599 -0.4383 -1.6958 -0.1732
  194MPD1    H2 2956   1.902   1.347  16.241 -0.1810 -0.4727  0.1409
  194MPD1    H3 2957   1.913   1.357  16.473  0.1558 -0.9256 -0.1795
  194MPD1     N 2958   2.236   1.041  16.507  0.8446 -0.5905 -0.0745
  194MPD1    H5 2959   2.225   1.042  16.608 -0.7020  0.7381 -0.2500
  194MPD1    N1 2960   2.039   1.196  16.077 -0.3094 -0.0934 -0.3835
  194MPD1    H6 2961   2.120   1.149  16.037 -1.5217 -1.0732 -1.6758
  194MPD1    H7 2962   2.008   1.278  16.026  0.4324  0.5294  0.1545
  195MPD1     C 2963   4.024   2.310  17.069  0.7084 -0.1063 -0.3715
  195MPD1    C1 2964   4.036   2.315  17.210  0.6512  0.9620  0.0222
  195MPD1    C2 2965   4.024   2.194  17.282  0.0286  0.0653  0.4519
  195MPD1    C3 2966   4.001   2.075  17.223 -0.0175  0.1956 -0.2657
  195MPD1    C4 2967   3.998   2.070  17.079 -0.2263 -0.5675 -0.2864
  195MPD1    C5 2968   4.009   2.187  17.016  0.2825  0.3518 -0.5892
  195MPD1     H 2969   4.043   2.196  17.389  1.3792 -0.6678  0.2266
  195MPD1    H1 2970   3.977   1.975  17.032  4.1779 -2.2377  1.1883
  195MPD1    H2 2971   4.047   2.389  16.999 -0.2868  0.4028 -0.1148
  195MPD1    H3 2972   4.000   2.184  16.908  0.2917 -1.4629 -0.5446
  195MPD1     N 2973   4.004   1.956  17.296  0.2509  0.3002 -0.1917
  195MPD1    H5 2974   4.026   1.869  17.248 -0.0104 -0.3921  0.9335
  195MPD1    N1 2975   4.079   2.430  17.281 -0.6900  0.0422  0.2530
  195MPD1    H6 2976   4.062   2.413  17.380  1.9188  1.9394  1.0286
  195MPD1    H7 2977   4.043   2.521  17.254 -1.9820 -0.3267  0.7182
  196MPD1     C 2978   3.469   1.727   0.799 -0.6321  0.5651  0.5553
  196MPD1    C1 2979   3.499   1.857   0.851 -0.0068 -0.5432  0.6068
  196MPD1    C2 2980   3.414   1.914   0.940 -0.0175  0.2795 -0.5048
  196MPD1    C3 2981   3.293   1.859   0.964  0.6133 -0.9593 -0.8336
  196MPD1    C4 2982   3.254   1.739   0.904  0.1480  0.2299  0.3019
  196MPD1    C5 2983   3.346   1.669   0.819  0.2829 -0.1299  0.7345
  196MPD1     H 2984   3.438   2.011   0.983  2.5702 -0.8002  0.4530
  196MPD1    H1 2985   3.157   1.695   0.924 -0.2083  1.9935  2.4722
  196MPD1    H2 2986   3.538   1.672   0.737  0.6154  1.2937  1.2835
  196MPD1    H3 2987   3.315   1.578   0.768  1.1236 -1.5451  2.7740
  196MPD1     N 2988   3.204   1.921   1.047 -0.5628  0.3940 -0.3314
  196MPD1    H5 2989   3.116   1.872   1.058 -0.4629  0.4194  0.5512
  196MPD1    N1 2990   3.627   1.916   0.830  0.5849 -0.3134  0.3260
  196MPD1    H6 2991   3.622   2.015   0.851  0.5731  0.0150 -1.2589
  196MPD1    H7 2992   3.658   1.915   0.733  1.9068  1.8169  0.7423
  197MPD1     C 2993   2.619   3.465  17.708  0.2122  0.0276 -0.0381
  197MPD1    C1 2994   2.693   3.573   0.034 -0.2166  0.2508 -0.5837
  197MPD1    C2 2995   2.713   3.677  17.662  0.4423 -0.1202 -0.1760
  197MPD1    C3 2996   2.666   3.674  17.528  0.5121 -0.9268  0.3893
  197MPD1    C4 2997   2.606   3.557  17.489  0.9458  0.4723 -0.4472
  197MPD1    C5 2998   2.583   3.456  17.577  0.6307  0.5091 -0.4653
  197MPD1     H 2999   2.779   3.755  17.698  1.2664 -1.1780  0.6099
  197MPD1    H1 3000   2.563   3.550  17.389  1.4589 -1.0098 -0.5650
  197MPD1    H2 3001   2.583   3.386   0.059 -0.9797  0.0609 -0.6559
  197MPD1    H3 3002   2.541   3.362  17.543  1.4665  0.5110 -1.5088
  197MPD1     N 3003   2.704   3.774  17.432 -0.0662  0.5320  0.6660
  197MPD1    H5 3004   2.678   3.761  17.334  4.1348 -0.2494 -0.3277
  197MPD1    N1 3005   2.726   3.585   0.168  0.3959 -0.1534  0.0589
  197MPD1    H6 3006   2.766   3.503   0.213 -0.3096  0.6895  2.2525
  197MPD1    H7 3007   2.794   3.660   0.176  1.4468 -1.0716 -0.3738
  198MPD1     C 3008   4.550   2.491  16.544  0.6168 -0.2908 -0.1114
  198MPD1    C1 3009   4.579   2.451  16.414 -0.4628  0.2822 -0.0838
  198MPD1    C2 3010   4.710   2.470  16.379 -0.1119  0.1412 -0.0751
  198MPD1    C3 3011   0.085   2.508  16.468 -0.3740  0.0333 -0.1045
  198MPD1    C4 3012   0.049   2.544  16.595  0.6169  0.1524 -0.1171
  198MPD1    C5 3013   4.647   2.536  16.630  0.7226  0.0716  0.0807
  198MPD1     H 3014   0.019   2.444  16.281 -1.6535 -0.5450 -0.4912
  198MPD1    H1 3015   0.126   2.571  16.666  1.6816 -2.3610 -0.2932
  198MPD1    H2 3016   4.454   2.471  16.591 -0.1466  0.9625 -1.1290
  198MPD1    H3 3017   4.626   2.560  16.734 -0.3270 -1.5608  0.2447
  198MPD1     N 3018   0.213   2.502  16.413  0.0818 -0.0733  0.6941
  198MPD1    H5 3019   0.223   2.480  16.314 -2.1530  0.9277  0.2379
  198MPD1    N1 3020   4.480   2.406  16.326 -0.4737 -0.5574 -0.1070
  198MPD1    H6 3021   4.520   2.423  16.234 -1.8164 -0.4370 -0.6692
  198MPD1    H7 3022   4.399   2.466  16.340  1.2380  1.7798 -0.2089
  199MPD1     C 3023   1.406   2.460  10.073  0.4578  0.2528  0.1162
  199MPD1    C1 3024   1.517   2.424  10.002 -0.2070 -1.1417  0.1917
  199MPD1    C2 3025   1.561   2.518   9.909  0.2800  0.0782 -0.3639
  199MPD1    C3 3026   1.484   2.627   9.876 -0.1103  0.0771  0.3353
  199MPD1    C4 3027   1.369   2.647   9.944  0.6217  0.2599 -0.3083
  199MPD1    C5 3028   1.335   2.576  10.051 -0.0885  0.3168  0.2092
  199MPD1     H 3029   1.652   2.493   9.854  1.3936  0.8128  1.1489
  199MPD1    H1 3030   1.296   2.723   9.920  1.9454  1.9492  0.9602
  199MPD1    H2 3031   1.378   2.407  10.164  1.8850  1.4624  1.2645
  199MPD1    H3 3032   1.241   2.592  10.104 -0.6251  0.4725 -0.7909
  199MPD1     N 3033   1.513   2.709   9.766 -0.1115 -0.0103  0.1144
  199MPD1    H5 3034   1.450   2.782   9.735 -1.3434  0.1441  3.0039
  199MPD1    N1 3035   1.597   2.325  10.053 -0.2991 -0.1542  0.4233
  199MPD1    H6 3036   1.536   2.255  10.096  0.7209 -0.7818  0.8469
  199MPD1    H7 3037   1.640   2.267   9.980 -1.0385 -0.1205 -0.0418
  200MPD1     C 3038   0.691   3.759  14.963 -0.4109 -0.4556 -0.4047
  200MPD1    C1 3039   0.692   3.675  14.855  0.2886 -0.9300 -0.8552
  200MPD1    C2 3040   0.822   3.642  14.812 -1.0421 -0.1244 -0.2050
  200MPD1    C3 3041   0.939   3.681  14.884 -0.5710 -0.0792 -0.1022
  200MPD1    C4 3042   0.920   3.750  14.998  0.1371  1.3446 -0.3525
  200MPD1    C5 3043   0.795   3.784  15.045  0.2264  0.4356  0.4668
  200MPD1     H 3044   0.833   3.593  14.716 -1.0856 -1.4301  0.4579
  200MPD1    H1 3045   0.997   3.771  15.071  1.8044 -0.3139 -1.6399
  200MPD1    H2 3046   0.598   3.798  15.003 -0.7431  0.2054 -1.8085
  200MPD1    H3 3047   0.780   3.837  15.139 -0.3190  0.3881  0.4061
  200MPD1     N 3048   1.068   3.638  14.837 -0.2109 -0.0767  0.4773
  200MPD1    H5 3049   1.078   3.579  14.755 -1.0175  0.0940  0.2579
  200MPD1    N1 3050   0.583   3.663  14.764 -1.0102  0.2125  0.0786
  200MPD1    H6 3051   0.491   3.646  14.806 -1.1575 -2.4877 -1.3606
  200MPD1    H7 3052   0.602   3.594  14.693 -2.2208 -0.1007  0.0525
  201MPD1     C 3053   3.266   2.770  13.364  0.2876 -0.3199  0.0053
  201MPD1    C1 3054   3.349   2.765  13.469 -0.6557  0.3260  0.3647
  201MPD1    C2 3055   3.402   2.641  13.506  0.6802  0.2015 -0.3681
  201MPD1    C3 3056   3.366   2.528  13.435  0.7670  0.0497 -0.3442
  201MPD1    C4 3057   3.274   2.530  13.335 -0.1453 -0.1807  0.0438
  201MPD1    C5 3058   3.226   2.658  13.299 -0.6256 -0.3022 -0.0410
  201MPD1     H 3059   3.476   2.628  13.584  2.0048  1.0796 -1.4567
  201MPD1    H1 3060   3.245   2.447  13.272  2.2762 -1.0401  0.0790
  201MPD1    H2 3061   3.227   2.864  13.328  0.8513  0.1605  0.6302
  201MPD1    H3 3062   3.148   2.657  13.224  3.6369  0.9655 -4.4917
  201MPD1     N 3063   3.422   2.410  13.485 -0.0276 -0.6654 -0.0388
  201MPD1    H5 3064   3.467   2.417  13.575 -0.1915 -1.2593  0.0897
  201MPD1    N1 3065   3.408   2.877  13.518 -0.4361  0.0976  0.1644
  201MPD1    H6 3066   3.362   2.966  13.496 -0.0538  0.3792  0.5141
  201MPD1    H7 3067   3.451   2.876  13.610  1.1076  2.9690 -0.5328
  202MPD1     C 3068   2.983   0.818   9.156  0.0668 -0.1021  0.3127
  202MPD1    C1 3069   2.925   0.937   9.131  0.0334  0.5422  0.8336
  202MPD1    C2 3070   2.957   1.042   9.225  0.0332 -0.4182  0.3389
  202MPD1    C3 3071   3.035   1.020   9.336  0.1333 -0.0913  0.2164
  202MPD1    C4 3072   3.086   0.895   9.357 -0.2607 -0.6934 -0.7064
  202MPD1    C5 3073   3.046   0.794   9.271 -0.6996  0.1811 -0.2795
  202MPD1     H 3074   2.935   1.145   9.199  1.6774 -0.1342  0.0604
  202MPD1    H1 3075   3.146   0.862   9.441 -0.8742 -0.0040 -0.0034
  202MPD1    H2 3076   2.966   0.732   9.092 -1.8048  0.9809 -0.6510
  202MPD1    H3 3077   3.086   0.695   9.289 -2.1819 -0.2577  0.5679
  202MPD1     N 3078   3.069   1.120   9.427  0.9451  0.0170 -0.8384
  202MPD1    H5 3079   3.139   1.095   9.496 -0.9130 -0.4939  0.8669
  202MPD1    N1 3080   2.882   0.980   9.004  0.4276  1.6447 -0.0827
  202MPD1    H6 3081   2.839   0.900   8.959  1.6735  0.5564  0.6528
  202MPD1    H7 3082   2.813   1.054   9.011 -1.5314  0.0504 -2.9066
  203MPD1     C 3083   1.636   2.483  12.565 -0.3902  0.4479 -0.3563
  203MPD1    C1 3084   1.735   2.476  12.653 -0.1231 -0.2919 -0.5703
  203MPD1    C2 3085   1.854   2.408  12.616 -1.0003  0.3992 -0.0894
  203MPD1    C3 3086   1.879   2.366  12.488 -0.2106  0.5132 -0.0282
  203MPD1    C4 3087   1.781   2.380  12.397  0.7290 -0.8436  0.0810
  203MPD1    C5 3088   1.665   2.439  12.442 -0.3276 -0.0299 -0.1634
  203MPD1     H 3089   1.926   2.388  12.695 -1.5784 -0.7380  0.1462
  203MPD1    H1 3090   1.781   2.359  12.291 -1.2359  2.8106 -0.6769
  203MPD1    H2 3091   1.541   2.527  12.595  0.0152  2.2328 -1.7189
  203MPD1    H3 3092   1.590   2.461  12.368 -1.2771 -0.9046  0.5335
  203MPD1     N 3093   2.005   2.307  12.457 -0.5231  0.4226  0.2638
  203MPD1    H5 3094   2.071   2.300  12.534  0.2636  0.5638 -0.3885
  203MPD1    N1 3095   1.701   2.482  12.791  0.2414  0.6853 -0.1366
  203MPD1    H6 3096   1.643   2.565  12.805 -0.5000 -0.1209  1.5379
  203MPD1    H7 3097   1.782   2.489  12.852  1.2105 -2.4610 -1.0845
  204MPD1     C 3098   0.752   4.194  17.487  0.1713  0.4207  0.4169
  204MPD1    C1 3099   0.764   4.054  17.480  1.6696  0.2821  0.4386
  204MPD1    C2 3100   0.896   3.999  17.466 -0.0970  0.2228 -0.4750
  204MPD1    C3 3101   1.004   4.070  17.447 -0.3893 -0.1190  0.1665
  204MPD1    C4 3102   0.994   4.206  17.456 -0.2129  0.1267 -0.0834
  204MPD1    C5 3103   0.874   4.269  17.485 -0.5492 -0.7568  0.4962
  204MPD1     H 3104   0.897   3.890  17.467  0.4666  0.2208 -1.3104
  204MPD1    H1 3105   1.078   4.273  17.443 -1.9574  1.9491 -1.8588
  204MPD1    H2 3106   0.651   4.226  17.508  1.0381  2.1058  2.0859
  204MPD1    H3 3107   0.872   4.375  17.506 -0.7773 -0.0702 -3.1586
  204MPD1     N 3108   1.120   4.001  17.402 -0.1242 -0.1108  0.1814
  204MPD1    H5 3109   1.109   3.902  17.386  3.3060 -0.4763  0.1870
  204MPD1    N1 3110   0.654   3.973  17.520 -0.6639 -0.6442  0.9558
  204MPD1    H6 3111   0.569   4.018  17.488  0.3237  1.2669  1.0128
  204MPD1    H7 3112   0.662   3.876  17.491  0.4169 -0.2100 -0.1931
  205MPD1     C 3113   2.273   2.975  16.896  0.4476 -0.2760 -0.5787
  205MPD1    C1 3114   2.286   2.935  17.030 -0.7434 -0.1269 -0.1195
  205MPD1    C2 3115   2.175   2.893  17.097 -0.5643 -0.3260  0.7465
  205MPD1    C3 3116   2.051   2.901  17.041 -0.4782 -0.5331 -0.0034
  205MPD1    C4 3117   2.046   2.962  16.917  0.5477  0.0099 -0.3855
  205MPD1    C5 3118   2.155   2.993  16.845  0.0405  0.4878 -0.0069
  205MPD1     H 3119   2.184   2.844  17.194 -0.0111 -0.3502  0.6836
  205MPD1    H1 3120   1.946   2.993  16.891  1.1967  0.8980 -1.8330
  205MPD1    H2 3121   2.360   3.022  16.853 -1.3727  1.0537 -2.7905
  205MPD1    H3 3122   2.152   3.061  16.760  1.4020  1.2497  0.5503
  205MPD1     N 3123   1.931   2.875  17.111  0.4410  0.6668 -0.7205
  205MPD1    H5 3124   1.842   2.891  17.065 -0.6327  0.5585  1.3392
  205MPD1    N1 3125   2.414   2.907  17.083  0.1113 -0.2276  0.7670
  205MPD1    H6 3126   2.434   2.908  17.183 -0.8635  1.3978  0.9489
  205MPD1    H7 3127   2.492   2.958  17.042  0.6880 -2.2033 -0.6086
  206MPD1     C 3128   2.143   0.565  16.751 -0.5123 -0.0766  0.2307
  206MPD1    C1 3129   2.106   0.697  16.736  0.0479  0.0909  0.1188
  206MPD1    C2 3130   2.053   0.743  16.617 -0.7074  0.0624 -0.0999
  206MPD1    C3 3131   2.034   0.660  16.504  0.0955 -0.2669  0.5248
  206MPD1    C4 3132   2.075   0.530  16.522 -0.2926  0.6452 -0.5909
  206MPD1    C5 3133   2.141   0.488  16.641  0.4157 -0.3227 -0.8791
  206MPD1     H 3134   2.033   0.849  16.619  3.4082  0.8449 -0.6666
  206MPD1    H1 3135   2.070   0.465  16.435  0.4386 -0.8664  0.4781
  206MPD1    H2 3136   2.177   0.521  16.844  0.2452  2.0455  0.9607
  206MPD1    H3 3137   2.179   0.387  16.647 -1.1102 -0.9059 -1.1962
  206MPD1     N 3138   1.975   0.705  16.388 -0.7419  0.2473  0.0083
  206MPD1    H5 3139   1.965   0.647  16.305 -1.1318  0.0356  0.2013
  206MPD1    N1 3140   2.101   0.780  16.847  0.3379 -0.4628  0.3535
  206MPD1    H6 3141   2.109   0.879  16.822  0.5692 -0.8879 -1.2618
  206MPD1    H7 3142   2.179   0.760  16.909  0.8187 -1.4198 -0.5583
  207MPD1     C 3143   4.407   2.789   9.336  0.6521 -0.3871  0.4990
  207MPD1    C1 3144   4.380   2.666   9.384  0.3410 -1.0353 -0.1533
  207MPD1    C2 3145   4.432   2.619   9.496  0.0506 -0.0102 -0.0112
  207MPD1    C3 3146   4.497   2.705   9.585  0.9075  0.0845  0.0241
  207MPD1    C4 3147   4.520   2.827   9.545 -0.0365 -0.1535  0.4768
  207MPD1    C5 3148   4.478   2.872   9.420 -0.0088 -0.6277 -0.6173
  207MPD1     H 3149   4.406   2.518   9.525 -2.1545  0.6992  0.5473
  207MPD1    H1 3150   4.578   2.901   9.600  0.3090 -0.0037 -0.0887
  207MPD1    H2 3151   4.387   2.813   9.232  3.7889  0.1207  0.0297
  207MPD1    H3 3152   4.500   2.975   9.394  1.8691 -1.2740 -1.5851
  207MPD1     N 3153   4.543   2.678   9.712 -0.5108 -0.1193 -0.0924
  207MPD1    H5 3154   4.581   2.756   9.764  0.8819  0.0521 -1.3833
  207MPD1    N1 3155   4.323   2.573   9.291  0.3187  0.0131  0.3969
  207MPD1    H6 3156   4.277   2.492   9.332  3.6849 -1.6835  0.7588
  207MPD1    H7 3157   4.249   2.613   9.233 -0.8196  0.1610  1.9399
  208MPD1     C 3158   2.650   2.785  17.634 -0.0394 -0.1971  0.1974
  208MPD1    C1 3159   2.516   2.784  17.630  0.5445 -0.2776  0.2430
  208MPD1    C2 3160   2.458   2.659  17.640 -0.2035  0.2625  0.1024
  208MPD1    C3 3161   2.522   2.548  17.678 -0.1825 -0.6172  0.1601
  208MPD1    C4 3162   2.661   2.556  17.692 -0.6316  0.3887 -0.1812
  208MPD1    C5 3163   2.725   2.672  17.657  0.6134 -0.1185  0.6170
  208MPD1     H 3164   2.354   2.645  17.615 -0.6623  1.7479  1.1878
  208MPD1    H1 3165   2.722   2.468  17.712  0.4073  1.6474  2.1476
  208MPD1    H2 3166   2.712   2.872  17.620 -1.7958  0.8734 -1.0360
  208MPD1    H3 3167   2.833   2.685  17.656  0.5543  0.3920  0.6467
  208MPD1     N 3168   2.447   2.423  17.692  0.7956  0.3615 -0.1620
  208MPD1    H5 3169   2.349   2.439  17.671  0.6783  0.3285  0.3828
  208MPD1    N1 3170   2.449   2.909  17.608  0.1115  0.1379 -0.4675
  208MPD1    H6 3171   2.351   2.909  17.635  0.7105 -0.7778  1.6976
  208MPD1    H7 3172   2.496   2.990  17.648 -0.7096  1.4660 -2.2040
  209MPD1     C 3173   3.751   2.137  11.300 -0.0295  0.6136  0.5179
  209MPD1    C1 3174   3.785   2.073  11.180 -0.0707  0.6215  0.3826
  209MPD1    C2 3175   3.903   2.108  11.115 -0.8279  0.2423 -0.3095
  209MPD1    C3 3176   3.991   2.181  11.179  0.0508  0.0933 -0.0277
  209MPD1    C4 3177   3.953   2.246  11.297  0.9110  0.4992  0.5549
  209MPD1    C5 3178   3.833   2.226  11.356 -0.2776  0.1976  0.2030
  209MPD1     H 3179   3.932   2.069  11.018  1.8491  0.5098  0.3594
  209MPD1    H1 3180   4.026   2.312  11.342 -0.3488  1.3139  1.4147
  209MPD1    H2 3181   3.660   2.120  11.357  0.2472  0.0116  0.7773
  209MPD1    H3 3182   3.805   2.283  11.444 -0.9877  2.5101 -1.5142
  209MPD1     N 3183   4.116   2.210  11.113 -0.2799 -0.5718  0.0145
  209MPD1    H5 3184   4.128   2.171  11.020 -0.7482  1.6788 -0.9822
  209MPD1    N1 3185   3.699   1.987  11.120 -0.2578  0.4630  0.0411
  209MPD1    H6 3186   3.647   1.941  11.194  1.7973 -2.0311 -0.0719
  209MPD1    H7 3187   3.749   1.910  11.076  2.8059  2.7196 -0.4552
  210MPD1     C 3188   0.459   2.518  11.166  0.1758 -0.3327  0.0112
  210MPD1    C1 3189   0.361   2.559  11.245 -0.1229  0.1571 -0.1195
  210MPD1    C2 3190   0.234   2.511  11.226  0.3512 -0.1772 -0.2965
  210MPD1    C3 3191   0.204   2.435  11.108 -0.4660  0.7747  0.4898
  210MPD1    C4 3192   0.303   2.391  11.024  0.5012  0.3334 -0.1522
  210MPD1    C5 3193   0.439   2.435  11.056 -0.5790  0.4296  0.4607
  210MPD1     H 3194   0.159   2.523  11.303  0.6590  1.1140 -0.1989
  210MPD1    H1 3195   0.277   2.317  10.950  0.2468  0.9304 -0.6575
  210MPD1    H2 3196   0.562   2.539  11.190 -0.6497  2.7258  0.8919
  210MPD1    H3 3197   0.525   2.403  10.999 -1.6284 -0.5285 -0.5846
  210MPD1     N 3198   0.074   2.379  11.082 -0.5727  0.1019 -0.1402
  210MPD1    H5 3199   0.062   2.321  11.000  2.3081 -2.0318  0.9148
  210MPD1    N1 3200   0.387   2.627  11.363  0.3078 -0.4664  0.0682
  210MPD1    H6 3201   0.307   2.684  11.392 -0.1656 -1.3454  0.5158
  210MPD1    H7 3202   0.460   2.697  11.370 -0.0768 -0.0148 -0.4605
  211MPD1     C 3203   3.046   2.394  16.664 -0.0146  0.2624 -0.3779
  211MPD1    C1 3204   2.999   2.510  16.605 -0.4257  0.0979 -0.6294
  211MPD1    C2 3205   2.870   2.542  16.640 -0.0865 -0.1738  0.0689
  211MPD1    C3 3206   2.782   2.457  16.712  0.3014  0.2410 -0.1023
  211MPD1    C4 3207   2.836   2.340  16.758 -0.2914  0.3525  0.3004
  211MPD1    C5 3208   2.966   2.307  16.733  0.0809 -0.8093 -0.7854
  211MPD1     H 3209   2.835   2.638  16.604  2.4627  0.6113 -0.3762
  211MPD1    H1 3210   2.779   2.279  16.827  2.9054 -1.3330  1.4759
  211MPD1    H2 3211   3.151   2.368  16.655  0.0187 -0.3973  1.8578
  211MPD1    H3 3212   3.010   2.221  16.783 -1.3875 -1.7408 -1.1105
  211MPD1     N 3213   2.646   2.494  16.739  0.7326 -0.2210 -0.2049
  211MPD1    H5 3214   2.623   2.582  16.694 -0.9833 -0.3375  0.4260
  211MPD1    N1 3215   3.095   2.599  16.552  0.0081  0.1037  0.2623
  211MPD1    H6 3216   3.163   2.540  16.506  0.9191  0.3087  1.3442
  211MPD1    H7 3217   3.049   2.650  16.477 -0.0437  0.1364  0.3155
  212MPD1     C 3218   1.430   1.221  16.456 -0.1118  0.1072 -0.3336
  212MPD1    C1 3219   1.366   1.250  16.574 -0.1378  0.0597 -0.1997
  212MPD1    C2 3220   1.311   1.148  16.648 -0.3942  0.1095  0.4510
  212MPD1    C3 3221   1.347   1.017  16.609  0.6052  0.5078 -0.5125
  212MPD1    C4 3222   1.410   0.984  16.494 -0.5140 -0.3613  0.3906
  212MPD1    C5 3223   1.460   1.096  16.425 -0.6643 -0.3936 -0.0251
  212MPD1     H 3224   1.259   1.174  16.740 -0.2216 -0.8535  0.8155
  212MPD1    H1 3225   1.443   0.885  16.464  1.3674 -0.3479  2.3437
  212MPD1    H2 3226   1.454   1.303  16.389  2.3083  1.1549  1.8254
  212MPD1    H3 3227   1.520   1.085  16.335  0.2346  0.5983  0.4502
  212MPD1     N 3228   1.301   0.902  16.682  0.6834 -0.3727  0.5898
  212MPD1    H5 3229   1.327   0.814  16.638 -1.4180 -0.6728 -0.0862
  212MPD1    N1 3230   1.334   1.391  16.596  0.2709  0.3694  0.4276
  212MPD1    H6 3231   1.311   1.417  16.692 -0.6569 -0.0228  0.3130
  212MPD1    H7 3232   1.407   1.452  16.560  0.8532 -2.4651 -3.1494
  213MPD1     C 3233   4.482   2.342  15.610 -0.1734  0.3527 -0.3407
  213MPD1    C1 3234   4.551   2.304  15.486 -0.0602  0.1956  0.1286
  213MPD1    C2 3235   4.511   2.191  15.432  0.4808  0.4784  0.0386
  213MPD1    C3 3236   4.401   2.116  15.479  0.0659 -0.4152 -0.4420
  213MPD1    C4 3237   4.327   2.162  15.593  0.3050 -0.2236 -0.6425
  213MPD1    C5 3238   4.376   2.267  15.654  0.0740 -0.4450  0.1710
  213MPD1     H 3239   4.571   2.162  15.346  1.5950  0.1198  0.9436
  213MPD1    H1 3240   4.242   2.108  15.633  0.2713  0.1253 -0.2549
  213MPD1    H2 3241   4.539   2.414  15.669 -1.4308  1.2803 -0.2483
  213MPD1    H3 3242   4.342   2.296  15.752 -0.6527 -1.1646  0.1360
  213MPD1     N 3243   4.365   1.999  15.408 -0.0365 -0.1628 -0.1611
  213MPD1    H5 3244   4.432   1.965  15.339  0.5339 -0.3705  0.5005
  213MPD1    N1 3245   4.686   2.347  15.471  0.5773  0.1574  0.0521
  213MPD1    H6 3246   4.698   2.446  15.495 -0.1496  0.4531 -0.8089
  213MPD1    H7 3247   0.001   2.333  15.381  1.0378 -0.1153  0.3173
  214MPD1     C 3248   3.683   1.227  15.004 -0.2927 -0.6851 -0.4038
  214MPD1    C1 3249   3.661   1.310  15.107  0.2825 -0.6579 -0.4435
  214MPD1    C2 3250   3.737   1.424  15.127  0.7742  0.1913  0.5474
  214MPD1    C3 3251   3.836   1.459  15.036 -0.1253  0.0808 -0.8317
  214MPD1    C4 3252   3.854   1.376  14.926  0.3774 -0.1723 -0.2988
  214MPD1    C5 3253   3.774   1.260  14.910  0.4464 -0.0547  0.1168
  214MPD1     H 3254   3.703   1.483  15.211  0.2380  0.9647 -0.2176
  214MPD1    H1 3255   3.934   1.380  14.853 -0.5153  2.8736 -1.1141
  214MPD1    H2 3256   3.631   1.132  15.001  0.5435 -1.0752 -2.5641
  214MPD1    H3 3257   3.787   1.198  14.822  2.7339  0.3215  0.1891
  214MPD1     N 3258   3.916   1.577  15.050 -0.4537  0.0017  0.1468
  214MPD1    H5 3259   3.972   1.607  14.971 -0.7964 -1.0738 -0.4905
  214MPD1    N1 3260   3.569   1.264  15.203 -0.2350 -0.4155 -0.1092
  214MPD1    H6 3261   3.507   1.334  15.242 -0.1427  0.4160 -1.4731
  214MPD1    H7 3262   3.510   1.186  15.175 -1.8975  1.0883 -0.7920
  215MPD1     C 3263   3.395   2.528  11.122  0.6678  0.6043  0.0126
  215MPD1    C1 3264   3.479   2.441  11.054 -0.5101  0.0167  0.4780
  215MPD1    C2 3265   3.614   2.475  11.054 -0.3328  0.1467  0.3221
  215MPD1    C3 3266   3.669   2.565  11.140  0.3165 -0.1697 -1.2719
  215MPD1    C4 3267   3.580   2.639  11.218  0.3113  0.5087 -0.2236
  215MPD1    C5 3268   3.450   2.622  11.205 -0.7575  0.4261 -0.0987
  215MPD1     H 3269   3.673   2.416  10.984  1.7273  2.8246 -0.1854
  215MPD1    H1 3270   3.621   2.722  11.274  2.2425 -0.7743  0.2696
  215MPD1    H2 3271   3.288   2.510  11.128  0.5429  1.0733 -0.8453
  215MPD1    H3 3272   3.385   2.689  11.260  1.3510  1.9679  0.5140
  215MPD1     N 3273   3.804   2.584  11.142 -0.0011  0.1581 -0.6056
  215MPD1    H5 3274   3.842   2.644  11.215 -0.8900  0.1383 -0.1310
  215MPD1    N1 3275   3.424   2.357  10.958 -0.6758 -0.1741  0.0928
  215MPD1    H6 3276   3.345   2.304  10.993  0.1705 -0.3642  1.7060
  215MPD1    H7 3277   3.493   2.288  10.929 -3.1703 -2.7720  0.4396
  216MPD1     C 3278   1.700   0.585  16.139 -0.4354  0.5409 -0.5371
  216MPD1    C1 3279   1.773   0.471  16.124  0.8876  0.3731  0.3650
  216MPD1    C2 3280   1.805   0.401  16.239 -0.0673  0.7881  0.2090
  216MPD1    C3 3281   1.761   0.441  16.365 -0.1176 -0.6636  0.4072
  216MPD1    C4 3282   1.686   0.551  16.378  0.5152  0.1325  0.3857
  216MPD1    C5 3283   1.659   0.628  16.268  0.2530 -0.9473  0.1238
  216MPD1     H 3284   1.868   0.312  16.240  1.2433  1.7413  1.3193
  216MPD1    H1 3285   1.627   0.568  16.467  0.1498  1.7074 -0.1633
  216MPD1    H2 3286   1.683   0.657  16.060 -2.0702 -1.0011 -1.5763
  216MPD1    H3 3287   1.593   0.713  16.283 -1.6250 -2.3775 -0.0321
  216MPD1     N 3288   1.795   0.360  16.477  0.6686  0.2018 -0.2367
  216MPD1    H5 3289   1.854   0.278  16.469  0.4062  0.0834 -0.9796
  216MPD1    N1 3290   1.845   0.444  16.005 -0.2358 -1.0148  0.4156
  216MPD1    H6 3291   1.837   0.349  15.972 -1.9989 -1.1677  1.2456
  216MPD1    H7 3292   1.805   0.500  15.930  0.7305 -0.8305  0.0466
  217MPD1     C 3293   1.889   0.742   8.391 -0.6824 -0.5053  0.4097
  217MPD1    C1 3294   1.845   0.868   8.424  0.3482 -0.3770 -0.1518
  217MPD1    C2 3295   1.874   0.922   8.549 -0.1769  0.4925  0.8588
  217MPD1    C3 3296   1.923   0.843   8.651 -0.3109 -0.1578 -0.0868
  217MPD1    C4 3297   1.964   0.711   8.611 -0.5640 -0.7468  0.0660
  217MPD1    C5 3298   1.949   0.664   8.483 -0.7163  0.2774  0.4509
  217MPD1     H 3299   1.837   1.023   8.565 -2.2587 -0.1786  0.3379
  217MPD1    H1 3300   2.004   0.639   8.682 -0.6176  0.5714  1.4262
  217MPD1    H2 3301   1.888   0.703   8.290  0.0887  1.2845 -0.3037
  217MPD1    H3 3302   1.984   0.562   8.470  1.4609  1.0569  0.2932
  217MPD1     N 3303   1.956   0.889   8.782 -0.2026  0.2542  0.0092
  217MPD1    H5 3304   2.013   0.834   8.844 -0.3629 -0.3253 -0.3594
  217MPD1    N1 3305   1.793   0.951   8.329 -0.3382  0.1599 -0.5787
  217MPD1    H6 3306   1.756   0.899   8.249  0.9812 -0.4637 -0.7964
  217MPD1    H7 3307   1.707   0.998   8.356 -2.4079 -2.3275 -2.8927
  218MPD1     C 3308   3.509   2.756  13.094 -0.1372 -1.1132  0.5782
  218MPD1    C1 3309   3.495   2.776  12.957 -0.4356  0.0015 -0.2906
  218MPD1    C2 3310   3.597   2.735  12.871 -0.5572 -0.0509  0.4143
  218MPD1    C3 3311   3.701   2.657  12.925 -0.9241  0.6349 -0.3331
  218MPD1    C4 3312   3.706   2.623  13.056 -0.5739 -0.1279 -0.4942
  218MPD1    C5 3313   3.613   2.685  13.139  0.8829 -0.4352  0.5235
  218MPD1     H 3314   3.577   2.738  12.764  0.6127 -0.3053  0.1801
  218MPD1    H1 3315   3.794   2.586  13.108 -1.0300 -1.0125 -0.3449
  218MPD1    H2 3316   3.449   2.787  13.179 -0.4744 -0.5803  0.1449
  218MPD1    H3 3317   3.619   2.660  13.244  1.2809  0.3300  0.6860
  218MPD1     N 3318   3.799   2.606  12.839 -1.0310  0.3189  0.0921
  218MPD1    H5 3319   3.822   2.650  12.750 -0.0890 -0.4096 -0.0350
  218MPD1    N1 3320   3.375   2.825  12.911  0.6750 -0.5809 -0.2321
  218MPD1    H6 3321   3.368   2.868  12.819 -1.1494  0.7519  0.5365
  218MPD1    H7 3322   3.330   2.892  12.973  0.3819 -0.0601 -0.9981
  219MPD1     C 3323   4.329   3.033  12.315  0.2349  0.6053 -0.2382
  219MPD1    C1 3324   4.392   2.990  12.432  0.2334 -0.3012  0.8420
  219MPD1    C2 3325   4.336   2.881  12.499  0.1466  0.4524 -0.2885
  219MPD1    C3 3326   4.215   2.816  12.458  0.5703  0.0745  0.3331
  219MPD1    C4 3327   4.153   2.871  12.341 -0.0616 -0.1261 -0.0907
  219MPD1    C5 3328   4.210   2.976  12.278 -0.9210  0.3415  0.4197
  219MPD1     H 3329   4.395   2.846  12.583  0.3568  0.2421 -0.5198
  219MPD1    H1 3330   4.067   2.825  12.293  0.1372 -1.8420  1.2066
  219MPD1    H2 3331   4.367   3.114  12.253 -0.0085 -0.5298 -1.8666
  219MPD1    H3 3332   4.159   3.011  12.188 -0.2415  1.0750  0.3239
  219MPD1     N 3333   4.171   2.697  12.513 -0.7176 -0.3830 -0.3805
  219MPD1    H5 3334   4.076   2.670  12.488 -0.5413 -2.1047  0.8035
  219MPD1    N1 3335   4.514   3.041  12.475  0.3951 -0.4204  0.2496
  219MPD1    H6 3336   4.517   3.142  12.459 -2.5494 -0.7076 -1.9906
  219MPD1    H7 3337   4.520   3.033  12.577  0.5995 -0.7763  0.2094
  220MPD1     C 3338   4.526   3.317   9.544  1.2957 -0.4215  0.0905
  220MPD1    C1 3339   4.587   3.287   9.662 -0.3458  0.5220  0.2588
  220MPD1    C2 3340   4.524   3.198   9.752 -0.0610 -0.2322 -1.0139
  220MPD1    C3 3341   4.405   3.133   9.719 -0.2738  0.2871  0.2114
  220MPD1    C4 3342   4.358   3.147   9.595  0.2200 -0.2810  0.8445
  220MPD1    C5 3343   4.415   3.243   9.514  0.4144 -0.1671  0.8973
  220MPD1     H 3344   4.558   3.171   9.851 -1.2828  0.5230 -0.3827
  220MPD1    H1 3345   4.275   3.087   9.560  0.5665 -0.7569  0.8510
  220MPD1    H2 3346   4.570   3.374   9.462 -0.6615 -2.2025 -2.2123
  220MPD1    H3 3347   4.375   3.263   9.415  1.8584  0.7710  0.5006
  220MPD1     N 3348   4.346   3.035   9.811  0.0932 -0.1365 -0.2841
  220MPD1    H5 3349   4.409   3.001   9.883 -1.4275  0.7182  1.4391
  220MPD1    N1 3350   4.722   3.329   9.685  0.0841  0.2696 -0.5196
  220MPD1    H6 3351   0.041   3.326   9.775 -2.1907 -2.8213  0.6114
  220MPD1    H7 3352   0.015   3.420   9.645 -0.8209 -0.0768 -1.8001
  221MPD1     C 3353   0.911   2.251  17.107  0.6308 -0.0161 -0.1374
  221MPD1    C1 3354   0.909   2.328  16.995 -0.0733  0.5006 -0.1522
  221MPD1    C2 3355   1.015   2.319  16.910  0.8064 -0.3736  0.0228
  221MPD1    C3 3356   1.124   2.243  16.943  0.6674 -0.0864  0.4240
  221MPD1    C4 3357   1.131   2.175  17.060 -0.0165  0.2052 -0.0235
  221MPD1    C5 3358   1.024   2.182  17.145 -0.3973  0.2772 -0.0218
  221MPD1     H 3359   1.023   2.379  16.820  1.9258  0.6618  0.8113
  221MPD1    H1 3360   1.206   2.101  17.084  0.1952  0.3802 -0.1471
  221MPD1    H2 3361   0.820   2.238  17.164  0.0184  0.6694 -0.9735
  221MPD1    H3 3362   1.014   2.114  17.229 -2.4166  1.0359  0.3580
  221MPD1     N 3363   1.245   2.241  16.870  0.2281  0.2738 -0.4569
  221MPD1    H5 3364   1.311   2.174  16.906 -0.3830 -0.4894 -0.7479
  221MPD1    N1 3365   0.796   2.395  16.953  0.6241 -0.6656 -0.1793
  221MPD1    H6 3366   0.740   2.415  17.035  0.1612 -2.1433 -0.1238
  221MPD1    H7 3367   0.820   2.479  16.902  1.4632  0.7352  2.5415
  222MPD1     C 3368   0.306   1.453  16.658  0.0339  0.6061  0.0508
  222MPD1    C1 3369   0.249   1.494  16.779  0.7941  0.5270 -0.2938
  222MPD1    C2 3370   0.312   1.446  16.891  0.4562  0.2433 -0.6136
  222MPD1    C3 3371   0.425   1.366  16.892  1.1852 -0.5355 -0.0125
  222MPD1    C4 3372   0.485   1.349  16.771  0.4078 -0.5803  0.1637
  222MPD1    C5 3373   0.424   1.388  16.653  0.2610  0.5920  0.0363
  222MPD1     H 3374   0.264   1.473  16.984 -1.3705 -2.5055 -0.7682
  222MPD1    H1 3375   0.577   1.293  16.763  1.1683  0.5738  0.7163
  222MPD1    H2 3376   0.267   1.494  16.565 -1.9358 -1.8169 -0.1764
  222MPD1    H3 3377   0.475   1.363  16.561 -2.3246 -0.2454 -1.1652
  222MPD1     N 3378   0.486   1.309  17.008  0.6530 -0.1761  0.7841
  222MPD1    H5 3379   0.571   1.260  16.983  0.0034 -0.9151  0.0430
  222MPD1    N1 3380   0.140   1.582  16.793 -0.0283  0.5297 -0.3196
  222MPD1    H6 3381   0.133   1.645  16.872  2.9968  0.7500 -0.2391
  222MPD1    H7 3382   0.095   1.624  16.712 -1.0446  1.5472  0.7721
  223MPD1     C 3383   1.256   0.803  17.279  0.4614  0.2670 -0.1434
  223MPD1    C1 3384   1.177   0.757  17.385  0.0639  0.6992 -0.2137
  223MPD1    C2 3385   1.052   0.812  17.408  0.6145  0.0168 -0.9312
  223MPD1    C3 3386   1.011   0.921  17.331  0.4750 -0.1609  0.0502
  223MPD1    C4 3387   1.094   0.968  17.228 -0.5532  0.1265  0.4363
  223MPD1    C5 3388   1.211   0.904  17.201  0.1327  0.3099 -0.1935
  223MPD1     H 3389   0.992   0.773  17.490  1.8987 -2.0391 -0.9723
  223MPD1    H1 3390   1.068   1.039  17.151  2.3596  0.8041  0.0894
  223MPD1    H2 3391   1.348   0.757  17.246 -2.1319 -2.3178 -3.8287
  223MPD1    H3 3392   1.266   0.947  17.118  0.3395  0.3615 -0.0293
  223MPD1     N 3393   0.883   0.979  17.349 -0.7120  0.4889  0.1318
  223MPD1    H5 3394   0.819   0.939  17.417  0.5506  2.2530  2.3760
  223MPD1    N1 3395   1.217   0.673  17.489 -0.0575  0.5574  0.0660
  223MPD1    H6 3396   1.145   0.623  17.540  0.5975  0.1811  0.6302
  223MPD1    H7 3397   1.274   0.597  17.451 -2.1291 -0.2146 -1.5064
  224MPD1     C 3398   2.072   1.363   8.942  0.3404 -0.1529  0.4914
  224MPD1    C1 3399   1.977   1.441   9.010 -0.5101  0.2788  0.0887
  224MPD1    C2 3400   2.010   1.511   9.123  0.0655 -0.5804  0.0341
  224MPD1    C3 3401   2.138   1.514   9.164  0.1714  0.4876 -0.7460
  224MPD1    C4 3402   2.234   1.453   9.087  0.0441  0.0189 -0.5514
  224MPD1    C5 3403   2.199   1.373   8.983  0.1628 -0.2875  0.0876
  224MPD1     H 3404   1.934   1.562   9.180 -1.9281 -1.9696 -1.4092
  224MPD1    H1 3405   2.337   1.470   9.118  0.8606 -0.9804 -2.6858
  224MPD1    H2 3406   2.047   1.293   8.863  2.2240 -1.1177  0.7485
  224MPD1    H3 3407   2.271   1.306   8.937  0.7502  0.1741  0.3347
  224MPD1     N 3408   2.186   1.574   9.279  0.0615 -0.2878 -1.0875
  224MPD1    H5 3409   2.287   1.563   9.287  0.3355  2.3922 -0.8761
  224MPD1    N1 3410   1.846   1.431   8.978  0.1648  0.4046  0.2216
  224MPD1    H6 3411   1.794   1.518   8.991 -0.8574 -0.5711  2.7268
  224MPD1    H7 3412   1.846   1.412   8.878 -2.9713 -0.8376  0.4380
  225MPD1     C 3413   4.001   3.746  12.593  1.0542 -0.7889 -0.1282
  225MPD1    C1 3414   4.016   3.606  12.567  0.5808  0.2517 -0.3801
  225MPD1    C2 3415   3.899   3.541  12.535 -0.3847 -0.4532 -0.3903
  225MPD1    C3 3416   3.773   3.604  12.534 -0.2703  0.2004  0.0313
  225MPD1    C4 3417   3.766   3.730  12.581  0.2266  0.0789  0.0191
  225MPD1    C5 3418   3.877   3.805  12.602  0.4302  0.0579  0.2357
  225MPD1     H 3419   3.905   3.439  12.500  0.2217  0.0724 -1.7827
  225MPD1    H1 3420   3.672   3.782  12.597  0.1240 -0.5197  1.4188
  225MPD1    H2 3421   4.084   3.815  12.608  0.3580 -0.1115  0.6845
  225MPD1    H3 3422   3.874   3.910  12.627 -2.9762  0.3566 -1.3609
  225MPD1     N 3423   3.655   3.552  12.477  0.1330  0.0044 -0.6433
  225MPD1    H5 3424   3.572   3.610  12.477  1.6742  2.1928  1.0495
  225MPD1    N1 3425   4.138   3.550  12.532 -0.0108 -0.0305  0.2498
  225MPD1    H6 3426   4.212   3.571  12.598  1.9538  1.1818 -2.3067
  225MPD1    H7 3427   4.127   3.449  12.525 -0.8171  0.2575 -2.9137
  226MPD1     C 3428   1.551   2.464   8.502 -0.3446  0.1891 -1.0037
  226MPD1    C1 3429   1.463   2.572   8.536  0.3171  0.3287 -0.6540
  226MPD1    C2 3430   1.422   2.573   8.672  1.0144 -0.9385  0.2141
  226MPD1    C3 3431   1.453   2.480   8.764 -0.0185  0.0193 -0.3911
  226MPD1    C4 3432   1.533   2.376   8.727  0.0601  0.2444  0.2601
  226MPD1    C5 3433   1.585   2.374   8.601  0.5992  0.6055  0.4397
  226MPD1     H 3434   1.371   2.664   8.703  2.5643  0.5645 -1.6713
  226MPD1    H1 3435   1.579   2.305   8.795 -0.1901 -1.9639 -1.8548
  226MPD1    H2 3436   1.588   2.449   8.402  0.0847 -1.7979 -0.5300
  226MPD1    H3 3437   1.655   2.297   8.570  1.2809  1.9584 -1.3538
  226MPD1     N 3438   1.409   2.478   8.901 -0.4671 -0.2076 -0.2435
  226MPD1    H5 3439   1.434   2.405   8.966  1.4802  0.5368 -0.1415
  226MPD1    N1 3440   1.457   2.679   8.440  0.5700 -0.0931  0.4035
  226MPD1    H6 3441   1.451   2.660   8.340  2.2281  2.1400 -0.1334
  226MPD1    H7 3442   1.370   2.729   8.456 -0.5563 -2.1484  0.5725
  227MPD1     C 3443   0.546   2.512   9.591 -0.0293 -0.1318 -0.4427
  227MPD1    C1 3444   0.655   2.475   9.661 -0.9664 -0.1491 -0.0376
  227MPD1    C2 3445   0.777   2.479   9.591  0.0085 -0.1838  0.5395
  227MPD1    C3 3446   0.791   2.532   9.467  0.3860 -0.3310 -0.2665
  227MPD1    C4 3447   0.689   2.587   9.403 -0.1327 -0.0766 -0.0373
  227MPD1    C5 3448   0.566   2.574   9.469  0.5316 -0.0027  0.0137
  227MPD1     H 3449   0.863   2.436   9.642  0.3278  0.2190  0.3413
  227MPD1    H1 3450   0.692   2.636   9.307  1.6515  2.3350  1.2420
  227MPD1    H2 3451   0.442   2.494   9.615 -0.8837  1.6688 -2.7281
  227MPD1    H3 3452   0.478   2.609   9.415  0.6715  5.7417  3.5238
  227MPD1     N 3453   0.923   2.528   9.414 -0.0517 -0.2557  0.3703
  227MPD1    H5 3454   0.999   2.502   9.475  0.9359  2.3986  0.2772
  227MPD1    N1 3455   0.651   2.405   9.785  0.0924 -0.5047  0.3149
  227MPD1    H6 3456   0.737   2.421   9.838  1.0429 -4.0507 -0.1606
  227MPD1    H7 3457   0.578   2.440   9.848  1.8897  0.9459  1.5894
  228MPD1     C 3458   0.541   0.721  12.004  0.2351 -0.3961 -0.1368
  228MPD1    C1 3459   0.410   0.760  12.006 -0.3056 -0.0671 -0.2880
  228MPD1    C2 3460   0.345   0.776  12.120 -0.2042  0.9582 -0.7226
  228MPD1    C3 3461   0.403   0.772  12.244  0.3873 -0.2032  0.3697
  228MPD1    C4 3462   0.538   0.734  12.246  0.1734  1.3295 -0.0916
  228MPD1    C5 3463   0.603   0.706  12.126  0.6400 -0.0856  0.3065
  228MPD1     H 3464   0.242   0.809  12.110 -0.1608  1.3242  0.0339
  228MPD1    H1 3465   0.593   0.718  12.338 -1.8569 -0.7211  0.7550
  228MPD1    H2 3466   0.598   0.701  11.914 -1.3875 -1.2416 -0.9804
  228MPD1    H3 3467   0.706   0.671  12.135  1.4990  2.0924 -0.8882
  228MPD1     N 3468   0.325   0.808  12.355 -0.3842  0.2764  0.1036
  228MPD1    H5 3469   0.224   0.816  12.356 -0.3813  0.1551  1.5941
  228MPD1    N1 3470   0.349   0.788  11.887  0.2512 -0.0214 -0.7033
  228MPD1    H6 3471   0.413   0.772  11.809  1.1664 -1.2757  0.3007
  228MPD1    H7 3472   0.313   0.882  11.897  0.5254  0.0042 -0.0055
  229MPD1     C 3473   0.044   0.346  14.245 -0.2905  0.0824  1.1818
  229MPD1    C1 3474   0.073   0.217  14.201  0.1578  0.5441  0.7215
  229MPD1    C2 3475   0.164   0.151  14.271 -0.6685 -0.3038  0.0578
  229MPD1    C3 3476   0.238   0.209  14.374  0.3223  0.0703 -0.2128
  229MPD1    C4 3477   0.211   0.338  14.409 -0.1232  0.0276  0.3604
  229MPD1    C5 3478   0.119   0.409  14.344 -0.5066  0.3317  0.4401
  229MPD1     H 3479   0.174   0.045  14.253 -1.2687 -0.7977  2.6577
  229MPD1    H1 3480   0.247   0.373  14.506 -1.2448 -0.0659  0.8052
  229MPD1    H2 3481   4.691   0.403  14.201 -1.0733 -1.0265  1.1757
  229MPD1    H3 3482   0.077   0.505  14.371 -0.1071  0.3657  0.9261
  229MPD1     N 3483   0.323   0.139  14.457 -0.2722  0.4402 -0.2904
  229MPD1    H5 3484   0.362   0.188  14.537  2.6863 -2.5303  0.1189
  229MPD1    N1 3485   4.720   0.152  14.105  0.1756  0.3025  0.2989
  229MPD1    H6 3486   0.026   0.057  14.092 -3.1050 -0.7736 -0.6201
  229MPD1    H7 3487   0.018   0.204  14.021 -1.2736 -1.2509 -1.1374
  230MPD1     C 3488   0.702   0.079  15.367 -0.4699 -0.2704 -0.8608
  230MPD1    C1 3489   0.724   4.676  15.328 -0.1660  0.1532 -0.0890
  230MPD1    C2 3490   0.677   4.635  15.201  0.5444  0.3761  0.4717
  230MPD1    C3 3491   0.615   4.723  15.117 -0.4694 -0.6108 -0.7191
  230MPD1    C4 3492   0.598   0.123  15.152 -0.0012  0.3650  0.8021
  230MPD1    C5 3493   0.639   0.171  15.277 -0.7127 -0.0549  0.3559
  230MPD1     H 3494   0.677   4.530  15.174  0.4763  0.2629  0.9189
  230MPD1    H1 3495   0.559   0.197  15.083 -2.2460 -1.6900 -0.1177
  230MPD1    H2 3496   0.745   0.123  15.456  0.1091  0.7897 -1.6627
  230MPD1    H3 3497   0.628   0.275  15.308  2.4336  1.1010 -2.5076
  230MPD1     N 3498   0.583   4.678  14.978 -0.0813  0.1573 -0.5670
  230MPD1    H5 3499   0.590   4.578  14.961 -3.7478  0.1050 -1.8624
  230MPD1    N1 3500   0.800   4.585  15.404  0.8401 -0.0407 -0.7074
  230MPD1    H6 3501   0.794   4.606  15.504 -1.6327 -0.6649 -0.7329
  230MPD1    H7 3502   0.772   4.490  15.380  1.3689 -0.6208  0.9733
  231MPD1     C 3503   2.534   1.583  15.607 -0.3498  0.6124  0.1158
  231MPD1    C1 3504   2.547   1.490  15.500 -0.1439  0.7720  0.3883
  231MPD1    C2 3505   2.669   1.498  15.440 -0.0436 -0.0706 -0.1474
  231MPD1    C3 3506   2.768   1.587  15.463 -0.4738 -0.8713  0.3900
  231MPD1    C4 3507   2.744   1.690  15.560 -0.4042 -0.4362 -0.8832
  231MPD1    C5 3508   2.624   1.686  15.626 -0.6505  0.5712 -0.2891
  231MPD1     H 3509   2.695   1.422  15.367 -0.4674  0.8229 -1.2133
  231MPD1    H1 3510   2.808   1.770  15.594 -2.1284  0.2712  0.7257
  231MPD1    H2 3511   2.443   1.587  15.665  0.4188  1.3094  1.2967
  231MPD1    H3 3512   2.599   1.760  15.701 -2.0028 -2.0485  1.8490
  231MPD1     N 3513   2.891   1.573  15.387 -0.2888  0.1528 -0.5925
  231MPD1    H5 3514   2.904   1.500  15.318  2.8935 -1.0970  1.3251
  231MPD1    N1 3515   2.454   1.392  15.468 -0.1644  0.6441  0.1477
  231MPD1    H6 3516   2.360   1.414  15.500 -1.3005 -1.8059 -1.4569
  231MPD1    H7 3517   2.442   1.369  15.369 -1.1656 -0.4846  0.5335
  232MPD1     C 3518   0.667   3.672  17.296 -0.1125 -0.1401  0.4596
  232MPD1    C1 3519   0.654   3.598  17.412 -0.3203 -0.0661  0.0787
  232MPD1    C2 3520   0.533   3.610  17.475  0.1538  0.5144 -0.0481
  232MPD1    C3 3521   0.435   3.703  17.432 -0.1629  0.7559 -0.0402
  232MPD1    C4 3522   0.460   3.785  17.318  0.7944 -0.5221 -0.0840
  232MPD1    C5 3523   0.577   3.759  17.252 -0.3538  0.7102 -0.0533
  232MPD1     H 3524   0.507   3.546  17.558  0.4086  0.4158 -0.0464
  232MPD1    H1 3525   0.391   3.856  17.273 -0.6571 -1.3802  0.7707
  232MPD1    H2 3526   0.760   3.661  17.241 -1.0761  0.3664 -1.2392
  232MPD1    H3 3527   0.601   3.818  17.164  0.4133  1.9832  0.9943
  232MPD1     N 3528   0.324   3.719  17.518  0.2140 -0.1320  0.1127
  232MPD1    H5 3529   0.309   3.655  17.595 -1.2683 -0.0678 -0.1196
  232MPD1    N1 3530   0.757   3.509  17.440 -0.8202 -0.3262  0.6134
  232MPD1    H6 3531   0.779   3.491  17.538  2.1725 -0.1233 -0.0306
  232MPD1    H7 3532   0.840   3.527  17.385 -0.0114 -1.5163  1.4393
  233MPD1     C 3533   0.720   0.866   0.629  0.4627  0.3739  0.2344
  233MPD1    C1 3534   0.701   0.992   0.678  0.0875 -0.8407 -0.2279
  233MPD1    C2 3535   0.796   1.085   0.645  0.3651 -0.1744  0.6251
  233MPD1    C3 3536   0.914   1.044   0.576 -0.2884  0.3580 -0.0296
  233MPD1    C4 3537   0.927   0.914   0.530 -0.7012 -0.0702 -0.2773
  233MPD1    C5 3538   0.826   0.824   0.555 -0.0381 -0.5480 -0.0773
  233MPD1     H 3539   0.779   1.188   0.674 -0.8725  0.6524 -2.9953
  233MPD1    H1 3540   1.011   0.882   0.469 -1.5292  0.2983 -1.6155
  233MPD1    H2 3541   0.643   0.795   0.655  0.6723 -0.0077 -0.1766
  233MPD1    H3 3542   0.832   0.721   0.521  1.2473 -0.6571  0.4680
  233MPD1     N 3543   1.022   1.133   0.554 -0.0958  0.1659 -0.1973
  233MPD1    H5 3544   1.110   1.097   0.520 -0.2235 -0.9456  0.6692
  233MPD1    N1 3545   0.577   1.025   0.738 -0.3648  0.4902 -0.6677
  233MPD1    H6 3546   0.582   1.111   0.792  3.5394 -0.0522 -0.1270
  233MPD1    H7 3547   0.536   0.945   0.786 -1.0156  0.8804 -0.5779
  234MPD1     C 3548   3.111   0.113   9.736 -0.1148 -1.0580 -0.3362
  234MPD1    C1 3549   2.991   0.130   9.660 -0.5943  0.1969  0.4710
  234MPD1    C2 3550   2.930   0.256   9.670  0.4116 -0.2587 -0.9331
  234MPD1    C3 3551   2.999   0.363   9.735 -0.4982  0.1684 -0.0781
  234MPD1    C4 3552   3.118   0.339   9.805  0.0624 -0.4260  0.4025
  234MPD1    C5 3553   3.180   0.215   9.790  0.3223 -0.5272  0.4535
  234MPD1     H 3554   2.830   0.268   9.631  0.6180  1.5268 -0.9190
  234MPD1    H1 3555   3.167   0.417   9.863  1.5887 -2.4136  1.8284
  234MPD1    H2 3556   3.154   0.014   9.730  0.5620 -0.8698  1.5732
  234MPD1    H3 3557   3.269   0.187   9.845 -0.0346 -1.1600  0.7143
  234MPD1     N 3558   2.940   0.487   9.707  0.0480  0.0630 -0.5569
  234MPD1    H5 3559   2.852   0.478   9.656 -0.0332 -1.0390 -0.2355
  234MPD1    N1 3560   2.925   0.021   9.600 -0.1725 -0.2957  0.1110
  234MPD1    H6 3561   2.873   0.059   9.522  0.4475  1.1302  0.3805
  234MPD1    H7 3562   2.982   4.671   9.568  1.6598  0.0079  2.6367
  235MPD1     C 3563   3.474   4.220   8.783 -0.4822  0.1743 -0.0699
  235MPD1    C1 3564   3.519   4.314   8.869  0.0792  1.0436 -0.7120
  235MPD1    C2 3565   3.637   4.294   8.939  0.1700  0.2624  0.1624
  235MPD1    C3 3566   3.704   4.169   8.936  0.6574 -0.2478 -0.2631
  235MPD1    C4 3567   3.654   4.077   8.851 -0.0075  0.4965  0.0493
  235MPD1    C5 3568   3.544   4.105   8.772  0.5840 -0.7800 -0.1600
  235MPD1     H 3569   3.676   4.380   8.992  0.8990  0.8801 -1.3629
  235MPD1    H1 3570   3.705   3.985   8.821  1.0005  1.6108 -1.6662
  235MPD1    H2 3571   3.395   4.237   8.711 -0.8084  0.0289  0.2577
  235MPD1    H3 3572   3.525   4.029   8.697  1.0854 -1.2626  0.2020
  235MPD1     N 3573   3.821   4.157   9.021 -0.3636 -0.6202 -0.1240
  235MPD1    H5 3574   3.847   4.226   9.090 -0.5586 -0.8944  0.2225
  235MPD1    N1 3575   3.460   4.443   8.870  0.3538 -0.2990 -0.4820
  235MPD1    H6 3576   3.362   4.434   8.847 -0.2660 -3.2762  3.2735
  235MPD1    H7 3577   3.479   4.485   8.961 -2.0502  0.7012 -0.4396
  236MPD1     C 3578   3.636   4.327  10.235 -0.2179 -0.3002  0.6995
  236MPD1    C1 3579   3.696   4.233  10.316 -0.3470  0.7258 -0.2402
  236MPD1    C2 3580   3.794   4.267  10.409  0.3791 -0.0744 -0.3754
  236MPD1    C3 3581   3.826   4.404  10.426  0.0873  0.2315 -0.6086
  236MPD1    C4 3582   3.756   4.493  10.346  0.2291  0.8375 -0.0306
  236MPD1    C5 3583   3.666   4.462  10.249  0.0981 -0.3649 -0.5179
  236MPD1     H 3584   3.852   4.190  10.458  0.0559  0.4011  0.7587
  236MPD1    H1 3585   3.784   4.598  10.342  1.5480  0.6157  4.0677
  236MPD1    H2 3586   3.557   4.308  10.163 -3.0593 -0.1672  3.7684
  236MPD1    H3 3587   3.614   4.527  10.179 -0.4307 -1.5226 -1.1916
  236MPD1     N 3588   3.918   4.454  10.530  0.3692 -0.7901 -0.9210
  236MPD1    H5 3589   3.938   4.553  10.525  2.8713 -1.3215 -1.7430
  236MPD1    N1 3590   3.678   4.098  10.277  0.5400 -0.6226 -0.0291
  236MPD1    H6 3591   3.584   4.080  10.245  0.1035 -0.7306  1.3275
  236MPD1    H7 3592   3.701   4.028  10.347 -0.3826 -0.1056  0.7892
  237MPD1     C 3593   3.936   2.956  15.979 -0.3262 -0.8697  0.1823
  237MPD1    C1 3594   3.949   2.869  15.871 -0.1873 -0.2385 -0.3475
  237MPD1    C2 3595   3.835   2.835  15.808  0.0464 -0.1303  0.2690
  237MPD1    C3 3596   3.713   2.908  15.819  0.3310 -0.5321 -0.0608
  237MPD1    C4 3597   3.709   3.005  15.912 -0.3315 -0.6678  0.1132
  237MPD1    C5 3598   3.821   3.023  15.995 -0.1907 -0.5429  0.5647
  237MPD1     H 3599   3.834   2.754  15.736  0.1930 -0.7702  0.9869
  237MPD1    H1 3600   3.622   3.068  15.925  0.1880 -0.1067  0.9374
  237MPD1    H2 3601   4.016   2.986  16.045 -0.0148  0.4318 -0.7813
  237MPD1    H3 3602   3.812   3.095  16.076  0.7299  1.4138 -1.0946
  237MPD1     N 3603   3.598   2.894  15.739 -0.4423  0.2052 -0.2222
  237MPD1    H5 3604   3.514   2.933  15.780 -0.7214  1.5926 -2.1060
  237MPD1    N1 3605   4.075   2.808  15.851 -0.4675  0.1742 -0.2272
  237MPD1    H6 3606   4.155   2.871  15.862  0.8879 -1.2272 -2.1187
  237MPD1    H7 3607   4.083   2.768  15.758 -0.8880 -1.7629  0.5562
  238MPD1     C 3608   0.127   2.843  15.135 -0.3269 -0.0316  0.0118
  238MPD1    C1 3609   0.061   2.759  15.223  0.7228  0.1075 -0.2887
  238MPD1    C2 3610   0.051   2.625  15.191  0.0090 -0.4095 -0.4202
  238MPD1    C3 3611   0.086   2.583  15.064  0.0126 -0.2202  0.4015
  238MPD1    C4 3612   0.145   2.669  14.975 -0.0638 -0.3735  0.9024
  238MPD1    C5 3613   0.170   2.795  15.016  0.4984 -0.4052 -0.6158
  238MPD1     H 3614   0.018   2.554  15.265 -0.0901  0.5870  0.4890
  238MPD1    H1 3615   0.158   2.643  14.870 -0.2999 -1.1265  1.0595
  238MPD1    H2 3616   0.148   2.944  15.168  1.0052 -0.9426  1.9122
  238MPD1    H3 3617   0.200   2.870  14.944  1.2478 -1.2973 -1.2228
  238MPD1     N 3618   0.064   2.452  15.013 -0.4236  0.2090 -0.5323
  238MPD1    H5 3619   0.110   2.435  14.924  0.6456 -1.7354  0.3765
  238MPD1    N1 3620   0.031   2.809  15.353  0.1733  0.4063  0.0849
  238MPD1    H6 3621   0.023   2.911  15.354  0.2353  0.3980  1.2190
  238MPD1    H7 3622   4.689   2.767  15.414  1.9648 -1.8797  0.5651
  239MPD1     C 3623   1.028   2.771  14.940 -0.1516 -0.4746 -0.0043
  239MPD1    C1 3624   0.906   2.828  14.950  0.1594  0.3397  0.4933
  239MPD1    C2 3625   0.848   2.872  14.831 -0.1616 -0.9171  0.4779
  239MPD1    C3 3626   0.898   2.856  14.702  0.0725  0.1778  0.1312
  239MPD1    C4 3627   1.011   2.776  14.702 -0.1569  0.1620 -0.5386
  239MPD1    C5 3628   1.076   2.738  14.816  0.2709  0.4400  0.1102
  239MPD1     H 3629   0.756   2.929  14.831  0.1098 -0.4740 -0.0034
  239MPD1    H1 3630   1.053   2.741  14.608 -0.1306  0.9979 -0.8413
  239MPD1    H2 3631   1.090   2.753  15.027 -0.5855 -0.6760  0.2621
  239MPD1    H3 3632   1.170   2.686  14.804 -0.0848 -0.1119 -0.2756
  239MPD1     N 3633   0.836   2.911  14.587  0.7781 -0.2832  0.2229
  239MPD1    H5 3634   0.886   2.884  14.502  0.0535 -1.8449  0.3087
  239MPD1    N1 3635   0.872   2.872  15.082  0.0629  0.1389 -0.4146
  239MPD1    H6 3636   0.771   2.885  15.092  0.0229  1.9408 -3.1756
  239MPD1    H7 3637   0.905   2.813  15.158 -0.1677 -0.0687 -0.4770
  240MPD1     C 3638   4.060   2.035  13.066 -0.1242  0.5934  0.2092
  240MPD1    C1 3639   3.965   2.027  13.170 -0.3118 -0.0473 -0.2437
  240MPD1    C2 3640   4.018   2.036  13.300  0.7191  0.0228 -0.3253
  240MPD1    C3 3641   4.159   2.046  13.322 -0.1937  0.7536 -0.0685
  240MPD1    C4 3642   4.249   2.054  13.216 -0.3646 -0.4244  0.2880
  240MPD1    C5 3643   4.194   2.056  13.096  0.0847  0.4736 -0.4801
  240MPD1     H 3644   3.950   2.053  13.383  1.8274  2.9812 -0.0003
  240MPD1    H1 3645   4.357   2.053  13.221 -0.4040 -1.0818  0.9610
  240MPD1    H2 3646   4.024   2.035  12.963  1.0079 -2.5979 -0.1913
  240MPD1    H3 3647   4.263   2.052  13.012  0.2576  0.1711 -0.3246
  240MPD1     N 3648   4.199   2.050  13.456 -0.3751  0.1211 -0.1790
  240MPD1    H5 3649   4.133   2.025  13.529 -1.8469  0.2861 -1.4498
  240MPD1    N1 3650   3.822   2.038  13.148 -0.6453  0.0002  0.0014
  240MPD1    H6 3651   3.805   1.972  13.073 -0.8892 -0.8359  0.7907
  240MPD1    H7 3652   3.773   2.004  13.230  1.1318 -2.0455  0.2119
  241MPD1     C 3653   4.662   2.561  14.291 -0.3711  0.0359 -0.6035
  241MPD1    C1 3654   4.696   2.579  14.157  0.0267  0.8993 -0.4574
  241MPD1    C2 3655   4.665   2.481  14.066  0.5364 -0.2664 -0.1687
  241MPD1    C3 3656   4.615   2.362  14.112  0.4166 -0.0058  0.5344
  241MPD1    C4 3657   4.587   2.348  14.246 -0.7895 -0.1100 -0.5369
  241MPD1    C5 3658   4.599   2.446  14.332 -0.1471 -1.4826 -0.3939
  241MPD1     H 3659   4.671   2.494  13.958 -0.1926  0.9592 -0.0656
  241MPD1    H1 3660   4.550   2.254  14.287 -1.2587  0.1964 -0.2622
  241MPD1    H2 3661   4.674   2.635  14.369  0.8961  0.6059 -1.3482
  241MPD1    H3 3662   4.564   2.434  14.434  0.3677 -1.4891 -0.2172
  241MPD1     N 3663   4.574   2.254  14.033  1.0561  0.8390  0.8586
  241MPD1    H5 3664   4.518   2.182  14.077 -0.2032  1.1187 -0.2629
  241MPD1    N1 3665   4.724   2.707  14.112 -0.4946  0.2785  0.9523
  241MPD1    H6 3666   0.037   2.711  14.019 -1.0725  1.5537  0.7620
  241MPD1    H7 3667   0.047   2.764  14.178  0.3554  0.5379  0.0663
  242MPD1     C 3668   4.661   1.342  15.550 -0.1137 -0.2146 -0.4030
  242MPD1    C1 3669   4.567   1.245  15.557 -0.2475  0.5162 -0.7655
  242MPD1    C2 3670   4.563   1.151  15.457  0.3079 -0.4680 -0.3759
  242MPD1    C3 3671   4.660   1.145  15.359 -0.4939 -0.4305  0.1301
  242MPD1    C4 3672   0.030   1.241  15.363 -0.4245 -0.1720 -0.3047
  242MPD1    C5 3673   0.036   1.337  15.462  0.1128 -0.1121  0.1677
  242MPD1     H 3674   4.490   1.071  15.454  0.4619 -0.5239 -2.7843
  242MPD1    H1 3675   0.097   1.245  15.277  0.9491  0.0426  0.7887
  242MPD1    H2 3676   4.650   1.422  15.622  1.9606 -0.3753  0.0869
  242MPD1    H3 3677   0.110   1.415  15.450  0.5555 -0.3510  1.3593
  242MPD1     N 3678   4.673   1.040  15.266 -0.0054  0.3802  0.2706
  242MPD1    H5 3679   0.021   1.050  15.199  2.3027 -0.4038  2.7955
  242MPD1    N1 3680   4.464   1.265  15.648  0.0023 -0.2272  0.3493
  242MPD1    H6 3681   4.501   1.306  15.733  0.7416  0.6337 -0.3806
  242MPD1    H7 3682   4.422   1.174  15.666 -2.2460  0.7830  0.2061
  243MPD1     C 3683   1.991   3.263  16.989 -0.3385 -0.5812 -0.8762
  243MPD1    C1 3684   1.877   3.263  17.059  0.2818  0.4880 -0.0960
  243MPD1    C2 3685   1.755   3.301  16.997 -0.3943 -0.2085  0.0470
  243MPD1    C3 3686   1.765   3.328  16.862 -0.8176  0.4461 -0.5408
  243MPD1    C4 3687   1.883   3.310  16.793  0.7207  0.7678 -0.7847
  243MPD1    C5 3688   1.997   3.289  16.859  0.4896  0.4751 -0.4168
  243MPD1     H 3689   1.658   3.309  17.046 -0.0222 -0.7828  0.8872
  243MPD1    H1 3690   1.882   3.305  16.684 -1.7780  1.4019 -0.8108
  243MPD1    H2 3691   2.085   3.234  17.036 -0.7904  1.8332  1.5281
  243MPD1    H3 3692   2.093   3.271  16.812  0.8627  0.2768  0.4220
  243MPD1     N 3693   1.645   3.373  16.799 -0.8897 -0.9633  0.2068
  243MPD1    H5 3694   1.573   3.400  16.864  0.6077  3.2830  0.0766
  243MPD1    N1 3695   1.883   3.255  17.199  0.2725  0.4446  0.5211
  243MPD1    H6 3696   1.795   3.225  17.241  1.1953  1.3392  3.1163
  243MPD1    H7 3697   1.965   3.207  17.234  0.2157  0.1251  0.2144
  244MPD1     C 3698   0.672   3.651  16.909  0.3105 -0.2475  0.8101
  244MPD1    C1 3699   0.730   3.757  16.844  0.3794  0.0390 -0.1161
  244MPD1    C2 3700   0.856   3.743  16.786  0.2098 -0.0846  0.0437
  244MPD1    C3 3701   0.936   3.633  16.809  0.8370  0.0789  0.1433
  244MPD1    C4 3702   0.875   3.530  16.884  0.1500  0.2490 -0.3246
  244MPD1    C5 3703   0.754   3.544  16.928 -0.3272 -0.4139  0.4926
  244MPD1     H 3704   0.903   3.822  16.729  0.5358 -2.6068 -3.1425
  244MPD1    H1 3705   0.932   3.438  16.895  0.5601  0.4850 -0.4630
  244MPD1    H2 3706   0.569   3.646  16.943  0.0807 -1.0680  0.0056
  244MPD1    H3 3707   0.716   3.458  16.982 -0.9266 -1.1131 -1.0275
  244MPD1     N 3708   1.066   3.620  16.745  0.0232 -0.0770 -0.4453
  244MPD1    H5 3709   1.106   3.682  16.675  0.5381 -1.5939 -1.5137
  244MPD1    N1 3710   0.655   3.880  16.829 -0.0096 -0.2656  0.4592
  244MPD1    H6 3711   0.591   3.902  16.904 -1.1514  0.6410 -0.7782
  244MPD1    H7 3712   0.698   3.966  16.796 -2.3011  1.0437  0.9053
  245MPD1     C 3713   3.079   4.560  12.999 -0.5044  0.2721  0.2690
  245MPD1    C1 3714   3.006   4.581  13.118  0.4829 -0.1230  0.2077
  245MPD1    C2 3715   3.069   4.661  13.213  0.3807 -0.5169  0.2757
  245MPD1    C3 3716   3.197   4.710  13.192 -0.0031 -0.0599 -0.2072
  245MPD1    C4 3717   3.268   4.681  13.072 -0.2632  0.7625 -0.1542
  245MPD1    C5 3718   3.205   4.608  12.981  0.0821  0.6886  0.4726
  245MPD1     H 3719   3.017   4.692  13.302  0.6324  1.6602 -0.3125
  245MPD1    H1 3720   3.369   4.719  13.060 -0.1775  0.8981  0.9366
  245MPD1    H2 3721   3.043   4.493  12.922 -1.9098  0.9536  0.3271
  245MPD1    H3 3722   3.251   4.581  12.887 -0.6290  0.2716  0.2431
  245MPD1     N 3723   3.243   0.068  13.290 -0.1263  0.4544 -0.0329
  245MPD1    H5 3724   3.190   0.064  13.377  0.0433  3.0946  0.1738
  245MPD1    N1 3725   2.912   4.484  13.166  0.1867 -0.6388  0.1669
  245MPD1    H6 3726   2.857   4.452  13.087  1.4239 -0.2551 -0.8672
  245MPD1    H7 3727   2.845   4.537  13.222 -1.1787 -1.0815 -1.0587
  246MPD1     C 3728   0.597   3.800   8.913 -0.0930 -0.5851  0.7701
  246MPD1    C1 3729   0.565   3.800   8.779  0.3897 -0.2973  0.3794
  246MPD1    C2 3730   0.450   3.860   8.736 -0.9839  0.8052 -0.0885
  246MPD1    C3 3731   0.358   3.909   8.826 -0.2292 -0.6778  0.7445
  246MPD1    C4 3732   0.384   3.904   8.968 -0.1290 -0.9950  0.2800
  246MPD1    C5 3733   0.504   3.845   9.002 -0.0954 -0.1140  0.2967
  246MPD1     H 3734   0.427   3.879   8.632 -0.1750 -1.1807 -0.6453
  246MPD1    H1 3735   0.315   3.933   9.046  0.7012 -1.8921  1.3380
  246MPD1    H2 3736   0.679   3.740   8.952  0.8399  0.0104 -0.2645
  246MPD1    H3 3737   0.534   3.862   9.104 -1.3932  1.9270  0.3327
  246MPD1     N 3738   0.236   3.964   8.776 -0.3193  0.0380 -0.6142
  246MPD1    H5 3739   0.223   3.958   8.676  0.0518 -0.3622 -0.6374
  246MPD1    N1 3740   0.661   3.753   8.684 -0.0485 -0.5428  0.2514
  246MPD1    H6 3741   0.617   3.721   8.598 -1.2465  0.7685  0.3686
  246MPD1    H7 3742   0.713   3.675   8.724 -2.0581  0.3779  4.6631
  247MPD1     C 3743   2.832   4.704  16.797 -0.0520 -0.2582  0.1400
  247MPD1    C1 3744   2.862   4.585  16.856 -0.3880  0.4232  1.0097
  247MPD1    C2 3745   2.865   4.470  16.774 -0.1185 -0.8556 -0.9792
  247MPD1    C3 3746   2.848   4.487  16.634  0.2877  0.2842 -0.0166
  247MPD1    C4 3747   2.839   4.617  16.587 -0.4566  0.1307 -0.2914
  247MPD1    C5 3748   2.826   4.726  16.661  0.0754  0.2122  0.2194
  247MPD1     H 3749   2.871   4.374  16.824  1.0138  0.7099  1.9446
  247MPD1    H1 3750   2.836   4.635  16.480 -3.1674 -1.3345 -0.4563
  247MPD1    H2 3751   2.847   0.070  16.849 -0.7704 -0.5512  0.8822
  247MPD1    H3 3752   2.817   0.097  16.620 -0.6887 -0.2136 -0.6708
  247MPD1     N 3753   2.861   4.385  16.539 -0.3518  0.1157 -0.4044
  247MPD1    H5 3754   2.873   4.411  16.442 -0.3780 -0.6315 -0.6094
  247MPD1    N1 3755   2.864   4.581  16.995 -0.0555 -0.6921 -0.0475
  247MPD1    H6 3756   2.914   4.506  17.042  1.9673  0.0912 -0.9541
  247MPD1    H7 3757   2.910   4.660  17.038 -3.2565  0.3703  1.4159
  248MPD1     C 3758   3.893   4.268  17.671  0.0808 -0.1424  0.4252
  248MPD1    C1 3759   3.914   4.403  17.700  1.2511  0.2531 -0.7513
  248MPD1    C2 3760   3.862   4.451   0.108 -0.2760  0.2768  0.2409
  248MPD1    C3 3761   3.822   4.358   0.209  0.6770 -0.1454 -0.2169
  248MPD1    C4 3762   3.803   4.228   0.171 -0.5226  0.6315 -0.5506
  248MPD1    C5 3763   3.844   4.185   0.051  0.0860  0.0319  0.1995
  248MPD1     H 3764   3.852   4.558   0.124 -0.9190  0.1679  0.5836
  248MPD1    H1 3765   3.754   4.163   0.242 -0.6815 -0.4176 -1.6244
  248MPD1    H2 3766   3.932   4.224  17.581  0.1035 -2.0626  1.3660
  248MPD1    H3 3767   3.827   4.084   0.016 -2.0199  0.8902 -1.2156
  248MPD1     N 3768   3.771   4.409   0.328 -0.0082 -0.2695  0.3724
  248MPD1    H5 3769   3.768   4.509   0.346 -2.1534 -0.2359 -0.1708
  248MPD1    N1 3770   3.974   4.481  17.596  0.2520  0.2637 -0.3300
  248MPD1    H6 3771   4.007   4.573  17.624  1.8707 -0.8959  1.5937
  248MPD1    H7 3772   4.045   4.430  17.544  1.0182  0.0573  0.9123
  249MPD1     C 3773   4.675   2.805  10.825 -0.5440  0.4403  0.4577
  249MPD1    C1 3774   0.035   2.747  10.916 -0.0707 -0.3155 -0.1888
  249MPD1    C2 3775   0.172   2.788  10.901  0.0951  0.1647 -0.3253
  249MPD1    C3 3776   0.210   2.855  10.783 -0.5835 -0.4234 -0.8340
  249MPD1    C4 3777   0.112   2.897  10.692 -0.2173  0.6591  0.2324
  249MPD1    C5 3778   4.708   2.861  10.707 -0.4034  0.4804  0.3756
  249MPD1     H 3779   0.254   2.760  10.966 -0.1994  1.7143  0.7349
  249MPD1    H1 3780   0.137   2.945  10.598  1.5393 -0.3827  0.1644
  249MPD1    H2 3781   4.568   2.786  10.831 -0.6164  0.6118 -0.3199
  249MPD1    H3 3782   4.629   2.898  10.643 -1.9751 -3.2633  0.1253
  249MPD1     N 3783   0.349   2.891  10.772 -0.4611 -0.1722  1.0654
  249MPD1    H5 3784   0.414   2.854  10.840 -1.4518 -1.3743  1.3634
  249MPD1    N1 3785   4.716   2.677  11.024 -0.6103 -0.3476  0.4311
  249MPD1    H6 3786   0.057   2.619  11.070 -1.0310 -1.0854  0.1253
  249MPD1    H7 3787   4.627   2.628  11.013 -0.9514 -0.1921  2.3426
  250MPD2     C 3788   1.716   2.877  13.248 -0.1439 -0.2602  0.8871
  250MPD2    C1 3789   1.638   2.932  13.143 -0.2338 -0.0408 -0.4417
  250MPD2    C2 3790   1.494   2.912  13.147 -0.3148 -0.2675  0.2364
  250MPD2    C3 3791   1.432   2.836  13.245  0.8364 -0.0464  0.3402
  250MPD2    C4 3792   1.511   2.791  13.348 -0.1404 -0.3954 -0.2514
  250MPD2    C5 3793   1.648   2.812  13.346 -0.8642  0.3215  0.6172
  250MPD2     H 3794   1.428   2.958  13.075  1.1959  0.2145 -0.8441
  250MPD2    H1 3795   1.469   2.742  13.434  1.0574  0.1543  0.6391
  250MPD2    H2 3796   1.820   2.901  13.261 -0.5170  2.4636 -1.3463
  250MPD2    H3 3797   1.705   2.775  13.431 -1.6530  0.0833  1.0444
  250MPD2     N 3798   1.297   2.798  13.252  0.4884  0.5353  0.5032
  250MPD2    H5 3799   1.267   2.767  13.344 -0.9886  2.9756  0.8302
  250MPD2    N1 3800   1.706   3.028  13.060 -0.1090 -0.2336  0.5486
  250MPD2    H7 3801   1.802   3.054  13.081 -0.4942  0.5920  1.2949
  251TMC3    C1 3802   1.721   3.192  12.896 -0.3630 -0.2673 -0.9387
  251TMC3    C2 3803   1.644   3.290  12.845 -0.2187 -0.1409 -0.4468
  251TMC3    C3 3804   1.682   3.424  12.854 -0.3230 -0.2524 -0.5745
  251TMC3    C4 3805   1.848   3.222  12.938  0.7323 -0.0127 -0.1675
  251TMC3    C5 3806   1.894   3.356  12.930 -0.4756 -0.1973  0.4364
  251TMC3    C6 3807   1.808   3.455  12.891 -0.4083  0.0469 -0.9125
  251TMC3     C 3808   1.654   3.071  12.941  0.0023  0.0574 -0.2737
  251TMC3     O 3809   1.546   3.045  12.896  0.5235 -0.2201 -0.0447
  251TMC3     H 3810   1.539   3.268  12.829  0.3084 -1.1230 -2.6278
  251TMC3    H1 3811   1.917   3.145  12.971 -0.4415  0.1380  2.6021
  251TMC3    H2 3812   1.827   3.561  12.905 -1.3693  0.3798 -2.1045
  251TMC3    C7 3813   2.025   3.392  12.990  0.0347 -0.3091 -0.3501
  251TMC3    C8 3814   1.580   3.505  12.924 -0.2798 -0.4384  0.3099
  251TMC3    O1 3815   2.096   3.307  13.029 -0.3202 -0.1593  0.2570
  251TMC3    O2 3816   1.611   3.589  13.012  0.6929  0.0786  0.4009
  252TMC3    C1 3817   2.708   3.279   9.147  0.3474  0.0145 -0.3771
  252TMC3    C2 3818   2.707   3.251   9.282 -0.4862  0.7464  0.5289
  252TMC3    C3 3819   2.623   3.148   9.323  0.4242  0.6617 -0.5932
  252TMC3    C4 3820   2.626   3.219   9.063 -0.3545  0.7560  0.3295
  252TMC3    C5 3821   2.542   3.117   9.106 -0.8653 -0.4108  0.4441
  252TMC3    C6 3822   2.545   3.076   9.238 -0.3154 -0.0750 -0.0904
  252TMC3     C 3823   2.794   3.380   9.084  0.4523 -0.4895  0.4420
  252TMC3     O 3824   2.775   3.420   8.968 -0.0655  1.0872  0.0153
  252TMC3     H 3825   2.787   3.280   9.349 -0.5775  1.0061  0.5258
  252TMC3    H1 3826   2.618   3.259   8.962 -0.3282 -0.1983 -0.0533
  252TMC3    H2 3827   2.492   2.987   9.269 -0.0375  0.1315  0.9723
  252TMC3    C7 3828   2.429   3.071   9.030 -0.0667 -0.4553 -0.1449
  252TMC3    C8 3829   2.625   3.105   9.463  0.0404  0.7571 -0.4564
  252TMC3    O1 3830   2.440   3.082   8.907  0.2966 -0.5094 -0.9844
  252TMC3    O2 3831   2.582   2.993   9.489  0.0343 -0.4909 -0.4504
  253MPD2     C 3832   2.990   2.966  15.217  0.5156 -0.2814 -0.0800
  253MPD2    C1 3833   2.856   2.991  15.222  0.3725  1.0007 -0.3576
  253MPD2    C2 3834   2.814   3.028  15.348  0.8966  0.3080  0.4081
  253MPD2    C3 3835   2.892   3.051  15.461 -0.3449 -0.2290  0.0903
  253MPD2    C4 3836   3.026   3.049  15.438  0.6189  0.3616 -0.1512
  253MPD2    C5 3837   3.071   3.007  15.318 -0.8532  0.2946  0.4965
  253MPD2     H 3838   2.708   3.048  15.353  0.5717 -2.0374  2.9066
  253MPD2    H1 3839   3.106   3.079  15.504  0.9735  2.3399 -1.4792
  253MPD2    H2 3840   3.041   2.931  15.129  2.7396  0.0042  1.0980
  253MPD2    H3 3841   3.179   3.011  15.314 -0.8555 -0.4935 -0.3990
  253MPD2     N 3842   2.843   3.101  15.588  0.5292  0.2117  0.0066
  253MPD2    H5 3843   2.911   3.114  15.662  0.5339  2.1603 -0.3315
  253MPD2    N1 3844   2.764   2.970  15.116 -0.3150 -0.1205 -0.1915
  253MPD2    H7 3845   2.667   2.983  15.143 -0.3503  0.9073 -0.8177
  254TMC3    C1 3846   2.695   3.189  15.744  0.2771  0.1620  0.2145
  254TMC3    C2 3847   2.572   3.243  15.760 -0.5005 -0.1025 -0.1348
  254TMC3    C3 3848   2.522   3.241  15.885 -0.5805  0.3372 -0.3902
  254TMC3    C4 3849   2.764   3.130  15.843 -0.3184  0.3886  0.5198
  254TMC3    C5 3850   2.711   3.138  15.970  0.1818  0.1011  0.2921
  254TMC3    C6 3851   2.583   3.186  15.995 -0.3769 -0.1181 -0.2496
  254TMC3     C 3852   2.714   3.124  15.621  0.8190  0.7192  0.3150
  254TMC3     O 3853   2.627   3.138  15.534 -0.6795 -0.0001 -0.2674
  254TMC3     H 3854   2.503   3.257  15.677 -1.4996 -2.0216  0.3613
  254TMC3    H1 3855   2.849   3.064  15.824 -0.4282  0.2679  0.4470
  254TMC3    H2 3856   2.536   3.185  16.092  1.6447 -1.6611  0.7255
  254TMC3    C7 3857   2.786   3.127  16.094 -0.0834 -0.1240  0.8157
  254TMC3    C8 3858   2.412   3.324  15.931  0.4656  0.2333 -0.4047
  254TMC3    O1 3859   2.719   3.118  16.196 -0.6086 -0.0155 -0.2187
  254TMC3    O2 3860   2.336   3.265  16.008  0.1316  0.5127 -0.6654
  255MPD2     C 3861   0.950   0.630  10.933 -0.0114  0.1159  0.0528
  255MPD2    C1 3862   1.020   0.744  10.927  0.3474 -0.3837 -0.0672
  255MPD2    C2 3863   1.158   0.735  10.939 -0.9413  0.4607  0.6374
  255MPD2    C3 3864   1.223   0.613  10.935 -0.3075  0.0479 -0.1484
  255MPD2    C4 3865   1.142   0.497  10.948 -0.4944  0.0550  0.1618
  255MPD2    C5 3866   1.005   0.509  10.955 -0.6826 -0.6304  0.1934
  255MPD2     H 3867   1.221   0.824  10.941  0.3727 -0.5032  2.8417
  255MPD2    H1 3868   1.186   0.399  10.960  0.2991  0.3003 -0.8157
  255MPD2    H2 3869   0.843   0.619  10.929 -0.3123  2.4693  1.1058
  255MPD2    H3 3870   0.939   0.423  10.956 -0.9327 -0.3999  2.5938
  255MPD2     N 3871   1.363   0.620  10.935  0.0350  0.7235  0.8339
  255MPD2    H5 3872   1.406   0.712  10.929 -0.9713  1.0656 -1.2239
  255MPD2    N1 3873   0.948   0.862  10.902  0.0350  0.4178 -0.2922
  255MPD2    H7 3874   0.847   0.859  10.903  0.0486  1.1344  3.8417
  256TMC3    C1 3875   0.899   1.077  10.837 -1.0651 -0.2824  0.1216
  256TMC3    C2 3876   0.936   1.199  10.866  0.6447 -0.1649  0.0870
  256TMC3    C3 3877   0.857   1.303  10.816 -0.1283  0.1662 -0.0024
  256TMC3    C4 3878   0.813   1.048  10.729 -0.5232 -0.7688  0.0743
  256TMC3    C5 3879   0.751   1.153  10.668  0.1905 -0.5237 -0.0024
  256TMC3    C6 3880   0.758   1.276  10.725  1.2595  0.4104 -0.4076
  256TMC3     C 3881   1.005   0.988  10.874 -0.7162  0.8587 -0.4049
  256TMC3     O 3882   1.120   1.027  10.879  0.2026  0.2282 -0.2096
  256TMC3     H 3883   1.016   1.222  10.936  0.3613  1.2175 -0.0405
  256TMC3    H1 3884   0.793   0.946  10.701 -1.1940 -0.4840 -0.4753
  256TMC3    H2 3885   0.698   1.356  10.683  0.5047 -0.2957 -0.6740
  256TMC3    C7 3886   0.750   1.139  10.525 -0.4864 -0.2327  0.1471
  256TMC3    C8 3887   0.905   1.437  10.791 -0.3751 -0.0030 -0.2405
  256TMC3    O1 3888   0.755   1.022  10.481 -0.5070 -0.4353  0.2626
  256TMC3    O2 3889   0.821   1.524  10.782 -0.1433 -0.0062 -0.0893
  257MPD2     C 3890   0.626   3.403  13.399 -0.3855  0.2143  0.1230
  257MPD2    C1 3891   0.500   3.389  13.348  0.0364  0.2253  0.1826
  257MPD2    C2 3892   0.414   3.300  13.420  0.0972 -0.0713  0.2745
  257MPD2    C3 3893   0.449   3.258  13.548 -0.2041 -0.1150  0.4098
  257MPD2    C4 3894   0.576   3.279  13.595  0.1386  0.3618  0.2758
  257MPD2    C5 3895   0.664   3.347  13.516  0.1038  0.3592  0.6705
  257MPD2     H 3896   0.314   3.276  13.386 -0.3152  0.5386  1.0508
  257MPD2    H1 3897   0.625   3.257  13.689  1.0637  0.7822 -0.1169
  257MPD2    H2 3898   0.694   3.466  13.342  0.0807 -0.1395  0.2860
  257MPD2    H3 3899   0.763   3.369  13.554  0.7960  1.6486 -1.8762
  257MPD2     N 3900   0.343   3.192  13.619 -0.1709 -0.3891 -0.6276
  257MPD2    H5 3901   0.257   3.193  13.566 -1.4038  2.6610  1.4882
  257MPD2    N1 3902   0.461   3.453  13.223 -0.2903  0.1319 -0.2872
  257MPD2    H7 3903   0.531   3.507  13.173  0.4579 -0.5315  0.0446
  258TMC3    C1 3904   0.215   3.115  13.802  0.7928 -0.5733  0.1979
  258TMC3    C2 3905   0.106   3.087  13.726  0.0493  0.2227 -0.6521
  258TMC3    C3 3906   4.726   3.029  13.791  0.5697  0.3513 -0.2343
  258TMC3    C4 3907   0.212   3.093  13.937 -0.1511  0.0082 -0.8793
  258TMC3    C5 3908   0.101   3.054  13.999  1.0880  0.0684  0.1569
  258TMC3    C6 3909   4.716   3.026  13.927 -0.4595  0.1376 -0.0756
  258TMC3     C 3910   0.340   3.175  13.754 -1.1422  0.6461 -0.1626
  258TMC3     O 3911   0.427   3.205  13.835  0.7388  0.3266 -0.3283
  258TMC3     H 3912   0.107   3.079  13.618 -0.0806  0.2849 -0.6580
  258TMC3    H1 3913   0.290   3.133  14.001  1.0877  1.1084 -3.0675
  258TMC3    H2 3914   4.629   2.994  13.982  0.3101 -0.2646  0.9031
  258TMC3    C7 3915   0.114   3.023  14.139 -0.6448  0.5206  0.0103
  258TMC3    C8 3916   4.613   2.983  13.716 -0.3974 -0.0500 -0.0403
  258TMC3    O1 3917   0.013   3.027  14.208  0.1263  0.3321 -0.5003
  258TMC3    O2 3918   4.536   2.920  13.784  0.5533 -0.0730 -0.5134
  259MPD2     C 3919   3.931   0.119   1.163  0.6190 -0.5957  0.9027
  259MPD2    C1 3920   4.022   0.029   1.211  0.2756 -0.5845  0.0549
  259MPD2    C2 3921   4.129   4.725   1.130 -0.1703  0.6213 -0.6204
  259MPD2    C3 3922   4.149   0.054   1.009 -0.3313 -0.4449  0.4235
  259MPD2    C4 3923   4.076   0.157   0.968  0.0890  0.5253 -0.5142
  259MPD2    C5 3924   3.971   0.195   1.053  0.3954 -0.1333  0.2513
  259MPD2     H 3925   4.197   4.647   1.166 -0.6307  0.7456  0.5275
  259MPD2    H1 3926   4.087   0.211   0.875 -2.7193 -0.0483 -1.1679
  259MPD2    H2 3927   3.834   0.136   1.209  0.2245  1.8422 -0.7814
  259MPD2    H3 3928   3.904   0.275   1.023  2.5405  1.3871 -0.5301
  259MPD2     N 3929   4.256   0.009   0.930 -0.3220  0.0634 -0.8150
  259MPD2    H5 3930   4.315   4.672   0.980 -1.2475  1.3494  1.9968
  259MPD2    N1 3931   4.003   4.697   1.334 -0.4338  0.2589 -0.3867
  259MPD2    H7 3932   3.910   4.713   1.371 -0.9709 -1.2255 -1.1220
  260TMC3    C1 3933   4.385   4.667   0.750 -0.2321  0.9034 -0.5769
  260TMC3    C2 3934   4.445   4.699   0.627  0.7062 -0.2031 -0.0063
  260TMC3    C3 3935   4.545   4.614   0.585 -0.3044  0.1988  0.3903
  260TMC3    C4 3936   4.408   4.550   0.812  0.2321  0.7527 -0.1275
  260TMC3    C5 3937   4.515   4.473   0.769 -0.2704 -0.3350 -0.3404
  260TMC3    C6 3938   4.581   4.508   0.652 -0.4323  0.0145  0.0692
  260TMC3     C 3939   4.288   0.035   0.802  0.2622 -0.5376 -0.4226
  260TMC3     O 3940   4.267   0.132   0.735  0.3731  0.2804  0.6145
  260TMC3     H 3941   4.431   0.065   0.577  1.5821 -1.0418 -1.8219
  260TMC3    H1 3942   4.353   4.515   0.898  0.4283 -2.4367 -1.3126
  260TMC3    H2 3943   4.665   4.444   0.626 -1.7839 -0.5397 -2.9122
  260TMC3    C7 3944   4.492   4.335   0.762  0.1305  0.4170  0.2759
  260TMC3    C8 3945   4.563   4.600   0.444  0.0041  0.1250  0.5839
  260TMC3    O1 3946   4.500   4.290   0.647 -0.4673  0.1962  0.0328
  260TMC3    O2 3947   4.551   4.702   0.379 -0.4066 -0.6278  0.1077
  261MPD2     C 3948   0.615   2.893  12.736 -0.2898 -0.5513 -0.2692
  261MPD2    C1 3949   0.752   2.887  12.756 -0.0512 -0.7117 -0.8548
  261MPD2    C2 3950   0.837   2.928  12.657  0.2793  0.0661  0.0103
  261MPD2    C3 3951   0.785   2.984  12.543  0.2852  0.7115  0.4975
  261MPD2    C4 3952   0.654   3.010  12.533  0.0350 -0.7394 -1.0750
  261MPD2    C5 3953   0.563   2.964  12.623  0.1385  0.0524  0.4324
  261MPD2     H 3954   0.943   2.905  12.663  0.3675  0.3762 -0.3531
  261MPD2    H1 3955   0.618   3.058  12.443 -1.5964 -0.7129 -0.3999
  261MPD2    H2 3956   0.549   2.867  12.819  0.7488 -1.3817  0.2919
  261MPD2    H3 3957   0.460   2.997  12.626 -0.1938 -0.9642  0.2432
  261MPD2     N 3958   0.862   3.036  12.435  0.0939  0.7465 -0.8370
  261MPD2    H5 3959   0.819   3.113  12.385 -1.2330  0.1959 -0.5541
  261MPD2    N1 3960   0.816   2.837  12.877 -0.1180 -0.2101 -0.7236
  261MPD2    H7 3961   0.918   2.838  12.879 -0.1359 -0.1296  0.6667
  262TMC3    C1 3962   1.057   3.102  12.316 -0.6410 -0.2252  0.5304
  262TMC3    C2 3963   1.009   3.226  12.301 -0.1824  0.3430  0.0377
  262TMC3    C3 3964   1.086   3.309  12.229 -0.3130  0.5156  0.0748
  262TMC3    C4 3965   1.164   3.049  12.256  0.0989  0.6703 -0.0455
  262TMC3    C5 3966   1.240   3.130  12.181 -0.2323 -0.0427 -0.8216
  262TMC3    C6 3967   1.200   3.262  12.170  0.3870  0.1438  0.3579
  262TMC3     C 3968   0.994   3.022  12.426  0.3580  0.8098  0.5920
  262TMC3     O 3969   1.073   2.947  12.488  0.2205 -0.1530 -0.1349
  262TMC3     H 3970   0.954   3.274  12.382 -0.5491  2.7238 -1.6042
  262TMC3    H1 3971   1.192   2.945  12.271 -2.9351 -0.1323  0.0595
  262TMC3    H2 3972   1.270   3.331  12.123  1.7121 -1.6306 -0.2843
  262TMC3    C7 3973   1.319   3.073  12.073  0.3241 -0.0944  0.0314
  262TMC3    C8 3974   1.046   3.445  12.212 -1.4149 -0.6115 -0.4485
  262TMC3    O1 3975   1.363   2.958  12.073 -0.3427 -1.1432 -0.7685
  262TMC3    O2 3976   1.136   3.529  12.195  0.2642 -0.5068 -0.2107
  263MPD2     C 3977   2.097   2.126  11.450  0.1735  0.3069 -0.2198
  263MPD2    C1 3978   2.184   2.128  11.344 -0.1837  0.0046  0.1397
  263MPD2    C2 3979   2.205   2.241  11.272 -0.0809  0.4503 -0.6592
  263MPD2    C3 3980   2.120   2.343  11.295 -0.0792  0.2855 -0.1048
  263MPD2    C4 3981   2.033   2.342  11.397 -0.6749 -0.2107 -0.2400
  263MPD2    C5 3982   2.020   2.233  11.480  0.2865  0.8388 -0.0908
  263MPD2     H 3983   2.274   2.233  11.188  2.4766 -0.8806  1.5748
  263MPD2    H1 3984   1.976   2.431  11.418  1.6696  0.0611  4.9425
  263MPD2    H2 3985   2.097   2.037  11.512 -3.7943  0.3376 -0.1374
  263MPD2    H3 3986   1.946   2.233  11.559 -0.2689  0.7558 -0.6134
  263MPD2     N 3987   2.128   2.469  11.227  0.2821  0.3938 -0.2108
  263MPD2    H5 3988   2.062   2.543  11.250 -0.1179 -0.1662  0.4487
  263MPD2    N1 3989   2.279   2.022  11.330 -0.1599 -0.5800 -0.1225
  263MPD2    H7 3990   2.251   1.943  11.387 -0.8989 -1.3712 -1.5757
  264TMC3    C1 3991   2.182   2.614  11.052 -0.1743  0.8588 -0.2944
  264TMC3    C2 3992   2.182   2.721  11.139 -0.5543 -0.4017 -0.5841
  264TMC3    C3 3993   2.219   2.842  11.088 -0.0418 -0.0823 -0.2812
  264TMC3    C4 3994   2.221   2.626  10.923  0.0961  0.5862  0.3226
  264TMC3    C5 3995   2.267   2.744  10.870  0.2679 -0.4921 -0.4447
  264TMC3    C6 3996   2.258   2.852  10.956  0.0968 -0.2333  0.2072
  264TMC3     C 3997   2.191   2.478  11.100 -0.5080  0.0704 -0.4126
  264TMC3     O 3998   2.269   2.405  11.045 -0.7096  0.5276 -0.5422
  264TMC3     H 3999   2.157   2.711  11.244  0.7917  3.3222  0.0683
  264TMC3    H1 4000   2.232   2.535  10.865  1.4465  1.5594 -0.9264
  264TMC3    H2 4001   2.295   2.943  10.910  3.2882 -0.1419  2.9783
  264TMC3    C7 4002   2.386   2.724  10.786 -0.0324  0.1169 -0.6991
  264TMC3    C8 4003   2.321   2.911  11.163  0.6547  0.0611  0.6499
  264TMC3    O1 4004   2.395   2.633  10.699  0.0022 -0.6443 -0.2172
  264TMC3    O2 4005   2.421   2.913  11.091  0.4570  0.7224  0.3593
  265MPD2     C 4006   4.345   2.821  15.643 -0.6146 -0.2587 -0.4429
  265MPD2    C1 4007   4.338   2.938  15.563 -0.1437 -0.2279 -0.3199
  265MPD2    C2 4008   4.356   2.928  15.426  0.7929 -0.6282  0.2567
  265MPD2    C3 4009   4.391   2.812  15.365 -0.4733  0.0741 -0.0742
  265MPD2    C4 4010   4.388   2.700  15.443 -0.2190  0.5213 -0.9349
  265MPD2    C5 4011   4.368   2.706  15.580 -0.3647 -0.6622  0.1403
  265MPD2     H 4012   4.342   3.017  15.366  2.1545 -1.8045 -1.8138
  265MPD2    H1 4013   4.414   2.600  15.408  0.2102  0.3455 -0.1109
  265MPD2    H2 4014   4.351   2.826  15.751  2.4613 -1.4233 -0.5512
  265MPD2    H3 4015   4.373   2.612  15.632  2.7915 -1.2071 -1.1129
  265MPD2     N 4016   4.420   2.799  15.224  0.3830  0.6629 -0.3396
  265MPD2    H5 4017   4.428   2.705  15.186  0.1395  0.4044  0.2506
  265MPD2    N1 4018   4.315   3.065  15.618  0.4517 -0.0041 -0.2451
  265MPD2    H7 4019   4.301   3.138  15.548 -1.1989 -0.1761 -0.0985
  266TMC3    C1 4020   4.265   3.224  15.786 -0.0237  0.0496 -0.4062
  266TMC3    C2 4021   4.321   3.274  15.899 -0.5509 -0.3073  0.2261
  266TMC3    C3 4022   4.286   3.403  15.933 -0.1874 -0.3029  0.5410
  266TMC3    C4 4023   4.175   3.292  15.710 -0.6998  1.1160 -0.2456
  266TMC3    C5 4024   4.146   3.415  15.752  0.3060  1.2939  0.3714
  266TMC3    C6 4025   4.203   3.477  15.860 -0.0167 -0.0341  0.5811
  266TMC3     C 4026   4.311   3.090  15.753  0.5309  0.1491 -0.2631
  266TMC3     O 4027   4.331   3.016  15.847  0.4770 -0.2044  0.5079
  266TMC3     H 4028   4.384   3.208  15.958  1.1995  1.5766  0.4702
  266TMC3    H1 4029   4.112   3.242  15.637 -1.0594 -1.2982  1.7136
  266TMC3    H2 4030   4.175   3.574  15.897  3.3671  1.2371 -0.2004
  266TMC3    C7 4031   4.072   3.498  15.657  0.2678  0.1052 -0.3103
  266TMC3    C8 4032   4.262   3.406  16.081 -0.1548  0.3188  0.2240
  266TMC3    O1 4033   3.970   3.457  15.606 -0.1739  0.3911 -0.2911
  266TMC3    O2 4034   4.341   3.354  16.159 -0.5832  0.6250  0.7286
  267MPD2     C 4035   1.803   0.111  17.558  0.0009 -1.5734 -0.6160
  267MPD2    C1 4036   1.880   0.202  17.489  0.5762  0.0372 -0.1211
  267MPD2    C2 4037   1.862   0.215  17.354  0.5458  0.8584  0.4384
  267MPD2    C3 4038   1.766   0.142  17.289  0.2546 -0.1973 -0.2762
  267MPD2    C4 4039   1.697   0.044  17.357 -0.3504 -0.4030 -0.9517
  267MPD2    C5 4040   1.717   0.029  17.493 -0.1237  0.1005  0.1617
  267MPD2     H 4041   1.927   0.273  17.290 -1.3518  0.7776 -1.5470
  267MPD2    H1 4042   1.620   4.708  17.315 -0.2336 -1.3539  0.2954
  267MPD2    H2 4043   1.814   0.097  17.665  0.3667  1.5085 -0.2443
  267MPD2    H3 4044   1.659   4.686  17.551 -0.0581  0.2589  0.4252
  267MPD2     N 4045   1.736   0.150  17.152 -0.1238  0.3047 -0.1815
  267MPD2    H5 4046   1.671   0.084  17.112 -0.0727  1.5260 -2.2517
  267MPD2    N1 4047   1.977   0.270  17.566 -0.4826 -0.4392  0.4378
  267MPD2    H7 4048   1.973   0.258  17.667  2.3725 -0.5800  0.5529
  268TMC3    C1 4049   2.158   0.408  17.606  0.6447  0.1856 -0.1669
  268TMC3    C2 4050   2.220   0.523  17.558 -0.1746 -0.1042  0.0167
  268TMC3    C3 4051   2.299   0.588  17.653 -0.2608  0.1880  0.0291
  268TMC3    C4 4052   2.181   0.362   0.017  0.5772 -0.4950 -0.0332
  268TMC3    C5 4053   2.247   0.441   0.103  0.1801 -0.0744 -0.9988
  268TMC3    C6 4054   2.314   0.554   0.069 -0.0739 -0.3934 -0.2107
  268TMC3     C 4055   2.077   0.347  17.505 -0.2774 -0.7282  0.0567
  268TMC3     O 4056   2.105   0.364  17.386  0.6639 -0.0227 -0.2613
  268TMC3     H 4057   2.207   0.564  17.459 -0.5389 -2.9683 -1.1142
  268TMC3    H1 4058   2.117   0.281   0.051 -0.2004 -0.0025 -0.3213
  268TMC3    H2 4059   2.369   0.618   0.138  1.0783  0.2203 -1.6967
  268TMC3    C7 4060   2.245   0.403   0.246 -0.4679  0.4615  0.2462
  268TMC3    C8 4061   2.343   0.721  17.606  0.4158  0.3156  0.8712
  268TMC3    O1 4062   2.220   0.283   0.278 -0.0963  0.5609 -0.0544
  268TMC3    O2 4063   2.353   0.810  17.688 -0.1290 -0.5719  0.5957
  269MPD2     C 4064   2.057   3.494  15.767  0.3633 -0.3296  0.1133
  269MPD2    C1 4065   1.960   3.559  15.838  0.4762 -0.1077 -0.3216
  269MPD2    C2 4066   1.921   3.676  15.780 -0.6505  0.3527 -0.3112
  269MPD2    C3 4067   1.985   3.732  15.671 -0.2236  0.5579  0.9846
  269MPD2    C4 4068   2.094   3.669  15.610  0.7167  0.0714  0.9336
  269MPD2    C5 4069   2.123   3.547  15.662 -0.5423  0.3703  0.6564
  269MPD2     H 4070   1.839   3.734  15.822 -1.1301 -1.1602  0.8390
  269MPD2    H1 4071   2.148   3.698  15.521  0.7656  1.2768  1.3535
  269MPD2    H2 4072   2.102   3.402  15.801  3.6718  1.4181  0.4360
  269MPD2    H3 4073   2.197   3.484  15.615  0.2485  0.9684  1.1077
  269MPD2     N 4074   1.952   3.861  15.630 -0.1731 -0.0376  0.0925
  269MPD2    H5 4075   1.890   3.898  15.701 -2.3624  1.2678 -2.4842
  269MPD2    N1 4076   1.903   3.498  15.950 -0.2596  0.0563 -0.0224
  269MPD2    H7 4077   1.939   3.408  15.980  2.3236  1.0507 -0.1693
  270TMC3    C1 4078   1.737   3.448  16.104  0.1776  0.2416  0.5579
  270TMC3    C2 4079   1.598   3.445  16.089 -0.4553 -0.4037  0.5181
  270TMC3    C3 4080   1.532   3.327  16.092  1.0587 -0.0789 -0.1783
  270TMC3    C4 4081   1.811   3.327  16.118  0.3377 -0.3482 -0.0853
  270TMC3    C5 4082   1.736   3.209  16.135 -0.2743 -0.2128  0.1077
  270TMC3    C6 4083   1.598   3.206  16.112 -0.3716 -0.3652  0.3694
  270TMC3     C 4084   1.800   3.547  16.026 -0.0962 -0.0147  0.5583
  270TMC3     O 4085   1.736   3.647  16.003  0.4997  0.5309 -0.2539
  270TMC3     H 4086   1.544   3.535  16.062  0.6774  0.5180  1.3295
  270TMC3    H1 4087   1.918   3.334  16.131  0.1329 -1.7495  2.1549
  270TMC3    H2 4088   1.533   3.119  16.113 -0.2882 -0.4342 -0.3290
  270TMC3    C7 4089   1.819   3.086  16.126  0.2834  0.1599 -0.0533
  270TMC3    C8 4090   1.454   3.320  15.972 -0.2695 -0.1056  0.2927
  270TMC3    O1 4091   1.940   3.093  16.094  0.1670 -0.6218  0.2098
  270TMC3    O2 4092   1.344   3.378  15.962  0.1027  0.1784  0.2116
  271MPD2     C 4093   0.985   3.171  14.063  0.4693  0.2712 -0.0300
  271MPD2    C1 4094   0.946   3.238  14.183  0.6683  0.0716 -0.3420
  271MPD2    C2 4095   0.843   3.326  14.168 -0.5514  0.6038 -0.0466
  271MPD2    C3 4096   0.783   3.354  14.049 -0.6501 -0.2896 -0.2104
  271MPD2    C4 4097   0.821   3.281  13.934 -0.0954  0.6326  0.0415
  271MPD2    C5 4098   0.924   3.195  13.942 -0.1773 -0.2977  0.4691
  271MPD2     H 4099   0.815   3.384  14.255 -0.7511  1.7690 -0.8894
  271MPD2    H1 4100   0.774   3.281  13.836 -2.2351  3.7605  1.0710
  271MPD2    H2 4101   1.065   3.098  14.069  0.3663  0.1134 -0.5515
  271MPD2    H3 4102   0.949   3.131  13.858  1.7209 -0.0926  0.8671
  271MPD2     N 4103   0.672   3.437  14.030 -0.2864  0.0160  0.4272
  271MPD2    H5 4104   0.619   3.433  13.943  0.8301  2.5175 -0.3421
  271MPD2    N1 4105   0.994   3.221  14.314  0.6212  0.8483  0.9318
  271MPD2    H7 4106   0.954   3.287  14.380  1.0039  0.3707  1.6454
  272TMC3    C1 4107   1.115   3.116  14.490  0.1948 -0.0366 -0.2910
  272TMC3    C2 4108   1.230   3.051  14.515  0.0784  0.3485 -0.4628
  272TMC3    C3 4109   1.266   3.034  14.650 -0.3512 -0.1367 -0.0034
  272TMC3    C4 4110   1.036   3.160  14.591 -0.4061 -0.7295  0.0267
  272TMC3    C5 4111   1.074   3.144  14.718 -0.7129  0.0729  0.4148
  272TMC3    C6 4112   1.188   3.070  14.758  1.0184  0.2268  0.5476
  272TMC3     C 4113   1.081   3.129  14.350 -0.8542 -0.4506 -0.4371
  272TMC3     O 4114   1.130   3.040  14.279 -0.4262 -0.6468  0.3223
  272TMC3     H 4115   1.289   3.012  14.432  0.4093 -1.7862  0.7761
  272TMC3    H1 4116   0.943   3.214  14.577  0.5319  1.1179  0.9059
  272TMC3    H2 4117   1.229   3.064  14.858  0.2460  0.4032  0.8781
  272TMC3    C7 4118   1.019   3.242  14.807 -0.3929 -0.1217 -0.0941
  272TMC3    C8 4119   1.397   2.974  14.670 -0.3034  0.2887 -1.2060
  272TMC3    O1 4120   0.914   3.301  14.783  0.2224  0.4413 -0.1785
  272TMC3    O2 4121   1.469   2.982  14.570  0.1765  0.9058  0.1485
  273MPD2     C 4122   2.571   1.280  11.717 -0.5847  0.5449 -0.2034
  273MPD2    C1 4123   2.692   1.350  11.710  0.5555 -0.0691  0.9021
  273MPD2    C2 4124   2.744   1.385  11.589  0.3342  0.1134  0.2479
  273MPD2    C3 4125   2.675   1.350  11.473 -0.3169 -0.0687 -0.3158
  273MPD2    C4 4126   2.560   1.280  11.487 -0.2562  0.3810  0.1907
  273MPD2    C5 4127   2.497   1.249  11.610 -0.1362 -0.3503  0.4786
  273MPD2     H 4128   2.840   1.434  11.579  0.0890 -0.0026 -2.7271
  273MPD2    H1 4129   2.503   1.239  11.405 -1.5361  1.0861  0.7163
  273MPD2    H2 4130   2.524   1.264  11.814  1.3240 -0.0949  0.6301
  273MPD2    H3 4131   2.400   1.203  11.619 -0.6418  0.8038  0.9898
  273MPD2     N 4132   2.715   1.379  11.340 -0.3133 -0.1213 -0.2122
  273MPD2    H5 4133   2.643   1.350  11.274 -0.0969  0.0322 -0.5163
  273MPD2    N1 4134   2.748   1.382  11.836 -0.2367 -0.9196 -0.9462
  273MPD2    H7 4135   2.695   1.355  11.919 -0.5601  1.6490 -0.3101
  274TMC3    C1 4136   2.840   1.453  11.160 -0.3547 -0.1935  0.6738
  274TMC3    C2 4137   2.726   1.453  11.091  0.1128 -0.2129 -0.1614
  274TMC3    C3 4138   2.741   1.468  10.956 -0.5119  0.2855 -0.9200
  274TMC3    C4 4139   2.966   1.485  11.112  0.4549 -0.6323 -0.9187
  274TMC3    C5 4140   2.978   1.505  10.975  0.9093 -0.3686  0.1401
  274TMC3    C6 4141   2.867   1.493  10.894  0.2032  0.8836 -0.1748
  274TMC3     C 4142   2.829   1.443  11.308  0.7596 -0.0094  0.3215
  274TMC3     O 4143   2.917   1.487  11.385 -0.5497 -0.2329  0.1987
  274TMC3     H 4144   2.631   1.422  11.133  0.0722  0.7788  0.5017
  274TMC3    H1 4145   3.055   1.474  11.173 -0.4149 -0.7229  0.3537
  274TMC3    H2 4146   2.874   1.522  10.790 -0.8417  0.2676 -0.4244
  274TMC3    C7 4147   3.100   1.546  10.910 -0.6660  0.5283 -0.0873
  274TMC3    C8 4148   2.616   1.438  10.879  0.0180 -0.4609  0.3298
  274TMC3    O1 4149   3.104   1.507  10.797  0.9725 -0.0136  0.6909
  274TMC3    O2 4150   2.505   1.446  10.934  0.3739 -0.1782  0.1234
  275MPD2     C 4151   2.917   4.154  14.487 -0.1852  0.6409  0.4161
  275MPD2    C1 4152   2.913   4.044  14.573 -0.2914 -0.4496  0.1507
  275MPD2    C2 4153   2.802   3.954  14.572  0.1970  0.9402  0.4758
  275MPD2    C3 4154   2.692   3.980  14.488 -0.0084 -0.6164 -0.3336
  275MPD2    C4 4155   2.696   4.092  14.403 -0.1131  0.1969 -0.0350
  275MPD2    C5 4156   2.809   4.170  14.403 -0.3282  0.0807 -0.2330
  275MPD2     H 4157   2.803   3.871  14.642 -2.4983  0.8398  0.4256
  275MPD2    H1 4158   2.616   4.110  14.333 -2.0995  0.1585  2.1993
  275MPD2    H2 4159   2.989   4.235  14.485 -0.1864  0.6197 -0.5472
  275MPD2    H3 4160   2.805   4.246  14.326 -0.9821  0.6645  0.3752
  275MPD2     N 4161   2.564   3.920  14.498 -0.0886 -0.2827  0.9096
  275MPD2    H5 4162   2.495   3.972  14.445 -1.9566 -0.0804  3.5376
  275MPD2    N1 4163   3.008   4.024  14.678 -0.2223 -0.0692  0.3073
  275MPD2    H7 4164   2.984   3.946  14.738 -0.3006 -0.5835 -0.3846
  276TMC3    C1 4165   3.206   4.058  14.807  0.3058  0.6518 -0.0653
  276TMC3    C2 4166   3.180   3.946  14.871  0.1249 -0.7614  0.3122
  276TMC3    C3 4167   3.244   3.928  14.995  0.5154 -0.3338 -0.0871
  276TMC3    C4 4168   3.307   4.143  14.848  0.5450 -0.1615  0.5560
  276TMC3    C5 4169   3.360   4.124  14.968  0.3655 -0.6972 -0.1059
  276TMC3    C6 4170   3.347   4.007  15.038 -0.2188 -0.7843 -0.6510
  276TMC3     C 4171   3.115   4.107  14.708 -0.9818 -0.0672  0.2238
  276TMC3     O 4172   3.129   4.227  14.690  1.1306 -0.3210 -0.3176
  276TMC3     H 4173   3.117   3.872  14.824 -2.8932  1.6239  0.6159
  276TMC3    H1 4174   3.321   4.234  14.790  3.1660 -0.8793  0.0941
  276TMC3    H2 4175   3.401   3.999  15.132  1.0546  1.8774 -1.1379
  276TMC3    C7 4176   3.414   4.232  15.052  0.4035  0.2148 -0.3263
  276TMC3    C8 4177   3.249   3.796  15.057  0.5013  0.6461 -0.0866
  276TMC3    O1 4178   3.371   4.237  15.171 -0.0506  0.1862 -0.1846
  276TMC3    O2 4179   3.338   3.773  15.139  0.5651  0.1594  0.1278
  277MPD2     C 4180   4.342   3.231  13.659  0.3599  0.4557  0.4501
  277MPD2    C1 4181   4.218   3.222  13.598  0.7926 -0.0888 -0.2850
  277MPD2    C2 4182   4.111   3.184  13.674  0.1488 -0.2573 -0.5865
  277MPD2    C3 4183   4.120   3.149  13.805  0.5074 -0.4535 -0.9665
  277MPD2    C4 4184   4.240   3.163  13.864  0.8963  0.3613  0.1586
  277MPD2    C5 4185   4.353   3.198  13.793 -0.4364 -0.5728 -0.0033
  277MPD2     H 4186   4.010   3.178  13.634 -0.4767  1.4680  0.7347
  277MPD2    H1 4187   4.268   3.133  13.964  2.1832 -2.9687 -1.1959
  277MPD2    H2 4188   4.434   3.258  13.609  0.3801 -0.1224  0.1780
  277MPD2    H3 4189   4.445   3.205  13.852 -0.0643 -1.0420 -0.5268
  277MPD2     N 4190   4.008   3.103  13.877 -0.1671 -0.4530  0.0407
  277MPD2    H5 4191   3.932   3.090  13.811  1.6160  0.6900 -2.2826
  277MPD2    N1 4192   4.215   3.263  13.463 -0.2946  0.2860  0.4840
  277MPD2    H7 4193   4.308   3.292  13.435 -0.4417 -0.9648 -1.3183
  278TMC3    C1 4194   3.869   3.022  14.059  0.2480 -0.1616 -0.0391
  278TMC3    C2 4195   3.856   2.933  14.163  0.4176 -0.4060  0.3643
  278TMC3    C3 4196   3.739   2.868  14.188  0.3357 -0.2620 -0.0652
  278TMC3    C4 4197   3.758   3.076  14.002  0.5188  0.5174  0.2816
  278TMC3    C5 4198   3.635   3.021  14.046 -0.6514  0.0391  1.1376
  278TMC3    C6 4199   3.629   2.916  14.131  0.6061  0.5317 -0.3702
  278TMC3     C 4200   4.000   3.059  14.005 -0.2381 -0.9897 -0.1116
  278TMC3     O 4201   4.093   3.041  14.085 -0.3388  0.2136 -0.2606
  278TMC3     H 4202   3.945   2.892  14.209 -0.3529 -0.7167  1.5699
  278TMC3    H1 4203   3.760   3.146  13.919  0.0300 -0.3286 -0.4420
  278TMC3    H2 4204   3.540   2.858  14.152  0.3771 -0.0131 -2.8805
  278TMC3    C7 4205   3.521   3.025  13.949  0.2357  0.2714 -0.3652
  278TMC3    C8 4206   3.747   2.717  14.201  0.0376 -0.5449  0.2389
  278TMC3    O1 4207   3.547   3.043  13.828  0.2234 -0.7638  0.0890
  278TMC3    O2 4208   3.845   2.684  14.268  0.4231 -0.4506  0.6793
  279MPD2     C 4209   3.532   2.840   0.625  0.5478 -0.6274 -0.4570
  279MPD2    C1 4210   3.462   2.951   0.573  0.2677  0.0130 -0.5533
  279MPD2    C2 4211   3.504   3.016   0.458  0.2492  1.0298 -0.1085
  279MPD2    C3 4212   3.600   2.955   0.377  0.5651  0.0250 -1.0044
  279MPD2    C4 4213   3.663   2.844   0.424  0.3321 -0.3340 -0.5728
  279MPD2    C5 4214   3.638   2.798   0.549  0.8024  0.6882 -0.7136
  279MPD2     H 4215   3.452   3.105   0.425 -0.3861  0.4847 -0.5740
  279MPD2    H1 4216   3.736   2.791   0.363 -1.4667 -3.4395 -0.0189
  279MPD2    H2 4217   3.501   2.791   0.717  1.7097  0.2657  0.4060
  279MPD2    H3 4218   3.692   2.715   0.594  0.4942 -0.0248 -1.6607
  279MPD2     N 4219   3.631   3.011   0.248 -0.7043  0.7302 -0.1196
  279MPD2    H5 4220   3.593   3.104   0.233  1.6669  1.7006 -0.1676
  279MPD2    N1 4221   3.346   2.983   0.651  0.0338  0.2527  0.3051
  279MPD2    H7 4222   3.321   2.915   0.723 -0.4550 -0.0905 -0.1787
  280TMC3    C1 4223   3.131   3.075   0.686  0.0873 -0.2792  0.1493
  280TMC3    C2 4224   3.072   2.972   0.622  0.3077  0.2445  0.0193
  280TMC3    C3 4225   2.944   2.994   0.577 -0.4208  0.1109  0.7798
  280TMC3    C4 4226   3.076   3.192   0.718 -0.1159 -0.2378  0.9618
  280TMC3    C5 4227   2.950   3.211   0.674  0.0293  0.1854 -0.1316
  280TMC3    C6 4228   2.879   3.115   0.612  0.2692  0.2404  0.1941
  280TMC3     C 4229   3.265   3.094   0.630 -0.3701  0.5447 -0.7256
  280TMC3     O 4230   3.291   3.200   0.574 -0.1914 -0.0764  0.2316
  280TMC3     H 4231   3.131   2.886   0.593 -1.6852 -0.9849 -0.3885
  280TMC3    H1 4232   3.137   3.270   0.761  2.2609 -2.2372  1.2187
  280TMC3    H2 4233   2.772   3.123   0.594 -0.0033  1.2423  2.3794
  280TMC3    C7 4234   2.884   3.337   0.698 -0.0553  0.2789  0.7431
  280TMC3    C8 4235   2.870   2.894   0.506 -0.3056  0.5154 -0.9798
  280TMC3    O1 4236   2.928   3.400   0.794 -0.1839  0.3066  0.2714
  280TMC3    O2 4237   2.751   2.917   0.476 -0.1096 -0.1472  0.1058
  281TMC3    C1 4238   2.465   3.315  13.458 -0.7109  0.1875 -1.0007
  281TMC3    C2 4239   2.547   3.374  13.364  0.4393 -0.2482 -0.4197
  281TMC3    C3 4240   2.575   3.302  13.253 -0.2227 -0.0606  0.6024
  281TMC3    C4 4241   2.426   3.190  13.456 -0.0688  0.0672 -0.0841
  281TMC3    C5 4242   2.473   3.113  13.350  0.3270 -0.0593 -0.0607
  281TMC3    C6 4243   2.554   3.167  13.254  0.1290  0.0998  0.4602
  281TMC3     C 4244   2.431   3.386  13.583  0.4396 -0.5497  0.0803
  281TMC3     O 4245   2.530   3.431  13.644  0.0757 -0.1734 -0.0349
  281TMC3     H 4246   2.566   3.479  13.383 -1.9890 -0.1382  1.3925
  281TMC3    H1 4247   2.377   3.147  13.543 -2.2614  1.2744 -0.7211
  281TMC3    H2 4248   2.564   3.118  13.158 -0.4938 -0.3456  0.6179
  281TMC3    C7 4249   2.388   3.013  13.290  1.2555 -1.1468 -0.4860
  281TMC3    C8 4250   2.524   3.373  13.132 -0.2783  0.0376  0.5092
  281TMC3    O1 4251   2.444   2.944  13.207  0.3056  0.1266 -0.0438
  281TMC3    O2 4252   2.501   3.310  13.033 -0.4122  0.2555  0.0089
  282MPD2     C 4253   4.233   0.067  15.114  0.8590 -0.2672 -0.1146
  282MPD2    C1 4254   4.110   0.117  15.119 -0.1885 -0.2540  0.2731
  282MPD2    C2 4255   4.042   0.138  14.993  0.2352  0.6072 -0.2231
  282MPD2    C3 4256   4.103   0.105  14.877  1.4831 -1.0901  0.1731
  282MPD2    C4 4257   4.223   0.049  14.878 -0.0029  0.4835 -0.4694
  282MPD2    C5 4258   4.294   0.036  14.996  0.0029  0.0994  0.3944
  282MPD2     H 4259   3.943   0.181  15.000 -0.5698 -1.4323  1.0083
  282MPD2    H1 4260   4.275   0.011  14.790  0.3797  2.0227 -0.8940
  282MPD2    H2 4261   4.297   0.054  15.201  0.0961  1.4659  0.7076
  282MPD2    H3 4262   4.396   4.728  14.991  0.0460  0.2339  0.2908
  282MPD2     N 4263   4.026   0.114  14.760  0.3321 -0.2503 -0.3420
  282MPD2    H5 4264   3.940   0.168  14.767  1.5851  1.4911  1.4513
  282MPD2    N1 4265   4.063   0.171  15.239 -0.2445 -0.2695 -0.1144
  282MPD2    H7 4266   3.975   0.221  15.229  0.4577  0.9994  0.2011
  283TMC3    C1 4267   4.004   0.161  15.473 -0.0239  0.5491  0.2123
  283TMC3    C2 4268   3.935   0.279  15.470  0.1144  0.8237  0.2629
  283TMC3    C3 4269   3.867   0.317  15.591  0.6299  0.4134  0.1353
  283TMC3    C4 4270   3.993   0.064  15.569  0.8704 -0.0036  0.7635
  283TMC3    C5 4271   3.918   0.095  15.678 -0.8501 -0.1211 -0.4340
  283TMC3    C6 4272   3.859   0.223  15.690  0.0329 -0.3890 -0.4737
  283TMC3     C 4273   4.100   0.125  15.363 -0.0780 -0.4593  0.3603
  283TMC3     O 4274   4.193   0.054  15.397  0.8310  0.6228 -0.1124
  283TMC3     H 4275   3.958   0.344  15.386 -3.0415  1.7447  0.0884
  283TMC3    H1 4276   4.054   4.705  15.551  3.2942  1.8545 -0.1543
  283TMC3    H2 4277   3.796   0.252  15.773 -1.5140 -1.3611 -1.3088
  283TMC3    C7 4278   3.847   4.724  15.766 -0.2391  0.0088 -0.1411
  283TMC3    C8 4279   3.854   0.448  15.643 -0.6576 -0.5569  1.0619
  283TMC3    O1 4280   3.777   0.040  15.856 -0.7665 -0.0055  0.5425
  283TMC3    O2 4281   3.768   0.480  15.725 -0.4442 -0.1888  1.0964
  284MPD2     C 4282   2.228   4.105  11.768 -0.4454  0.4070 -0.2932
  284MPD2    C1 4283   2.347   4.052  11.815  0.2216 -0.2722  0.3567
  284MPD2    C2 4284   2.345   3.948  11.907 -0.0823 -0.4095 -0.4248
  284MPD2    C3 4285   2.226   3.906  11.964 -0.2569 -0.2169 -0.1253
  284MPD2    C4 4286   2.109   3.954  11.909 -0.1835  0.6503 -0.0070
  284MPD2    C5 4287   2.115   4.050  11.814 -0.4824 -0.3946 -0.5677
  284MPD2     H 4288   2.441   3.906  11.936  0.4888  1.2313  0.0726
  284MPD2    H1 4289   2.014   3.924  11.953 -0.2002  1.9213  0.8146
  284MPD2    H2 4290   2.223   4.187  11.696 -2.2345 -0.3182 -1.0071
  284MPD2    H3 4291   2.021   4.088  11.776  0.3263  1.6807 -0.4543
  284MPD2     N 4292   2.238   3.802  12.061 -0.0976 -0.1972 -0.0606
  284MPD2    H5 4293   2.332   3.782  12.093 -0.5892 -2.0655  0.2441
  284MPD2    N1 4294   2.470   4.104  11.774  0.7283 -0.1959  0.1472
  284MPD2    H7 4295   2.545   4.055  11.822 -0.3090 -0.2540  1.7086
  285TMC3    C1 4296   2.639   4.186  11.625 -0.7772 -0.1152  0.5884
  285TMC3    C2 4297   2.717   4.074  11.623  0.6869 -0.5984 -0.3081
  285TMC3    C3 4298   2.847   4.093  11.586 -0.7439  0.1478 -0.3173
  285TMC3    C4 4299   2.693   4.302  11.583 -0.0910 -0.4787 -0.4044
  285TMC3    C5 4300   2.824   4.319  11.560 -0.4352 -0.0617  0.3441
  285TMC3    C6 4301   2.907   4.211  11.555 -0.1085  0.4232  0.0655
  285TMC3     C 4302   2.504   4.190  11.670 -0.4130 -0.6627  0.0378
  285TMC3     O 4303   2.429   4.260  11.607  0.0129 -0.2412 -0.3160
  285TMC3     H 4304   2.672   3.976  11.632  1.4789 -1.0083 -0.7901
  285TMC3    H1 4305   2.629   4.389  11.582  1.3619  0.5877 -0.2730
  285TMC3    H2 4306   3.002   4.232  11.506  1.4721 -2.1117  2.0364
  285TMC3    C7 4307   2.875   4.454  11.564  0.2977 -0.0044 -0.6471
  285TMC3    C8 4308   2.937   3.975  11.591  0.4516 -0.6972  0.5572
  285TMC3    O1 4309   2.796   4.543  11.537 -0.0862  0.5682 -0.2597
  285TMC3    O2 4310   2.889   3.867  11.626  0.3878 -0.0819 -0.4342
  286MPD2     C 4311   2.102   2.801   0.743  0.6652  0.1090 -0.2279
  286MPD2    C1 4312   2.100   2.915   0.817 -0.2506  0.8829 -0.5488
  286MPD2    C2 4313   2.203   2.932   0.904  0.5433  0.2352  0.8725
  286MPD2    C3 4314   2.310   2.831   0.926 -1.0296 -0.4326 -0.6712
  286MPD2    C4 4315   2.306   2.720   0.852 -0.5617  0.0916 -0.5494
  286MPD2    C5 4316   2.210   2.709   0.758 -0.3625 -0.3568  0.7839
  286MPD2     H 4317   2.194   3.016   0.972 -1.0913  0.1058  0.8070
  286MPD2    H1 4318   2.371   2.636   0.869 -1.9242 -1.1239 -1.3509
  286MPD2    H2 4319   2.025   2.778   0.671  1.3364 -4.7782  0.6225
  286MPD2    H3 4320   2.210   2.620   0.697 -0.4288 -0.9196  1.6183
  286MPD2     N 4321   2.414   2.843   1.017 -0.3102  0.6615  0.1569
  286MPD2    H5 4322   2.490   2.776   1.015  1.1749  2.3595  0.1318
  286MPD2    N1 4323   2.010   3.018   0.785 -0.0814 -0.3017 -0.0922
  286MPD2    H7 4324   2.000   3.097   0.848  2.3467 -1.0917  1.2949
  287TMC3    C1 4325   2.553   2.924   1.188  0.8551  0.4641  0.4680
  287TMC3    C2 4326   2.649   2.850   1.123 -0.2700 -0.1209 -0.4483
  287TMC3    C3 4327   2.748   2.799   1.192  0.9957  0.4735  0.3136
  287TMC3    C4 4328   2.556   2.960   1.316 -0.1046  0.3566  0.0136
  287TMC3    C5 4329   2.669   2.913   1.383  0.3851  0.1169 -0.3131
  287TMC3    C6 4330   2.762   2.831   1.327  0.4038 -0.3196  0.4804
  287TMC3     C 4331   2.431   2.940   1.113 -0.4425 -0.0210  0.4744
  287TMC3     O 4332   2.350   3.028   1.144  0.3730  0.0837  0.1641
  287TMC3     H 4333   2.646   2.845   1.014  0.1896 -1.6183 -0.3877
  287TMC3    H1 4334   2.475   3.008   1.369  0.9106  1.7238  0.3498
  287TMC3    H2 4335   2.843   2.777   1.375  0.5131  0.4764  1.1920
  287TMC3    C7 4336   2.681   2.973   1.519 -0.1178 -0.0727 -0.0904
  287TMC3    C8 4337   2.815   2.684   1.133 -0.3214  0.3087 -0.5136
  287TMC3    O1 4338   2.610   3.063   1.557  0.4318 -0.5857  0.3256
  287TMC3    O2 4339   2.759   2.630   1.040  0.2085 -0.1961  0.3433
  288TMC3    C1 4340   4.026   2.349  14.707 -0.2124 -0.1019 -0.0580
  288TMC3    C2 4341   3.976   2.270  14.807 -0.5008  0.1259 -0.1759
  288TMC3    C3 4342   3.983   2.308  14.937  0.4912  0.0946 -0.0430
  288TMC3    C4 4343   4.058   2.481  14.738  0.3486 -0.1147  0.7442
  288TMC3    C5 4344   4.054   2.520  14.865  0.1956  0.0037 -0.2261
  288TMC3    C6 4345   4.028   2.434  14.974  0.4377  0.2882 -0.4097
  288TMC3     C 4346   3.994   2.306  14.579  0.1404 -0.2848  0.6456
  288TMC3     O 4347   3.929   2.203  14.563 -0.0774  0.1619  0.8421
  288TMC3     H 4348   3.956   2.165  14.787 -0.2632  0.2384 -1.0173
  288TMC3    H1 4349   4.068   2.544  14.650  0.3475 -0.5764  0.4128
  288TMC3    H2 4350   4.033   2.467  15.077 -1.4896 -2.5304  0.5665
  288TMC3    C7 4351   4.100   2.657  14.904  0.3647 -0.0088 -0.7868
  288TMC3    C8 4352   3.960   2.221  15.045  0.0969  0.1236  0.3966
  288TMC3    O1 4353   4.101   2.673  15.024  0.4680  0.7659  0.4725
  288TMC3    O2 4354   4.006   2.253  15.154  0.7017 -0.1752 -0.9839
  289MPD2     C 4355   4.322   1.755  14.251 -0.3019  0.4473  0.5149
  289MPD2    C1 4356   4.239   1.816  14.161 -0.0782  0.5494  0.8785
  289MPD2    C2 4357   4.099   1.824  14.184 -0.4455  0.5212 -0.2737
  289MPD2    C3 4358   4.049   1.758  14.301  0.3486 -0.8003  0.7102
  289MPD2    C4 4359   4.137   1.697  14.390 -0.1201  0.0903  0.0722
  289MPD2    C5 4360   4.274   1.696  14.365 -0.6393 -0.4643 -0.3689
  289MPD2     H 4361   4.022   1.867  14.121 -0.0365  0.6037 -0.7206
  289MPD2    H1 4362   4.088   1.656  14.478  2.6065 -0.4012  1.3591
  289MPD2    H2 4363   4.430   1.750  14.239 -0.3519 -0.6466  0.5475
  289MPD2    H3 4364   4.347   1.634  14.416  1.3893  3.8339  1.9749
  289MPD2     N 4365   3.914   1.773  14.341 -0.3076 -0.2044  0.2882
  289MPD2    H5 4366   3.895   1.736  14.433  1.8789 -0.4078  0.6658
  289MPD2    N1 4367   4.294   1.876  14.042  0.3821  0.2569 -0.3026
  289MPD2    H7 4368   4.394   1.866  14.030 -0.0177 -1.6889 -2.0997
  290TMC3    C1 4369   3.700   1.846  14.358  0.4062 -0.2186  0.1258
  290TMC3    C2 4370   3.636   1.953  14.397 -0.1257 -0.2094 -1.1802
  290TMC3    C3 4371   3.504   1.941  14.425  0.3934 -0.4183  0.8944
  290TMC3    C4 4372   3.637   1.720  14.368  0.1942  0.3383 -0.2007
  290TMC3    C5 4373   3.508   1.716  14.400  0.2738  0.1593  0.3635
  290TMC3    C6 4374   3.433   1.824  14.431  0.5373 -0.2793 -0.8356
  290TMC3     C 4375   3.817   1.856  14.284  0.1178 -0.0278  0.6598
  290TMC3     O 4376   3.819   1.945  14.204  0.5211  0.2806  0.1669
  290TMC3     H 4377   3.684   2.050  14.389 -1.0645  0.5369  2.3193
  290TMC3    H1 4378   3.701   1.634  14.349  0.4167  0.7732 -1.4190
  290TMC3    H2 4379   3.325   1.820  14.441  0.7295 -2.2403  0.5588
  290TMC3    C7 4380   3.433   1.591  14.424  0.3017 -0.2409 -0.2733
  290TMC3    C8 4381   3.436   2.072  14.441  0.6195 -0.1916 -0.2637
  290TMC3    O1 4382   3.324   1.582  14.480 -0.5841 -0.3489  0.4195
  290TMC3    O2 4383   3.320   2.076  14.406 -0.9099  0.4476  0.3300
  291MPD2     C 4384   4.107   1.791   0.569  0.0502 -0.3162 -0.3410
  291MPD2    C1 4385   4.045   1.685   0.515 -0.4225 -0.0186  0.6242
  291MPD2    C2 4386   4.036   1.668   0.376 -0.7225  0.0871  0.6785
  291MPD2    C3 4387   4.074   1.763   0.291  0.1996  0.2296  0.0619
  291MPD2    C4 4388   4.152   1.868   0.343 -0.0448 -0.4454  0.7669
  291MPD2    C5 4389   4.173   1.877   0.482 -0.0762 -0.6826 -0.1308
  291MPD2     H 4390   3.970   1.589   0.342 -1.6845  0.1024  2.5043
  291MPD2    H1 4391   4.188   1.944   0.275 -0.2630 -0.7073  0.3616
  291MPD2    H2 4392   4.111   1.798   0.677  1.3274 -0.8838 -0.3393
  291MPD2    H3 4393   4.225   1.963   0.522 -0.3736 -0.5700  0.0160
  291MPD2     N 4394   4.074   1.748   0.150 -0.1077 -0.3228 -0.6141
  291MPD2    H5 4395   4.116   1.825   0.098  0.2918  1.1487  1.8776
  291MPD2    N1 4396   3.992   1.579   0.593  0.7737  0.1310 -0.2441
  291MPD2    H7 4397   3.933   1.513   0.544  0.5800 -0.0599  0.2497
  292TMC3    C1 4398   3.957   1.444   0.780  0.5428 -0.0676  0.7000
  292TMC3    C2 4399   3.883   1.465   0.895 -0.8258 -0.1258 -0.5536
  292TMC3    C3 4400   3.772   1.394   0.899  0.2222 -0.2651  0.7679
  292TMC3    C4 4401   3.931   1.349   0.680  0.6376  0.7526 -0.6681
  292TMC3    C5 4402   3.829   1.264   0.716 -0.1515 -0.2379  0.8978
  292TMC3    C6 4403   3.732   1.291   0.810 -0.6548  0.0345  0.0844
  292TMC3     C 4404   4.014   1.567   0.730 -0.1365 -0.4215  0.0790
  292TMC3     O 4405   4.081   1.626   0.814  0.2059 -0.4415  0.1319
  292TMC3     H 4406   3.906   1.529   0.979  0.9303 -0.5920 -0.6766
  292TMC3    H1 4407   4.006   1.318   0.608  0.7329 -1.3629  0.3542
  292TMC3    H2 4408   3.648   1.224   0.821  0.3004 -0.8090  2.1278
  292TMC3    C7 4409   3.795   1.173   0.616 -0.0589 -0.8006  0.1146
  292TMC3    C8 4410   3.693   1.413   1.017  0.6858 -0.1966 -0.2458
  292TMC3    O1 4411   3.887   1.114   0.553  0.4974  0.3432  0.0508
  292TMC3    O2 4412   3.756   1.436   1.118 -0.4835 -0.4765 -0.7017
  293MPD2     C 4413   0.135   3.140  12.617  0.1138  0.0830  0.2084
  293MPD2    C1 4414   0.145   3.008  12.662  0.5598  0.0756 -0.9020
  293MPD2    C2 4415   0.228   2.982  12.773 -0.2048  0.0814 -0.0700
  293MPD2    C3 4416   0.301   3.087  12.829  0.6047 -1.0042 -0.4156
  293MPD2    C4 4417   0.305   3.211  12.773  0.5700  0.2038  0.3040
  293MPD2    C5 4418   0.219   3.232  12.667 -0.3490  0.3477 -0.1045
  293MPD2     H 4419   0.245   2.885  12.820  0.2376  0.1747 -0.0349
  293MPD2    H1 4420   0.368   3.298  12.791 -1.4790  2.2158 -2.2195
  293MPD2    H2 4421   0.057   3.171  12.549 -0.1475  0.4373  0.6736
  293MPD2    H3 4422   0.210   3.333  12.629  0.3337  0.6080  0.4186
  293MPD2     N 4423   0.396   3.054  12.930  0.6702 -0.1415  0.7264
  293MPD2    H5 4424   0.397   2.958  12.964  1.5088 -0.9567 -1.6081
  293MPD2    N1 4425   0.083   2.919  12.575 -0.8393  0.3452 -0.3372
  293MPD2    H7 4426   0.050   2.943  12.482 -0.3593 -1.1750 -0.9143
  294TMC3    C1 4427   0.038   2.702  12.481 -0.1675  0.0039 -0.3339
  294TMC3    C2 4428   4.714   2.578  12.511 -1.0101  0.4287 -0.6318
  294TMC3    C3 4429   4.718   2.490  12.416 -0.8618  0.1338 -0.5841
  294TMC3    C4 4430   0.090   2.724  12.361 -0.3193  0.2643  0.6034
  294TMC3    C5 4431   0.095   2.631  12.268 -0.5859  0.4000  0.9834
  294TMC3    C6 4432   0.048   2.507  12.288  0.2244  0.2648  0.4902
  294TMC3     C 4433   0.087   2.784  12.594  0.0028  0.0614 -0.1680
  294TMC3     O 4434   0.134   2.717  12.687  0.3546  0.4371  0.1722
  294TMC3     H 4435   4.679   2.558  12.612  1.2957  0.3891  0.1838
  294TMC3    H1 4436   0.139   2.819  12.342 -2.1374  1.6250  2.6720
  294TMC3    H2 4437   0.035   2.441  12.203  0.2696 -0.0585  0.7302
  294TMC3    C7 4438   0.157   2.663  12.137 -0.4479 -0.1958 -0.1046
  294TMC3    C8 4439   4.663   2.362  12.452  0.7150 -0.5374  0.5774
  294TMC3    O1 4440   0.141   2.776  12.090 -0.0328 -0.0861 -0.0428
  294TMC3    O2 4441   4.590   2.358  12.550 -0.1389  0.1033 -0.4748
  295MPD2     C 4442   4.725   1.046   0.978 -0.3043  0.0086  0.8097
  295MPD2    C1 4443   0.096   1.057   0.880  0.3857 -0.2706 -0.0872
  295MPD2    C2 4444   0.219   1.005   0.920  0.1632  0.4746 -0.0347
  295MPD2    C3 4445   0.229   0.945   1.042  0.4917  0.2273 -0.9374
  295MPD2    C4 4446   0.134   0.941   1.135  0.5226  0.9119  0.5054
  295MPD2    C5 4447   0.015   0.996   1.100 -1.3544 -0.3772 -0.6103
  295MPD2     H 4448   0.300   1.013   0.848 -0.4792 -0.7374 -0.8880
  295MPD2    H1 4449   0.148   0.892   1.230 -0.7017  1.4239  0.9516
  295MPD2    H2 4450   4.622   1.073   0.959  0.0191  0.8329  0.1717
  295MPD2    H3 4451   4.665   0.991   1.175 -0.3941 -0.9152  0.3638
  295MPD2     N 4452   0.349   0.891   1.087 -0.3974 -0.1716  0.1615
  295MPD2    H5 4453   0.360   0.896   1.188  2.3864 -0.3562 -0.1304
  295MPD2    N1 4454   0.079   1.120   0.757 -0.2720  0.7857 -0.6103
  295MPD2    H7 4455   0.150   1.102   0.688 -0.6148 -0.0778 -0.7314
  296TMC3    C1 4456   0.586   0.871   1.076 -0.4056  0.3463 -0.5107
  296TMC3    C2 4457   0.598   0.984   1.148  0.3182 -0.7183 -1.3245
  296TMC3    C3 4458   0.730   1.028   1.160 -0.9029 -0.4659 -0.3529
  296TMC3    C4 4459   0.684   0.813   1.006 -0.6449 -0.0977  0.9318
  296TMC3    C5 4460   0.811   0.863   1.020 -0.5378  0.2443  0.2771
  296TMC3    C6 4461   0.838   0.974   1.097 -0.4416  0.0606 -0.0231
  296TMC3     C 4462   0.456   0.852   1.005  0.1542  0.1031 -0.3537
  296TMC3     O 4463   0.452   0.814   0.889 -0.1859 -0.4341  0.1804
  296TMC3     H 4464   0.517   1.036   1.197  0.3276 -1.4940 -0.4843
  296TMC3    H1 4465   0.665   0.730   0.940 -2.0057  0.3568  0.7463
  296TMC3    H2 4466   0.937   1.017   1.105  0.4499 -1.3162 -3.6379
  296TMC3    C7 4467   0.925   0.800   0.957 -0.3134  0.8143 -0.9310
  296TMC3    C8 4468   0.765   1.135   1.246  0.2015 -0.7641 -0.9201
  296TMC3    O1 4469   1.029   0.857   0.957 -0.6644  0.1292  0.6386
  296TMC3    O2 4470   0.884   1.142   1.279  0.5633 -0.0194  0.5818
  297MPD2     C 4471   3.332   3.719  16.955 -0.3105  0.5310 -0.6233
  297MPD2    C1 4472   3.314   3.716  16.815  0.2184 -0.0888 -0.3535
  297MPD2    C2 4473   3.389   3.803  16.736  0.0142  0.0519  0.2234
  297MPD2    C3 4474   3.468   3.903  16.793  0.0222  0.2763  0.9870
  297MPD2    C4 4475   3.479   3.897  16.927  0.4846  0.2497  0.5074
  297MPD2    C5 4476   3.427   3.799  17.003  0.4582 -0.0185 -0.1143
  297MPD2     H 4477   3.371   3.806  16.629  0.2535  1.6659  0.2236
  297MPD2    H1 4478   3.543   3.969  16.977  1.1748 -0.1894  0.2457
  297MPD2    H2 4479   3.278   3.656  17.024  0.5652  0.0899 -0.3344
  297MPD2    H3 4480   3.448   3.810  17.109 -1.6681 -1.4799  0.4583
  297MPD2     N 4481   3.533   4.006  16.713 -0.1675  0.1979 -0.2958
  297MPD2    H5 4482   3.523   3.997  16.612 -1.6871 -0.0737 -0.1247
  297MPD2    N1 4483   3.215   3.627  16.755  0.7576  0.2261  0.3256
  297MPD2    H7 4484   3.210   3.630  16.654  4.1679 -0.7181  0.1177
  298TMC3    C1 4485   3.012   3.498  16.744  0.4120  0.5405 -0.1170
  298TMC3    C2 4486   3.043   3.462  16.618 -0.1335  0.3018 -0.0408
  298TMC3    C3 4487   2.946   3.459  16.524 -0.3158 -0.0364  0.3869
  298TMC3    C4 4488   2.882   3.544  16.768 -0.4158 -0.8807 -0.1572
  298TMC3    C5 4489   2.784   3.542  16.669  0.5726 -0.4245 -0.0730
  298TMC3    C6 4490   2.818   3.502  16.546  0.0108 -0.3978  0.4009
  298TMC3     C 4491   3.119   3.559  16.825  0.4650 -0.2183 -0.0255
  298TMC3     O 4492   3.097   3.561  16.944 -0.4047  0.5800 -0.1242
  298TMC3     H 4493   3.139   3.415  16.598 -0.3569  0.9638 -2.5959
  298TMC3    H1 4494   2.859   3.582  16.867 -0.1045 -1.4544  0.1354
  298TMC3    H2 4495   2.744   3.481  16.470 -0.0655  1.5415 -0.0488
  298TMC3    C7 4496   2.673   3.639  16.675 -0.5625  0.6180 -0.2863
  298TMC3    C8 4497   2.994   3.445  16.391 -0.5790 -0.0208  0.4027
  298TMC3    O1 4498   2.664   3.692  16.785 -0.2120  0.4866 -0.1998
  298TMC3    O2 4499   3.107   3.411  16.369 -0.1344 -0.5055 -0.4341
  299MPD2     C 4500   4.215   3.204  10.054 -0.1551 -0.3960  0.5246
  299MPD2    C1 4501   4.170   3.164  10.178 -0.2914 -0.2098  0.3745
  299MPD2    C2 4502   4.034   3.159  10.206  0.2501  0.8408 -0.2258
  299MPD2    C3 4503   3.936   3.189  10.108  0.7921 -0.2293 -0.6309
  299MPD2    C4 4504   3.980   3.232   9.986 -0.1930  0.0941 -0.1829
  299MPD2    C5 4505   4.117   3.241   9.966  0.5470  0.7111 -0.1804
  299MPD2     H 4506   4.005   3.149  10.310  1.8011 -2.8330 -0.1636
  299MPD2    H1 4507   3.919   3.257   9.900  0.3199  1.3480 -0.1761
  299MPD2    H2 4508   4.320   3.214  10.030 -0.1067 -0.4212  0.7257
  299MPD2    H3 4509   4.165   3.265   9.872 -2.2849  0.5552 -1.6606
  299MPD2     N 4510   3.796   3.207  10.139  0.3656 -0.2994  0.2378
  299MPD2    H5 4511   3.745   3.250  10.062  0.2995 -1.9842 -0.6800
  299MPD2    N1 4512   4.274   3.165  10.275 -0.1015  0.7967  0.4841
  299MPD2    H7 4513   4.367   3.192  10.246  0.0950 -1.3361 -0.8859
  300TMC3    C1 4514   3.600   3.209  10.256  0.1171  0.3727  0.3546
  300TMC3    C2 4515   3.594   3.341  10.301 -0.2094 -0.3127  0.3483
  300TMC3    C3 4516   3.502   3.366  10.401  0.0442 -0.3666 -0.5120
  300TMC3    C4 4517   3.516   3.112  10.313  0.4761  0.5468 -0.0700
  300TMC3    C5 4518   3.426   3.144  10.406 -0.7419  0.5758  0.0361
  300TMC3    C6 4519   3.415   3.273  10.453  0.4716 -0.2005  0.1605
  300TMC3     C 4520   3.734   3.168  10.251 -0.1912  0.1117  0.1870
  300TMC3     O 4521   3.780   3.108  10.349  0.5486  0.2981 -0.2462
  300TMC3     H 4522   3.666   3.415  10.269 -0.0895 -0.1578  0.9926
  300TMC3    H1 4523   3.532   3.009  10.286 -1.8893 -0.1293  1.1246
  300TMC3    H2 4524   3.342   3.294  10.530 -0.1474  0.0357 -0.4920
  300TMC3    C7 4525   3.380   3.038  10.496  0.1540 -0.4129 -0.3201
  300TMC3    C8 4526   3.568   3.439  10.505 -0.1543  0.2639  0.0317
  300TMC3    O1 4527   3.394   2.927  10.449 -0.5791 -0.7986  0.0341
  300TMC3    O2 4528   3.522   3.419  10.618 -0.7822  0.4135 -0.1636
  301MPD2     C 4529   1.065   4.337   0.800  0.3916  0.4626 -0.3644
  301MPD2    C1 4530   0.946   4.270   0.821 -0.0815 -0.1948 -0.1102
  301MPD2    C2 4531   0.953   4.132   0.807  0.5038 -0.0217 -0.1036
  301MPD2    C3 4532   1.069   4.060   0.793  0.5154  0.3750  0.0033
  301MPD2    C4 4533   1.186   4.134   0.776 -0.4268  0.5759  0.1681
  301MPD2    C5 4534   1.185   4.272   0.784 -0.1749  0.8895 -0.6158
  301MPD2     H 4535   0.863   4.078   0.834 -1.3312  2.7406 -0.7777
  301MPD2    H1 4536   1.288   4.097   0.773  0.2706  2.4995  0.0555
  301MPD2    H2 4537   1.066   4.445   0.805  1.1986  0.3873  1.1253
  301MPD2    H3 4538   1.276   4.331   0.776  1.3946 -1.8097 -2.4852
  301MPD2     N 4539   1.086   3.924   0.796  0.4531  0.2438 -0.2582
  301MPD2    H5 4540   1.180   3.885   0.798 -0.0175 -0.9719 -1.5348
  301MPD2    N1 4541   0.831   4.328   0.869 -0.0434  0.3949  0.1299
  301MPD2    H7 4542   0.770   4.257   0.909  3.2242 -2.5191 -0.0257
  302TMC3    C1 4543   1.027   3.694   0.794  0.3316  0.0042 -0.0915
  302TMC3    C2 4544   1.147   3.671   0.861  1.0600 -0.2643 -0.5490
  302TMC3    C3 4545   1.165   3.541   0.890 -0.6108 -0.6316  1.1038
  302TMC3    C4 4546   0.930   3.605   0.761  0.7577 -0.0812  1.1408
  302TMC3    C5 4547   0.956   3.472   0.796 -0.9557  0.0812  0.4485
  302TMC3    C6 4548   1.075   3.441   0.861  0.2589 -0.0803 -0.5636
  302TMC3     C 4549   0.988   3.831   0.781 -0.0481  0.8251  0.9650
  302TMC3     O 4550   0.874   3.851   0.754 -0.2942  0.4820  0.6789
  302TMC3     H 4551   1.200   3.742   0.922 -1.0185 -0.0407  0.9980
  302TMC3    H1 4552   0.827   3.636   0.746  1.4192  2.2432  1.3698
  302TMC3    H2 4553   1.079   3.336   0.887  1.7622 -0.0109 -0.5388
  302TMC3    C7 4554   0.840   3.390   0.835  0.5113  0.2785 -1.2291
  302TMC3    C8 4555   1.295   3.521   0.958 -0.5477  0.4007 -0.2885
  302TMC3    O1 4556   0.847   3.356   0.953  0.5826 -0.7042 -0.9422
  302TMC3    O2 4557   1.382   3.611   0.952 -0.9136 -0.2125  0.2347
  303MPD2     C 4558   1.004   2.888  10.337 -0.3039  0.1742  0.1004
  303MPD2    C1 4559   0.949   2.778  10.289  0.2551  0.3042  0.1429
  303MPD2    C2 4560   0.887   2.777  10.172 -0.1083 -0.0920  0.1560
  303MPD2    C3 4561   0.869   2.892  10.098  0.0306 -0.0586  0.0579
  303MPD2    C4 4562   0.925   3.007  10.147  0.0322 -0.3206  0.3885
  303MPD2    C5 4563   0.996   3.005  10.264  0.3552  0.0831  0.4199
  303MPD2     H 4564   0.836   2.688  10.136 -1.2278  0.7070 -0.2374
  303MPD2    H1 4565   0.925   3.103  10.096 -0.6521 -0.2544  0.5117
  303MPD2    H2 4566   1.060   2.891  10.429 -0.4774 -1.8069  0.2746
  303MPD2    H3 4567   1.036   3.100  10.296 -0.7606  0.7971 -0.3053
  303MPD2     N 4568   0.798   2.904   9.979  1.0056 -0.5974  0.0546
  303MPD2    H5 4569   0.796   2.995   9.933 -1.5537 -1.5256 -1.6793
  303MPD2    N1 4570   0.948   2.664  10.373 -0.7293 -0.1684  0.3004
  303MPD2    H7 4571   1.006   2.667  10.457  1.0329 -0.9740 -0.9046
  304TMC3    C1 4572   0.865   2.456  10.452  0.0226 -0.9074 -0.3211
  304TMC3    C2 4573   0.820   2.515  10.567  0.2177  0.1333  0.5449
  304TMC3    C3 4574   0.748   2.440  10.658  0.2718 -0.3314 -0.4423
  304TMC3    C4 4575   0.865   2.324  10.430  0.9097  0.0733  0.2122
  304TMC3    C5 4576   0.814   2.250  10.540 -0.1050 -0.1452  0.2758
  304TMC3    C6 4577   0.751   2.309  10.645  0.2126 -0.4269  1.2257
  304TMC3     C 4578   0.903   2.541  10.339  0.0603 -0.8088  0.2655
  304TMC3     O 4579   0.880   2.494  10.229  0.7162 -0.7803 -0.3278
  304TMC3     H 4580   0.807   2.622  10.569 -2.5330 -0.1467 -2.9486
  304TMC3    H1 4581   0.894   2.291  10.331 -1.2651  2.1770 -1.1321
  304TMC3    H2 4582   0.693   2.253  10.717 -0.5917 -0.9012  0.1978
  304TMC3    C7 4583   0.744   2.133  10.503  0.1929 -0.5450 -0.3616
  304TMC3    C8 4584   0.613   2.491  10.678  0.3354 -0.9629  0.6687
  304TMC3    O1 4585   0.626   2.136  10.528 -0.0017 -0.1059  0.3799
  304TMC3    O2 4586   0.587   2.609  10.715  0.9527  0.2696  0.4033
  305MPD2     C 4587   4.636   0.355  13.852 -0.1045 -0.1042 -0.0694
  305MPD2    C1 4588   4.514   0.288  13.838 -0.0839 -0.7448  1.1180
  305MPD2    C2 4589   4.465   0.259  13.712 -0.7950 -0.0456 -0.4021
  305MPD2    C3 4590   4.539   0.306  13.600 -0.0731 -0.0950 -0.0770
  305MPD2    C4 4591   4.655   0.371  13.616  0.7152 -0.0764 -0.3694
  305MPD2    C5 4592   4.713   0.387  13.742  0.2902 -0.2117 -0.4194
  305MPD2     H 4593   4.376   0.198  13.698 -0.9599 -0.5146  2.6722
  305MPD2    H1 4594   4.720   0.393  13.532  0.0177  1.8535 -0.4078
  305MPD2    H2 4595   4.670   0.375  13.953 -0.0528 -0.9176  0.0693
  305MPD2    H3 4596   0.088   0.421  13.747 -0.0132  0.4889  0.9551
  305MPD2     N 4597   4.501   0.287  13.462 -0.7971 -0.1719 -0.1842
  305MPD2    H5 4598   4.565   0.318  13.389  0.3305 -1.2787  0.3364
  305MPD2    N1 4599   4.461   0.234  13.957 -0.2043  0.3466  0.9321
  305MPD2    H7 4600   4.524   0.235  14.036  2.2357  2.1440 -1.0392
  306TMC3    C1 4601   4.315   0.140  14.118 -0.0477  0.0383 -0.2248
  306TMC3    C2 4602   4.418   0.088  14.201  0.3593  0.0422  0.4429
  306TMC3    C3 4603   4.414   0.112  14.332 -0.2265 -0.5251  0.5373
  306TMC3    C4 4604   4.222   0.220  14.177 -0.6483 -0.5206  0.5510
  306TMC3    C5 4605   4.231   0.254  14.313 -0.4330  0.5450 -0.8275
  306TMC3    C6 4606   4.325   0.196  14.394  0.3336 -0.0675 -0.4243
  306TMC3     C 4607   4.334   0.178  13.976 -0.5462 -0.4881 -0.2779
  306TMC3     O 4608   4.241   0.178  13.897  0.0903  0.5814 -0.3285
  306TMC3     H 4609   4.488   0.019  14.156 -0.4435  0.5373 -1.5789
  306TMC3    H1 4610   4.156   0.285  14.121 -1.3049 -0.8921  0.9096
  306TMC3    H2 4611   4.311   0.213  14.500  1.2997 -0.2043 -0.2704
  306TMC3    C7 4612   4.176   0.379  14.358  1.0830 -0.3038 -0.3047
  306TMC3    C8 4613   4.521   0.061  14.411 -0.9001 -0.1869 -0.5791
  306TMC3    O1 4614   4.078   0.421  14.295  0.4255  0.7584  0.4400
  306TMC3    O2 4615   4.534   4.664  14.410 -0.3725 -0.1745  0.0491
  307MPD2     C 4616   2.200   3.092  17.420 -0.3952 -0.5581  0.3707
  307MPD2    C1 4617   2.112   3.189  17.468  0.3034  0.9944 -0.1677
  307MPD2    C2 4618   2.017   3.156  17.558 -0.0879  0.1004  0.2409
  307MPD2    C3 4619   1.995   3.023  17.585 -0.5971 -0.4933 -0.1738
  307MPD2    C4 4620   2.074   2.926  17.532 -0.4228  0.0334 -0.0119
  307MPD2    C5 4621   2.179   2.960  17.448 -0.6138  0.1632  0.3264
  307MPD2     H 4622   1.963   3.229  17.617  0.3152  0.6711 -0.1046
  307MPD2    H1 4623   2.060   2.821  17.554 -0.9696  0.0789 -0.1192
  307MPD2    H2 4624   2.268   3.105  17.336  1.2688  1.0196  1.9679
  307MPD2    H3 4625   2.232   2.883  17.394 -0.4866  0.6159 -0.1961
  307MPD2     N 4626   1.892   2.997  17.679 -0.1579  0.0972 -0.3655
  307MPD2    H5 4627   1.837   3.074   0.001  1.1788  1.3775 -1.0779
  307MPD2    N1 4628   2.123   3.327  17.439  0.3239  0.4416 -0.2737
  307MPD2    H7 4629   2.051   3.393  17.466 -0.7171 -0.5176 -0.6916
  308TMC3    C1 4630   1.596   2.828   0.266 -0.1636 -0.2761 -0.5525
  308TMC3    C2 4631   1.602   2.944   0.342 -0.1631  0.1475 -0.5508
  308TMC3    C3 4632   1.688   3.040   0.298  0.5410 -0.0528 -0.6540
  308TMC3    C4 4633   1.691   2.806   0.169  0.1839  0.2877  0.7226
  308TMC3    C5 4634   1.777   2.902   0.138  0.1047 -0.5922  0.5501
  308TMC3    C6 4635   1.774   3.023   0.194 -0.2184 -0.2773 -0.4656
  308TMC3     C 4636   1.504   2.717   0.315  0.0870  0.9611  0.4764
  308TMC3     O 4637   1.530   2.605   0.274 -0.0370 -0.3165 -0.0943
  308TMC3     H 4638   1.547   2.960   0.435  0.0652 -0.6160 -0.2811
  308TMC3    H1 4639   1.681   2.717   0.108  0.1381  1.1892 -0.5937
  308TMC3    H2 4640   1.838   3.106   0.169  1.5978 -1.7963 -0.8719
  308TMC3    C7 4641   1.862   2.874   0.024 -0.1618  0.4758 -0.4941
  308TMC3    C8 4642   1.660   3.174   0.341  0.1147 -0.0631  0.4409
  308TMC3    O1 4643   1.878   2.757  17.702 -0.5569  0.1874 -0.0406
  308TMC3    O2 4644   1.546   3.196   0.382  0.0687 -0.0018 -0.6096
  309MPD2     C 4645   1.125   2.875  17.334  0.1181  0.5381 -0.2641
  309MPD2    C1 4646   1.097   2.980  17.251 -0.3516 -0.4467  0.0153
  309MPD2    C2 4647   0.986   3.059  17.273 -0.2488  0.1508 -0.3405
  309MPD2    C3 4648   0.898   3.033  17.377 -0.3220  0.8516 -0.3188
  309MPD2    C4 4649   0.934   2.924  17.458 -0.0371  0.2872  0.0870
  309MPD2    C5 4650   1.052   2.854  17.443  0.1894  0.0785  0.2792
  309MPD2     H 4651   0.971   3.141  17.203 -1.1209  0.5561  0.3139
  309MPD2    H1 4652   0.875   2.888  17.542 -0.5773  1.7148  0.3327
  309MPD2    H2 4653   1.222   2.826  17.332  1.0771  2.3697  2.3625
  309MPD2    H3 4654   1.081   2.772  17.507 -0.1122 -1.7096 -1.9079
  309MPD2     N 4655   0.772   3.095  17.397  0.6054  0.0343 -0.3256
  309MPD2    H5 4656   0.727   3.051  17.477 -2.5580  0.9011 -1.6146
  309MPD2    N1 4657   1.178   3.028  17.147  0.0595 -0.6302  0.2286
  309MPD2    H7 4658   1.148   3.108  17.093  0.8733  1.1478  2.3772
  310TMC3    C1 4659   1.344   3.023  16.990 -0.6404 -0.4030 -0.2874
  310TMC3    C2 4660   1.262   3.094  16.903 -0.7462  0.4358 -0.1381
  310TMC3    C3 4661   1.308   3.107  16.777 -0.5868  0.1326 -0.3811
  310TMC3    C4 4662   1.473   2.981  16.959  0.2374 -0.1684  0.1169
  310TMC3    C5 4663   1.516   3.017  16.834  0.5425  0.4865 -0.4016
  310TMC3    C6 4664   1.434   3.077  16.744 -0.0276 -0.2018 -0.4135
  310TMC3     C 4665   1.303   2.978  17.120 -0.6818  0.3716  0.3169
  310TMC3     O 4666   1.364   2.884  17.169 -0.5943  0.4772  0.0367
  310TMC3     H 4667   1.157   3.104  16.929 -0.1284  2.7271  1.5424
  310TMC3    H1 4668   1.545   2.933  17.025  0.6942  1.3840  0.7346
  310TMC3    H2 4669   1.466   3.088  16.641  1.6351 -0.4383  0.0872
  310TMC3    C7 4670   1.644   2.952  16.796 -0.3554 -0.1035 -0.1168
  310TMC3    C8 4671   1.229   3.170  16.666 -0.0407  0.5945  0.2821
  310TMC3    O1 4672   1.691   2.862  16.867  0.0301  0.5440 -0.1653
  310TMC3    O2 4673   1.292   3.191  16.564 -0.0284 -0.2455 -0.0197
  311MPD2     C 4674   3.331   4.691  12.584  0.3752  0.3446  0.6583
  311MPD2    C1 4675   3.326   0.057  12.689 -0.1967  0.6549  0.0847
  311MPD2    C2 4676   3.206   0.088  12.744 -0.4742 -0.2203 -0.8380
  311MPD2    C3 4677   3.087   0.035  12.697  0.6182 -0.0470 -0.5844
  311MPD2    C4 4678   3.087   4.668  12.599 -0.7375  0.0687  0.1019
  311MPD2    C5 4679   3.211   4.642  12.539 -0.2192  0.0285 -0.2256
  311MPD2     H 4680   3.205   0.161  12.823  0.2154 -1.3626  0.2246
  311MPD2    H1 4681   2.996   4.613  12.577 -2.3998  2.1592  1.7091
  311MPD2    H2 4682   3.428   4.673  12.541 -0.2861  1.6926 -1.3668
  311MPD2    H3 4683   3.214   4.573  12.455  0.4734  0.5464 -0.6285
  311MPD2     N 4684   2.968   0.071  12.759  0.0513  0.4299  0.0331
  311MPD2    H5 4685   2.976   0.129  12.842  1.2783  2.0898 -1.2274
  311MPD2    N1 4686   3.444   0.116  12.747  0.6227  0.2585 -0.9006
  311MPD2    H7 4687   3.425   0.168  12.832  0.2885  0.5398 -1.1509
  312TMC3    C1 4688   2.735   0.072  12.817  0.2453  0.4002 -0.5615
  312TMC3    C2 4689   2.606   0.051  12.771 -0.3292  0.8558 -0.8206
  312TMC3    C3 4690   2.496   0.048  12.861 -0.1692 -0.1530 -0.0630
  312TMC3    C4 4691   2.760   0.082  12.952  0.0118 -0.0987 -0.0617
  312TMC3    C5 4692   2.650   0.070  13.031  0.3925 -0.8835  0.0629
  312TMC3    C6 4693   2.521   0.057  12.993  0.2359  0.0823  0.1815
  312TMC3     C 4694   2.842   0.029  12.725 -0.6594  0.1453 -0.3943
  312TMC3     O 4695   2.803   4.692  12.627 -0.6040 -0.3210  0.4127
  312TMC3     H 4696   2.581   0.034  12.667  3.1582 -3.1191 -0.9956
  312TMC3    H1 4697   2.861   0.101  12.987  0.3121  0.8651 -1.4244
  312TMC3    H2 4698   2.439   0.048  13.063 -1.3424  0.6324 -1.6037
  312TMC3    C7 4699   2.677   0.035  13.168  0.1271 -0.2607  0.0239
  312TMC3    C8 4700   2.363   4.716  12.830  0.2830 -0.0725 -0.3610
  312TMC3    O1 4701   2.773   0.074  13.230  0.1989  0.2165  1.0893
  312TMC3    O2 4702   2.299   4.646  12.912  0.4569 -0.2292 -0.0006
  313MPD2     C 4703   3.210   3.519  10.940  0.6844  0.6686 -0.1689
  313MPD2    C1 4704   3.077   3.505  10.999 -0.2093  0.6468  0.8158
  313MPD2    C2 4705   2.981   3.436  10.935  0.0378  0.2461 -0.0831
  313MPD2    C3 4706   2.997   3.386  10.813  0.0152 -0.2341  0.2941
  313MPD2    C4 4707   3.122   3.386  10.757 -0.6159 -0.5578 -0.4250
  313MPD2    C5 4708   3.228   3.452  10.823 -0.0033 -0.3554 -0.3521
  313MPD2     H 4709   2.888   3.417  10.986  0.6394 -1.7231  0.2735
  313MPD2    H1 4710   3.147   3.334  10.665  0.5606  0.8478 -0.9058
  313MPD2    H2 4711   3.291   3.567  10.994  0.3717 -1.8079  2.5293
  313MPD2    H3 4712   3.327   3.439  10.781 -0.5265  1.3966 -2.1481
  313MPD2     N 4713   2.890   3.311  10.759 -0.2726  0.9450 -0.4180
  313MPD2    H5 4714   2.804   3.303  10.811 -0.3973  0.7740 -0.6533
  313MPD2    N1 4715   3.031   3.575  11.104  0.3601 -0.3503 -0.0471
  313MPD2    H7 4716   2.932   3.571  11.127  0.4680  0.8761  0.6220
  314TMC3    C1 4717   3.015   3.774  11.223 -0.2794 -0.1873 -0.4172
  314TMC3    C2 4718   3.058   3.897  11.211  0.0995  0.1149 -0.1748
  314TMC3    C3 4719   2.965   3.996  11.196 -0.6959  0.0086  0.2730
  314TMC3    C4 4720   2.878   3.738  11.232  0.5915  0.7243  0.5675
  314TMC3    C5 4721   2.791   3.839  11.203 -0.4627 -0.4349 -0.4362
  314TMC3    C6 4722   2.831   3.972  11.200  0.0402 -0.2570 -0.0538
  314TMC3     C 4723   3.105   3.669  11.169 -0.0209 -0.1146  0.0356
  314TMC3     O 4724   3.223   3.693  11.160 -0.2764 -0.0313 -0.7064
  314TMC3     H 4725   3.161   3.908  11.181  0.9273  0.4459  2.7922
  314TMC3    H1 4726   2.848   3.637  11.258  0.1199  0.5491 -0.6646
  314TMC3    H2 4727   2.758   4.050  11.187  1.8499  1.3470 -0.4947
  314TMC3    C7 4728   2.681   3.796  11.117  0.0058  0.3795 -0.3022
  314TMC3    C8 4729   3.009   4.135  11.210 -0.5500 -1.1791  0.1247
  314TMC3    O1 4730   2.573   3.838  11.156 -0.1837 -0.3239  0.4305
  314TMC3    O2 4731   2.924   4.221  11.186 -0.4442 -0.0531 -0.8606
  315MPD2     C 4732   2.026   3.386   0.117 -0.8179  0.1102  0.0132
  315MPD2    C1 4733   2.156   3.349   0.120 -0.8001 -0.1547  0.5805
  315MPD2    C2 4734   2.253   3.437   0.072 -0.1710 -0.0935  0.5202
  315MPD2    C3 4735   2.222   3.564   0.035 -0.2788 -0.8536 -0.0179
  315MPD2    C4 4736   2.090   3.602   0.025 -0.0272  0.1387 -0.0167
  315MPD2    C5 4737   1.993   3.512   0.066 -0.7916 -0.1048 -0.3553
  315MPD2     H 4738   2.358   3.412   0.082 -0.3242  0.1261  2.8706
  315MPD2    H1 4739   2.058   3.705   0.013 -0.9258 -0.0590  0.6320
  315MPD2    H2 4740   1.949   3.316   0.147 -0.7095  0.3006  0.7342
  315MPD2    H3 4741   1.890   3.545   0.066 -0.5469  0.6507  1.2333
  315MPD2     N 4742   2.334   3.649   0.004 -0.1647 -0.0804 -0.5707
  315MPD2    H5 4743   2.429   3.614   0.012 -0.3162 -0.7738 -1.7912
  315MPD2    N1 4744   2.204   3.231   0.185  0.2014 -0.3535  0.6095
  315MPD2    H7 4745   2.303   3.215   0.169  0.0833  0.5587 -1.0486
  316TMC3    C1 4746   2.453   3.858   0.022  0.5914  0.0649 -0.6721
  316TMC3    C2 4747   2.481   3.828   0.153  0.4877  0.3894 -0.1663
  316TMC3    C3 4748   2.539   3.926   0.223 -0.4647  0.6396 -0.1278
  316TMC3    C4 4749   2.462   3.983  17.688 -0.7096 -0.5249  0.6193
  316TMC3    C5 4750   2.509   4.083   0.058 -0.1417 -0.0984 -0.0371
  316TMC3    C6 4751   2.539   4.056   0.181 -0.2925 -0.2367 -0.3852
  316TMC3     C 4752   2.329   3.786  17.694  0.5168 -0.5922 -0.3099
  316TMC3     O 4753   2.230   3.857  17.675 -0.8457 -0.0834  0.6685
  316TMC3     H 4754   2.465   3.731   0.197  0.2256 -0.6546 -2.5705
  316TMC3    H1 4755   2.405   4.005  17.598 -0.6441  2.0646  1.2382
  316TMC3    H2 4756   2.582   4.137   0.239 -1.6598  2.1024 -2.6242
  316TMC3    C7 4757   2.516   4.221   0.007  0.2557 -0.4944 -0.6650
  316TMC3    C8 4758   2.588   3.896   0.357 -0.4194  0.3971 -0.1441
  316TMC3    O1 4759   2.519   4.306   0.095 -0.0583 -0.0012 -0.0908
  316TMC3    O2 4760   2.592   3.991   0.438 -0.3089  0.4333 -0.5146
  317MPD2     C 4761   4.250   1.652  13.111 -0.6814  0.3403  0.5041
  317MPD2    C1 4762   4.260   1.516  13.110  0.2979 -0.0459 -0.1352
  317MPD2    C2 4763   4.356   1.453  13.190 -0.2339 -0.6553 -0.1044
  317MPD2    C3 4764   4.446   1.529  13.262 -0.1408  0.8245  0.1107
  317MPD2    C4 4765   4.453   1.660  13.243  0.2571  0.3638 -0.1500
  317MPD2    C5 4766   4.354   1.720  13.160 -0.9001 -0.1157  0.4549
  317MPD2     H 4767   4.349   1.345  13.198  0.8045 -0.6638  0.6945
  317MPD2    H1 4768   4.536   1.716  13.285 -2.3859  2.2364  2.5663
  317MPD2    H2 4769   4.185   1.702  13.040  2.0800  1.8617 -0.9893
  317MPD2    H3 4770   4.360   1.828  13.152 -2.1850 -0.2243 -1.9250
  317MPD2     N 4771   4.550   1.460  13.331  0.3272  0.0033 -0.4324
  317MPD2    H5 4772   4.551   1.359  13.332 -0.3186  0.0133  0.5820
  317MPD2    N1 4773   4.177   1.435  13.033  0.0309 -0.4890  0.7898
  317MPD2    H7 4774   4.195   1.336  13.040  0.3218 -0.4676  0.3391
  318TMC3    C1 4775   0.021   1.415  13.468  0.3020  0.4180  0.0932
  318TMC3    C2 4776   4.722   1.281  13.473 -0.1970  0.5586  0.3293
  318TMC3    C3 4777   0.086   1.177  13.475 -1.3353 -0.4137 -0.0290
  318TMC3    C4 4778   0.156   1.439  13.478 -0.1183  0.0502 -0.9134
  318TMC3    C5 4779   0.247   1.338  13.464  0.0372  0.6532 -0.2739
  318TMC3    C6 4780   0.220   1.207  13.454 -0.0748  0.5107 -0.3842
  318TMC3     C 4781   4.655   1.512  13.413 -0.1986  0.1389 -0.4876
  318TMC3     O 4782   4.685   1.630  13.423 -0.3504  0.2028 -0.0723
  318TMC3     H 4783   4.618   1.258  13.493  0.6184 -1.4062  2.4057
  318TMC3    H1 4784   0.197   1.540  13.474  0.9972 -0.2729  2.7691
  318TMC3    H2 4785   0.295   1.129  13.449 -0.9995 -0.4064  0.1995
  318TMC3    C7 4786   0.381   1.376  13.421 -0.0919  0.1535  0.7304
  318TMC3    C8 4787   0.048   1.043  13.495 -0.2353  0.3506  0.0951
  318TMC3    O1 4788   0.411   1.495  13.424  0.4716  0.3719 -0.3877
  318TMC3    O2 4789   0.122   0.955  13.460  0.4399 -0.1451  0.4939
  319MPD2     C 4790   0.601   2.948  16.761 -0.3229  0.8048 -0.2447
  319MPD2    C1 4791   0.470   2.927  16.731 -0.0136  0.5257  0.2759
  319MPD2    C2 4792   0.434   2.933  16.594  0.2653  1.0587  0.1896
  319MPD2    C3 4793   0.521   2.979  16.498 -0.4357 -0.2643 -0.1261
  319MPD2    C4 4794   0.652   2.998  16.533  0.1181  0.1489 -0.0043
  319MPD2    C5 4795   0.686   2.992  16.665 -0.0541 -0.1704  0.4287
  319MPD2     H 4796   0.330   2.919  16.568  0.2683 -0.1389  0.8369
  319MPD2    H1 4797   0.721   3.032  16.457  0.2485 -1.4420 -0.5933
  319MPD2    H2 4798   0.627   2.955  16.866 -0.5115 -0.9106 -0.0758
  319MPD2    H3 4799   0.789   3.012  16.694  0.2206  0.3395 -0.8742
  319MPD2     N 4800   0.489   2.994  16.361  0.4823 -0.2946  0.6156
  319MPD2    H5 4801   0.544   3.048  16.295  0.8623 -1.2188  0.1813
  319MPD2    N1 4802   0.365   2.900  16.826  0.3203 -0.5653  0.3684
  319MPD2    H7 4803   0.270   2.897  16.789  0.9179  0.7982 -1.2745
  320TMC3    C1 4804   0.385   2.956  16.151 -0.6540  0.2325 -0.1448
  320TMC3    C2 4805   0.321   3.068  16.104  0.3794  0.3232  0.3517
  320TMC3    C3 4806   0.237   3.058  15.999 -0.3565  0.1048  0.0561
  320TMC3    C4 4807   0.345   2.835  16.106  0.2459  0.0184 -0.8669
  320TMC3    C5 4808   0.241   2.826  16.017 -0.7709  0.7989 -0.1082
  320TMC3    C6 4809   0.191   2.940  15.954  0.0631 -0.0749 -0.0760
  320TMC3     C 4810   0.386   2.933  16.297 -0.8496 -0.0835 -0.4073
  320TMC3     O 4811   0.302   2.863  16.352 -0.2402  0.1027 -0.3763
  320TMC3     H 4812   0.342   3.164  16.149 -0.9998  0.7282  0.1187
  320TMC3    H1 4813   0.383   2.745  16.154 -1.9296  0.6463  1.9764
  320TMC3    H2 4814   0.104   2.932  15.891  0.9042 -0.6780 -1.1491
  320TMC3    C7 4815   0.159   2.703  16.019 -0.4489 -0.2405 -0.3795
  320TMC3    C8 4816   0.154   3.176  15.975 -0.1560  0.1478  0.4339
  320TMC3    O1 4817   0.220   2.604  16.055 -0.2539  0.2882  0.0092
  320TMC3    O2 4818   0.176   3.277  16.044  0.4961 -0.0015  0.4968
  321TMC3    C1 4819   0.241   2.926  17.017  0.2344 -0.6099  0.0568
  321TMC3    C2 4820   0.157   2.825  16.973  0.3718 -0.2399  0.2891
  321TMC3    C3 4821   0.033   2.821  17.034 -0.0149 -0.4158 -0.2282
  321TMC3    C4 4822   0.206   3.013  17.118  0.5554  0.0337  0.1550
  321TMC3    C5 4823   0.078   3.017  17.154  1.0160  0.0472  0.5143
  321TMC3    C6 4824   4.718   2.930  17.101 -0.2970 -0.5084 -0.1909
  321TMC3     C 4825   0.377   2.920  16.966  0.2746 -0.3057 -0.5103
  321TMC3     O 4826   0.472   2.955  17.037 -0.4875  0.0321 -0.0165
  321TMC3     H 4827   0.195   2.754  16.900 -0.5287  1.9300 -2.2836
  321TMC3    H1 4828   0.276   3.075  17.174  0.4559 -1.0313  1.4595
  321TMC3    H2 4829   4.618   2.940  17.140  0.7548 -0.2508  2.4489
  321TMC3    C7 4830   0.048   3.059  17.287 -0.0171  0.2548 -0.1529
  321TMC3    C8 4831   4.724   2.706  17.117  0.5575  0.2170  0.4358
  321TMC3    O1 4832   0.117   3.147  17.332 -0.0642  0.2871 -0.6463
  321TMC3    O2 4833   4.641   2.724  17.207 -0.0775  0.0095 -0.1586
  322MPD2     C 4834   3.810   4.299  13.696  0.2077  0.8804 -0.2110
  322MPD2    C1 4835   3.852   4.235  13.810  0.0913  0.1572 -0.2288
  322MPD2    C2 4836   3.863   4.099  13.804 -0.2887 -0.7182 -0.0658
  322MPD2    C3 4837   3.830   4.027  13.688  0.8747 -0.7799 -0.0990
  322MPD2    C4 4838   3.781   4.099  13.578  0.6076 -0.0512  0.3517
  322MPD2    C5 4839   3.772   4.236  13.580  0.5105 -0.4881  0.2441
  322MPD2     H 4840   3.904   4.043  13.887 -1.0150 -0.5227  0.4207
  322MPD2    H1 4841   3.758   4.050  13.484 -1.2628 -1.8825  1.7781
  322MPD2    H2 4842   3.826   4.406  13.687  1.6312  0.9693  3.1368
  322MPD2    H3 4843   3.763   4.294  13.489 -0.5836  1.7090  1.7571
  322MPD2     N 4844   3.862   3.891  13.688 -0.5463 -0.4654 -0.5914
  322MPD2    H5 4845   3.881   3.845  13.777 -2.2074  1.1864  0.6017
  322MPD2    N1 4846   3.892   4.311  13.918  1.4916 -0.2257 -0.3709
  322MPD2    H7 4847   3.909   4.411  13.907 -0.0243 -0.1983 -2.5766
  323TMC3    C1 4848   3.957   4.355  14.137  0.0602 -0.2076 -0.6546
  323TMC3    C2 4849   4.066   4.422  14.085  1.0911  0.0128  1.0570
  323TMC3    C3 4850   4.146   4.488  14.171  0.0870  0.6552  0.0329
  323TMC3    C4 4851   3.940   4.327  14.270  0.0087 -0.5660 -0.0592
  323TMC3    C5 4852   4.032   4.388  14.352 -0.4244 -0.2845  0.1382
  323TMC3    C6 4853   4.131   4.472  14.308  0.5580  0.0069 -0.4902
  323TMC3     C 4854   3.897   4.259  14.042  0.4751 -0.1966  0.5897
  323TMC3     O 4855   3.860   4.153  14.095  0.1480  0.2249  0.2864
  323TMC3     H 4856   4.088   4.406  13.980  0.3795 -1.5924  1.1366
  323TMC3    H1 4857   3.863   4.259  14.304 -1.6968  3.2380  3.6172
  323TMC3    H2 4858   4.193   4.535  14.370 -0.3245  0.6630 -0.2851
  323TMC3    C7 4859   4.043   4.326  14.480  0.0588 -0.1580  0.6535
  323TMC3    C8 4860   4.287   4.514  14.127 -0.1494  0.3375  0.3805
  323TMC3    O1 4861   4.006   4.213  14.508 -0.1438  0.6280 -0.5618
  323TMC3    O2 4862   4.380   4.488  14.203 -0.2793  0.0385 -0.6577
  324MPD2     C 4863   1.363   0.905  13.933  0.3621  0.2434  0.0408
  324MPD2    C1 4864   1.392   1.026  13.989  0.2055 -0.0314 -0.6022
  324MPD2    C2 4865   1.291   1.126  13.981  0.4860 -0.5350  0.2783
  324MPD2    C3 4866   1.160   1.083  13.938  0.1943 -0.9540 -0.0392
  324MPD2    C4 4867   1.134   0.960  13.881 -0.4008  0.3020  0.0056
  324MPD2    C5 4868   1.238   0.871  13.877  0.4422 -0.2953 -0.1309
  324MPD2     H 4869   1.307   1.223  14.026  0.1759 -0.4916  0.2980
  324MPD2    H1 4870   1.033   0.940  13.848 -0.5780  1.4981 -0.1912
  324MPD2    H2 4871   1.443   0.834  13.914  0.2640 -0.7160  3.3191
  324MPD2    H3 4872   1.223   0.776  13.827 -2.7445 -0.8183  1.8361
  324MPD2     N 4873   1.045   1.161  13.954  0.2206 -0.2472 -0.2046
  324MPD2    H5 4874   0.961   1.110  13.931  0.0374 -0.5360  1.0905
  324MPD2    N1 4875   1.513   1.065  14.048  0.2263 -0.1770 -0.1904
  324MPD2    H7 4876   1.526   1.164  14.066  0.9722 -0.5368  1.2485
  325TMC3    C1 4877   0.903   1.322  14.064 -0.0980  0.4062 -0.7400
  325TMC3    C2 4878   0.813   1.223  14.068 -0.2608 -0.5792 -0.1525
  325TMC3    C3 4879   0.687   1.250  14.069  0.0853 -0.0186  0.2892
  325TMC3    C4 4880   0.864   1.456  14.066 -0.4910  0.3268  0.3283
  325TMC3    C5 4881   0.729   1.471  14.060 -0.0111  0.6566 -0.2689
  325TMC3    C6 4882   0.636   1.371  14.071 -0.0703  0.0263 -0.4309
  325TMC3     C 4883   1.041   1.285  14.020 -0.5073  0.3560 -0.9266
  325TMC3     O 4884   1.131   1.359  14.053  0.3403 -0.2773 -0.0624
  325TMC3     H 4885   0.835   1.119  14.091  2.0852  0.1450  0.8550
  325TMC3    H1 4886   0.925   1.545  14.061  0.6832 -0.4863  0.2341
  325TMC3    H2 4887   0.532   1.393  14.048 -0.3011  0.0749  0.6556
  325TMC3    C7 4888   0.695   1.601  14.122 -0.4809  0.1536  0.3432
  325TMC3    C8 4889   0.607   1.132  14.056  0.7707 -0.3082 -0.1563
  325TMC3    O1 4890   0.767   1.696  14.096 -0.3951  0.2559 -0.0890
  325TMC3    O2 4891   0.658   1.034  14.000 -0.6266  0.5636  0.4938
  326MPD2     C 4892   1.954   1.729  11.035  0.4491  0.2269  0.6753
  326MPD2    C1 4893   2.012   1.644  10.943 -0.5350  0.5247  0.2615
  326MPD2    C2 4894   2.141   1.668  10.904  0.1909  0.0144  0.2897
  326MPD2    C3 4895   2.209   1.786  10.945  0.5975 -0.7894 -0.2500
  326MPD2    C4 4896   2.147   1.866  11.038  0.2555 -0.1229  0.5172
  326MPD2    C5 4897   2.023   1.843  11.078 -0.7812  0.4441  0.5193
  326MPD2     H 4898   2.191   1.601  10.836 -1.7777 -0.3596 -0.7697
  326MPD2    H1 4899   2.192   1.960  11.069  0.1661  0.4562 -1.0541
  326MPD2    H2 4900   1.863   1.698  11.086  1.3627 -0.2468  2.0180
  326MPD2    H3 4901   1.972   1.907  11.149 -1.8604  0.5289 -0.3129
  326MPD2     N 4902   2.336   1.824  10.904 -0.1108  0.2015 -0.2166
  326MPD2    H5 4903   2.366   1.917  10.932  0.8522 -0.9248  2.4688
  326MPD2    N1 4904   1.938   1.537  10.893  0.3271  0.2408  0.1459
  326MPD2    H7 4905   1.837   1.538  10.907  0.3362  1.6430  0.1453
  327TMC3    C1 4906   1.915   1.348  10.747 -0.0881 -1.4502 -0.4887
  327TMC3    C2 4907   1.805   1.413  10.695 -0.0173  0.7666 -0.7004
  327TMC3    C3 4908   1.787   1.400  10.561  0.1898  0.6303 -0.0045
  327TMC3    C4 4909   1.982   1.258  10.677  0.2927  0.6314  0.1180
  327TMC3    C5 4910   1.975   1.266  10.539 -0.2475  0.3879  0.8581
  327TMC3    C6 4911   1.875   1.329  10.479  0.6854 -0.7122  0.0638
  327TMC3     C 4912   1.999   1.430  10.825 -0.4474 -0.0152 -0.6485
  327TMC3     O 4913   2.115   1.400  10.820 -0.5901 -0.1600 -0.3625
  327TMC3     H 4914   1.754   1.497  10.741 -1.8721 -0.9859  0.4557
  327TMC3    H1 4915   2.065   1.207  10.724 -1.6703 -2.4451  0.2835
  327TMC3    H2 4916   1.877   1.338  10.371 -1.2063 -0.1468  0.0646
  327TMC3    C7 4917   2.108   1.276  10.471  0.7276 -0.4192 -0.2264
  327TMC3    C8 4918   1.750   1.528  10.500 -1.1597  0.9645 -0.0519
  327TMC3    O1 4919   2.112   1.260  10.351  0.4465  0.0920 -0.3642
  327TMC3    O2 4920   1.779   1.634  10.551 -0.2109 -0.1276  0.1649
  328MPD2     C 4921   4.562   1.450  16.964  0.4981  0.0197  0.1661
  328MPD2    C1 4922   4.491   1.341  16.912 -0.3410  0.1530  0.3426
  328MPD2    C2 4923   4.389   1.371  16.826  0.5959  0.3873 -0.3339
  328MPD2    C3 4924   4.372   1.496  16.765 -0.8414 -0.4954 -0.1218
  328MPD2    C4 4925   4.459   1.596  16.805  0.0118  0.3178  0.7112
  328MPD2    C5 4926   4.541   1.576  16.906 -0.4547 -0.7144 -0.1133
  328MPD2     H 4927   4.316   1.291  16.814  0.0944  0.4648  2.2608
  328MPD2    H1 4928   4.455   1.695  16.761 -0.7559  1.0391  2.4295
  328MPD2    H2 4929   4.644   1.430  17.031  0.4681 -0.8028 -0.0514
  328MPD2    H3 4930   4.615   1.652  16.927 -0.7587  0.0775 -1.9322
  328MPD2     N 4931   4.264   1.535  16.684  0.4037  0.0396  0.3987
  328MPD2    H5 4932   4.257   1.633  16.658 -0.6199  0.0654  0.7809
  328MPD2    N1 4933   4.511   1.215  16.965  0.0097  0.4412 -0.2955
  328MPD2    H7 4934   4.544   1.207  17.060  2.4022  1.2734 -1.0684
  329TMC3    C1 4935   4.463   0.983  16.965 -0.6232 -0.0353 -0.2499
  329TMC3    C2 4936   4.371   0.993  17.066 -0.1233  0.3026  0.5430
  329TMC3    C3 4937   4.298   0.878  17.093 -0.3725  0.1493 -0.3748
  329TMC3    C4 4938   4.490   0.868  16.893 -0.9416 -0.4097 -0.5499
  329TMC3    C5 4939   4.425   0.749  16.938  0.4374 -1.2443  0.2778
  329TMC3    C6 4940   4.337   0.755  17.039 -0.7912 -0.2358  0.0294
  329TMC3     C 4941   4.471   1.109  16.891 -0.1379  0.1435 -0.4014
  329TMC3     O 4942   4.458   1.104  16.775 -0.5491 -0.2231 -0.0137
  329TMC3     H 4943   4.346   1.094  17.098  2.6518  1.3482 -0.4994
  329TMC3    H1 4944   4.568   0.881  16.819 -0.7055  1.6029  0.0474
  329TMC3    H2 4945   4.284   0.664  17.066 -0.3372 -0.3018  0.6818
  329TMC3    C7 4946   4.472   0.624  16.892 -0.3038 -0.5350  0.0209
  329TMC3    C8 4947   4.158   0.908  17.089  0.1051  0.4780 -0.4569
  329TMC3    O1 4948   4.461   0.526  16.965  0.0861  0.2902 -0.3853
  329TMC3    O2 4949   4.090   0.868  16.999  0.5521 -0.2484 -0.4896
  330TMC3    C1 4950   2.860   0.230  10.194 -0.4951  0.0949 -0.7599
  330TMC3    C2 4951   2.774   0.127  10.170  0.5605  0.3100  0.0416
  330TMC3    C3 4952   2.820   0.004  10.217  0.0693  0.6790  0.7356
  330TMC3    C4 4953   2.972   0.222  10.272  0.2621 -0.1532 -0.2653
  330TMC3    C5 4954   3.013   0.099  10.317 -0.3390  0.2559 -0.4197
  330TMC3    C6 4955   2.936   4.713  10.287  0.4921  0.5400  0.2387
  330TMC3     C 4956   2.815   0.363  10.166 -0.1127 -0.3286 -0.2536
  330TMC3     O 4957   2.832   0.448  10.252  0.1155  0.0137 -0.0684
  330TMC3     H 4958   2.667   0.144  10.158  0.4721  0.5437  1.1891
  330TMC3    H1 4959   3.013   0.310  10.320 -0.9995  0.6287 -0.6240
  330TMC3    H2 4960   2.956   4.610  10.316  1.2481  0.3602 -0.9294
  330TMC3    C7 4961   3.102   0.111  10.433 -0.0811 -1.1225 -0.7435
  330TMC3    C8 4962   2.726   4.622  10.205 -0.0247 -0.2326  0.2594
  330TMC3    O1 4963   3.165   0.216  10.439  0.1071 -0.0428 -0.6149
  330TMC3    O2 4964   2.715   4.557  10.304  0.0112  0.7421 -0.3405
  331MPD2     C 4965   0.312   0.029  12.345 -0.6725 -0.5296  1.1491
  331MPD2    C1 4966   0.430   0.042  12.273  0.7255 -0.1622  0.3423
  331MPD2    C2 4967   0.488   4.647  12.252  0.2120 -0.0494  0.6367
  331MPD2    C3 4968   0.454   4.531  12.313 -0.6209 -1.3010 -0.5218
  331MPD2    C4 4969   0.332   4.523  12.383  0.3048 -0.0361 -0.2724
  331MPD2    C5 4970   0.257   4.638  12.379  0.1915 -0.1771  0.4755
  331MPD2     H 4971   0.576   4.644  12.189  0.4333 -2.3439  1.0564
  331MPD2    H1 4972   0.288   4.431  12.420 -0.3836  0.4084  0.0002
  331MPD2    H2 4973   0.261   0.123  12.363  1.3719  0.4428  1.9021
  331MPD2    H3 4974   0.153   4.639  12.408  0.2041  1.8065  0.4679
  331MPD2     N 4975   0.544   4.426  12.307 -0.2749 -0.0468 -0.2744
  331MPD2    H5 4976   0.634   4.441  12.264  0.3836  1.9693  1.8009
  331MPD2    N1 4977   0.467   0.166  12.223 -0.3702 -0.1990  0.0603
  331MPD2    H7 4978   0.402   0.243  12.214  1.1294  1.4541  3.5412
  332TMC3    C1 4979   0.625   4.207  12.328  0.4039 -0.6689  0.4360
  332TMC3    C2 4980   0.681   4.205  12.205 -0.9259 -0.0723 -0.6925
  332TMC3    C3 4981   0.811   4.160  12.197  0.6643  0.1444  0.2402
  332TMC3    C4 4982   0.684   4.154  12.441 -0.1315 -0.6361 -0.3431
  332TMC3    C5 4983   0.815   4.118  12.431  0.1989  0.2288 -0.8270
  332TMC3    C6 4984   0.876   4.111  12.310 -0.6271 -0.3710  0.6074
  332TMC3     C 4985   0.518   4.304  12.360 -0.8834  0.2752  0.1745
  332TMC3     O 4986   0.449   4.270  12.455  0.0135 -0.0575  0.3883
  332TMC3     H 4987   0.627   4.253  12.125  0.1317 -0.0712 -1.4112
  332TMC3    H1 4988   0.637   4.169  12.538  0.4579  3.4280 -0.6882
  332TMC3    H2 4989   0.982   4.086  12.304 -0.8525 -1.0431 -0.5507
  332TMC3    C7 4990   0.879   4.063  12.547  0.1023 -0.1712 -0.4112
  332TMC3    C8 4991   0.883   4.176  12.074 -0.3461  0.1609  0.2228
  332TMC3    O1 4992   0.801   4.023  12.630  0.1758  0.3036  0.2038
  332TMC3    O2 4993   1.005   4.158  12.085  0.2595 -0.0984  0.3316
  333MPD2     C 4994   0.464   4.369  11.042 -1.2385  0.4739 -0.3912
  333MPD2    C1 4995   0.574   4.296  11.033  0.4833 -0.1604 -0.5207
  333MPD2    C2 4996   0.581   4.166  11.086 -0.3659  0.7239  0.0077
  333MPD2    C3 4997   0.469   4.104  11.139  0.5365 -0.8820  0.6822
  333MPD2    C4 4998   0.350   4.174  11.133  0.5853 -0.0191  0.5212
  333MPD2    C5 4999   0.347   4.306  11.092 -0.2254  0.5903  0.9657
  333MPD2     H 5000   0.675   4.113  11.094 -0.2697  0.9054  0.0782
  333MPD2    H1 5001   0.255   4.135  11.168 -0.1034  0.4910 -0.7849
  333MPD2    H2 5002   0.455   4.471  11.007  1.0000  0.7154 -0.2876
  333MPD2    H3 5003   0.252   4.358  11.092  1.1636  3.1654  0.0470
  333MPD2     N 5004   0.480   3.980  11.213  0.2694 -0.0816 -0.7572
  333MPD2    H5 5005   0.571   3.935  11.216  1.3853  2.3022  0.8108
  333MPD2    N1 5006   0.685   4.362  10.986  0.0919 -0.1866 -0.3699
  333MPD2    H7 5007   0.678   4.463  10.984  1.6760 -0.0611  0.0001
  334TMC3    C1 5008   0.912   4.408  10.927  0.5166  0.4347  0.8227
  334TMC3    C2 5009   1.002   4.368  10.837  0.3710  0.2216 -0.5240
  334TMC3    C3 5010   1.117   4.434  10.821  0.0004  0.0713 -0.6887
  334TMC3    C4 5011   0.917   4.527  10.989 -0.3454 -0.2902 -0.6732
  334TMC3    C5 5012   1.029   4.598  10.956 -0.7335 -0.1925  0.5136
  334TMC3    C6 5013   1.133   4.554  10.878 -0.1706  0.6125 -0.1202
  334TMC3     C 5014   0.807   4.309  10.952 -0.3990 -0.4683 -0.1618
  334TMC3     O 5015   0.829   4.193  10.919  0.7046  0.3732  0.0227
  334TMC3     H 5016   0.988   4.272  10.787 -1.1110 -0.5567  1.4031
  334TMC3    H1 5017   0.853   4.554  11.073  0.8431  1.8412 -0.4529
  334TMC3    H2 5018   1.227   4.607  10.870 -0.0316  0.5441  1.0576
  334TMC3    C7 5019   1.050   4.727  11.006  0.5017 -0.1530  0.0167
  334TMC3    C8 5020   1.214   4.374  10.733  0.7792  0.0947  0.0957
  334TMC3    O1 5021   1.165   0.040  11.004  0.0951 -0.1583 -0.4098
  334TMC3    O2 5022   1.168   4.305  10.640  0.3698  0.6252 -0.2728
  335TMC3    C1 5023   4.665   1.330  17.641 -0.3861  0.8315 -0.1829
  335TMC3    C2 5024   4.633   1.256  17.533  0.1563  0.0277 -0.0111
  335TMC3    C3 5025   4.726   1.271  17.433  0.4295 -0.3746 -0.5787
  335TMC3    C4 5026   0.046   1.411  17.650  0.1205 -0.9864  0.6593
  335TMC3    C5 5027   0.142   1.417  17.550  0.2652 -0.2252 -0.2789
  335TMC3    C6 5028   0.112   1.352  17.433  0.3617  0.3403  0.4189
  335TMC3     C 5029   4.580   1.292   0.041  0.0283 -0.6274 -0.0197
  335TMC3     O 5030   4.518   1.185   0.034 -0.4960  0.0325 -0.1988
  335TMC3     H 5031   4.547   1.190  17.525 -0.4996  0.8755 -0.0601
  335TMC3    H1 5032   0.062   1.454   0.035 -1.5683 -2.6324  1.6715
  335TMC3    H2 5033   0.177   1.370  17.348 -0.7764  0.6169 -0.4014
  335TMC3    C7 5034   0.279   1.437  17.587  0.4519  0.0292  0.7599
  335TMC3    C8 5035   4.698   1.195  17.312 -0.4077  0.1431 -0.3771
  335TMC3    O1 5036   0.352   1.470  17.497  0.4143 -0.4844  0.0995
  335TMC3    O2 5037   4.593   1.129  17.311  0.4007  0.5810  0.1826
  336MPD2     C 5038   0.308   4.198  16.517  0.2221 -0.7799 -0.0130
  336MPD2    C1 5039   0.251   4.151  16.402  0.3431 -0.9120  0.4427
  336MPD2    C2 5040   0.235   4.016  16.381  0.7003  0.0140  0.2523
  336MPD2    C3 5041   0.285   3.921  16.470 -0.0489  0.7362 -0.3697
  336MPD2    C4 5042   0.338   3.970  16.588  0.3317  0.0696  0.3094
  336MPD2    C5 5043   0.335   4.106  16.616  0.5092 -0.6243 -0.7098
  336MPD2     H 5044   0.174   3.984  16.298 -1.5403  1.5321  1.2958
  336MPD2    H1 5045   0.352   3.902  16.671 -1.2371 -0.8888 -0.2072
  336MPD2    H2 5046   0.311   4.305  16.535 -0.8289 -0.4855 -1.6616
  336MPD2    H3 5047   0.378   4.151  16.705  1.2793 -2.5199 -0.1262
  336MPD2     N 5048   0.273   3.784  16.468  0.0505 -0.1850  0.1904
  336MPD2    H5 5049   0.314   3.742  16.550  0.5295 -0.4085 -0.1604
  336MPD2    N1 5050   0.215   4.244  16.300  0.1338 -0.0208  0.4321
  336MPD2    H7 5051   0.155   4.207  16.226 -0.5874  2.8683 -0.3985
  337TMC3    C1 5052   0.210   4.426  16.167 -0.0694 -0.1439 -0.1526
  337TMC3    C2 5053   0.074   4.417  16.151 -0.1631 -0.3339  0.0068
  337TMC3    C3 5054   0.007   4.509  16.071  0.1845 -0.1939  0.2101
  337TMC3    C4 5055   0.287   4.524  16.104  0.3360  0.4484  0.0403
  337TMC3    C5 5056   0.214   4.612  16.034 -0.1222  0.6285  0.3236
  337TMC3    C6 5057   0.080   4.602  16.008  0.1819 -0.5073  0.3691
  337TMC3     C 5058   0.279   4.362  16.275 -0.8486 -0.0650 -0.0368
  337TMC3     O 5059   0.385   4.403  16.324 -0.0624  0.2153  0.6986
  337TMC3     H 5060   0.009   4.344  16.197  0.6997 -1.6917 -0.9389
  337TMC3    H1 5061   0.395   4.532  16.115  0.6462 -2.5282 -0.8018
  337TMC3    H2 5062   0.026   4.673  15.947 -1.9407 -0.2075  2.5712
  337TMC3    C7 5063   0.288   4.708  15.947  0.5660 -0.2316  0.0985
  337TMC3    C8 5064   4.591   4.488  16.046  0.4102  0.3083  0.1811
  337TMC3    O1 5065   0.226   0.008  15.845  0.1235 -0.8072 -0.5403
  337TMC3    O2 5066   4.532   4.419  16.126 -0.0613  0.5275  0.7796
  338MPD2     C 5067   0.291   2.964   1.122  0.4773  0.4881 -1.2072
  338MPD2    C1 5068   0.259   2.974   0.988 -0.5056  0.0489  0.1808
  338MPD2    C2 5069   0.139   3.024   0.949  0.8175 -0.2229  0.7982
  338MPD2    C3 5070   0.049   3.069   1.046 -0.9643  0.0545  0.3728
  338MPD2    C4 5071   0.078   3.059   1.180 -0.2908  0.2797  0.0927
  338MPD2    C5 5072   0.198   2.999   1.217 -0.0954  0.3242  0.0018
  338MPD2     H 5073   0.115   3.040   0.844  1.0549 -1.5483  0.5427
  338MPD2    H1 5074   0.015   3.099   1.259  2.7695 -0.3954  2.8542
  338MPD2    H2 5075   0.384   2.921   1.158 -0.2611  1.2727  1.6014
  338MPD2    H3 5076   0.221   2.992   1.323 -1.6075 -1.1190  0.2437
  338MPD2     N 5077   4.651   3.123   0.999 -0.3403  0.1519  0.3003
  338MPD2    H5 5078   4.631   3.110   0.900  2.7895 -1.5467 -0.1161
  338MPD2    N1 5079   0.360   2.959   0.886  0.0492 -0.1483 -0.1184
  338MPD2    H7 5080   0.327   2.977   0.792  0.6564  2.3019  0.1548
  339TMC3    C1 5081   4.442   3.224   0.998 -0.6735  0.2172 -0.3454
  339TMC3    C2 5082   4.324   3.251   1.058  0.3182  0.2460 -0.4794
  339TMC3    C3 5083   4.210   3.269   0.983 -0.2779  0.1965  0.7486
  339TMC3    C4 5084   4.452   3.238   0.858 -0.0959 -0.4067  0.3624
  339TMC3    C5 5085   4.345   3.284   0.791 -0.0916 -0.1570  0.3367
  339TMC3    C6 5086   4.222   3.289   0.848 -0.2978  0.9076 -0.4629
  339TMC3     C 5087   4.553   3.176   1.079  0.5982  0.3314 -0.0713
  339TMC3     O 5088   4.557   3.234   1.185 -0.4360 -0.3298  0.5319
  339TMC3     H 5089   4.322   3.213   1.159  1.1808 -1.3964 -1.0773
  339TMC3    H1 5090   4.553   3.248   0.819 -0.0326  0.5732  0.7705
  339TMC3    H2 5091   4.136   3.319   0.789 -1.3157  0.5546  0.8389
  339TMC3    C7 5092   4.356   3.258   0.646  0.5489  0.6393 -0.4837
  339TMC3    C8 5093   4.088   3.320   1.042  0.1231 -0.2183 -0.3059
  339TMC3    O1 5094   4.272   3.181   0.603  0.6989  0.1928  0.4445
  339TMC3    O2 5095   3.994   3.342   0.968 -0.1516 -0.1906  0.5127
  340MPD2     C 5096   0.865   1.330  10.053  0.3230  0.2285 -0.1205
  340MPD2    C1 5097   0.874   1.200  10.103  0.3050  0.7114  0.9724
  340MPD2    C2 5098   0.839   1.179  10.235  0.3594 -0.5508  0.1705
  340MPD2    C3 5099   0.806   1.278  10.331 -0.1092  0.1663 -0.0245
  340MPD2    C4 5100   0.803   1.403  10.271 -0.0828  0.2432 -0.3982
  340MPD2    C5 5101   0.820   1.428  10.135  0.0432 -0.3070 -0.2511
  340MPD2     H 5102   0.837   1.077  10.271 -0.7364 -0.2843  0.8608
  340MPD2    H1 5103   0.777   1.490  10.330 -1.2249  1.2922 -2.4687
  340MPD2    H2 5104   0.875   1.359   9.949  1.0081  1.4643  0.2896
  340MPD2    H3 5105   0.807   1.526  10.092 -0.4455 -0.5153 -0.5748
  340MPD2     N 5106   0.770   1.261  10.466 -0.1268 -0.6308 -0.2030
  340MPD2    H5 5107   0.771   1.345  10.522  2.6495 -2.1658  2.0435
  340MPD2    N1 5108   0.896   1.099  10.004  0.3367  0.6612 -0.1618
  340MPD2    H7 5109   0.937   1.124   9.915 -1.7266  1.3652 -0.9191
  341TMC3    C1 5110   0.885   0.891   9.911 -0.2269  0.0406  0.2760
  341TMC3    C2 5111   0.782   0.816   9.868  0.1470 -0.2845  0.6693
  341TMC3    C3 5112   0.806   0.741   9.759 -0.0191  0.3255 -0.2186
  341TMC3    C4 5113   1.005   0.905   9.852  0.4314  0.5658 -0.5709
  341TMC3    C5 5114   1.020   0.827   9.743  0.2204  0.3986 -0.7515
  341TMC3    C6 5115   0.921   0.742   9.691 -0.1848 -0.6460 -0.5250
  341TMC3     C 5116   0.859   0.972  10.025 -0.3145 -0.0058 -0.2866
  341TMC3     O 5117   0.796   0.927  10.118  0.6459  0.0425  0.1403
  341TMC3     H 5118   0.697   0.798   9.933 -0.4271 -1.5173 -0.4397
  341TMC3    H1 5119   1.087   0.961   9.896  1.5068 -0.2080 -1.5993
  341TMC3    H2 5120   0.941   0.676   9.608  2.9031 -1.8815  1.2102
  341TMC3    C7 5121   1.150   0.806   9.687  0.2467  0.1924  0.1148
  341TMC3    C8 5122   0.703   0.658   9.705 -0.1542  0.4212  0.1034
  341TMC3    O1 5123   1.249   0.828   9.755 -0.3748  0.6132  0.3900
  341TMC3    O2 5124   0.613   0.623   9.784 -0.2073 -0.1779 -0.2219
  342MPD2     C 5125   3.362   0.046  17.553  0.1928  0.4720  0.1541
  342MPD2    C1 5126   3.459   0.076  17.463 -0.5854 -0.0188  0.1120
  342MPD2    C2 5127   3.535   0.191  17.480  0.3977  0.9292  0.3887
  342MPD2    C3 5128   3.510   0.275  17.583  0.0151 -0.7865  0.1102
  342MPD2    C4 5129   3.396   0.252  17.652  0.1847  0.1215  0.2171
  342MPD2    C5 5130   3.322   0.141  17.640 -0.0287 -0.2229 -0.0591
  342MPD2     H 5131   3.608   0.226  17.407  0.4828 -0.9931 -0.4288
  342MPD2    H1 5132   3.366   0.325   0.013  0.1333 -0.2792  0.5910
  342MPD2    H2 5133   3.300   4.686  17.549  0.6018 -0.0057  4.3241
  342MPD2    H3 5134   3.243   0.123  17.713  2.3434 -0.3862  2.4842
  342MPD2     N 5135   3.585   0.388  17.613 -0.5244 -0.3982 -0.0137
  342MPD2    H5 5136   3.569   0.446  17.694 -0.3080 -0.7838  0.3048
  342MPD2    N1 5137   3.473   0.006  17.340  0.0205 -0.2685 -0.3928
  342MPD2    H7 5138   3.531   0.058  17.275 -0.9948 -0.8542 -1.7488
  343TMC3    C1 5139   3.432   4.555  17.187 -0.4184 -0.1575 -0.0538
  343TMC3    C2 5140   3.562   4.528  17.152 -0.5478 -0.7546  0.0247
  343TMC3    C3 5141   3.597   4.408  17.107  0.5008  0.1481  1.1454
  343TMC3    C4 5142   3.340   4.453  17.177 -0.0099  0.0889  0.3388
  343TMC3    C5 5143   3.387   4.335  17.133 -0.3294 -0.5849  0.2624
  343TMC3    C6 5144   3.511   4.304  17.095  0.0647 -0.3280 -0.1017
  343TMC3     C 5145   3.411   4.615  17.310 -0.1723 -0.1982 -0.4113
  343TMC3     O 5146   3.356   4.537  17.388  0.1725  0.4072  0.2404
  343TMC3     H 5147   3.636   4.607  17.155 -2.2732  0.9522 -1.6804
  343TMC3    H1 5148   3.235   4.461  17.203 -0.1913  3.1528 -1.3343
  343TMC3    H2 5149   3.549   4.203  17.087 -1.8818 -1.0338 -0.4602
  343TMC3    C7 5150   3.327   4.227  17.205 -0.9045 -0.2667  0.2006
  343TMC3    C8 5151   3.729   4.371  17.163  0.6519  0.0940 -0.3165
  343TMC3    O1 5152   3.317   4.121  17.144 -0.0662 -0.1095 -0.3778
  343TMC3    O2 5153   3.761   4.441  17.257  0.3352 -0.0326  0.0377
  344MPD2     C 5154   0.217   3.529  10.630  0.9474  0.2015  0.3416
  344MPD2    C1 5155   0.085   3.550  10.579  0.4417 -0.3335 -0.1939
  344MPD2    C2 5156   0.043   3.683  10.568 -0.4555 -0.0100  0.8040
  344MPD2    C3 5157   0.113   3.789  10.617  0.0221  0.2285  0.9928
  344MPD2    C4 5158   0.229   3.755  10.684 -0.9768  0.2917  0.0793
  344MPD2    C5 5159   0.283   3.628  10.691 -0.5293  0.3617  0.0593
  344MPD2     H 5160   4.672   3.698  10.528 -1.4906 -0.3336  3.2272
  344MPD2    H1 5161   0.285   3.835  10.730 -1.5099  1.2448 -0.9325
  344MPD2    H2 5162   0.244   3.426  10.652  1.3283  0.1819 -0.2201
  344MPD2    H3 5163   0.366   3.617  10.761 -0.0424 -1.6717 -0.8182
  344MPD2     N 5164   0.072   3.918  10.618  0.5959 -0.3908 -0.1070
  344MPD2    H5 5165   0.134   3.983  10.664 -1.1816  0.6824  0.7820
  344MPD2    N1 5166   0.010   3.433  10.553 -0.4138 -0.2468  0.1574
  344MPD2    H7 5167   0.052   3.351  10.595  1.2613  0.8126  0.5462
  345TMC3    C1 5168   4.668   4.099  10.565  0.4976  1.0423 -0.3163
  345TMC3    C2 5169   0.048   4.178  10.581  0.1867  0.9601 -0.0209
  345TMC3    C3 5170   0.031   4.309  10.552  0.2245 -0.8470  0.5588
  345TMC3    C4 5171   4.556   4.151  10.500  0.6118 -0.3134  0.2175
  345TMC3    C5 5172   4.542   4.284  10.478 -0.2383 -0.0967 -0.0956
  345TMC3    C6 5173   4.639   4.371  10.517 -0.2502 -0.3888 -0.6542
  345TMC3     C 5174   4.678   3.955  10.570 -0.8733  0.0941 -0.1756
  345TMC3     O 5175   4.578   3.891  10.533  0.6682 -0.0082 -0.3613
  345TMC3     H 5176   0.128   4.144  10.645  0.1622 -0.4730 -0.7656
  345TMC3    H1 5177   4.474   4.084  10.476 -0.8038  0.6728  2.2776
  345TMC3    H2 5178   4.641   4.473  10.482  1.6839 -0.4834 -0.7967
  345TMC3    C7 5179   4.410   4.337  10.437 -0.2517 -0.4606 -0.2797
  345TMC3    C8 5180   0.130   4.399  10.587 -0.0128  0.1256 -0.5939
  345TMC3    O1 5181   4.314   4.270  10.466  0.3856 -0.5813  0.8575
  345TMC3    O2 5182   0.088   4.513  10.600 -0.4941  0.0869 -1.0384
  346MPD2     C 5183   4.477   0.966  14.037 -1.1388  0.4857  0.4770
  346MPD2    C1 5184   4.602   1.024  14.034  0.2462  0.3363  0.1751
  346MPD2    C2 5185   4.622   1.147  14.095  0.1923  0.3796 -0.0156
  346MPD2    C3 5186   4.526   1.189  14.194 -0.4181 -0.5857 -0.3298
  346MPD2    C4 5187   4.405   1.119  14.208  0.0854  0.5195 -0.2728
  346MPD2    C5 5188   4.383   1.012  14.125 -0.1786 -0.1174 -0.1774
  346MPD2     H 5189   4.714   1.204  14.090 -0.6953  1.6767 -1.6271
  346MPD2    H1 5190   4.330   1.150  14.280 -2.2843 -1.7256 -1.7985
  346MPD2    H2 5191   4.446   0.887  13.970 -2.5709  0.4369  1.1925
  346MPD2    H3 5192   4.280   0.980  14.128 -0.3516  0.6390  1.9854
  346MPD2     N 5193   4.557   1.311  14.271  0.0857  0.1383  0.2548
  346MPD2    H5 5194   4.648   1.350  14.249 -0.0079  0.4142  0.3597
  346MPD2    N1 5195   4.702   0.980  13.946 -0.2874  0.5814 -0.2243
  346MPD2    H7 5196   0.051   1.045  13.937 -1.0624  1.8091  1.9362
  347TMC3    C1 5197   4.572   1.463  14.442  0.0949  0.3472 -0.6392
  347TMC3    C2 5198   4.627   1.559  14.363  0.4457 -0.8972  0.7518
  347TMC3    C3 5199   4.694   1.666  14.417 -0.2415  0.1472  0.6329
  347TMC3    C4 5200   4.576   1.476  14.580 -0.3371  0.4913 -0.0204
  347TMC3    C5 5201   4.651   1.585  14.629  0.1228 -0.4306  0.5409
  347TMC3    C6 5202   4.704   1.683  14.552  0.1295 -1.0534 -0.5352
  347TMC3     C 5203   4.493   1.351  14.389 -0.0269 -0.3840  0.2871
  347TMC3     O 5204   4.392   1.312  14.447 -0.1667  0.1299 -0.6668
  347TMC3     H 5205   4.623   1.554  14.255  0.0655 -0.0130  0.7314
  347TMC3    H1 5206   4.526   1.400  14.638  0.3363 -0.6301 -0.9020
  347TMC3    H2 5207   0.029   1.768  14.595  0.3398 -1.3872 -0.1380
  347TMC3    C7 5208   4.680   1.568  14.772  0.7070 -0.9647 -0.0186
  347TMC3    C8 5209   0.086   1.680  14.333 -0.1168  0.1370 -0.2105
  347TMC3    O1 5210   4.591   1.515  14.837  0.1199 -0.8949 -0.4264
  347TMC3    O2 5211   0.106   1.602  14.240 -0.0305 -0.2121 -0.1374
  348MPD2     C 5212   3.004   0.792  12.181  0.1020 -0.2730 -0.2605
  348MPD2    C1 5213   3.107   0.827  12.094 -0.0562 -0.2967 -0.2175
  348MPD2    C2 5214   3.080   0.881  11.970 -0.1889  0.0112 -0.3352
  348MPD2    C3 5215   2.947   0.886  11.927  0.5923 -0.4049  0.0066
  348MPD2    C4 5216   2.849   0.835  12.005  0.1677 -0.4357 -0.0666
  348MPD2    C5 5217   2.876   0.783  12.135  0.5890  0.3009 -0.2883
  348MPD2     H 5218   3.155   0.927  11.907  1.6049 -0.7391  1.2517
  348MPD2    H1 5219   2.747   0.837  11.968  0.9587  0.8460 -2.1659
  348MPD2    H2 5220   3.013   0.757  12.283 -1.1348 -0.8464 -0.3463
  348MPD2    H3 5221   2.799   0.742  12.200 -0.0144 -1.0187 -1.8077
  348MPD2     N 5222   2.925   0.948  11.802 -0.0697  0.4470  0.1506
  348MPD2    H5 5223   3.008   0.985  11.755  0.6275 -2.0584 -0.5685
  348MPD2    N1 5224   3.247   0.824  12.127  0.2298  0.5301 -0.1701
  348MPD2    H7 5225   3.305   0.834  12.045 -0.6756 -2.9151 -1.2126
  349TMC3    C1 5226   3.439   0.737  12.216 -0.1847 -0.1855 -0.1892
  349TMC3    C2 5227   3.481   0.610  12.256  0.5822 -0.4565 -1.2024
  349TMC3    C3 5228   3.585   0.554  12.184  0.0050 -0.2346  0.0911
  349TMC3    C4 5229   3.514   0.810  12.125 -0.6463 -0.8187  0.5096
  349TMC3    C5 5230   3.601   0.746  12.049 -0.6223  0.1724 -0.4442
  349TMC3    C6 5231   3.648   0.623  12.078  0.0228  0.0595 -0.2074
  349TMC3     C 5232   3.304   0.778  12.247 -0.5526  0.1047  0.0638
  349TMC3     O 5233   3.250   0.736  12.348  0.5024 -0.3341  0.1231
  349TMC3     H 5234   3.423   0.547  12.321  0.3629 -0.3241 -1.2709
  349TMC3    H1 5235   3.483   0.912  12.102 -2.0507 -1.1662  0.8626
  349TMC3    H2 5236   3.728   0.588  12.014 -0.1410 -0.9124  0.1286
  349TMC3    C7 5237   3.569   0.756  11.908  0.4714 -0.1244 -0.0280
  349TMC3    C8 5238   3.625   0.422  12.228 -0.2511  0.4280 -0.4237
  349TMC3    O1 5239   3.589   0.653  11.847 -0.3207 -0.2592  0.3978
  349TMC3    O2 5240   3.606   0.391  12.345  0.4475 -0.0935 -0.3821
  350MPD2     C 5241   2.223   3.063   9.953  0.2876 -0.2112 -0.3779
  350MPD2    C1 5242   2.184   2.988  10.059  0.1128 -0.3062  0.1403
  350MPD2    C2 5243   2.257   2.993  10.179 -0.1525  0.3424 -0.5765
  350MPD2    C3 5244   2.367   3.076  10.182  0.6902 -0.2287 -0.3069
  350MPD2    C4 5245   2.404   3.155  10.076  0.0280  0.3662 -0.1160
  350MPD2    C5 5246   2.330   3.146   9.965  0.1696 -0.1252 -0.4202
  350MPD2     H 5247   2.230   2.936  10.267 -0.7429 -0.8782 -1.5418
  350MPD2    H1 5248   2.486   3.225  10.082  0.9562 -0.6291 -1.1955
  350MPD2    H2 5249   2.173   3.062   9.857  0.0819  0.8928 -0.2815
  350MPD2    H3 5250   2.376   3.191   9.877 -0.1614  1.7505  0.3620
  350MPD2     N 5251   2.448   3.062  10.303  0.1003 -0.4433  0.1865
  350MPD2    H5 5252   2.415   2.995  10.372 -2.5416  0.0758 -0.5793
  350MPD2    N1 5253   2.069   2.907  10.054  0.2598 -0.2116  0.3794
  350MPD2    H7 5254   2.043   2.860  10.141 -1.6412 -0.7032 -0.4650
  351TMC3    C1 5255   1.920   2.766   9.976  0.2070 -0.0860 -0.4902
  351TMC3    C2 5256   1.971   2.662   9.907  0.3071  0.0206  0.8128
  351TMC3    C3 5257   1.927   2.542   9.944 -0.2337  0.2718  0.5886
  351TMC3    C4 5258   1.836   2.760  10.082  0.5306  0.8494  0.3934
  351TMC3    C5 5259   1.802   2.633  10.121  1.2436 -0.5744  0.3669
  351TMC3    C6 5260   1.855   2.521  10.056 -0.0936  0.4375  0.1229
  351TMC3     C 5261   1.983   2.891   9.947  0.1846 -0.5466 -0.1852
  351TMC3     O 5262   1.998   2.915   9.829 -0.1207 -0.0823 -0.6154
  351TMC3     H 5263   2.035   2.674   9.820 -0.6526  2.4306  0.4348
  351TMC3    H1 5264   1.814   2.847  10.142  1.0185  0.6026  0.9387
  351TMC3    H2 5265   1.842   2.417  10.084  0.4887  0.0707 -0.9717
  351TMC3    C7 5266   1.757   2.621  10.256 -0.2942 -0.0297 -0.0152
  351TMC3    C8 5267   2.010   2.428   9.899  0.6738  0.7921  0.1745
  351TMC3    O1 5268   1.785   2.718  10.332  0.2251 -0.1349  0.0112
  351TMC3    O2 5269   1.952   2.323   9.891  0.8675  0.1412 -0.1151
  352MPD2     C 5270   0.336   0.341   0.652 -0.1623  0.3612  0.0738
  352MPD2    C1 5271   0.278   0.322   0.778 -0.7145  0.4757 -0.6995
  352MPD2    C2 5272   0.323   0.218   0.866  0.1920  0.0022 -0.1092
  352MPD2    C3 5273   0.432   0.132   0.832 -0.1243 -0.1943 -0.0719
  352MPD2    C4 5274   0.491   0.162   0.707  1.0068  0.1058 -0.4348
  352MPD2    C5 5275   0.437   0.255   0.620  0.0355  0.4572  0.2233
  352MPD2     H 5276   0.264   0.201   0.956  1.1965 -1.3958  0.2962
  352MPD2    H1 5277   0.570   0.097   0.672 -0.6631 -1.7713 -0.7200
  352MPD2    H2 5278   0.295   0.415   0.584 -0.6017  0.9811  1.0035
  352MPD2    H3 5279   0.470   0.263   0.517  0.9859 -2.2253  0.3188
  352MPD2     N 5280   0.490   0.038   0.910 -0.5190  0.4210  0.5902
  352MPD2    H5 5281   0.564   4.706   0.877  0.4880  0.7603  2.2423
  352MPD2    N1 5282   0.166   0.408   0.795 -0.7905  0.2253 -0.5723
  352MPD2    H7 5283   0.142   0.476   0.724 -2.3736  1.4980  1.1628
  353TMC3    C1 5284   0.509   4.596   1.068 -0.3244  0.8682 -0.0653
  353TMC3    C2 5285   0.633   4.590   1.002 -0.3401  0.2996  0.7023
  353TMC3    C3 5286   0.688   4.466   0.984 -1.0030  0.1622 -0.5269
  353TMC3    C4 5287   0.435   4.487   1.099  0.4450  0.7690  0.3920
  353TMC3    C5 5288   0.502   4.364   1.078 -0.0230  0.2636  0.2473
  353TMC3    C6 5289   0.621   4.352   1.019 -0.1985  0.5671 -0.3511
  353TMC3     C 5290   0.437   4.718   1.030 -0.2318 -0.6519  0.3179
  353TMC3     O 5291   0.347   0.030   1.098  0.4600  0.2973 -0.0408
  353TMC3     H 5292   0.697   4.676   0.989  0.5032 -0.2708  1.0947
  353TMC3    H1 5293   0.333   4.494   1.136  0.6231 -0.3652  1.0670
  353TMC3    H2 5294   0.661   4.252   1.006  0.1819  0.8554 -1.4171
  353TMC3    C7 5295   0.414   4.254   1.041  0.7002 -0.3042  0.3300
  353TMC3    C8 5296   0.806   4.457   0.900 -0.1362 -0.2941 -0.0046
  353TMC3    O1 5297   0.452   4.166   0.957  0.2274  0.0341  0.2631
  353TMC3    O2 5298   0.854   4.562   0.856  0.1778 -0.3061 -0.2894
  354TMC3    C1 5299   2.635   1.435  13.285 -0.4978  0.1630  0.3885
  354TMC3    C2 5300   2.549   1.485  13.193 -0.7900 -0.4448 -0.4606
  354TMC3    C3 5301   2.604   1.513  13.079  0.1189 -0.4874 -0.3310
  354TMC3    C4 5302   2.768   1.408  13.259  0.0423 -0.3876  0.2744
  354TMC3    C5 5303   2.811   1.440  13.136  0.0101 -0.2858  0.4902
  354TMC3    C6 5304   2.730   1.487  13.037  0.0163 -0.1699  0.1292
  354TMC3     C 5305   2.598   1.453  13.420  0.0811  0.0329  0.3496
  354TMC3     O 5306   2.488   1.413  13.442 -0.2156 -0.3833 -0.0044
  354TMC3     H 5307   2.447   1.509  13.225 -1.2543 -1.3557 -1.2817
  354TMC3    H1 5308   2.836   1.384  13.341  0.9626  1.1710 -0.0239
  354TMC3    H2 5309   2.761   1.508  12.936 -3.5945  1.2169 -0.6988
  354TMC3    C7 5310   2.956   1.457  13.124 -0.0886 -0.2329  0.2005
  354TMC3    C8 5311   2.532   1.601  12.989 -0.2234 -0.1319  0.6638
  354TMC3    O1 5312   3.032   1.404  13.203  0.1602  0.5143 -0.4793
  354TMC3    O2 5313   2.537   1.578  12.871  0.0391 -0.2651  0.0629
  355MPD2     C 5314   2.513   2.333  11.587  0.0230  0.2700 -0.3553
  355MPD2    C1 5315   2.571   2.370  11.469  0.4923  0.3004 -0.3692
  355MPD2    C2 5316   2.709   2.398  11.457  0.9529  0.5570  0.2642
  355MPD2    C3 5317   2.790   2.386  11.569 -0.4583  0.9081 -0.2929
  355MPD2    C4 5318   2.728   2.343  11.684  1.0632  0.1038 -0.4843
  355MPD2    C5 5319   2.598   2.307  11.689 -0.0267 -0.3407 -0.0571
  355MPD2     H 5320   2.748   2.461  11.377 -0.8643 -1.8050 -2.4987
  355MPD2    H1 5321   2.786   2.348  11.776 -0.6281 -1.6539  0.6762
  355MPD2    H2 5322   2.408   2.307  11.589  0.1843 -0.2020  1.5758
  355MPD2    H3 5323   2.554   2.286  11.786  0.1822  1.6040  0.4644
  355MPD2     N 5324   2.920   2.443  11.584  0.0669  0.9050 -0.1607
  355MPD2    H5 5325   2.962   2.442  11.676  1.4612  1.4931 -0.7873
  355MPD2    N1 5326   2.477   2.419  11.378  0.4757  0.5787 -0.2121
  355MPD2    H7 5327   2.382   2.434  11.411  0.5620  0.5795  0.0326
  356TMC3    C1 5328   3.110   2.576  11.531  0.4189 -0.8042 -0.0999
  356TMC3    C2 5329   3.129   2.695  11.469  0.1835 -0.5270 -0.0934
  356TMC3    C3 5330   3.192   2.794  11.540 -1.0927 -0.2562 -0.3460
  356TMC3    C4 5331   3.168   2.544  11.647  0.6227 -0.0386  0.3548
  356TMC3    C5 5332   3.211   2.651  11.728  0.2690 -0.4341  0.2750
  356TMC3    C6 5333   3.231   2.779  11.671  0.0278 -0.3009 -0.5694
  356TMC3     C 5334   2.982   2.519  11.496  0.0631  0.1773  0.5222
  356TMC3     O 5335   2.951   2.542  11.378  0.7054  0.4178  0.3494
  356TMC3     H 5336   3.090   2.723  11.372  1.6716  0.2945 -0.4581
  356TMC3    H1 5337   3.162   2.445  11.691 -1.6801 -1.1177 -2.3778
  356TMC3    H2 5338   3.279   2.858  11.726  0.8494 -0.9968 -0.2801
  356TMC3    C7 5339   3.174   2.640  11.869  0.0378 -0.0249  0.0436
  356TMC3    C8 5340   3.277   2.875  11.454  0.5033  0.0643 -0.8863
  356TMC3    O1 5341   3.127   2.532  11.897  0.4345 -0.0695 -0.4621
  356TMC3    O2 5342   3.252   2.874  11.334  0.1784 -0.1175 -0.0451
  357MPD2     C 5343   1.820   1.019   0.895 -0.6522 -0.6183  0.3561
  357MPD2    C1 5344   1.846   1.110   0.792 -0.3176 -0.6116  0.3962
  357MPD2    C2 5345   1.751   1.164   0.704 -0.7746 -0.4121  0.1509
  357MPD2    C3 5346   1.621   1.130   0.730 -0.8194 -0.2970  0.6454
  357MPD2    C4 5347   1.589   1.055   0.842  0.4289  0.0281 -0.0596
  357MPD2    C5 5348   1.683   1.000   0.925 -0.4880 -0.2677 -0.0163
  357MPD2     H 5349   1.769   1.260   0.656 -1.3350  0.0114  0.7919
  357MPD2    H1 5350   1.482   1.036   0.853  0.2295 -0.7512 -3.5220
  357MPD2    H2 5351   1.892   0.975   0.963 -1.2920  0.9891  2.0959
  357MPD2    H3 5352   1.647   0.938   1.006 -0.3551 -0.0817  0.1856
  357MPD2     N 5353   1.513   1.191   0.668  0.4099  0.1194  0.0481
  357MPD2    H5 5354   1.423   1.170   0.710  0.8820  1.6963  1.8870
  357MPD2    N1 5355   1.990   1.137   0.780 -0.2503  0.2619 -0.2721
  357MPD2    H7 5356   2.056   1.091   0.842 -1.4836 -1.6243 -0.3518
  358TMC3    C1 5357   2.194   1.222   0.710  0.0086 -0.5849  0.5348
  358TMC3    C2 5358   2.270   1.253   0.600  0.3713 -0.5833  0.3428
  358TMC3    C3 5359   2.382   1.331   0.621  0.1433  0.5543 -0.1189
  358TMC3    C4 5360   2.228   1.259   0.830  0.4187 -0.2358 -0.2076
  358TMC3    C5 5361   2.340   1.335   0.852 -0.7115  0.3499 -0.5347
  358TMC3    C6 5362   2.417   1.377   0.746  0.2498  0.7839 -0.1100
  358TMC3     C 5363   2.052   1.215   0.684 -0.5380  0.1693  0.1081
  358TMC3     O 5364   2.004   1.271   0.587 -0.2518 -0.6467  0.1204
  358TMC3     H 5365   2.232   1.214   0.506 -1.1908  1.6254  0.0582
  358TMC3    H1 5366   2.158   1.249   0.912 -0.5395  0.6111 -0.9139
  358TMC3    H2 5367   2.486   1.460   0.752  0.7277  0.3470  0.4734
  358TMC3    C7 5368   2.377   1.389   0.985  0.1768 -0.6990 -0.3860
  358TMC3    C8 5369   2.421   1.416   0.512  0.1547 -0.5029  0.0978
  358TMC3    O1 5370   2.450   1.482   0.989 -0.4447  0.1960  0.3109
  358TMC3    O2 5371   2.340   1.433   0.422 -0.0329 -0.2217 -0.0620
  359MPD2     C 5372   3.030   1.017  12.414  0.7296  0.9419 -0.2354
  359MPD2    C1 5373   2.922   1.091  12.383 -1.1551 -0.3306 -0.4006
  359MPD2    C2 5374   2.794   1.048  12.432 -0.6797 -0.2791 -0.6858
  359MPD2    C3 5375   2.789   0.932  12.512 -0.3800 -0.6550  0.2505
  359MPD2    C4 5376   2.906   0.867  12.543  0.7771  0.1463 -0.3018
  359MPD2    C5 5377   3.026   0.912  12.497  0.2484 -0.3470  0.0241
  359MPD2     H 5378   2.709   1.110  12.407 -1.7239 -0.3593  2.6508
  359MPD2    H1 5379   2.910   0.777  12.602  0.0188  1.0871  1.1920
  359MPD2    H2 5380   3.131   1.036  12.380  1.2574  1.4622  1.6217
  359MPD2    H3 5381   3.113   0.848  12.508  1.6009  1.5653  0.5039
  359MPD2     N 5382   2.673   0.879  12.571 -0.5956 -0.0306 -0.1868
  359MPD2    H5 5383   2.682   0.790  12.619  0.2437  0.8127  1.2131
  359MPD2    N1 5384   2.928   1.207  12.301  0.2011  0.2045 -0.5821
  359MPD2    H7 5385   2.845   1.248  12.261  0.4398  0.7532 -0.5208
  360TMC3    C1 5386   3.029   1.381  12.174 -0.3925 -0.9542 -0.6456
  360TMC3    C2 5387   3.132   1.476  12.172  0.2011  0.1218  1.1002
  360TMC3    C3 5388   3.100   1.579  12.091 -0.7868  0.2271 -0.0527
  360TMC3    C4 5389   2.924   1.373  12.082 -0.5768 -0.3528 -0.4578
  360TMC3    C5 5390   2.916   1.475  11.991  0.0699 -0.1145  0.3658
  360TMC3    C6 5391   2.997   1.583  12.002 -0.0474 -1.2357 -0.3676
  360TMC3     C 5392   3.043   1.285  12.287  0.1561  0.4887  0.0166
  360TMC3     O 5393   3.149   1.278  12.346 -0.1449  0.6053 -0.0142
  360TMC3     H 5394   3.204   1.481  12.253  1.8998  0.8899 -0.4537
  360TMC3    H1 5395   2.866   1.282  12.077  0.8798 -1.2476 -0.9015
  360TMC3    H2 5396   2.996   1.669  11.935 -1.1803 -2.7681 -2.3390
  360TMC3    C7 5397   2.867   1.453  11.854  0.3210 -0.0593 -0.2294
  360TMC3    C8 5398   3.216   1.669  12.064  0.2226 -0.0450 -0.8859
  360TMC3    O1 5399   2.939   1.510  11.772 -0.3742  0.2478 -0.0851
  360TMC3    O2 5400   3.185   1.782  12.035 -0.4478  0.4442  0.4723
  361MPD2     C 5401   4.386   0.074  16.730  0.5874 -0.5258 -0.2296
  361MPD2    C1 5402   4.335   0.078  16.864  0.2071 -0.5814  0.0279
  361MPD2    C2 5403   4.380   4.715  16.953 -0.0569 -0.1890  0.0423
  361MPD2    C3 5404   4.478   4.624  16.913 -0.5074 -0.1686  0.1921
  361MPD2    C4 5405   4.530   4.625  16.791  0.0204 -0.1783  0.0329
  361MPD2    C5 5406   4.487   4.714  16.702 -0.4945 -0.1618 -0.0668
  361MPD2     H 5407   4.337   4.712  17.053  0.8128 -1.4530  0.3686
  361MPD2    H1 5408   4.596   4.548  16.753 -1.1036  0.4305 -3.1400
  361MPD2    H2 5409   4.357   0.138  16.648  1.9995  0.9655  0.4376
  361MPD2    H3 5410   4.510   4.706  16.596 -0.0298 -0.1216  0.0288
  361MPD2     N 5411   4.529   4.526  16.996 -0.2595  0.8274 -0.5279
  361MPD2    H5 5412   4.584   4.448  16.962  0.7995  1.3424 -0.0124
  361MPD2    N1 5413   4.244   0.174  16.913  0.6126  0.3453  0.2753
  361MPD2    H7 5414   4.215   0.165  17.009 -0.2171 -1.8303 -0.1855
  362TMC3    C1 5415   4.076   0.348  16.906  0.8086 -0.9803  0.3252
  362TMC3    C2 5416   4.103   0.398  17.033  0.1572 -0.2482  0.4166
  362TMC3    C3 5417   3.994   0.457  17.090  0.6247 -0.5988 -0.1462
  362TMC3    C4 5418   3.959   0.357  16.837 -0.1734 -0.7927 -0.4604
  362TMC3    C5 5419   3.852   0.412  16.908  0.0450  0.0392  0.0649
  362TMC3    C6 5420   3.878   0.486  17.020  0.1692 -0.1122  0.1975
  362TMC3     C 5421   4.184   0.270  16.836  0.0591  0.2076  0.1614
  362TMC3     O 5422   4.179   0.271  16.712 -0.0830  0.1559  0.3735
  362TMC3     H 5423   4.200   0.385  17.081  0.9838  1.3294 -0.8548
  362TMC3    H1 5424   3.959   0.315  16.737  1.2335 -0.3142 -0.6582
  362TMC3    H2 5425   3.790   0.525  17.069  0.9079  1.4298  0.2963
  362TMC3    C7 5426   3.722   0.429  16.836  0.0399  0.0281  0.5243
  362TMC3    C8 5427   4.016   0.546  17.202 -0.5961 -0.2865 -0.0826
  362TMC3    O1 5428   3.645   0.512  16.867  0.7392 -0.5205 -0.1470
  362TMC3    O2 5429   4.122   0.543  17.258  0.6133  0.4501 -0.2666
  363TMC3    C1 5430   2.232   1.907   9.109  0.3187  0.3474  0.2354
  363TMC3    C2 5431   2.341   1.930   9.191 -0.7129  0.1174 -0.3236
  363TMC3    C3 5432   2.319   1.995   9.310 -0.7670  0.0344  0.2641
  363TMC3    C4 5433   2.113   1.951   9.151  0.5599  0.1175 -0.1332
  363TMC3    C5 5434   2.099   2.043   9.255 -0.5993  0.4961  0.4294
  363TMC3    C6 5435   2.208   2.075   9.333 -0.0234 -0.4085 -0.0005
  363TMC3     C 5436   2.260   1.830   8.989  0.1385 -0.0924 -0.0987
  363TMC3     O 5437   2.367   1.777   8.980  0.2875 -0.5172  0.4528
  363TMC3     H 5438   2.437   1.886   9.166 -0.9337  0.1626 -1.2317
  363TMC3    H1 5439   2.031   1.935   9.083  1.0113 -2.1498 -0.1725
  363TMC3    H2 5440   2.201   2.142   9.418  3.3649  2.1615 -1.7737
  363TMC3    C7 5441   1.970   2.115   9.265  0.7245 -0.6290 -0.2771
  363TMC3    C8 5442   2.430   2.023   9.397  0.1593  0.3899 -0.8361
  363TMC3    O1 5443   1.893   2.102   9.174  0.3527 -0.5324  0.0049
  363TMC3    O2 5444   2.425   2.115   9.473 -0.1694 -0.5946  0.0197
  364MPD2     C 5445   1.731   1.738  10.033  0.5980  0.1157 -0.1257
  364MPD2    C1 5446   1.765   1.793  10.149  0.2987  0.3169 -0.5462
  364MPD2    C2 5447   1.745   1.723  10.266  0.2986  0.4095  0.6473
  364MPD2    C3 5448   1.695   1.594  10.263 -0.4907  0.2224  0.6099
  364MPD2    C4 5449   1.666   1.535  10.145  0.1088  0.4311  0.3815
  364MPD2    C5 5450   1.677   1.607  10.035  0.3658  0.4474 -0.3533
  364MPD2     H 5451   1.802   1.757  10.352 -0.5873 -0.6563  1.6554
  364MPD2    H1 5452   1.643   1.429  10.135 -0.8740  0.6856 -0.0167
  364MPD2    H2 5453   1.751   1.797   9.944 -2.2577  0.7255 -0.3809
  364MPD2    H3 5454   1.678   1.561   9.937  0.7912  1.5575 -0.8681
  364MPD2     N 5455   1.713   1.504  10.372  0.8557 -0.0790 -0.1598
  364MPD2    H5 5456   1.696   1.405  10.357  1.2740 -0.2279  0.3397
  364MPD2    N1 5457   1.810   1.927  10.169 -0.0179 -0.6590  0.1950
  364MPD2    H7 5458   1.836   1.983  10.088  0.3357  0.0370  0.7928
  365TMC3    C1 5459   1.915   2.110  10.279 -1.3265  0.0208  0.5627
  365TMC3    C2 5460   2.028   2.099  10.196 -0.0200 -0.4812 -0.7212
  365TMC3    C3 5461   2.120   2.197  10.200 -0.4301  0.9111  0.4435
  365TMC3    C4 5462   1.918   2.205  10.379  0.5937  0.1059  0.3198
  365TMC3    C5 5463   2.022   2.295  10.393 -0.2679 -0.4775  0.1375
  365TMC3    C6 5464   2.121   2.291  10.302  0.0191  0.4447  0.3318
  365TMC3     C 5465   1.816   1.998  10.289 -0.4271  0.2881 -0.0218
  365TMC3     O 5466   1.760   1.988  10.400  0.2415 -0.5611  0.1652
  365TMC3     H 5467   2.009   2.040  10.108  0.8858 -0.8262 -0.6878
  365TMC3    H1 5468   1.837   2.194  10.450  0.5390 -0.3578  0.1871
  365TMC3    H2 5469   2.194   2.371  10.294 -3.8847  3.9917  0.0834
  365TMC3    C7 5470   2.002   2.415  10.474 -0.5723 -0.5143  0.1586
  365TMC3    C8 5471   2.255   2.154  10.174 -0.0647  0.4359  0.3152
  365TMC3    O1 5472   2.040   2.518  10.426  0.8266  0.1625  0.6873
  365TMC3    O2 5473   2.348   2.206  10.236 -0.0043  0.7299 -0.3512
  366MPD2     C 5474   0.134   3.220  15.081 -0.0625 -0.4860  0.2876
  366MPD2    C1 5475   0.188   3.244  15.201 -0.1217  0.1229 -0.5233
  366MPD2    C2 5476   0.306   3.189  15.232 -0.2394 -0.4799  0.1862
  366MPD2    C3 5477   0.382   3.118  15.138 -0.6812 -0.3081 -0.0739
  366MPD2    C4 5478   0.331   3.097  15.014 -0.4519 -0.0192 -0.2746
  366MPD2    C5 5479   0.207   3.153  14.990 -1.1197 -0.2518 -0.3303
  366MPD2     H 5480   0.345   3.203  15.332 -1.9343 -3.8749  1.3373
  366MPD2    H1 5481   0.382   3.043  14.935  1.8328  0.2749  1.0063
  366MPD2    H2 5482   0.035   3.244  15.043  0.8623 -0.5528 -2.1673
  366MPD2    H3 5483   0.178   3.145  14.886 -2.0120 -0.1307 -0.0868
  366MPD2     N 5484   0.504   3.055  15.172 -0.4757  0.2771 -0.2096
  366MPD2    H5 5485   0.524   2.972  15.118 -2.1936 -0.7661  0.7518
  366MPD2    N1 5486   0.132   3.336  15.294 -0.2180  0.3308  0.4032
  366MPD2    H7 5487   0.179   3.356  15.382 -1.0656  2.2131  0.4318
  367TMC3    C1 5488   0.007   3.524  15.351  0.4143 -0.5837  1.1003
  367TMC3    C2 5489   0.107   3.565  15.435 -0.0146  0.0688 -0.2277
  367TMC3    C3 5490   0.083   3.663  15.528  0.4576  0.8291  1.2677
  367TMC3    C4 5491   4.613   3.596  15.355 -0.4882  0.2641 -0.3264
  367TMC3    C5 5492   4.586   3.684  15.458 -0.9848  0.1613  0.3913
  367TMC3    C6 5493   4.688   3.722  15.545 -0.1652 -0.5215 -0.2575
  367TMC3     C 5494   0.023   3.410  15.266 -0.4869  0.0837  0.4833
  367TMC3     O 5495   4.670   3.403  15.176 -0.3363  0.4089 -0.1149
  367TMC3     H 5496   0.200   3.509  15.437 -0.8147 -1.3394 -2.2154
  367TMC3    H1 5497   4.540   3.581  15.275 -1.2072  0.0844  0.3679
  367TMC3    H2 5498   4.662   3.800  15.615 -0.3396 -0.5269 -0.3157
  367TMC3    C7 5499   4.489   3.793  15.423  0.2564  0.6181  0.0200
  367TMC3    C8 5500   0.196   3.686  15.626 -0.3374  0.1950 -0.4407
  367TMC3    O1 5501   4.506   3.906  15.468 -0.4627  0.2305  0.4845
  367TMC3    O2 5502   0.281   3.602  15.624  0.1140 -0.2150  0.6222
  368MPD2     C 5503   1.181   4.698  13.290  0.7940 -0.4359 -0.5178
  368MPD2    C1 5504   1.180   0.016  13.159 -0.0148 -0.1192 -0.2701
  368MPD2    C2 5505   1.300   0.016  13.092 -0.6685 -0.3927 -0.2069
  368MPD2    C3 5506   1.420   4.719  13.150  0.1436  1.0312 -0.3106
  368MPD2    C4 5507   1.419   4.676  13.277 -0.7676 -1.1282 -0.1176
  368MPD2    C5 5508   1.300   4.661  13.341 -0.0671  0.0702  0.2009
  368MPD2     H 5509   1.298   0.049  12.988  0.1790 -2.5789 -0.9170
  368MPD2    H1 5510   1.511   4.666  13.334 -0.7197  1.7975  0.3429
  368MPD2    H2 5511   1.090   4.691  13.348  1.8500 -4.4026  0.6926
  368MPD2    H3 5512   1.302   4.617  13.440  1.5227 -0.1204  0.0740
  368MPD2     N 5513   1.546   0.010  13.086  0.1669  0.4578 -0.4074
  368MPD2    H5 5514   1.634   4.714  13.130  1.0151  0.3253 -2.1438
  368MPD2    N1 5515   1.049   0.071  13.119  0.1966 -0.0277 -0.3204
  368MPD2    H7 5516   0.978   0.066  13.191  1.2111 -1.2793  0.5918
  369TMC3    C1 5517   0.894   0.220  12.996  0.1323 -0.5017 -0.1924
  369TMC3    C2 5518   0.909   0.335  12.921 -0.1648  0.3907 -0.1687
  369TMC3    C3 5519   0.817   0.436  12.944 -0.1872 -0.7379  0.0033
  369TMC3    C4 5520   0.798   0.200  13.095  0.4142 -0.1982  0.1582
  369TMC3    C5 5521   0.707   0.302  13.105  0.1195 -0.0420 -0.3638
  369TMC3    C6 5522   0.716   0.423  13.033  0.5013 -0.1332 -0.3177
  369TMC3     C 5523   1.023   0.149  13.007 -0.9494  0.3167 -0.1498
  369TMC3     O 5524   1.098   0.158  12.910 -0.0456  0.2783  0.6186
  369TMC3     H 5525   0.993   0.360  12.857  0.1682 -0.8656 -0.2207
  369TMC3    H1 5526   0.808   0.115  13.161  0.1597 -0.2496  0.1309
  369TMC3    H2 5527   0.645   0.503  13.051 -0.4387 -0.8496 -0.8872
  369TMC3    C7 5528   0.629   0.293  13.222 -0.1447 -0.0687  0.3632
  369TMC3    C8 5529   0.866   0.562  12.891  0.1886  0.3865 -0.1058
  369TMC3    O1 5530   0.617   0.395  13.289  0.0954  0.2965  0.1700
  369TMC3    O2 5531   0.978   0.599  12.869  0.2314 -0.3095 -0.1834
  370TMC3    C1 5532   0.896   1.401  16.130  0.2775  0.8726 -0.8456
  370TMC3    C2 5533   0.813   1.361  16.239  0.1488  0.0852  0.4083
  370TMC3    C3 5534   0.767   1.232  16.244 -0.1606  0.1636 -0.3808
  370TMC3    C4 5535   0.923   1.317  16.024  0.5622 -0.3891 -0.1834
  370TMC3    C5 5536   0.876   1.189  16.032  0.0726 -1.0594 -0.7976
  370TMC3    C6 5537   0.796   1.145  16.141  0.2561 -0.0599 -0.3551
  370TMC3     C 5538   0.875   1.536  16.104  0.7515  0.1427 -0.2323
  370TMC3     O 5539   0.777   1.582  16.152  0.1299  0.3428  0.4084
  370TMC3     H 5540   0.792   1.429  16.321 -0.1279  0.8516 -0.2965
  370TMC3    H1 5541   0.971   1.350  15.933  0.1608  0.5375 -0.0721
  370TMC3    H2 5542   0.736   1.055  16.142  2.0947 -1.2501  3.1110
  370TMC3    C7 5543   0.922   1.082  15.947 -0.3134 -0.7903  0.1868
  370TMC3    C8 5544   0.721   1.189  16.375 -0.4300 -0.5610 -0.1516
  370TMC3    O1 5545   1.030   1.084  15.895  0.6600  0.3511 -0.8253
  370TMC3    O2 5546   0.721   1.269  16.470  0.0840  0.3503 -0.3584
  371TMC3    C1 5547   1.927   4.054  15.496 -0.4556 -0.4686 -0.0716
  371TMC3    C2 5548   1.808   4.076  15.551  0.3580 -0.2344  0.5857
  371TMC3    C3 5549   1.768   4.205  15.538  0.3024 -0.1258 -0.2399
  371TMC3    C4 5550   2.000   4.142  15.419 -1.0106  0.1013  0.5819
  371TMC3    C5 5551   1.943   4.261  15.390 -0.3683 -0.1581 -0.1399
  371TMC3    C6 5552   1.826   4.294  15.455  0.3776  0.8297 -0.3951
  371TMC3     C 5553   1.989   3.920  15.508  0.4732 -0.9635  0.4004
  371TMC3     O 5554   2.076   3.892  15.425 -0.8256 -0.2789 -0.0881
  371TMC3     H 5555   1.748   4.005  15.609  0.5454 -0.1981  0.8266
  371TMC3    H1 5556   2.083   4.113  15.355 -1.4607 -1.7239  0.8354
  371TMC3    H2 5557   1.774   4.381  15.415 -2.2355 -0.8306 -0.6530
  371TMC3    C7 5558   2.001   4.365  15.296 -0.1509  0.6017 -0.5145
  371TMC3    C8 5559   1.639   4.241  15.580 -0.1014 -0.7030  0.3103
  371TMC3    O1 5560   1.954   4.479  15.296 -0.3532  0.5882  0.1071
  371TMC3    O2 5561   1.565   4.151  15.610 -0.1721  0.4149 -0.1342
  372MPD2     C 5562   0.950   0.330  13.440  0.7975 -0.2212 -0.1238
  372MPD2    C1 5563   1.086   0.300  13.457 -0.0219 -1.5505 -0.3086
  372MPD2    C2 5564   1.130   0.235  13.573  0.0555  0.5505  0.0444
  372MPD2    C3 5565   1.039   0.188  13.664 -0.6748  0.2753 -0.5986
  372MPD2    C4 5566   0.904   0.219  13.649 -0.6234 -0.0437 -0.4010
  372MPD2    C5 5567   0.862   0.285  13.536 -0.1949  0.1877 -0.0879
  372MPD2     H 5568   1.235   0.209  13.588 -0.5769 -1.9176  0.1023
  372MPD2    H1 5569   0.827   0.201  13.723 -1.9610  0.0210 -1.7949
  372MPD2    H2 5570   0.913   0.377  13.350 -2.4650  0.0168  1.3505
  372MPD2    H3 5571   0.765   0.328  13.516 -0.2528 -0.0370 -0.2873
  372MPD2     N 5572   1.084   0.110  13.774 -0.4732 -0.1844 -0.6781
  372MPD2    H5 5573   1.179   0.076  13.768  0.3398  2.0130 -0.4326
  372MPD2    N1 5574   1.186   0.330  13.364 -0.6529  0.5193  0.1033
  372MPD2    H7 5575   1.276   0.300  13.400 -1.2689 -0.0560  1.1492
  373TMC3    C1 5576   1.107   0.037  13.990 -0.4441  0.4241  0.4100
  373TMC3    C2 5577   1.110   0.086  14.115 -0.7477 -0.5693 -0.3000
  373TMC3    C3 5578   1.235   0.068  14.181  0.2794 -0.7742 -0.1445
  373TMC3    C4 5579   1.203   4.682  13.940  0.6320  0.1919  0.4096
  373TMC3    C5 5580   1.314   4.649  14.019  0.1143  0.0729  0.1396
  373TMC3    C6 5581   1.322   4.709  14.139  0.6796  0.3965 -0.3906
  373TMC3     C 5582   1.012   0.085  13.890  0.0149  0.4764 -0.6523
  373TMC3     O 5583   0.907   0.126  13.934 -0.2370 -0.4999 -0.4084
  373TMC3     H 5584   1.022   0.141  14.149 -0.3501 -0.6725  0.8839
  373TMC3    H1 5585   1.177   4.619  13.856  0.7020 -0.5093  0.9198
  373TMC3    H2 5586   1.406   4.691  14.205 -0.3879  1.6851  1.3313
  373TMC3    C7 5587   1.408   4.543  13.976  0.6745  0.2934  0.5994
  373TMC3    C8 5588   1.305   0.191  14.231  0.2287  0.1825  0.0747
  373TMC3    O1 5589   1.378   4.464  13.890  0.6912  0.5936 -0.2296
  373TMC3    O2 5590   1.424   0.185  14.242 -0.3171 -0.1894  0.3788
  374TMC3    C1 5591   2.316   4.306  10.464  0.2427 -0.7471  0.0709
  374TMC3    C2 5592   2.318   4.420  10.388 -0.7016  0.3183 -0.8144
  374TMC3    C3 5593   2.233   4.439  10.283  0.8160 -0.5927  0.6557
  374TMC3    C4 5594   2.210   4.221  10.443  0.0498  0.5264 -0.4190
  374TMC3    C5 5595   2.122   4.244  10.337 -0.4293 -0.6037  0.1096
  374TMC3    C6 5596   2.136   4.342  10.249 -0.5475  0.4036  0.5852
  374TMC3     C 5597   2.407   4.283  10.577 -0.2574  0.0033 -0.1716
  374TMC3     O 5598   2.400   4.173  10.626  0.1872 -0.3019  0.2706
  374TMC3     H 5599   2.400   4.491  10.391  1.1014 -1.9149  1.8980
  374TMC3    H1 5600   2.198   4.130  10.502 -0.5593  1.2235  0.5342
  374TMC3    H2 5601   2.078   4.344  10.157 -1.4997  0.2131  1.1858
  374TMC3    C7 5602   2.003   4.156  10.339 -0.0666  0.7202  0.1187
  374TMC3    C8 5603   2.222   4.565  10.219  0.5085  0.2257 -0.0977
  374TMC3    O1 5604   2.021   4.042  10.382 -0.0011 -0.0767 -0.3760
  374TMC3    O2 5605   2.143   4.570  10.128 -0.0412  0.3320  0.2776
  375MPD2     C 5606   1.628   1.567   0.098  0.0004  0.0828  0.7773
  375MPD2    C1 5607   1.551   1.598  17.705  0.0237 -0.4093  0.2254
  375MPD2    C2 5608   1.604   1.703  17.619  0.1462  0.1172 -0.1095
  375MPD2    C3 5609   1.728   1.772  17.641  0.5129  0.0491 -0.7896
  375MPD2    C4 5610   1.800   1.728   0.041  0.1556  0.1435  0.7185
  375MPD2    C5 5611   1.752   1.622   0.118  0.6213  0.1077  0.0980
  375MPD2     H 5612   1.550   1.720  17.527 -0.1235  3.1691  0.6095
  375MPD2    H1 5613   1.897   1.773   0.058 -0.5477  0.6751  3.2251
  375MPD2    H2 5614   1.602   1.484   0.163  1.7958  0.1329  1.5557
  375MPD2    H3 5615   1.812   1.582   0.199  1.5111  1.4265  0.0827
  375MPD2     N 5616   1.801   1.848  17.545  0.1811 -0.0117 -0.3363
  375MPD2    H5 5617   1.898   1.869  17.566 -0.0566  1.0551 -0.3108
  375MPD2    N1 5618   1.420   1.555  17.681 -0.0525 -0.2853  0.0021
  375MPD2    H7 5619   1.380   1.581  17.592  2.3288  2.0337 -0.4035
  376TMC3    C1 5620   1.859   1.931  17.326 -0.2815  0.4030 -0.3688
  376TMC3    C2 5621   1.989   1.955  17.366  0.4223 -0.0151  0.5664
  376TMC3    C3 5622   2.084   1.988  17.274  0.6613  0.2896 -0.1946
  376TMC3    C4 5623   1.822   1.961  17.194  0.4057  0.8649  1.2498
  376TMC3    C5 5624   1.919   1.995  17.103  0.0579 -0.1612 -0.6049
  376TMC3    C6 5625   2.047   2.005  17.145  0.6006 -0.0779  0.0747
  376TMC3     C 5626   1.758   1.869  17.415  0.2924 -0.6211 -0.1987
  376TMC3     O 5627   1.639   1.860  17.375  0.5519 -0.2574  0.0913
  376TMC3     H 5628   2.020   1.917  17.463  0.6804 -1.9736 -0.2759
  376TMC3    H1 5629   1.719   1.933  17.171  0.6964  2.3245 -1.7857
  376TMC3    H2 5630   2.124   2.014  17.070  1.6299 -1.0247  1.0200
  376TMC3    C7 5631   1.913   1.924  16.979 -0.4171 -0.1525  0.4794
  376TMC3    C8 5632   2.216   1.923  17.308 -0.0896 -0.3235 -0.5617
  376TMC3    O1 5633   1.835   1.964  16.895  0.5725  0.1127 -0.3343
  376TMC3    O2 5634   2.222   1.859  17.408  0.2332  0.8063  0.2393
  377MPD2     C 5635   0.031   1.185  11.655  0.4910  0.7351  0.4155
  377MPD2    C1 5636   0.097   1.124  11.757  0.6044 -0.3032 -0.2984
  377MPD2    C2 5637   0.016   1.049  11.847 -0.6085 -0.8093  0.0259
  377MPD2    C3 5638   4.615   1.026  11.813  0.4852 -0.2429 -0.7689
  377MPD2    C4 5639   4.553   1.081  11.703 -0.2508  0.1304  0.0814
  377MPD2    C5 5640   4.625   1.173  11.629  0.1431 -0.4014 -0.5802
  377MPD2     H 5641   0.054   0.997  11.935  0.3349  1.2618  0.8266
  377MPD2    H1 5642   4.449   1.055  11.683  0.3527 -0.3147 -2.3999
  377MPD2    H2 5643   0.086   1.243  11.582 -2.3104 -0.7045 -2.8439
  377MPD2    H3 5644   4.594   1.209  11.532 -1.3063  1.2753  0.4903
  377MPD2     N 5645   4.525   0.956  11.896 -0.3253  0.0314  1.0396
  377MPD2    H5 5646   4.430   0.962  11.859  0.1057 -0.9906 -0.2211
  377MPD2    N1 5647   0.234   1.157  11.780  0.1218 -0.0173 -0.2042
  377MPD2    H7 5648   0.263   1.235  11.722 -0.4378  0.3376 -0.0023
  378TMC3    C1 5649   0.648   1.126  11.749  0.6659 -0.0602 -0.1831
  378TMC3    C2 5650   0.514   1.164  11.760  0.5534 -0.0136 -0.6920
  378TMC3    C3 5651   0.454   1.157  11.882  0.6598 -0.4468 -0.2331
  378TMC3    C4 5652   0.711   1.063  11.852 -0.2467  0.2952 -0.0212
  378TMC3    C5 5653   0.644   1.057  11.969  0.4900 -0.3896 -0.1353
  378TMC3    C6 5654   0.522   1.117  11.993  0.1513 -0.2676  0.0296
  378TMC3     C 5655   0.688   1.070  11.622 -0.1832 -0.3132  0.5913
  378TMC3     O 5656   0.741   0.960  11.628  0.3531 -0.3256 -0.0992
  378TMC3     H 5657   0.459   1.201  11.674  0.2929 -1.6813 -1.2485
  378TMC3    H1 5658   0.808   1.018  11.840  0.2196  0.5960  2.6909
  378TMC3    H2 5659   0.471   1.119  12.089  0.5225 -0.3409  0.2288
  378TMC3    C7 5660   0.704   1.026  12.099  0.1268  0.1500  0.0670
  378TMC3    C8 5661   0.313   1.115  11.886 -0.2128 -0.5005  0.3070
  378TMC3    O1 5662   0.654   1.071  12.198 -0.1170 -0.1651  0.0177
  378TMC3    O2 5663   0.279   1.045  11.982 -0.4517 -0.2982  0.0748
  379MPD2     C 5664   0.798   3.389  16.512  0.6420 -0.2279  0.3062
  379MPD2    C1 5665   0.911   3.381  16.439  0.2006 -0.9779  0.0429
  379MPD2    C2 5666   1.019   3.311  16.504  0.2418  0.7646 -0.1891
  379MPD2    C3 5667   1.006   3.259  16.627  0.3882 -0.5106 -0.2517
  379MPD2    C4 5668   0.888   3.278  16.694  0.1171  0.3368  0.4799
  379MPD2    C5 5669   0.776   3.339  16.637 -0.3561 -0.3776 -0.4614
  379MPD2     H 5670   1.118   3.302  16.461  0.5518  0.7013  0.5394
  379MPD2    H1 5671   0.880   3.243  16.796  3.4197  0.5298  0.8246
  379MPD2    H2 5672   0.720   3.454  16.472  0.4653  0.5861  1.9905
  379MPD2    H3 5673   0.696   3.377  16.698 -1.3011 -1.0015 -1.3069
  379MPD2     N 5674   1.102   3.189  16.703  0.3247 -0.5086 -0.1027
  379MPD2    H5 5675   1.070   3.167  16.797  0.8643  0.2554  0.2625
  379MPD2    N1 5676   0.917   3.433  16.311  0.2308 -0.4791 -0.7484
  379MPD2    H7 5677   0.831   3.483  16.293  0.0177 -0.4596  0.3026
  380TMC3    C1 5678   0.961   3.522  16.105  0.5432  0.4602  0.2306
  380TMC3    C2 5679   1.029   3.513  15.988  0.2142 -0.0976 -0.1646
  380TMC3    C3 5680   0.982   3.584  15.880 -0.1847 -1.0429  0.0232
  380TMC3    C4 5681   0.844   3.591  16.113  0.7647 -0.0192 -0.1167
  380TMC3    C5 5682   0.805   3.671  16.003 -0.3458 -0.5993  0.1930
  380TMC3    C6 5683   0.865   3.658  15.882  0.2430  0.1818 -0.2739
  380TMC3     C 5684   1.010   3.429  16.211  0.1645  0.2130  0.2418
  380TMC3     O 5685   1.120   3.381  16.210 -0.1956 -0.0653 -0.7840
  380TMC3     H 5686   1.115   3.448  15.978  0.3093  0.1175 -0.7584
  380TMC3    H1 5687   0.791   3.602  16.207  0.1003  0.7108 -0.5781
  380TMC3    H2 5688   0.833   3.722  15.801 -0.7523  3.2060  2.5013
  380TMC3    C7 5689   0.694   3.765  16.034  0.8168 -0.5560  0.3879
  380TMC3    C8 5690   1.057   3.607  15.761  0.1584 -0.4588  1.5901
  380TMC3    O1 5691   0.673   3.798  16.152 -0.1371  0.7278 -0.2536
  380TMC3    O2 5692   1.002   3.673  15.674  0.2654 -0.1064 -0.2648
  381TMC3    C1 5693   0.577   0.574  16.122 -0.0487 -0.3130 -0.0778
  381TMC3    C2 5694   0.698   0.633  16.127 -0.5300 -0.6647  0.2915
  381TMC3    C3 5695   0.801   0.555  16.165 -0.4580 -0.2172  0.1791
  381TMC3    C4 5696   0.557   0.448  16.168  0.2230 -0.4852 -0.1755
  381TMC3    C5 5697   0.664   0.373  16.195  0.4121 -0.1347 -0.3543
  381TMC3    C6 5698   0.792   0.422  16.200  0.3855  0.0138 -0.7317
  381TMC3     C 5699   0.466   0.666  16.148 -0.1977  0.7667  0.0547
  381TMC3     O 5700   0.487   0.782  16.188  0.3483 -0.5553  0.0690
  381TMC3     H 5701   0.701   0.738  16.102  1.1116 -0.7541  0.0751
  381TMC3    H1 5702   0.462   0.397  16.166 -0.7951  1.3252  1.6880
  381TMC3    H2 5703   0.874   0.360  16.232  0.3053  0.4520  0.3226
  381TMC3    C7 5704   0.643   0.265  16.293 -0.6134 -0.8673  0.4714
  381TMC3    C8 5705   0.930   0.621  16.169  0.0728 -0.0346 -0.6531
  381TMC3    O1 5706   0.699   0.156  16.269 -0.7179 -0.1606  0.4485
  381TMC3    O2 5707   1.030   0.556  16.149  0.5452 -0.1515  0.1542
  382MPD2     C 5708   4.233   2.785  16.809 -0.4874 -0.0307  0.0849
  382MPD2    C1 5709   4.271   2.737  16.935  0.1388  0.1500  0.4236
  382MPD2    C2 5710   4.300   2.603  16.952 -0.6993  0.1689 -0.6714
  382MPD2    C3 5711   4.285   2.510  16.851  0.4953  0.3730  0.1477
  382MPD2    C4 5712   4.246   2.556  16.728 -0.0834  0.2380  0.3133
  382MPD2    C5 5713   4.204   2.688  16.710  0.1665 -0.1544  0.2514
  382MPD2     H 5714   4.332   2.590  17.054 -0.1629  0.6022 -0.7835
  382MPD2    H1 5715   4.243   2.501  16.635 -0.8849  0.5686  0.1411
  382MPD2    H2 5716   4.218   2.891  16.790 -2.3347 -0.5330 -1.3401
  382MPD2    H3 5717   4.167   2.715  16.612 -1.1816 -1.5130  0.3716
  382MPD2     N 5718   4.323   2.372  16.869  0.1531 -0.4900  0.3726
  382MPD2    H5 5719   4.290   2.306  16.800 -1.4591  0.8430 -0.1365
  382MPD2    N1 5720   4.279   2.818  17.049  0.3954 -0.5268  0.2328
  382MPD2    H7 5721   4.290   2.772  17.139 -2.8721 -1.4513  0.2029
  383TMC3    C1 5722   4.405   2.182  16.996  0.7171 -0.2185  0.7415
  383TMC3    C2 5723   4.339   2.094  16.913 -0.1151 -0.2944  0.2723
  383TMC3    C3 5724   4.328   1.964  16.958  0.1510 -0.2329  0.5331
  383TMC3    C4 5725   4.461   2.146  17.116 -0.1408  0.6052 -0.2670
  383TMC3    C5 5726   4.432   2.018  17.158  0.2687  0.3728 -0.1692
  383TMC3    C6 5727   4.370   1.926  17.081 -0.7237  0.4514 -0.3589
  383TMC3     C 5728   4.394   2.320  16.979 -0.1582  0.0536 -0.0296
  383TMC3     O 5729   4.436   2.383  17.074 -0.0971 -0.2579  0.4757
  383TMC3     H 5730   4.316   2.122  16.811  0.0076  3.0123  1.1511
  383TMC3    H1 5731   4.523   2.215  17.173 -0.6980  1.3444 -0.5567
  383TMC3    H2 5732   4.348   1.827  17.119 -1.3786  0.7914  0.1596
  383TMC3    C7 5733   4.433   1.980  17.300 -0.6528  0.0962 -0.0271
  383TMC3    C8 5734   4.223   1.889  16.893  0.0001  0.4840  0.3018
  383TMC3    O1 5735   4.434   1.859  17.323 -0.0302  0.2521 -0.6307
  383TMC3    O2 5736   4.161   1.941  16.797  0.2153 -0.1183  0.5148
  384MPD2     C 5737   1.410   3.782  11.899  0.0210 -0.4125  0.6232
  384MPD2    C1 5738   1.402   3.694  12.006 -0.0612  0.0837 -0.4210
  384MPD2    C2 5739   1.466   3.575  12.002  0.2738 -0.1116  0.0052
  384MPD2    C3 5740   1.535   3.526  11.891 -0.2839  0.0775  0.3374
  384MPD2    C4 5741   1.530   3.614  11.779  0.5810  0.3616  0.2389
  384MPD2    C5 5742   1.469   3.735  11.785  0.1930  0.0464 -0.4935
  384MPD2     H 5743   1.464   3.510  12.088  0.9420 -2.4153 -1.7412
  384MPD2    H1 5744   1.588   3.586  11.692  2.6051 -1.0090  2.0340
  384MPD2    H2 5745   1.366   3.881  11.894 -1.2064 -0.9287  1.0805
  384MPD2    H3 5746   1.467   3.794  11.695  1.7456  0.2849 -0.3584
  384MPD2     N 5747   1.610   3.403  11.878 -0.6657 -0.1445 -0.1768
  384MPD2    H5 5748   1.662   3.381  11.794 -0.3190 -1.0742  0.2804
  384MPD2    N1 5749   1.342   3.734  12.122 -0.1361  0.6451 -0.8053
  384MPD2    H7 5750   1.347   3.677  12.206  0.7518 -0.8904 -1.9120
  385TMC3    C1 5751   1.732   3.230  11.963 -0.1095  0.2872 -0.3194
  385TMC3    C2 5752   1.724   3.088  11.951  0.1389 -0.6448 -0.0791
  385TMC3    C3 5753   1.765   3.012  12.060 -0.2564  0.0201 -0.6698
  385TMC3    C4 5754   1.803   3.281  12.068  0.4218 -0.4438  0.2269
  385TMC3    C5 5755   1.832   3.196  12.174  0.4222  0.4293 -0.5045
  385TMC3    C6 5756   1.808   3.064  12.176 -0.1452  0.1597  0.6939
  385TMC3     C 5757   1.614   3.304  11.965 -0.1882 -0.8212  0.0983
  385TMC3     O 5758   1.549   3.289  12.071  0.5632 -0.2308  0.7290
  385TMC3     H 5759   1.678   3.050  11.860  2.1332 -1.8740 -0.5641
  385TMC3    H1 5760   1.792   3.386  12.094 -0.9177 -0.3912 -0.5853
  385TMC3    H2 5761   1.835   3.002  12.260  2.8373 -0.3918 -0.6690
  385TMC3    C7 5762   1.771   3.249  12.288  0.2805  0.6367 -0.0979
  385TMC3    C8 5763   1.726   2.872  12.068  0.2434 -0.1180  0.5215
  385TMC3    O1 5764   1.782   3.371  12.309 -0.0597 -0.8114  0.4664
  385TMC3    O2 5765   1.733   2.820  12.182 -0.2535  0.4783  0.0165
  386TMC3    C1 5766   2.160   0.888  12.072  0.8613  0.0095  1.0340
  386TMC3    C2 5767   2.129   0.830  11.948  0.0349 -0.4593  0.0130
  386TMC3    C3 5768   2.008   0.864  11.897  0.4244 -0.6258  0.1352
  386TMC3    C4 5769   2.091   0.992  12.131  0.7530  0.0362 -0.4522
  386TMC3    C5 5770   1.977   1.032  12.070 -0.0428 -0.0773  0.1201
  386TMC3    C6 5771   1.933   0.969  11.951 -0.4088 -0.1639  0.3532
  386TMC3     C 5772   2.268   0.843  12.155 -0.1225  1.7425 -0.2921
  386TMC3     O 5773   2.291   0.905  12.258 -0.6915 -0.3293 -0.0895
  386TMC3     H 5774   2.189   0.756  11.895  2.5585  1.1588  0.6256
  386TMC3    H1 5775   2.108   1.022  12.233  0.0907 -0.2746 -0.2522
  386TMC3    H2 5776   1.830   0.981  11.920 -0.3632 -0.4624  0.0880
  386TMC3    C7 5777   1.876   1.118  12.136 -0.1575  0.6414  0.6863
  386TMC3    C8 5778   1.965   0.813  11.770 -0.4596  0.7307 -0.3316
  386TMC3    O1 5779   1.885   1.137  12.255 -0.6485  0.3032 -0.0928
  386TMC3    O2 5780   1.876   0.872  11.709  0.1827 -0.1712  0.0831
  387MPD2     C 5781   4.057   1.118   9.819 -0.1386 -0.1508  0.1967
  387MPD2    C1 5782   4.190   1.093   9.849 -0.8437  0.3961  0.4195
  387MPD2    C2 5783   4.236   0.962   9.850  0.6094  0.0448  0.2090
  387MPD2    C3 5784   4.144   0.862   9.816 -0.0062  0.0956 -0.7385
  387MPD2    C4 5785   4.012   0.891   9.794  0.4915 -0.1807 -0.7727
  387MPD2    C5 5786   3.972   1.017   9.806  0.3536 -1.2833 -0.1541
  387MPD2     H 5787   4.338   0.928   9.863  0.1299 -0.8622  1.6760
  387MPD2    H1 5788   3.945   0.808   9.777  0.0642 -0.0020  0.0401
  387MPD2    H2 5789   4.019   1.219   9.828  2.0995  0.7387 -0.5330
  387MPD2    H3 5790   3.870   1.051   9.793 -0.0746 -2.5757 -0.1861
  387MPD2     N 5791   4.185   0.723   9.825 -0.6265 -0.2386  0.0597
  387MPD2    H5 5792   4.276   0.707   9.867  0.7577  1.1230 -2.3717
  387MPD2    N1 5793   4.284   1.201   9.865  0.3056  0.4111  0.3222
  387MPD2    H7 5794   4.249   1.296   9.872 -1.2270 -0.1492  0.2811
  388TMC3    C1 5795   4.495   1.296   9.913 -0.0744 -0.4489 -0.1590
  388TMC3    C2 5796   4.432   1.348  10.029 -0.3839  0.7386 -0.3941
  388TMC3    C3 5797   4.515   1.358  10.138  0.0316  0.1106 -0.1942
  388TMC3    C4 5798   4.625   1.253   9.912 -0.4019 -0.1427 -0.5271
  388TMC3    C5 5799   4.699   1.266  10.025  0.3779 -0.3797 -0.0773
  388TMC3    C6 5800   4.650   1.312  10.139  0.0941 -0.6251  0.6462
  388TMC3     C 5801   4.424   1.184   9.866  0.5833 -0.7280 -0.6045
  388TMC3     O 5802   4.493   1.093   9.819 -0.1227  0.6850 -0.4441
  388TMC3     H 5803   4.331   1.384  10.038 -0.9263 -0.5936 -1.1613
  388TMC3    H1 5804   4.676   1.220   9.822  0.1674 -2.8333  0.7737
  388TMC3    H2 5805   4.721   1.325  10.220 -2.5926  1.7914  2.5786
  388TMC3    C7 5806   0.057   1.146  10.047  0.1017 -1.1891 -0.0997
  388TMC3    C8 5807   4.463   1.409  10.267 -0.3098  0.4575 -0.6055
  388TMC3    O1 5808   0.132   1.151  10.145 -0.4029  0.2250  0.2067
  388TMC3    O2 5809   4.365   1.485  10.257 -0.6109  0.9964  0.3455
  389MPD2     C 5810   3.753   3.879  11.620 -0.4297 -0.5954  0.0925
  389MPD2    C1 5811   3.740   3.748  11.578  0.2407  0.0242  0.2277
  389MPD2    C2 5812   3.665   3.653  11.649  0.2527 -0.5601 -0.7656
  389MPD2    C3 5813   3.589   3.690  11.753  0.4619  0.6015  0.1798
  389MPD2    C4 5814   3.619   3.819  11.805  0.1800  0.1618  0.1175
  389MPD2    C5 5815   3.691   3.913  11.737  0.2891  0.0751 -0.2216
  389MPD2     H 5816   3.644   3.554  11.611 -0.4638 -1.2083  1.3192
  389MPD2    H1 5817   3.583   3.857  11.901  2.0591  1.2873  0.3890
  389MPD2    H2 5818   3.807   3.946  11.553 -0.8302  0.3892  0.7581
  389MPD2    H3 5819   3.721   4.007  11.781 -0.8205  0.7562 -0.9143
  389MPD2     N 5820   3.504   3.599  11.822 -0.0445  0.3246  0.3946
  389MPD2    H5 5821   3.452   3.638  11.900  1.7381  0.4305  1.5426
  389MPD2    N1 5822   3.804   3.713  11.457 -0.1886 -0.3022 -0.1683
  389MPD2    H7 5823   3.871   3.778  11.417 -1.5764  1.7451  0.8684
  390TMC3    C1 5824   3.369   3.405  11.864  0.1986  0.0894 -0.0742
  390TMC3    C2 5825   3.296   3.315  11.804  0.2431  0.3849 -0.4953
  390TMC3    C3 5826   3.170   3.288  11.847  0.6167 -0.1591  0.0189
  390TMC3    C4 5827   3.326   3.459  11.981 -0.5366 -0.4235 -0.0977
  390TMC3    C5 5828   3.198   3.429  12.021 -0.3857  0.2354 -0.8543
  390TMC3    C6 5829   3.114   3.351  11.952 -0.0373  0.0225 -0.4331
  390TMC3     C 5830   3.465   3.473  11.778  0.2720  0.3658 -0.0513
  390TMC3     O 5831   3.492   3.416  11.673 -0.2150  0.1689  0.4913
  390TMC3     H 5832   3.311   3.278  11.703 -2.3214  1.5816 -1.3199
  390TMC3    H1 5833   3.392   3.501  12.057 -0.4703  0.4997 -0.6679
  390TMC3    H2 5834   3.008   3.338  11.971  0.1906 -1.0570  0.0646
  390TMC3    C7 5835   3.150   3.506  12.137  0.6273  0.3726  0.8709
  390TMC3    C8 5836   3.106   3.177  11.782 -0.0293 -0.0158 -0.5212
  390TMC3    O1 5837   3.227   3.597  12.181  0.0285 -0.4716 -0.4526
  390TMC3    O2 5838   3.132   3.149  11.667 -0.4121  0.6084  0.1218
  391MPD2     C 5839   2.357   0.715  11.275  0.1165 -0.4984 -0.0233
  391MPD2    C1 5840   2.485   0.746  11.245 -0.1278  0.5283  1.4765
  391MPD2    C2 5841   2.552   0.677  11.145 -0.3617 -0.8769 -0.0163
  391MPD2    C3 5842   2.489   0.587  11.065  0.5578 -0.4062 -0.1166
  391MPD2    C4 5843   2.358   0.557  11.092 -0.5536 -0.2959 -0.5339
  391MPD2    C5 5844   2.295   0.617  11.198 -0.0727  0.4102 -0.7131
  391MPD2     H 5845   2.660   0.683  11.131 -0.0316  1.4085  3.5100
  391MPD2    H1 5846   2.307   0.479  11.039 -0.0825 -0.3085 -0.9691
  391MPD2    H2 5847   2.297   0.770  11.347 -0.8812 -1.3027 -0.2426
  391MPD2    H3 5848   2.189   0.597  11.207 -0.3214  2.6450  1.4695
  391MPD2     N 5849   2.562   0.556  10.951  0.6149 -0.6155 -0.2241
  391MPD2    H5 5850   2.655   0.596  10.941 -0.1538  0.8343 -1.7413
  391MPD2    N1 5851   2.550   0.836  11.328  0.2964 -0.0376 -0.1787
  391MPD2    H7 5852   2.497   0.863  11.410 -0.3227 -1.0413 -0.2587
  392TMC3    C1 5853   2.583   0.485  10.726 -0.0236  0.1876 -0.5067
  392TMC3    C2 5854   2.500   0.482  10.614 -0.6370  0.1806 -0.4245
  392TMC3    C3 5855   2.543   0.553  10.497 -0.6042 -0.2370  0.1592
  392TMC3    C4 5856   2.704   0.549  10.719  0.3729 -0.2858  0.1309
  392TMC3    C5 5857   2.749   0.602  10.601 -0.4034 -0.1300 -0.2653
  392TMC3    C6 5858   2.671   0.605  10.488 -0.4706  0.0011  0.1513
  392TMC3     C 5859   2.504   0.489  10.846  0.0981  0.4060  0.1791
  392TMC3     O 5860   2.399   0.428  10.841 -0.1312 -0.0515 -0.1681
  392TMC3     H 5861   2.398   0.446  10.622 -0.8431  0.7137 -0.6261
  392TMC3    H1 5862   2.772   0.542  10.803 -0.7991 -0.7973  1.0359
  392TMC3    H2 5863   2.704   0.655  10.397  1.6428 -0.5319  0.6152
  392TMC3    C7 5864   2.890   0.626  10.587 -0.2443  0.5156 -0.1350
  392TMC3    C8 5865   2.491   0.506  10.369 -0.6466  0.3051 -0.0171
  392TMC3    O1 5866   2.969   0.629  10.680 -0.4766 -0.7853 -0.1703
  392TMC3    O2 5867   2.503   0.573  10.265  0.0645  0.0732  0.3265
  393TMC3    C1 5868   1.621   3.067  10.866  0.1675  0.5463  0.2186
  393TMC3    C2 5869   1.501   3.061  10.942  0.4200 -0.4371  0.3156
  393TMC3    C3 5870   1.507   3.110  11.069  0.0756 -0.5146  0.4659
  393TMC3    C4 5871   1.734   3.100  10.918  0.3089 -0.5673  0.0431
  393TMC3    C5 5872   1.738   3.151  11.047 -0.6331  0.2639  0.1195
  393TMC3    C6 5873   1.624   3.157  11.126 -0.1970  0.6670 -0.1293
  393TMC3     C 5874   1.620   3.035  10.718 -0.2218  0.5797 -1.1235
  393TMC3     O 5875   1.721   3.061  10.655 -0.1558  0.1461  0.2101
  393TMC3     H 5876   1.405   3.054  10.892  1.0695 -0.8859 -0.8741
  393TMC3    H1 5877   1.832   3.092  10.873  1.0179  1.5997  1.2175
  393TMC3    H2 5878   1.627   3.210  11.220  0.1863 -0.0212  0.2446
  393TMC3    C7 5879   1.863   3.211  11.107  0.4464  0.3491 -0.1779
  393TMC3    C8 5880   1.390   3.122  11.157  0.0177  0.6094 -0.0720
  393TMC3    O1 5881   1.840   3.262  11.215 -0.2404 -0.6898  0.2894
  393TMC3    O2 5882   1.409   3.160  11.270  0.3160 -0.4062  0.2164
  394TMC3    C1 5883   3.884   3.574  11.275  0.3803  0.2994 -0.4043
  394TMC3    C2 5884   3.840   3.503  11.171  1.0430 -0.5594 -0.0735
  394TMC3    C3 5885   3.935   3.478  11.076  0.7457  0.6406 -0.2118
  394TMC3    C4 5886   4.004   3.644  11.275  0.2238 -0.6686  0.0844
  394TMC3    C5 5887   4.087   3.621  11.174  0.1649  0.2718  0.7032
  394TMC3    C6 5888   4.061   3.530  11.074 -0.3214  0.1529 -0.2443
  394TMC3     C 5889   3.796   3.592  11.391 -0.2267  0.0469  0.4552
  394TMC3     O 5890   3.707   3.505  11.398 -0.6184 -0.0954 -0.2212
  394TMC3     H 5891   3.738   3.467  11.161  0.9781 -0.4880  0.3125
  394TMC3    H1 5892   4.034   3.714  11.352 -1.5316  0.5991 -0.3743
  394TMC3    H2 5893   4.136   3.490  11.006 -0.6326  0.7932 -0.9593
  394TMC3    C7 5894   4.174   3.722  11.130  0.1233  0.6383 -0.5483
  394TMC3    C8 5895   3.869   3.483  10.946 -0.0046 -0.3088 -0.4551
  394TMC3    O1 5896   4.161   3.734  11.009 -0.5770 -0.3439  0.1808
  394TMC3    O2 5897   3.756   3.444  10.924 -0.4103 -0.0254 -0.3612
  395TMC3    C1 5898   2.420   1.240  14.436 -0.1220  0.0898 -0.4374
  395TMC3    C2 5899   2.309   1.195  14.502  0.4220 -0.4572  0.5419
  395TMC3    C3 5900   2.285   1.239  14.632  0.0933  0.2458  0.4978
  395TMC3    C4 5901   2.479   1.357  14.477 -0.3668  0.4357 -0.0139
  395TMC3    C5 5902   2.458   1.397  14.607  0.2105  0.1907  0.7948
  395TMC3    C6 5903   2.358   1.338  14.689 -0.1386  0.0701 -0.7129
  395TMC3     C 5904   2.514   1.135  14.413  0.8555 -0.4799  0.4737
  395TMC3     O 5905   2.630   1.164  14.448  0.6909 -0.0113  0.6986
  395TMC3     H 5906   2.246   1.116  14.460 -0.6232  0.4011  0.4940
  395TMC3    H1 5907   2.564   1.395  14.422 -1.5648 -0.6292 -2.6210
  395TMC3    H2 5908   2.357   1.356  14.796  0.4394 -2.1140 -0.3272
  395TMC3    C7 5909   2.581   1.426  14.677 -0.1941 -0.7017  0.5814
  395TMC3    C8 5910   2.228   1.141  14.725  0.5775  0.0431 -0.2400
  395TMC3    O1 5911   2.572   1.510  14.764 -0.1695 -0.2581  0.0842
  395TMC3    O2 5912   2.208   1.180  14.839 -0.1048 -0.0864 -0.1865
  396MPD2     C 5913   2.555   2.466  17.301 -0.0512  0.2102  0.0827
  396MPD2    C1 5914   2.681   2.416  17.291  0.9288 -0.2715  0.6870
  396MPD2    C2 5915   2.767   2.487  17.205  0.0787 -0.9030  0.8156
  396MPD2    C3 5916   2.723   2.584  17.120  0.0064 -0.8551 -0.6891
  396MPD2    C4 5917   2.592   2.622  17.133 -0.5218  0.1812  0.5765
  396MPD2    C5 5918   2.510   2.567  17.225  0.4194 -0.9659 -0.1189
  396MPD2     H 5919   2.873   2.468  17.199  0.1794  0.4565 -1.4840
  396MPD2    H1 5920   2.558   2.705  17.072  1.4255  0.0420 -0.7096
  396MPD2    H2 5921   2.489   2.424  17.375  0.1671  0.0959  0.2120
  396MPD2    H3 5922   2.411   2.609  17.239  0.8591  0.5200 -1.3605
  396MPD2     N 5923   2.820   2.647  17.041 -0.0183  0.2687  0.0209
  396MPD2    H5 5924   2.912   2.611  17.060  0.2740  2.2256  2.3431
  396MPD2    N1 5925   2.709   2.295  17.356 -0.0756  0.0939 -0.1810
  396MPD2    H7 5926   2.632   2.251  17.406  0.6890  0.0722  0.9701
  397TMC3    C1 5927   2.826   2.102  17.415  0.4818 -0.0896  0.5344
  397TMC3    C2 5928   2.735   2.030  17.341  0.9704  0.3446 -0.2193
  397TMC3    C3 5929   2.771   1.904  17.300 -0.0523  0.0693 -0.5504
  397TMC3    C4 5930   2.950   2.043  17.433  0.3553  0.1483  0.1322
  397TMC3    C5 5931   2.980   1.915  17.400  0.2838 -0.9454 -0.2137
  397TMC3    C6 5932   2.887   1.842  17.333 -0.2435  0.1742 -0.1291
  397TMC3     C 5933   2.832   2.231  17.356  0.3761 -0.1614  0.2474
  397TMC3     O 5934   2.940   2.275  17.324  0.6136  0.5191 -0.4015
  397TMC3     H 5935   2.632   2.060  17.323  0.3895 -2.0711 -0.9438
  397TMC3    H1 5936   3.030   2.109  17.465 -0.1833  0.1841  1.4071
  397TMC3    H2 5937   2.911   1.736  17.325 -1.8003 -0.1948  0.0643
  397TMC3    C7 5938   3.070   1.847  17.488  0.3219 -0.3308  0.5925
  397TMC3    C8 5939   2.745   1.896  17.160  0.4192  0.1681 -0.3728
  397TMC3    O1 5940   3.108   1.736  17.449 -0.1158 -0.1871  0.1288
  397TMC3    O2 5941   2.683   1.992  17.119  0.0824 -0.3808 -0.1058
  398MPD2     C 5942   0.716   3.422   0.057 -0.1234  0.6014  0.0166
  398MPD2    C1 5943   0.843   3.360   0.065  0.3483  0.0763  0.0776
  398MPD2    C2 5944   0.951   3.447   0.074  0.4726 -0.0451  0.0450
  398MPD2    C3 5945   0.938   3.583   0.074 -0.3891 -0.3832 -0.0947
  398MPD2    C4 5946   0.813   3.639   0.061 -0.1337 -0.0436  0.8605
  398MPD2    C5 5947   0.702   3.559   0.058  0.6028  0.3265  0.2714
  398MPD2     H 5948   1.045   3.399   0.099  2.6368  3.1380 -2.0671
  398MPD2    H1 5949   0.789   3.744   0.065 -1.2615 -0.2101 -1.7562
  398MPD2    H2 5950   0.626   3.363   0.068 -0.1212  0.2206 -1.9691
  398MPD2    H3 5951   0.604   3.604   0.046  1.5781  1.5768 -2.9739
  398MPD2     N 5952   1.056   3.664   0.100 -0.5959 -0.3625  0.1223
  398MPD2    H5 5953   1.144   3.614   0.109 -0.9282 -0.7961  0.8773
  398MPD2    N1 5954   0.865   3.222   0.091 -0.2779  0.1074 -0.5466
  398MPD2    H7 5955   0.951   3.180   0.123 -1.5595 -1.8274  0.3879
  399TMC3    C1 5956   0.807   3.002   0.096  0.0995  0.4668  0.3182
  399TMC3    C2 5957   0.935   2.959   0.101 -0.4528 -0.2698 -0.6548
  399TMC3    C3 5958   0.949   2.847   0.182 -0.2926 -0.0330 -0.2333
  399TMC3    C4 5959   0.713   2.936   0.164 -0.0199  0.0885  0.2987
  399TMC3    C5 5960   0.730   2.829   0.246 -0.2256 -0.2114  0.1173
  399TMC3    C6 5961   0.854   2.794   0.266 -0.3031  0.0537  0.0440
  399TMC3     C 5962   0.770   3.132   0.064  0.6832  0.0745  0.4300
  399TMC3     O 5963   0.660   3.141   0.015  0.6142 -0.2013  0.0573
  399TMC3     H 5964   1.013   2.989   0.031  1.1257 -0.1165  1.1588
  399TMC3    H1 5965   0.611   2.972   0.156 -0.3757 -0.4459  2.4256
  399TMC3    H2 5966   0.877   2.705   0.323 -2.0538  0.1370  0.8703
  399TMC3    C7 5967   0.622   2.768   0.325  0.4188  0.2030  0.1793
  399TMC3    C8 5968   1.063   2.764   0.146 -0.0684 -0.0967  0.2089
  399TMC3    O1 5969   0.653   2.682   0.407 -0.1989  0.1483 -0.7189
  399TMC3    O2 5970   1.163   2.816   0.094  0.3522 -0.0902 -0.3162
  400TMC3    C1 5971   4.053   1.534  16.578  0.3989  0.4846  0.2496
  400TMC3    C2 5972   3.929   1.467  16.584 -0.7352 -0.3470  0.1709
  400TMC3    C3 5973   3.818   1.546  16.546  0.6640  0.2940  0.2697
  400TMC3    C4 5974   4.072   1.665  16.528  0.6469 -0.1507 -0.2223
  400TMC3    C5 5975   3.959   1.733  16.496  0.0733 -1.0478 -0.4763
  400TMC3    C6 5976   3.832   1.677  16.506  0.2753  0.4247 -0.3390
  400TMC3     C 5977   4.152   1.462  16.659 -0.0948 -0.5539  0.6469
  400TMC3     O 5978   4.118   1.363  16.718  0.5317  0.0382  0.1569
  400TMC3     H 5979   3.919   1.363  16.613 -0.0202 -0.1473  1.1004
  400TMC3    H1 5980   4.170   1.709  16.510  0.8664 -0.4095  0.3319
  400TMC3    H2 5981   3.755   1.739  16.461  1.0870  0.6999 -1.3431
  400TMC3    C7 5982   3.983   1.878  16.476  0.7599  0.1649 -0.0322
  400TMC3    C8 5983   3.687   1.496  16.580 -0.0677 -0.2254  0.0140
  400TMC3    O1 5984   4.081   1.907  16.407  0.2316  0.1560  0.5948
  400TMC3    O2 5985   3.586   1.498  16.507  0.5037  0.4854  0.4335
  401MPD2     C 5986   2.598   1.096   0.512 -0.0974  0.5816 -0.4544
  401MPD2    C1 5987   2.625   1.029   0.633  0.1526  0.5753 -0.4729
  401MPD2    C2 5988   2.623   0.897   0.629 -0.0981 -0.0608 -0.4618
  401MPD2    C3 5989   2.579   0.826   0.519 -0.5992  0.0161  0.0721
  401MPD2    C4 5990   2.540   0.894   0.400  0.5993 -1.0948 -0.2207
  401MPD2    C5 5991   2.548   1.032   0.397 -0.3421 -1.2706  0.2145
  401MPD2     H 5992   2.659   0.848   0.719  0.6875 -1.2600 -1.4325
  401MPD2    H1 5993   2.513   0.842   0.308 -0.0233 -2.6241  0.8231
  401MPD2    H2 5994   2.611   1.204   0.507 -0.8301  0.8487  3.2283
  401MPD2    H3 5995   2.518   1.086   0.308  0.5235 -2.5066 -0.8353
  401MPD2     N 5996   2.599   0.684   0.511  0.3769 -0.5844  0.3722
  401MPD2    H5 5997   2.594   0.640   0.420 -0.5280 -1.2125  0.7198
  401MPD2    N1 5998   2.660   1.086   0.760  0.3906  0.6333  0.5784
  401MPD2    H7 5999   2.679   1.026   0.839  1.4222  1.7180  1.1470
  402TMC3    C1 6000   2.627   0.467   0.596 -0.2235  0.0721 -0.4381
  402TMC3    C2 6001   2.589   0.372   0.688  0.8727  0.6927 -0.1535
  402TMC3    C3 6002   2.650   0.252   0.680 -0.1481  0.2015  0.2536
  402TMC3    C4 6003   2.716   0.436   0.493  0.2983  0.8289  0.0487
  402TMC3    C5 6004   2.777   0.308   0.494  0.5025 -0.5199  0.1134
  402TMC3    C6 6005   2.746   0.213   0.590 -0.8622  0.4774 -0.1361
  402TMC3     C 6006   2.604   0.605   0.625 -0.1930 -0.1574  0.5208
  402TMC3     O 6007   2.588   0.622   0.742 -0.4476 -0.2381 -0.5755
  402TMC3     H 6008   2.510   0.394   0.758 -0.1285 -1.6947 -0.5359
  402TMC3    H1 6009   2.748   0.503   0.414 -1.2742  1.1512 -0.3256
  402TMC3    H2 6010   2.782   0.112   0.582  2.8482  1.8869 -1.4119
  402TMC3    C7 6011   2.892   0.294   0.418 -0.3638  0.5754 -0.0772
  402TMC3    C8 6012   2.673   0.184   0.809  0.2757  0.0458  0.2502
  402TMC3    O1 6013   2.911   0.372   0.328  0.1844 -0.3140  0.1033
  402TMC3    O2 6014   2.741   0.085   0.804  0.5581  0.2865  0.1767
  403MPD2     C 6015   1.184   3.214  13.074  0.0523 -0.2060  0.0841
  403MPD2    C1 6016   1.098   3.244  13.177 -0.2935  0.3920 -0.3704
  403MPD2    C2 6017   1.158   3.289  13.300 -0.0977 -0.9602  0.2852
  403MPD2    C3 6018   1.293   3.311  13.305 -0.3530 -0.2234 -0.7305
  403MPD2    C4 6019   1.382   3.269  13.204  0.1628  0.0566  0.3255
  403MPD2    C5 6020   1.320   3.214  13.092 -0.2083 -0.1920 -0.7678
  403MPD2     H 6021   1.098   3.316  13.386  1.3774 -0.4584  1.1523
  403MPD2    H1 6022   1.489   3.283  13.216 -0.0238  0.8182  1.1377
  403MPD2    H2 6023   1.152   3.177  12.977  2.1893 -1.4910 -0.1432
  403MPD2    H3 6024   1.380   3.173  13.012 -1.5385 -1.8228 -0.9341
  403MPD2     N 6025   1.345   3.366  13.425 -0.4258  0.3116 -0.3071
  403MPD2    H5 6026   1.274   3.404  13.487  0.6156  1.0142  0.4426
  403MPD2    N1 6027   0.962   3.210  13.154  0.1298 -0.3310 -0.3863
  403MPD2    H7 6028   0.928   3.194  13.060  2.4734  0.8961 -1.4157
  404TMC3    C1 6029   0.761   3.095  13.210 -0.2944 -0.3828  0.5281
  404TMC3    C2 6030   0.699   3.022  13.312 -0.6231  0.6327  0.3648
  404TMC3    C3 6031   0.576   2.982  13.290 -0.0187 -0.0480 -0.3490
  404TMC3    C4 6032   0.690   3.128  13.098  0.2153  0.2744 -0.5278
  404TMC3    C5 6033   0.556   3.098  13.096  0.1564  0.8905 -0.3284
  404TMC3    C6 6034   0.495   3.020  13.191  0.8483  0.1779  0.5676
  404TMC3     C 6035   0.882   3.175  13.257  0.3518 -0.0539 -0.0321
  404TMC3     O 6036   0.921   3.159  13.372  0.1347 -0.1827  0.0676
  404TMC3     H 6037   0.765   2.994  13.393  0.0918  0.9535 -0.1131
  404TMC3    H1 6038   0.738   3.201  13.033  0.8546  0.1366 -0.2093
  404TMC3    H2 6039   0.396   2.978  13.200  0.5174  0.4448 -2.0242
  404TMC3    C7 6040   0.488   3.146  12.980  0.6064  0.0622  0.1809
  404TMC3    C8 6041   0.538   2.887  13.395  0.0270 -0.4412  0.1009
  404TMC3    O1 6042   0.529   3.253  12.939 -0.5716  0.3261  0.0397
  404TMC3    O2 6043   0.463   2.802  13.357  0.8056 -0.7213  0.7185
  405MPD2     C 6044   1.327   4.148  14.653  0.6515 -0.3929 -0.5998
  405MPD2    C1 6045   1.349   4.034  14.583 -0.1758 -0.0176  0.7329
  405MPD2    C2 6046   1.283   4.021  14.463  0.1503 -0.7189 -0.1932
  405MPD2    C3 6047   1.182   4.104  14.422 -0.3957  0.1238  0.4771
  405MPD2    C4 6048   1.156   4.212  14.493 -0.0236  0.2872  0.7119
  405MPD2    C5 6049   1.229   4.235  14.609  0.5439 -0.8306  0.1890
  405MPD2     H 6050   1.301   3.939  14.395  0.7444 -0.2265 -0.6224
  405MPD2    H1 6051   1.065   4.266  14.469 -1.0308  0.3951  4.8927
  405MPD2    H2 6052   1.373   4.171  14.748 -0.8328  1.6437 -0.3807
  405MPD2    H3 6053   1.194   4.317  14.671 -0.2652 -1.2530  0.2802
  405MPD2     N 6054   1.106   4.054  14.309  0.1224 -0.0168 -0.4350
  405MPD2    H5 6055   1.139   3.967  14.268  0.5051  0.6780 -1.5932
  405MPD2    N1 6056   1.437   3.935  14.625  0.8947 -0.1793 -0.0462
  405MPD2    H7 6057   1.476   3.952  14.718 -0.1351 -0.3604  0.4218
  406TMC3    C1 6058   0.722   3.936  14.101  0.6193 -1.1180 -0.4358
  406TMC3    C2 6059   0.774   3.836  14.021 -0.2681  0.0423  0.0829
  406TMC3    C3 6060   0.910   3.826  14.023  0.1667  0.3994 -0.2771
  406TMC3    C4 6061   0.794   4.029  14.164 -0.6965  0.5383  0.7427
  406TMC3    C5 6062   0.930   4.023  14.155 -0.4849 -0.1562  0.4890
  406TMC3    C6 6063   0.987   3.913  14.102  0.2290 -0.2317 -0.3800
  406TMC3     C 6064   0.579   3.947  14.116  0.3052  0.3161 -0.1334
  406TMC3     O 6065   0.513   3.901  14.025  0.0718 -0.0245 -0.0091
  406TMC3     H 6066   0.718   3.749  13.990 -0.3533  0.3376 -0.5987
  406TMC3    H1 6067   0.754   4.108  14.226 -0.8288 -0.0081  1.3583
  406TMC3    H2 6068   1.090   3.885  14.113 -0.3455 -2.1177  0.0725
  406TMC3    C7 6069   0.992   4.111  14.257  0.0366 -0.5281  0.4552
  406TMC3    C8 6070   0.966   3.698  14.010 -1.1034  0.2761  0.0803
  406TMC3    O1 6071   0.940   4.221  14.275 -0.2179 -0.2234 -0.8342
  406TMC3    O2 6072   0.953   3.644  13.900  0.1191 -0.0054  0.3556
  407MPD2     C 6073   3.559   0.215   9.536 -0.4695 -0.9422 -0.3351
  407MPD2    C1 6074   3.677   0.198   9.614  0.4484 -0.2908 -0.2736
  407MPD2    C2 6075   3.689   0.280   9.719 -0.6840 -0.8157 -0.2518
  407MPD2    C3 6076   3.586   0.362   9.757 -0.4628 -0.5864 -0.5692
  407MPD2    C4 6077   3.468   0.373   9.681  0.2090 -0.1460 -0.0345
  407MPD2    C5 6078   3.463   0.302   9.565  0.4597 -1.2834  0.2753
  407MPD2     H 6079   3.779   0.284   9.779 -1.2717  0.2365  0.5642
  407MPD2    H1 6080   3.390   0.443   9.707  0.3431 -0.2224  0.5723
  407MPD2    H2 6081   3.550   0.156   9.445 -0.5007 -0.9266 -0.3421
  407MPD2    H3 6082   3.369   0.293   9.512 -0.2547  1.7525  0.9977
  407MPD2     N 6083   3.604   0.462   9.852  0.3704  0.1552 -0.1305
  407MPD2    H5 6084   3.536   0.538   9.854 -0.5476 -0.6781  0.9964
  407MPD2    N1 6085   3.789   0.117   9.567 -0.0333 -0.3100  0.2722
  407MPD2    H7 6086   3.863   0.115   9.636  0.2812  2.0778  0.0022
  408TMC3    C1 6087   3.949   0.021   9.416  0.3045 -0.3002 -0.3357
  408TMC3    C2 6088   4.041   0.083   9.501  0.4670  0.2001 -0.9771
  408TMC3    C3 6089   4.168   0.090   9.455 -0.2628 -0.5080  0.1036
  408TMC3    C4 6090   3.980   4.706   9.290  0.6167 -0.3101  0.1494
  408TMC3    C5 6091   4.109   4.709   9.256  0.2799 -1.4167  0.0147
  408TMC3    C6 6092   4.203   0.027   9.342  1.4556 -0.8223  0.6665
  408TMC3     C 6093   3.810   0.055   9.439  0.3710 -0.1394 -0.8629
  408TMC3     O 6094   3.736   0.062   9.343 -0.4482  0.4916 -0.0327
  408TMC3     H 6095   4.026   0.112   9.604  0.2771  0.9054 -1.2043
  408TMC3    H1 6096   3.898   4.680   9.223 -0.2880  0.1428  1.0760
  408TMC3    H2 6097   4.308   0.021   9.313  1.3718  0.7987  0.0388
  408TMC3    C7 6098   4.157   4.624   9.147 -0.1983  0.2037  0.1118
  408TMC3    C8 6099   4.275   0.132   9.541  0.1452  0.1019 -0.7734
  408TMC3    O1 6100   4.277   4.598   9.143 -0.2596  0.4162  0.5501
  408TMC3    O2 6101   4.250   0.140   9.661 -0.1007 -0.3952 -0.0878
  409MPD2     C 6102   3.066   1.124  17.005  0.1481 -0.3479 -0.9715
  409MPD2    C1 6103   3.125   1.210  17.086  0.2626  0.2010 -0.0223
  409MPD2    C2 6104   3.185   1.314  17.021  0.2956  0.0944 -0.0439
  409MPD2    C3 6105   3.169   1.344  16.884 -0.4682  0.4765  0.4851
  409MPD2    C4 6106   3.099   1.252  16.806  0.1834 -0.0601  0.7979
  409MPD2    C5 6107   3.052   1.135  16.871 -0.1246  0.4303  0.2697
  409MPD2     H 6108   3.269   1.362  17.069  0.7537 -0.0393 -0.7273
  409MPD2    H1 6109   3.086   1.266  16.700  0.1125 -1.3386  0.6402
  409MPD2    H2 6110   3.013   1.039  17.046  2.0757 -1.0690 -0.0250
  409MPD2    H3 6111   2.987   1.066  16.818 -0.2916  0.6235  0.2241
  409MPD2     N 6112   3.233   1.455  16.823  0.5710  0.4134  0.0431
  409MPD2    H5 6113   3.247   1.460  16.723  1.7529 -0.2492  0.1840
  409MPD2    N1 6114   3.157   1.174  17.218 -0.1124  0.3979 -0.6765
  409MPD2    H7 6115   3.135   1.083  17.257 -0.2023 -1.4815 -5.1770
  410TMC3    C1 6116   3.360   1.646  16.819  0.2560 -0.3958 -0.0839
  410TMC3    C2 6117   3.454   1.718  16.877 -0.2255  0.0693  0.4361
  410TMC3    C3 6118   3.551   1.778  16.798  0.2875 -0.3785 -0.2398
  410TMC3    C4 6119   3.333   1.664  16.687  0.5642  0.1643 -0.6252
  410TMC3    C5 6120   3.421   1.729  16.611  0.4229 -0.6404  0.7330
  410TMC3    C6 6121   3.536   1.787  16.662  0.0271  0.3218 -0.2067
  410TMC3     C 6122   3.290   1.556  16.897  0.0783  0.3179 -0.3514
  410TMC3     O 6123   3.275   1.578  17.021  0.3327  0.5404  0.3698
  410TMC3     H 6124   3.479   1.701  16.981 -3.0721 -0.6111  1.0059
  410TMC3    H1 6125   3.242   1.628  16.639  1.2395  0.0902 -1.8432
  410TMC3    H2 6126   3.618   1.819  16.598 -0.6408  2.2790 -0.1087
  410TMC3    C7 6127   3.395   1.742  16.471 -0.3765  0.7193 -0.2596
  410TMC3    C8 6128   3.686   1.784  16.844  0.3325  0.2724 -0.7932
  410TMC3    O1 6129   3.318   1.655  16.430  0.1325 -0.1578  0.6445
  410TMC3    O2 6130   3.759   1.860  16.779  0.2910 -0.3668  0.6543
  411MPD2     C 6131   3.469   1.945  14.807 -0.2286 -0.0067  0.2851
  411MPD2    C1 6132   3.343   2.010  14.787 -0.1406 -1.0576  0.4195
  411MPD2    C2 6133   3.230   1.937  14.760 -0.5650 -0.1244  0.0766
  411MPD2    C3 6134   3.246   1.800  14.738  0.3970 -0.2718  0.3473
  411MPD2    C4 6135   3.368   1.739  14.751  0.5407  0.1765  0.2252
  411MPD2    C5 6136   3.475   1.808  14.789 -0.2171 -0.0670  0.0406
  411MPD2     H 6137   3.138   1.989  14.735 -0.2630  0.3938  0.0336
  411MPD2    H1 6138   3.378   1.631  14.740 -0.1097  0.3143 -1.7578
  411MPD2    H2 6139   3.562   1.993  14.835 -0.8495  0.8082  0.9426
  411MPD2    H3 6140   3.569   1.755  14.797  0.6773  1.5794  0.3197
  411MPD2     N 6141   3.147   1.722  14.679  0.5969 -0.5322 -0.0781
  411MPD2    H5 6142   3.173   1.631  14.641 -0.4086 -1.1064  0.6167
  411MPD2    N1 6143   3.340   2.145  14.800  0.9383  0.2494 -0.0375
  411MPD2    H7 6144   3.426   2.197  14.814  0.4129  0.8630  0.9106
  412TMC3    C1 6145   2.934   1.679  14.570  0.7819 -0.5007 -0.9850
  412TMC3    C2 6146   2.798   1.711  14.572 -0.3075  1.2382 -0.5951
  412TMC3    C3 6147   2.725   1.672  14.465 -0.5827 -0.2769  0.4940
  412TMC3    C4 6148   2.991   1.620  14.461  0.2190 -0.1031 -0.1479
  412TMC3    C5 6149   2.916   1.602  14.350  0.2337  1.0531  0.4874
  412TMC3    C6 6150   2.779   1.607  14.359 -0.1279 -0.2280 -0.1229
  412TMC3     C 6151   3.016   1.756  14.668  0.6930  0.1299  0.5243
  412TMC3     O 6152   2.960   1.847  14.728 -0.4171 -0.7932 -0.1130
  412TMC3     H 6153   2.744   1.782  14.632 -0.7420 -1.3476  2.0618
  412TMC3    H1 6154   3.098   1.614  14.445  0.2313  1.3861 -0.6369
  412TMC3    H2 6155   2.715   1.577  14.276 -1.0687 -0.6332  0.7561
  412TMC3    C7 6156   2.953   1.696  14.242  0.4478  0.3762  0.1736
  412TMC3    C8 6157   2.617   1.763  14.438  0.0908  0.3539  0.1285
  412TMC3    O1 6158   2.861   1.760  14.193  0.5398 -0.4209 -0.5260
  412TMC3    O2 6159   2.537   1.788  14.526 -0.4561 -0.2850  0.6994
  413MPD2     C 6160   0.497   0.881  15.121 -0.0301  0.2607 -0.2205
  413MPD2    C1 6161   0.433   0.770  15.072  0.5229  0.0894 -0.3462
  413MPD2    C2 6162   0.498   0.652  15.055  0.3191 -0.1357 -0.2881
  413MPD2    C3 6163   0.641   0.644  15.073 -0.0086  0.3095 -0.7761
  413MPD2    C4 6164   0.707   0.752  15.124 -0.3116 -0.2820  0.4878
  413MPD2    C5 6165   0.634   0.866  15.145 -1.5914  0.0836 -0.0581
  413MPD2     H 6166   0.446   0.564  15.017 -0.7746 -0.2697  1.5566
  413MPD2    H1 6167   0.814   0.757  15.142 -0.3591 -0.4229  0.7966
  413MPD2    H2 6168   0.449   0.977  15.133 -1.4390 -0.3174 -1.1752
  413MPD2    H3 6169   0.685   0.944  15.201 -1.5550  0.4699 -0.6360
  413MPD2     N 6170   0.713   0.537  15.013 -0.2199 -0.0357 -0.1022
  413MPD2    H5 6171   0.658   0.472  14.958  0.9158  1.4565 -3.0354
  413MPD2    N1 6172   0.297   0.786  15.061 -0.5904  0.0538  0.2971
  413MPD2    H7 6173   0.259   0.877  15.085  3.8996  2.0631 -0.1261
  414TMC3    C1 6174   0.869   0.382  14.973 -0.2581 -0.4574  0.0062
  414TMC3    C2 6175   0.935   0.292  15.047  0.6498 -0.6289 -0.6685
  414TMC3    C3 6176   0.934   0.167  14.991 -0.6566 -0.2534 -0.3735
  414TMC3    C4 6177   0.805   0.359  14.852 -0.0638  0.2001  1.0738
  414TMC3    C5 6178   0.824   0.233  14.803  0.1754 -0.2626  0.8359
  414TMC3    C6 6179   0.876   0.134  14.872  0.0995 -0.4660  0.3257
  414TMC3     C 6180   0.840   0.506  15.040 -0.3152 -0.6637 -0.6568
  414TMC3     O 6181   0.917   0.546  15.129  0.5324  0.3456 -0.2143
  414TMC3     H 6182   0.973   0.321  15.144  0.7027 -0.2730 -0.7980
  414TMC3    H1 6183   0.772   0.440  14.787  0.2028 -2.0320 -1.8387
  414TMC3    H2 6184   0.892   0.036  14.830  0.0170 -0.0010 -0.8072
  414TMC3    C7 6185   0.778   0.215  14.665 -0.4370 -0.0307  0.1714
  414TMC3    C8 6186   1.005   0.060  15.051  0.2473 -0.1043 -0.2278
  414TMC3    O1 6187   0.678   0.273  14.649 -0.3973 -0.2637  0.4383
  414TMC3    O2 6188   0.979   4.672  15.022  0.6659  0.0445  0.7081
  415TMC3    C1 6189   0.633   2.877   9.825 -0.0088  0.2033  0.0636
  415TMC3    C2 6190   0.705   2.917   9.711  0.2465 -0.1999  0.2099
  415TMC3    C3 6191   0.635   2.933   9.597 -0.5842  0.2190 -0.2139
  415TMC3    C4 6192   0.500   2.859   9.817  0.1825  0.1745  0.5994
  415TMC3    C5 6193   0.429   2.877   9.706 -0.0976 -0.3026 -0.0624
  415TMC3    C6 6194   0.504   2.908   9.597 -0.0916 -0.2982 -0.1243
  415TMC3     C 6195   0.706   2.817   9.932  0.4327 -0.1868 -0.0564
  415TMC3     O 6196   0.666   2.713   9.979  0.5368 -0.9964 -0.2766
  415TMC3     H 6197   0.810   2.941   9.725  0.2810 -0.5429  0.5464
  415TMC3    H1 6198   0.453   2.816   9.905 -0.9990 -1.2249 -0.7271
  415TMC3    H2 6199   0.450   2.893   9.504 -2.2031  2.3860  0.6735
  415TMC3    C7 6200   0.315   2.794   9.686  0.5234  0.0669  0.8593
  415TMC3    C8 6201   0.712   2.936   9.472  0.3268  0.3366  0.2607
  415TMC3    O1 6202   0.254   2.812   9.580 -0.6137 -0.1396 -0.4503
  415TMC3    O2 6203   0.642   2.939   9.374 -0.5112 -0.4701  0.2930
  416MPD2     C 6204   3.178   1.814  11.335 -0.0677  0.0205 -0.1147
  416MPD2    C1 6205   3.068   1.811  11.248  0.0545 -0.3881  0.2731
  416MPD2    C2 6206   3.078   1.754  11.124 -0.1203  0.4736 -0.0242
  416MPD2    C3 6207   3.195   1.690  11.088 -0.3140 -0.1233  0.1777
  416MPD2    C4 6208   3.303   1.705  11.169 -0.2560  0.6133  0.0406
  416MPD2    C5 6209   3.295   1.765  11.287 -0.4489  0.4102  0.2352
  416MPD2     H 6210   3.002   1.765  11.048  0.0816 -0.4810 -0.3598
  416MPD2    H1 6211   3.388   1.640  11.151 -0.7342 -0.4183  1.5612
  416MPD2    H2 6212   3.164   1.860  11.433 -0.7162  1.2329 -0.7685
  416MPD2    H3 6213   3.382   1.762  11.352  0.5888 -0.6930 -1.2201
  416MPD2     N 6214   3.205   1.600  10.980 -0.1035  0.6598 -0.1211
  416MPD2    H5 6215   3.300   1.585  10.947 -0.3486 -0.7158 -0.2051
  416MPD2    N1 6216   2.947   1.851  11.303  0.9669  0.4093 -0.8260
  416MPD2    H7 6217   2.953   1.915  11.382 -0.9200  0.8919 -1.0598
  417TMC3    C1 6218   2.717   1.880  11.318 -0.2027 -0.3310  0.2756
  417TMC3    C2 6219   2.733   1.867  11.453 -0.3302 -1.1475 -0.5583
  417TMC3    C3 6220   2.613   1.893  11.523  0.5239 -0.0885  0.3082
  417TMC3    C4 6221   2.601   1.899  11.252  0.1242  0.0795 -0.5965
  417TMC3    C5 6222   2.495   1.932  11.326  0.2829  0.0285  0.4232
  417TMC3    C6 6223   2.501   1.942  11.463  0.1704  0.3951 -0.4045
  417TMC3     C 6224   2.826   1.837  11.239  0.6480 -0.0177  0.1719
  417TMC3     O 6225   2.799   1.792  11.127  0.4354 -0.3635  0.1114
  417TMC3     H 6226   2.814   1.814  11.501  0.5024 -0.5526 -1.3006
  417TMC3    H1 6227   2.591   1.917  11.145 -0.0396  2.5867 -0.1605
  417TMC3    H2 6228   2.417   1.969  11.527  0.9319  1.5389  0.1096
  417TMC3    C7 6229   2.392   2.020  11.255  0.5415  0.0716 -1.0031
  417TMC3    C8 6230   2.611   1.918  11.670  0.5289 -0.0551  0.2302
  417TMC3    O1 6231   2.435   2.100  11.169  0.5103 -0.1313  0.4066
  417TMC3    O2 6232   2.507   1.908  11.728  0.0255  0.2770  0.6503
  418TMC3    C1 6233   1.376   3.981   0.087 -0.8189  0.0882  0.1704
  418TMC3    C2 6234   1.241   3.962   0.077 -0.0273  0.5437  0.4979
  418TMC3    C3 6235   1.189   3.850   0.138  0.0600 -0.1125 -0.0368
  418TMC3    C4 6236   1.452   3.899   0.165  0.4120 -0.4558 -0.0981
  418TMC3    C5 6237   1.395   3.792   0.227 -0.1530  0.1794 -0.9222
  418TMC3    C6 6238   1.264   3.768   0.213 -0.5539 -0.3196 -0.0115
  418TMC3     C 6239   1.437   4.059  17.693  0.7177 -0.0445  0.3170
  418TMC3     O 6240   1.371   4.141  17.637  0.1956  0.9053 -0.2247
  418TMC3     H 6241   1.188   4.019   0.002  1.3933  0.2720 -0.7139
  418TMC3    H1 6242   1.560   3.902   0.169  0.3779  0.7794 -0.0408
  418TMC3    H2 6243   1.228   3.685   0.273 -0.5945 -2.1560 -2.5550
  418TMC3    C7 6244   1.464   3.683   0.298 -0.4670 -0.8607  0.2228
  418TMC3    C8 6245   1.060   3.798   0.109  1.4220 -0.4276 -0.0049
  418TMC3    O1 6246   1.397   3.581   0.327  0.3577 -0.2060 -0.0730
  418TMC3    O2 6247   0.975   3.883   0.089  0.1874 -0.3883  0.0663
  419MPD2     C 6248   0.255   1.340  12.195 -0.3054  0.0458 -0.3953
  419MPD2    C1 6249   0.127   1.394  12.210  0.1310 -0.1150 -0.0324
  419MPD2    C2 6250   0.074   1.401  12.339 -0.5668 -0.2258  0.4532
  419MPD2    C3 6251   0.159   1.369  12.449 -0.2446  1.1592 -0.5142
  419MPD2    C4 6252   0.287   1.312  12.437 -0.6127 -0.4459 -0.0464
  419MPD2    C5 6253   0.331   1.300  12.307 -0.5842  0.2482  0.2269
  419MPD2     H 6254   4.701   1.438  12.350 -1.0948 -1.3657 -0.6009
  419MPD2    H1 6255   0.346   1.281  12.522  0.2352  2.0415  0.2764
  419MPD2    H2 6256   0.293   1.321  12.095  1.2047  0.3118  0.1303
  419MPD2    H3 6257   0.426   1.252  12.284  0.4185  1.5857  1.6586
  419MPD2     N 6258   0.098   1.401  12.571 -0.2918 -0.0818 -0.0064
  419MPD2    H5 6259   0.007   1.444  12.559 -1.4429 -2.1813  1.2003
  419MPD2    N1 6260   0.046   1.436  12.104 -0.1575 -0.4707  0.0327
  419MPD2    H7 6261   4.684   1.466  12.139 -0.7683  0.6766 -2.4923
  420TMC3    C1 6262   0.050   1.435  12.800 -0.3711  0.7826 -0.2926
  420TMC3    C2 6263   4.647   1.442  12.774 -0.9738  0.3802 -0.3214
  420TMC3    C3 6264   4.571   1.535  12.839 -0.2574 -0.7777  0.4107
  420TMC3    C4 6265   0.111   1.528  12.880 -0.2737  0.1105 -0.2370
  420TMC3    C5 6266   0.031   1.623  12.934 -0.4778 -0.2016  0.6366
  420TMC3    C6 6267   4.622   1.636  12.913  0.0099 -0.3102  0.1678
  420TMC3     C 6268   0.138   1.378  12.695  0.5340 -0.3282  0.2687
  420TMC3     O 6269   0.239   1.328  12.740  0.1706 -0.2189 -0.2394
  420TMC3     H 6270   4.606   1.374  12.701  0.6766 -1.2323  0.2370
  420TMC3    H1 6271   0.212   1.500  12.905 -0.0396  1.3969  0.2631
  420TMC3    H2 6272   4.556   1.701  12.971 -0.3628 -0.1768 -0.4114
  420TMC3    C7 6273   0.089   1.693  13.051  0.2313  0.1186 -0.6281
  420TMC3    C8 6274   4.443   1.563  12.781  0.0359  0.5116  0.1239
  420TMC3    O1 6275   0.187   1.650  13.112  0.1607 -0.4464  0.4814
  420TMC3    O2 6276   4.392   1.468  12.725  0.6186  0.2696  0.0158
  421TMC3    C1 6277   1.474   3.432  13.598  0.0358  0.0174 -0.2492
  421TMC3    C2 6278   1.383   3.532  13.615 -0.1898  0.1852  0.1906
  421TMC3    C3 6279   1.372   3.590  13.739  0.4029  0.7518  0.0134
  421TMC3    C4 6280   1.553   3.389  13.701 -0.9365 -0.1805 -0.8826
  421TMC3    C5 6281   1.526   3.438  13.823 -0.0387 -0.5072 -0.4953
  421TMC3    C6 6282   1.444   3.541  13.845 -0.5032 -0.6457  0.5019
  421TMC3     C 6283   1.474   3.356  13.479 -0.2643  0.2373  0.2116
  421TMC3     O 6284   1.559   3.271  13.466 -0.0184  0.1618  0.3276
  421TMC3     H 6285   1.328   3.574  13.532 -1.0306  2.6469  1.9927
  421TMC3    H1 6286   1.644   3.332  13.691 -0.6700 -0.0385  0.7940
  421TMC3    H2 6287   1.412   3.574  13.944  0.9537 -2.3822  1.5568
  421TMC3    C7 6288   1.583   3.377  13.933 -0.2344 -0.0200  0.9174
  421TMC3    C8 6289   1.286   3.705  13.751  0.7033  0.7334 -0.7111
  421TMC3    O1 6290   1.625   3.450  14.023  0.4481 -0.4813  0.2162
  421TMC3    O2 6291   1.182   3.717  13.686  0.5662  0.5749 -0.5215
  422TMC3    C1 6292   3.907   0.262  12.779  0.0721 -0.2723  0.1305
  422TMC3    C2 6293   3.889   0.312  12.901 -0.0939  0.2535  0.3475
  422TMC3    C3 6294   3.767   0.286  12.966  1.1166  0.7342  0.1470
  422TMC3    C4 6295   3.809   0.181  12.724  0.3043  0.0948 -0.6568
  422TMC3    C5 6296   3.685   0.168  12.780 -0.0905 -0.3142  0.5513
  422TMC3    C6 6297   3.664   0.226  12.903  0.2909  0.2792  0.0174
  422TMC3     C 6298   4.040   0.287  12.712 -0.3121 -0.6204 -0.4823
  422TMC3     O 6299   4.137   0.301  12.787 -0.4884 -0.1920  0.3140
  422TMC3     H 6300   3.969   0.371  12.943  0.4215  0.6612 -1.1900
  422TMC3    H1 6301   3.828   0.135  12.628  2.5584  1.1200 -0.7168
  422TMC3    H2 6302   3.568   0.207  12.948 -1.0728  1.2847 -2.4858
  422TMC3    C7 6303   3.579   0.098  12.707 -0.3173  0.5263  0.3830
  422TMC3    C8 6304   3.746   0.381  13.075  0.9369  0.2148 -0.1674
  422TMC3    O1 6305   3.619   0.048  12.604  0.7604 -0.2751 -0.6644
  422TMC3    O2 6306   3.845   0.418  13.139  0.4234  0.4618 -0.7446
  423MPD2     C 6307   4.624   0.895   0.399  0.5716  0.1914  0.1976
  423MPD2    C1 6308   4.728   0.822   0.458  0.0139 -0.1550 -0.3319
  423MPD2    C2 6309   0.084   0.754   0.374 -0.0641 -0.4766 -0.0996
  423MPD2    C3 6310   0.081   0.777   0.238  0.2839  0.8913 -0.4295
  423MPD2    C4 6311   4.719   0.867   0.182 -0.0282 -0.0468  0.6380
  423MPD2    C5 6312   4.623   0.916   0.263 -0.9182  0.9964  0.1670
  423MPD2     H 6313   0.169   0.708   0.423  1.2344  1.9047 -0.0929
  423MPD2    H1 6314   4.711   0.876   0.074  1.8021 -0.9298  0.4244
  423MPD2    H2 6315   4.538   0.936   0.451  0.4588  1.8210 -1.2620
  423MPD2    H3 6316   4.554   0.978   0.208  0.2500  1.5586 -0.6500
  423MPD2     N 6317   0.163   0.709   0.144 -0.2320 -0.2434  0.1564
  423MPD2    H5 6318   0.140   0.712   0.046 -1.0055 -0.6471  0.3240
  423MPD2    N1 6319   0.005   0.787   0.593  0.2861  0.0633  0.4162
  423MPD2    H7 6320   0.087   0.733   0.617  0.4303  0.0961 -0.0043
  424TMC3    C1 6321   4.645   0.723   0.806  0.5246  0.4314 -0.0100
  424TMC3    C2 6322   4.715   0.605   0.800 -0.1050 -0.1572  0.2192
  424TMC3    C3 6323   4.727   0.526   0.911  0.1626  0.4280 -0.0944
  424TMC3    C4 6324   4.576   0.760   0.919 -0.5593 -0.0472 -0.3141
  424TMC3    C5 6325   4.589   0.675   1.026 -0.5942 -0.1984  0.7521
  424TMC3    C6 6326   4.668   0.560   1.030 -0.3282  0.3665  0.9026
  424TMC3     C 6327   4.626   0.803   0.684 -0.5559  0.4145 -0.7128
  424TMC3     O 6328   4.523   0.870   0.676 -0.2782  0.0650  0.0274
  424TMC3     H 6329   0.002   0.576   0.697  0.0477 -3.5398  1.2236
  424TMC3    H1 6330   4.533   0.860   0.921  1.2771  0.7344 -0.1626
  424TMC3    H2 6331   4.684   0.497   1.116 -1.5385 -0.8768  0.2206
  424TMC3    C7 6332   4.540   0.731   1.149  0.1474  0.4932 -0.2359
  424TMC3    C8 6333   0.096   0.420   0.913  0.0286  0.0121 -0.0789
  424TMC3    O1 6334   4.443   0.803   1.141 -0.5980  0.0250 -0.2223
  424TMC3    O2 6335   0.124   0.371   1.024  0.2295  0.3118 -0.3176
  425MPD2     C 6336   4.432   0.250   0.239 -0.6394 -0.1845  0.0335
  425MPD2    C1 6337   4.368   0.201   0.123 -0.3270  0.3923  0.2939
  425MPD2    C2 6338   4.287   0.289   0.053  0.0201  0.0987  0.4953
  425MPD2    C3 6339   4.251   0.405   0.107 -1.0441 -0.8821 -0.6246
  425MPD2    C4 6340   4.305   0.446   0.229  0.6784 -0.3980 -0.6378
  425MPD2    C5 6341   4.400   0.365   0.293 -0.4443  0.1568 -0.0390
  425MPD2     H 6342   4.245   0.260  17.670 -0.2697  1.7394  0.1229
  425MPD2    H1 6343   4.275   0.533   0.286  3.0913  0.4624 -0.6920
  425MPD2    H2 6344   4.488   0.187   0.308 -2.0833 -1.2972  0.1734
  425MPD2    H3 6345   4.441   0.385   0.391  2.0077  1.1548 -1.2600
  425MPD2     N 6346   4.152   0.485   0.042  0.6848 -0.0804 -0.4352
  425MPD2    H5 6347   4.124   0.451  17.663 -1.6683  2.0087 -0.4739
  425MPD2    N1 6348   4.412   0.074   0.084  0.1852  0.4557 -0.9335
  425MPD2    H7 6349   4.461   0.022   0.156 -2.5737 -2.8090 -1.4084
  426TMC3    C1 6350   4.381   4.591  17.710 -1.4970  0.0623  0.2707
  426TMC3    C2 6351   4.385   4.526  17.591  0.1487 -0.6607 -0.3432
  426TMC3    C3 6352   4.349   4.399  17.584 -0.6711  0.1075 -0.4595
  426TMC3    C4 6353   4.342   4.533   0.111  0.3242 -0.4316  0.3807
  426TMC3    C5 6354   4.301   4.406   0.101  0.2848 -0.4653  0.4809
  426TMC3    C6 6355   4.303   4.335  17.700 -0.1555 -0.3676  0.9436
  426TMC3     C 6356   4.362   0.007  17.690 -0.5213  0.5654  0.0461
  426TMC3     O 6357   4.317   0.050  17.584 -0.1975  0.1882 -0.3478
  426TMC3     H 6358   4.404   4.583  17.501  0.9522 -0.4304 -0.0368
  426TMC3    H1 6359   4.348   4.579   0.210  1.0901 -0.7571  0.4854
  426TMC3    H2 6360   4.268   4.233  17.702 -1.6058  0.1063 -0.2176
  426TMC3    C7 6361   4.259   4.340   0.221 -0.2449  0.4129  0.3593
  426TMC3    C8 6362   4.331   4.320  17.463  0.0939 -0.1643  0.4928
  426TMC3    O1 6363   4.279   4.219   0.231 -0.3575 -0.1731  0.8532
  426TMC3    O2 6364   4.337   4.199  17.474  0.1153  0.1855  0.5393
  427MPD2     C 6365   1.920   1.797  15.081  0.4016 -0.3765  0.0611
  427MPD2    C1 6366   2.010   1.897  15.120  0.6040 -0.3841 -0.1062
  427MPD2    C2 6367   1.959   2.019  15.166  0.3786 -0.1222  0.0027
  427MPD2    C3 6368   1.822   2.048  15.173  0.2541  0.1703  0.3969
  427MPD2    C4 6369   1.737   1.942  15.129  0.5502  0.1991  0.9193
  427MPD2    C5 6370   1.784   1.819  15.077  0.0868  1.0131  0.4126
  427MPD2     H 6371   2.028   2.098  15.192 -0.4253  1.6103 -3.0738
  427MPD2    H1 6372   1.632   1.962  15.148  0.3858  0.9162 -0.7471
  427MPD2    H2 6373   1.955   1.701  15.043 -1.0664 -0.2616 -1.5941
  427MPD2    H3 6374   1.713   1.741  15.052  0.5811  1.1836 -1.5076
  427MPD2     N 6375   1.767   2.167  15.229  0.8282 -0.1829  0.1879
  427MPD2    H5 6376   1.666   2.178  15.224  0.6070 -1.2489  2.2871
  427MPD2    N1 6377   2.151   1.857  15.120 -0.9864 -0.3306 -0.1068
  427MPD2    H7 6378   2.161   1.758  15.102  0.8861  0.1985 -1.9811
  428TMC3    C1 6379   2.387   1.858  15.161  0.0718 -0.6256  0.7231
  428TMC3    C2 6380   2.396   1.724  15.115  1.0259 -0.4311 -0.6961
  428TMC3    C3 6381   2.522   1.671  15.130  0.7126  0.2479 -0.2743
  428TMC3    C4 6382   2.488   1.924  15.226  0.1536  0.3301 -0.3693
  428TMC3    C5 6383   2.611   1.860  15.236  0.0862  0.2872  0.4270
  428TMC3    C6 6384   2.626   1.738  15.187  0.6876 -0.0769 -0.2261
  428TMC3     C 6385   2.258   1.932  15.164  0.0039 -0.5816 -0.1050
  428TMC3     O 6386   2.261   2.052  15.188 -0.8323  0.5759  0.0389
  428TMC3     H 6387   2.317   1.663  15.072 -0.9283  2.3233 -1.0064
  428TMC3    H1 6388   2.478   2.026  15.263 -2.6813 -0.4001  0.8336
  428TMC3    H2 6389   2.722   1.688  15.200  0.0840 -1.5834 -1.5594
  428TMC3    C7 6390   2.720   1.940  15.276 -0.5553  0.4041  0.0804
  428TMC3    C8 6391   2.540   1.531  15.125  0.0864  0.2739 -0.4028
  428TMC3    O1 6392   2.708   2.034  15.352 -0.1284 -0.1112 -1.0121
  428TMC3    O2 6393   2.657   1.488  15.114 -0.1543 -0.4376  0.3676
  429MPD2     C 6394   3.911   2.558  17.700  0.0852  0.6117 -0.0844
  429MPD2    C1 6395   3.868   2.441  17.646  0.7432  0.9684 -0.0890
  429MPD2    C2 6396   3.818   2.436  17.519 -0.8485 -0.2793 -0.2920
  429MPD2    C3 6397   3.811   2.550  17.448  0.0180 -0.2888  0.5416
  429MPD2    C4 6398   3.844   2.666  17.499 -0.9906  0.2004 -0.2177
  429MPD2    C5 6399   3.894   2.670  17.626  0.8604  0.4292  0.7424
  429MPD2     H 6400   3.792   2.349  17.459 -1.4379  1.8234 -3.1110
  429MPD2    H1 6401   3.831   2.767  17.460 -1.2890 -0.1494 -1.0265
  429MPD2    H2 6402   3.943   2.571   0.090  1.3964 -0.5089 -0.3469
  429MPD2    H3 6403   3.926   2.759  17.678  0.8886  0.2322  1.0592
  429MPD2     N 6404   3.771   2.533  17.318 -0.5354  0.1446  0.2427
  429MPD2    H5 6405   3.725   2.446  17.293  2.5067 -1.4378  0.0674
  429MPD2    N1 6406   3.849   2.316   0.004 -0.1241 -0.3713  0.4410
  429MPD2    H7 6407   3.822   2.234  17.665  1.3926 -0.0268 -0.8513
  430TMC3    C1 6408   3.688   2.591  17.100 -0.6131  0.0901 -0.3136
  430TMC3    C2 6409   3.647   2.690  17.005 -0.0543 -0.4429 -0.8049
  430TMC3    C3 6410   3.579   2.640  16.900 -0.6027 -0.7671 -0.5626
  430TMC3    C4 6411   3.681   2.456  17.073  0.7643 -0.1449 -0.1593
  430TMC3    C5 6412   3.631   2.415  16.953  0.0316  0.9458  0.0230
  430TMC3    C6 6413   3.572   2.505  16.874 -0.2200  0.2714  1.1016
  430TMC3     C 6414   3.753   2.634  17.226  0.5286  0.2545 -0.2130
  430TMC3     O 6415   3.781   2.753  17.241  0.1752  0.2108  0.6038
  430TMC3     H 6416   3.653   2.795  17.032  0.7524 -1.0081  1.1703
  430TMC3    H1 6417   3.742   2.384  17.126 -0.4525  0.0154  1.4466
  430TMC3    H2 6418   3.539   2.464  16.780 -1.7070 -0.3080  1.8871
  430TMC3    C7 6419   3.711   2.315  16.886 -0.8869 -0.5009 -0.1292
  430TMC3    C8 6420   3.574   2.722  16.783 -0.1472 -0.4478 -0.0089
  430TMC3    O1 6421   3.690   2.194  16.906  0.6549  0.3983 -0.0315
  430TMC3    O2 6422   3.470   2.713  16.725 -0.1397 -0.1939 -0.0887
  431MPD2     C 6423   4.482   2.110  12.439  0.8384 -0.2613 -0.2163
  431MPD2    C1 6424   4.598   2.135  12.362 -0.5282  0.0218  0.2914
  431MPD2    C2 6425   4.632   2.055  12.254 -0.1593  0.1191  0.1081
  431MPD2    C3 6426   4.555   1.943  12.221 -0.0374  0.4508 -0.1315
  431MPD2    C4 6427   4.455   1.905  12.313  0.2203  0.0673  0.9075
  431MPD2    C5 6428   4.423   1.988  12.418 -0.0140  0.6102  0.7230
  431MPD2     H 6429   4.728   2.071  12.207  0.3215  0.6381  1.2818
  431MPD2    H1 6430   4.399   1.814  12.298  1.4540 -0.7781  1.4394
  431MPD2    H2 6431   4.441   2.166  12.522  2.1050 -1.9322  1.5258
  431MPD2    H3 6432   4.331   1.978  12.475 -0.1267 -0.1715  0.4042
  431MPD2     N 6433   4.581   1.861  12.107  0.2357  0.2063  0.0689
  431MPD2    H5 6434   4.516   1.788  12.081  1.2938 -0.8303  0.3201
  431MPD2    N1 6435   4.673   2.261  12.356  0.1517  0.0386 -0.4112
  431MPD2    H7 6436   0.012   2.274  12.281 -0.8411  2.1970 -0.9213
  432TMC3    C1 6437   4.666   1.779  11.913 -0.4844  0.1057 -0.1008
  432TMC3    C2 6438   4.717   1.802  11.792  0.8717  0.3611  0.5291
  432TMC3    C3 6439   0.029   1.693  11.718  0.1599  0.5165  0.1779
  432TMC3    C4 6440   4.680   1.659  11.973  0.6160  0.1749 -0.0032
  432TMC3    C5 6441   4.720   1.552  11.905 -0.2772 -0.2335  0.4637
  432TMC3    C6 6442   0.022   1.567  11.769  0.4191 -0.1526  0.0912
  432TMC3     C 6443   4.667   1.891  12.010  0.2740  0.5847  0.0469
  432TMC3     O 6444   4.715   1.996  11.976 -0.4034 -0.2989 -0.2207
  432TMC3     H 6445   4.717   1.898  11.741 -0.8784  0.5959  0.9495
  432TMC3    H1 6446   4.690   1.661  12.081  1.5699  2.0510 -0.1163
  432TMC3    H2 6447   0.068   1.481  11.722  1.3796 -0.2434  1.2119
  432TMC3    C7 6448   0.088   1.466  11.978  0.2865 -0.2957 -0.1760
  432TMC3    C8 6449   0.123   1.713  11.609 -0.4134 -0.4693  0.1487
  432TMC3    O1 6450   0.201   1.467  11.936  0.6710 -0.4584  0.3384
  432TMC3    O2 6451   0.120   1.640  11.509  0.2736  0.0404 -0.3446
  433MPD2     C 6452   3.820   1.277  10.790 -0.2863 -0.3997  0.8311
  433MPD2    C1 6453   3.741   1.170  10.840  0.2637  0.2930 -0.7460
  433MPD2    C2 6454   3.710   1.176  10.979  0.5661  0.7785  0.7137
  433MPD2    C3 6455   3.756   1.280  11.058  0.1921  0.2262  0.5225
  433MPD2    C4 6456   3.837   1.380  11.003 -0.4475 -0.1796 -0.3043
  433MPD2    C5 6457   3.865   1.381  10.869  1.0195  0.0253 -0.1193
  433MPD2     H 6458   3.645   1.103  11.025  1.5644 -0.5989 -0.0735
  433MPD2    H1 6459   3.890   1.458  11.057 -0.7409  0.1322 -0.4657
  433MPD2    H2 6460   3.865   1.272  10.691 -0.8867 -0.0197  0.5356
  433MPD2    H3 6461   3.922   1.461  10.824 -1.9020 -0.0468 -3.9216
  433MPD2     N 6462   3.748   1.268  11.205  0.3879  0.0426 -0.1950
  433MPD2    H5 6463   3.705   1.182  11.238  1.6682 -0.7742 -0.6390
  433MPD2    N1 6464   3.707   1.062  10.761 -0.2931  0.3166 -0.6504
  433MPD2    H7 6465   3.729   1.050  10.663 -2.6120 -1.7134 -0.9110
  434TMC3    C1 6466   3.637   0.841  10.719  0.2699  0.1905  0.7716
  434TMC3    C2 6467   3.668   0.721  10.777 -0.2954 -0.6830  0.2294
  434TMC3    C3 6468   3.733   0.627  10.708  0.0423 -0.5359 -0.4160
  434TMC3    C4 6469   3.646   0.866  10.586 -0.1935 -0.3343 -0.5047
  434TMC3    C5 6470   3.698   0.768  10.515 -0.0862  0.3416 -0.4633
  434TMC3    C6 6471   3.752   0.657  10.578 -1.0969 -0.6236  0.2851
  434TMC3     C 6472   3.638   0.949  10.807  0.2665 -0.1532  0.3909
  434TMC3     O 6473   3.611   0.911  10.919 -0.0857  0.0093 -0.2369
  434TMC3     H 6474   3.661   0.707  10.885 -1.5027  1.6293  0.4325
  434TMC3    H1 6475   3.628   0.961  10.537 -0.9147 -0.4638 -0.4940
  434TMC3    H2 6476   3.822   0.594  10.525 -1.0621 -0.4220  0.0884
  434TMC3    C7 6477   3.631   0.737  10.395  0.0503  0.1837  0.4223
  434TMC3    C8 6478   3.826   0.548  10.789  0.4339 -0.6392 -0.1086
  434TMC3    O1 6479   3.581   0.828  10.330 -0.1785  0.8986  0.2380
  434TMC3    O2 6480   3.796   0.528  10.906  0.3447 -0.4555  0.1526
  435MPD2     C 6481   0.856   1.107  15.317  0.0216 -0.1350 -0.0421
  435MPD2    C1 6482   0.836   1.087  15.453 -0.1851 -0.3530 -0.5457
  435MPD2    C2 6483   0.946   1.054  15.530  0.2072 -0.0648 -0.6774
  435MPD2    C3 6484   1.068   1.028  15.479 -0.3853 -0.2265  0.1611
  435MPD2    C4 6485   1.092   1.060  15.345  0.2572  0.0458 -0.6685
  435MPD2    C5 6486   0.984   1.089  15.263 -0.0227  0.0282  0.0163
  435MPD2     H 6487   0.922   1.021  15.631 -0.8084 -3.0120 -1.8548
  435MPD2    H1 6488   1.191   1.052  15.301  1.3637  0.4542  1.7516
  435MPD2    H2 6489   0.767   1.125  15.258  0.9132 -0.7256 -1.5703
  435MPD2    H3 6490   1.008   1.097  15.157 -2.3888 -1.8320 -0.6592
  435MPD2     N 6491   1.168   0.968  15.562 -0.4318  0.0719  0.1481
  435MPD2    H5 6492   1.139   0.962  15.659  0.6194  2.8151  0.6220
  435MPD2    N1 6493   0.711   1.095  15.516 -1.2264  0.1683 -0.1730
  435MPD2    H7 6494   0.706   1.092  15.617 -3.7683  1.4298 -0.2490
  436TMC3    C1 6495   0.416   1.099  15.777 -0.5331  0.4093  0.1948
  436TMC3    C2 6496   0.515   1.135  15.689  0.3947 -0.2271 -0.7658
  436TMC3    C3 6497   0.481   1.122  15.553 -0.3588  0.6300 -0.0423
  436TMC3    C4 6498   0.301   1.030  15.747  0.1716  0.3697 -0.0818
  436TMC3    C5 6499   0.276   1.017  15.616 -0.3381 -0.0809  0.0981
  436TMC3    C6 6500   0.365   1.056  15.517 -0.7248  0.1212  0.2544
  436TMC3     C 6501   0.446   1.114  15.916  0.2500 -0.5043  0.2196
  436TMC3     O 6502   0.549   1.067  15.963 -0.0116 -0.2141 -0.0083
  436TMC3     H 6503   0.590   1.204  15.725  0.2095 -0.3179 -0.1956
  436TMC3    H1 6504   0.244   0.991  15.831 -1.1048  1.8583 -0.2519
  436TMC3    H2 6505   0.341   1.046  15.412 -0.2382 -0.4388  0.2008
  436TMC3    C7 6506   0.184   0.917  15.575 -0.1065  0.3593 -1.1342
  436TMC3    C8 6507   0.588   1.132  15.455 -0.2481 -0.3662 -1.3091
  436TMC3    O1 6508   0.208   0.860  15.471 -0.0037  0.1196 -0.3884
  436TMC3    O2 6509   0.558   1.128  15.336  0.1649  0.5967 -0.3366
  437TMC3    C1 6510   4.151   2.931  12.857 -1.0732  0.4845  0.3654
  437TMC3    C2 6511   4.030   2.897  12.811 -0.0691 -0.6296 -1.1741
  437TMC3    C3 6512   3.966   2.980  12.729 -1.2924  0.3096 -0.1004
  437TMC3    C4 6513   4.213   3.047  12.809  0.4032  0.2493  0.2357
  437TMC3    C5 6514   4.146   3.116  12.709 -0.3784  0.4163 -0.4235
  437TMC3    C6 6515   4.019   3.095  12.671 -0.7835  0.0015 -0.6206
  437TMC3     C 6516   4.230   2.832  12.925  0.1241  0.8506 -1.2065
  437TMC3     O 6517   4.352   2.842  12.913 -0.5011 -0.1732  0.3509
  437TMC3     H 6518   3.983   2.803  12.836 -0.5823  0.1684  0.9315
  437TMC3    H1 6519   4.319   3.055  12.829  1.0098 -2.6799 -1.7233
  437TMC3    H2 6520   3.971   3.133  12.582 -0.4380  1.3350 -0.2545
  437TMC3    C7 6521   4.218   3.221  12.626  0.5091  0.0290  0.5384
  437TMC3    C8 6522   3.841   2.936  12.667  0.8488 -0.3898  0.5089
  437TMC3    O1 6523   4.155   3.259  12.529 -0.0927 -0.0098 -0.6711
  437TMC3    O2 6524   3.821   2.814  12.654  0.2973 -0.3977 -0.3393
  438MPD2     C 6525   1.958   4.173  16.794  0.3108 -0.2007  0.6051
  438MPD2    C1 6526   1.978   4.047  16.850 -0.0048  0.7772  0.2103
  438MPD2    C2 6527   1.883   4.008  16.953  0.1627 -0.4451 -0.6759
  438MPD2    C3 6528   1.774   4.092  16.980  0.7004 -0.5479 -0.4860
  438MPD2    C4 6529   1.777   4.224  16.935 -0.2571  0.3019 -0.1793
  438MPD2    C5 6530   1.876   4.265  16.846 -0.4510  0.6611  1.1997
  438MPD2     H 6531   1.892   3.909  16.998  1.1994 -0.3223 -0.6031
  438MPD2    H1 6532   1.706   4.299  16.966 -1.3867  0.3050 -2.7534
  438MPD2    H2 6533   2.029   4.206  16.720  0.7666 -0.1318  1.0716
  438MPD2    H3 6534   1.875   4.366  16.808  1.2116  1.5494  3.5047
  438MPD2     N 6535   1.677   4.063  17.085  0.0928  0.2143 -0.3482
  438MPD2    H5 6536   1.624   4.146  17.108 -0.2116 -0.1294  0.1896
  438MPD2    N1 6537   2.077   3.954  16.805 -0.4522  0.8803 -0.5283
  438MPD2    H7 6538   2.080   3.878  16.872 -0.1351  1.2087 -0.1693
  439TMC3    C1 6539   2.172   3.807  16.641  0.4538  0.2914  0.0024
  439TMC3    C2 6540   2.140   3.757  16.523 -0.2316  0.9091  0.1042
  439TMC3    C3 6541   2.184   3.630  16.503  0.1536  0.8798 -0.0463
  439TMC3    C4 6542   2.233   3.740  16.741  0.5740 -0.2088  0.9001
  439TMC3    C5 6543   2.270   3.616  16.721  0.0414 -0.2965 -0.0312
  439TMC3    C6 6544   2.243   3.557  16.601 -0.3567 -0.2931  0.5375
  439TMC3     C 6545   2.114   3.941  16.673 -0.2573  0.1773 -0.4696
  439TMC3     O 6546   2.066   4.004  16.580  0.3291 -0.0772  0.2351
  439TMC3     H 6547   2.072   3.808  16.455 -0.3759 -1.0875 -1.2634
  439TMC3    H1 6548   2.273   3.805  16.818 -1.6266  0.8669  1.1384
  439TMC3    H2 6549   2.259   3.450  16.595  1.3163  0.1414 -2.6039
  439TMC3    C7 6550   2.377   3.568  16.807 -0.0182 -0.0289 -0.0418
  439TMC3    C8 6551   2.206   3.577  16.366 -0.2469  0.7363  1.0673
  439TMC3    O1 6552   2.414   3.645  16.893 -0.0098 -0.2745  0.2859
  439TMC3    O2 6553   2.260   3.468  16.365 -0.1354 -0.0660 -0.4027
  440MPD2     C 6554   0.778   4.114  14.595  0.2565  0.0277  0.2957
  440MPD2    C1 6555   0.816   4.220  14.680 -0.5673  0.3939 -0.5138
  440MPD2    C2 6556   0.906   4.203  14.775  0.7307 -0.3039  0.4219
  440MPD2    C3 6557   0.967   4.081  14.797 -0.5941  0.5935 -0.5823
  440MPD2    C4 6558   0.946   3.980  14.708 -0.2006  0.6575 -1.0838
  440MPD2    C5 6559   0.852   3.997  14.607 -0.3732 -0.0051 -0.2586
  440MPD2     H 6560   0.918   4.280  14.850 -4.2420  0.6382  0.2080
  440MPD2    H1 6561   1.002   3.889  14.719 -0.4923  0.6649  0.4060
  440MPD2    H2 6562   0.703   4.115  14.517  0.9078  0.6977 -0.3254
  440MPD2    H3 6563   0.825   3.920  14.536 -0.5456  0.0763 -0.2832
  440MPD2     N 6564   1.063   4.058  14.901 -0.2490 -0.3917 -0.0139
  440MPD2    H5 6565   1.084   3.960  14.912 -0.5051 -0.3861  0.5478
  440MPD2    N1 6566   0.743   4.347  14.682  0.3365 -0.2846  0.1007
  440MPD2    H7 6567   0.768   4.417  14.751 -1.9634 -0.9598  1.6299
  441TMC3    C1 6568   1.231   4.094  15.060  1.3744  0.0399  0.5525
  441TMC3    C2 6569   1.331   4.183  15.070  0.1191 -0.4375 -0.2744
  441TMC3    C3 6570   1.402   4.189  15.189  0.6856 -0.7680  1.1785
  441TMC3    C4 6571   1.195   4.010  15.164 -0.0562 -0.2643  0.9022
  441TMC3    C5 6572   1.262   4.028  15.278 -0.1418 -0.0147 -0.0134
  441TMC3    C6 6573   1.362   4.117  15.296 -0.6722 -0.2147 -0.5779
  441TMC3     C 6574   1.132   4.157  14.971 -0.2743 -0.1860 -0.4556
  441TMC3     O 6575   1.140   4.278  14.957  0.1616 -0.5234 -0.3130
  441TMC3     H 6576   1.364   4.244  14.987  0.1538  0.1216  0.1495
  441TMC3    H1 6577   1.121   3.931  15.156  0.5009 -0.5770 -1.0445
  441TMC3    H2 6578   1.396   4.140  15.396 -0.1030  2.2713 -1.3501
  441TMC3    C7 6579   1.237   3.928  15.371  0.1495  0.4171 -0.6238
  441TMC3    C8 6580   1.442   4.325  15.214 -0.3527  0.2305 -0.4818
  441TMC3    O1 6581   1.149   3.848  15.362 -0.1893 -0.9488 -0.3247
  441TMC3    O2 6582   1.541   4.335  15.290  0.0502 -0.0505  0.5449
  442MPD2     C 6583   3.694   0.188  17.045 -0.1638 -0.4917 -0.5003
  442MPD2    C1 6584   3.572   0.150  16.986  0.3337 -0.2561  0.2140
  442MPD2    C2 6585   3.573   0.047  16.899 -0.2750 -0.2236  0.0079
  442MPD2    C3 6586   3.689   4.709  16.860 -0.3170 -0.9455 -0.3179
  442MPD2    C4 6587   3.805   0.028  16.919 -0.5227 -0.3180 -0.0135
  442MPD2    C5 6588   3.807   0.127  17.007  0.0222 -0.1062  0.7246
  442MPD2     H 6589   3.477   0.017  16.858 -1.2900 -0.0329  2.2381
  442MPD2    H1 6590   3.901   4.710  16.898 -0.3576  0.7530 -1.6435
  442MPD2    H2 6591   3.708   0.272  17.112  0.2457 -0.1786 -0.9760
  442MPD2    H3 6592   3.902   0.159  17.049  0.1962 -1.7117  1.5220
  442MPD2     N 6593   3.682   4.597  16.775 -0.0911  0.6035  0.5750
  442MPD2    H5 6594   3.590   4.567  16.745 -0.0954 -0.1495  1.3601
  442MPD2    N1 6595   3.448   0.211  17.012  0.3968  0.3044 -0.7046
  442MPD2    H7 6596   3.369   0.198  16.950  1.0551 -0.9660 -1.2905
  443TMC3    C1 6597   3.290   0.354  17.119 -0.1609 -0.0584  0.3034
  443TMC3    C2 6598   3.234   0.390  17.001 -0.4759 -0.2058 -0.0123
  443TMC3    C3 6599   3.115   0.338  16.968 -0.0409 -0.0082  0.1266
  443TMC3    C4 6600   3.215   0.288  17.209 -0.4503 -0.1770  0.5473
  443TMC3    C5 6601   3.092   0.246  17.178  0.3507  0.1067  0.6808
  443TMC3    C6 6602   3.043   0.268  17.056 -0.2837  0.2023 -0.1544
  443TMC3     C 6603   3.427   0.302  17.112 -0.3513  0.0587 -0.0248
  443TMC3     O 6604   3.500   0.328  17.206 -0.1075  0.0519 -0.5325
  443TMC3     H 6605   3.301   0.418  16.921  1.1756 -0.7497  1.1836
  443TMC3    H1 6606   3.264   0.253  17.300  0.5114  0.0346  0.1172
  443TMC3    H2 6607   2.949   0.217  17.039 -0.5761  0.0987  1.7095
  443TMC3    C7 6608   3.061   0.109  17.216  0.0402  0.2247  0.4854
  443TMC3    C8 6609   3.125   0.262  16.846  0.0441 -0.6769 -0.2387
  443TMC3    O1 6610   3.072   0.017  17.135  0.3742  0.0712 -0.5374
  443TMC3    O2 6611   3.214   0.174  16.844 -0.0263 -0.1467  0.5763
  444MPD2     C 6612   3.952   4.200  17.294  0.6261 -0.0913  0.2219
  444MPD2    C1 6613   3.873   4.166  17.186  0.0159  0.2201 -0.4509
  444MPD2    C2 6614   3.878   4.035  17.138  0.8125 -0.0421  0.2071
  444MPD2    C3 6615   3.977   3.955  17.193  0.1136  0.2250 -0.0587
  444MPD2    C4 6616   4.056   3.985  17.299  0.1178  0.0941  0.3222
  444MPD2    C5 6617   4.038   4.111  17.352 -0.7220  0.2612  0.1705
  444MPD2     H 6618   3.803   4.008  17.065  2.6319 -0.0216 -1.6794
  444MPD2    H1 6619   4.130   3.926  17.353  0.5140 -0.7090 -1.0629
  444MPD2    H2 6620   3.939   4.298  17.338  0.1647 -0.4062  0.7831
  444MPD2    H3 6621   4.106   4.140  17.431 -0.9277  0.4199  0.2908
  444MPD2     N 6622   3.988   3.822  17.132 -0.4102  0.2606  0.1989
  444MPD2    H5 6623   3.926   3.807  17.053  0.9977 -1.4424 -0.5828
  444MPD2    N1 6624   3.775   4.247  17.118  0.1994  0.1705  0.8164
  444MPD2    H7 6625   3.729   4.207  17.036  0.6885  1.9178 -0.3189
  445TMC3    C1 6626   4.090   3.614  17.075 -0.1893 -0.3529  0.1028
  445TMC3    C2 6627   3.977   3.571  17.015 -0.6394 -0.5281 -0.4552
  445TMC3    C3 6628   3.990   3.478  16.915 -0.6877  0.1392 -0.1538
  445TMC3    C4 6629   4.206   3.545  17.054 -0.6902 -0.5837 -0.0262
  445TMC3    C5 6630   4.216   3.449  16.959 -0.2975 -0.1503 -1.1313
  445TMC3    C6 6631   4.111   3.418  16.885 -0.3079  0.0038  0.0007
  445TMC3     C 6632   4.096   3.736  17.146 -0.5608 -0.7475 -0.0214
  445TMC3     O 6633   4.196   3.753  17.213  0.4235  0.1765 -0.0044
  445TMC3     H 6634   3.884   3.614  17.050  0.7517 -0.2996  3.0113
  445TMC3    H1 6635   4.293   3.569  17.113 -1.3665  1.4120  0.1576
  445TMC3    H2 6636   4.117   3.346  16.805  0.2730 -1.2890  1.2033
  445TMC3    C7 6637   4.343   3.408  16.905 -0.0557  0.3080  0.2689
  445TMC3    C8 6638   3.869   3.440  16.844  0.4167 -0.1004 -0.2005
  445TMC3    O1 6639   4.348   3.356  16.794  0.5066 -0.0556 -0.4281
  445TMC3    O2 6640   3.767   3.484  16.887 -0.2696  0.2268  0.5176
  446MPD2     C 6641   3.490   0.512  11.415 -0.0526 -0.0209 -0.1669
  446MPD2    C1 6642   3.488   0.497  11.275 -0.3043 -1.0045 -0.2017
  446MPD2    C2 6643   3.596   0.527  11.207 -0.0645 -0.2366  0.4905
  446MPD2    C3 6644   3.708   0.579  11.269  0.5703 -0.3427  0.7317
  446MPD2    C4 6645   3.702   0.608  11.403 -0.4947  0.5637  0.8109
  446MPD2    C5 6646   3.594   0.570  11.476  0.4594  0.6738 -0.1994
  446MPD2     H 6647   3.593   0.510  11.100  1.7762 -2.4388  0.7829
  446MPD2    H1 6648   3.793   0.621  11.460  0.3934 -1.4061 -0.1507
  446MPD2    H2 6649   3.402   0.489  11.474 -1.3164  0.7907 -1.7490
  446MPD2    H3 6650   3.598   0.580  11.584  0.9060 -2.2120  0.0637
  446MPD2     N 6651   3.815   0.613  11.186 -0.4846  0.3678  0.3632
  446MPD2    H5 6652   3.805   0.595  11.087  0.3109 -1.1475  0.5505
  446MPD2    N1 6653   3.380   0.427  11.209 -0.3215  0.4125 -0.5433
  446MPD2    H7 6654   3.383   0.416  11.108 -1.6485  1.2329 -0.6702
  447TMC3    C1 6655   4.039   0.698  11.135  0.1709  0.3080 -0.1870
  447TMC3    C2 6656   3.993   0.759  11.018  0.7464 -0.2624  0.3186
  447TMC3    C3 6657   4.085   0.835  10.953 -0.2314 -0.7190  0.4359
  447TMC3    C4 6658   4.166   0.707  11.185  0.1946  0.1271 -0.5178
  447TMC3    C5 6659   4.254   0.795  11.115 -0.0080  0.2446 -0.7846
  447TMC3    C6 6660   4.206   0.860  11.007 -0.0609 -0.2039 -0.1309
  447TMC3     C 6661   3.943   0.652  11.234 -0.4841 -0.5700  0.1945
  447TMC3     O 6662   3.984   0.623  11.346  0.1572 -0.6144  0.0903
  447TMC3     H 6663   3.895   0.755  10.973  0.7709 -0.9160  0.3196
  447TMC3    H1 6664   4.198   0.628  11.252 -0.1291 -0.0059 -0.5209
  447TMC3    H2 6665   4.283   0.920  10.958  1.1811 -1.0798  0.7471
  447TMC3    C7 6666   4.382   0.737  11.097 -0.4212 -0.0264  0.5966
  447TMC3    C8 6667   4.083   0.834  10.809  0.5187  0.6313 -0.2652
  447TMC3    O1 6668   4.409   0.710  10.981  0.1801  0.5245  0.3353
  447TMC3    O2 6669   3.978   0.846  10.751  0.0469  0.2306 -0.9223
  448TMC3    C1 6670   2.404   0.890  16.565  0.4178 -0.4830 -0.0839
  448TMC3    C2 6671   2.428   0.758  16.562 -0.1791  0.2745 -0.1306
  448TMC3    C3 6672   2.474   0.691  16.677 -0.6534 -0.6001  0.1879
  448TMC3    C4 6673   2.416   0.962  16.682 -0.0207  1.1375  1.0812
  448TMC3    C5 6674   2.463   0.893  16.793 -0.0488 -0.5907  1.1643
  448TMC3    C6 6675   2.489   0.761  16.795  1.1816  0.1371 -0.2048
  448TMC3     C 6676   2.325   0.948  16.456 -0.0149 -0.5814 -0.0208
  448TMC3     O 6677   2.358   0.930  16.341 -0.3674 -0.6044  0.4652
  448TMC3     H 6678   2.400   0.711  16.469 -0.6530 -1.7476  1.0122
  448TMC3    H1 6679   2.419   1.070  16.680  0.2634  1.1333  1.2207
  448TMC3    H2 6680   2.545   0.718  16.878 -1.4840 -0.2250  1.4031
  448TMC3    C7 6681   2.457   0.966  16.929 -1.0534  0.2546 -0.3840
  448TMC3    C8 6682   2.499   0.546  16.673  0.1627 -0.0392 -0.0656
  448TMC3    O1 6683   2.458   1.088  16.934 -0.5206 -0.3102  0.1337
  448TMC3    O2 6684   2.494   0.482  16.773  0.5614 -0.0112  0.1555
  449MPD2     C 6685   3.676   3.363  14.146  1.0645  0.6401 -0.5225
  449MPD2    C1 6686   3.547   3.363  14.099  0.7188 -0.2753 -0.6299
  449MPD2    C2 6687   3.447   3.332  14.185 -0.7595 -0.7450 -0.0992
  449MPD2    C3 6688   3.471   3.294  14.312 -0.5631 -1.2292  0.4145
  449MPD2    C4 6689   3.598   3.287  14.359  0.1990 -0.2791  0.2883
  449MPD2    C5 6690   3.698   3.326  14.276 -0.9688  0.2254 -0.3638
  449MPD2     H 6691   3.350   3.333  14.136 -0.9563 -0.7958  0.2937
  449MPD2    H1 6692   3.610   3.259  14.463 -1.9566 -2.5753 -0.0632
  449MPD2    H2 6693   3.759   3.386  14.080  0.1564  1.0231 -1.5260
  449MPD2    H3 6694   3.800   3.330  14.312 -1.8926  0.2217  2.2380
  449MPD2     N 6695   3.359   3.259  14.395 -0.3829 -0.6858  1.1729
  449MPD2    H5 6696   3.268   3.248  14.352  1.2408 -0.1774 -2.4181
  449MPD2    N1 6697   3.496   3.389  13.970 -0.7841  0.4207  0.0918
  449MPD2    H7 6698   3.398   3.395  13.944 -1.4108 -2.3653  1.7388
  450TMC3    C1 6699   3.493   3.438  13.751  0.2768  0.4456  0.1023
  450TMC3    C2 6700   3.488   3.338  13.657  0.8099 -0.1390 -0.0930
  450TMC3    C3 6701   3.368   3.312  13.606  0.0308  0.3596 -0.3107
  450TMC3    C4 6702   3.380   3.507  13.787 -0.9242 -0.1575 -0.1411
  450TMC3    C5 6703   3.258   3.469  13.743 -0.0238 -0.7156 -0.6033
  450TMC3    C6 6704   3.248   3.371  13.648  0.3728  0.6635  0.1022
  450TMC3     C 6705   3.576   3.407  13.862 -0.4812 -0.1900 -0.0757
  450TMC3     O 6706   3.698   3.382  13.845 -0.5039 -0.3100  0.4799
  450TMC3     H 6707   3.576   3.274  13.655  1.6280  1.0183 -0.9624
  450TMC3    H1 6708   3.386   3.584  13.862 -0.2898  1.5955 -1.9740
  450TMC3    H2 6709   3.158   3.341  13.596  0.0825 -0.6909  1.3935
  450TMC3    C7 6710   3.161   3.461  13.856 -0.4286  0.3627  0.1274
  450TMC3    C8 6711   3.371   3.230  13.483 -0.8990 -0.0270  0.3721
  450TMC3    O1 6712   3.213   3.484  13.964 -0.3936 -0.2872 -0.1144
  450TMC3    O2 6713   3.276   3.162  13.453  0.2434  0.3077 -0.0865
  451MPD2     C 6714   4.643   3.021   2.186  0.1682 -0.0647 -0.6287
  451MPD2    C1 6715   4.645   2.962   2.064  0.1919 -0.1314  0.3909
  451MPD2    C2 6716   0.006   2.861   2.047 -0.6133 -0.2812 -0.3891
  451MPD2    C3 6717   0.096   2.818   2.140 -0.2646 -0.5655 -0.4743
  451MPD2    C4 6718   0.091   2.879   2.266 -0.3707  0.6913 -0.4474
  451MPD2    C5 6719   4.721   2.977   2.286 -0.1634  0.3617 -0.0706
  451MPD2     H 6720   0.025   2.818   1.949 -0.7288  0.2132 -0.6332
  451MPD2    H1 6721   0.146   2.850   2.355 -0.3007  1.3853 -0.2615
  451MPD2    H2 6722   4.576   3.101   2.214  0.9807  0.8734 -1.3046
  451MPD2    H3 6723   4.706   3.021   2.383 -2.1613 -1.2490  0.3547
  451MPD2     N 6724   0.183   2.718   2.100  0.0823 -0.0063 -0.4156
  451MPD2    H5 6725   0.173   2.683   2.006  0.8940  0.9473 -0.8524
  451MPD2    N1 6726   4.555   3.016   1.969 -0.2160 -0.0413 -0.2103
  451MPD2    H7 6727   4.496   3.093   2.001 -1.7544 -0.8021 -1.2146
  452TMC3    C1 6728   0.390   2.583   2.098  0.7562  0.4745 -0.5672
  452TMC3    C2 6729   0.413   2.456   2.149  0.5160  0.5974 -0.1535
  452TMC3    C3 6730   0.423   2.357   2.054  0.5097 -0.6775  0.4644
  452TMC3    C4 6731   0.408   2.614   1.966  0.3254  0.4965  0.2217
  452TMC3    C5 6732   0.437   2.512   1.877  0.0617  0.3182  0.3466
  452TMC3    C6 6733   0.447   2.382   1.920  0.0918  0.1695  0.3547
  452TMC3     C 6734   0.292   2.671   2.175 -0.1386 -0.3537  0.6205
  452TMC3     O 6735   0.304   2.688   2.296  0.4154 -0.2705 -0.1373
  452TMC3     H 6736   0.396   2.434   2.254 -1.2637  1.0800 -0.3509
  452TMC3    H1 6737   0.393   2.716   1.932 -0.5010  0.2116 -0.2740
  452TMC3    H2 6738   0.458   2.298   1.852  0.5811 -1.2449  2.1593
  452TMC3    C7 6739   0.463   2.550   1.735  0.2164 -0.1483  0.0319
  452TMC3    C8 6740   0.438   2.223   2.114 -0.0197 -0.5924 -0.0541
  452TMC3    O1 6741   0.412   2.469   1.656 -0.3536 -0.1029  0.7210
  452TMC3    O2 6742   0.455   2.220   2.236  0.0669 -0.9152  0.3789
  453TMC3    C1 6743   1.209   4.093  11.768 -0.5465  0.3840 -1.2241
  453TMC3    C2 6744   1.100   4.033  11.825 -0.7657 -0.5720 -0.0845
  453TMC3    C3 6745   0.992   4.007  11.743  0.0077  0.2151  0.4036
  453TMC3    C4 6746   1.215   4.109  11.633  0.6510 -0.0812  0.3337
  453TMC3    C5 6747   1.103   4.076  11.557 -0.3411  0.4009 -0.6565
  453TMC3    C6 6748   0.984   4.025  11.610  0.3807 -0.0960  0.0413
  453TMC3     C 6749   1.319   4.151  11.850  0.6448 -1.0027 -0.8319
  453TMC3     O 6750   1.424   4.178  11.792 -0.0814  0.1893  0.5676
  453TMC3     H 6751   1.084   4.029  11.932  0.4675  2.1270  0.2080
  453TMC3    H1 6752   1.305   4.163  11.608  0.6070  0.2025  0.7814
  453TMC3    H2 6753   0.899   3.996  11.549 -0.7879  1.3948  0.9583
  453TMC3    C7 6754   1.088   4.108  11.416  0.5134  0.3663 -0.1802
  453TMC3    C8 6755   0.883   3.935  11.804  0.5570  0.6233  0.6531
  453TMC3    O1 6756   0.982   4.131  11.356  0.2493 -0.0948  0.1440
  453TMC3    O2 6757   0.773   3.941  11.748 -0.6452  0.0017 -0.1190
  454MPD2     C 6758   4.613   4.181  16.363  0.0455  0.2563 -0.0624
  454MPD2    C1 6759   4.627   4.044  16.347 -0.2080  0.0346  0.2720
  454MPD2    C2 6760   4.623   3.963  16.459 -0.4100  0.1630 -0.0199
  454MPD2    C3 6761   4.620   4.027  16.583  0.2935 -0.1655  0.3607
  454MPD2    C4 6762   4.628   4.162  16.602  1.0811  0.6062 -0.3298
  454MPD2    C5 6763   4.617   4.238  16.493 -0.1355 -0.2083 -0.0295
  454MPD2     H 6764   4.616   3.856  16.442  1.6695  0.1720 -0.9467
  454MPD2    H1 6765   4.620   4.205  16.701  0.6287  0.1413 -0.1633
  454MPD2    H2 6766   4.589   4.248  16.282  1.2780 -1.4325 -1.8355
  454MPD2    H3 6767   4.610   4.344  16.515 -2.8615 -0.1511 -1.1362
  454MPD2     N 6768   4.615   3.951  16.699 -0.2013 -0.0933 -0.2425
  454MPD2    H5 6769   4.591   4.001  16.784  0.2203 -0.5599  0.1548
  454MPD2    N1 6770   4.632   3.987  16.219  0.4110  0.2110  0.6125
  454MPD2    H7 6771   4.570   3.908  16.209 -0.5092  1.1707 -1.2933
  455TMC3    C1 6772   4.525   3.757  16.801  0.6501  0.0320 -0.1109
  455TMC3    C2 6773   4.508   3.857  16.891  0.1108  0.3597 -0.1721
  455TMC3    C3 6774   4.378   3.904  16.904  0.3103 -0.0146 -0.5149
  455TMC3    C4 6775   4.421   3.695  16.732 -0.2759  0.6948  0.1668
  455TMC3    C5 6776   4.297   3.749  16.748 -0.5534 -0.5307  0.0304
  455TMC3    C6 6777   4.272   3.853  16.829 -0.1558 -0.7581 -0.3782
  455TMC3     C 6778   4.616   3.812  16.703 -0.3166  0.7347  0.0227
  455TMC3     O 6779   4.649   3.730  16.619 -0.2809  0.3487  0.0752
  455TMC3     H 6780   4.586   3.897  16.954 -0.4364 -0.1793  0.8613
  455TMC3    H1 6781   4.443   3.612  16.666 -1.5964  2.0561 -2.0020
  455TMC3    H2 6782   4.169   3.883  16.843  0.1954 -0.5175  1.6882
  455TMC3    C7 6783   4.185   3.711  16.662 -0.1203 -0.0507 -0.3101
  455TMC3    C8 6784   4.359   3.992  17.017 -0.4337 -0.0648  0.2460
  455TMC3    O1 6785   4.081   3.766  16.690 -0.3969 -0.4829  0.5206
  455TMC3    O2 6786   4.448   4.003  17.102  0.1973 -0.5359  0.5626
  456MPD2     C 6787   2.482   3.786  16.394  0.5656  0.3631 -0.2790
  456MPD2    C1 6788   2.537   3.779  16.522  0.0166  0.7341 -0.5675
  456MPD2    C2 6789   2.537   3.881  16.608  1.0217 -0.7484  0.1117
  456MPD2    C3 6790   2.487   4.004  16.564  0.2964 -0.2668  0.9402
  456MPD2    C4 6791   2.437   4.010  16.434 -0.0903  0.3852  0.2154
  456MPD2    C5 6792   2.436   3.901  16.349  0.1275  0.1180  0.4531
  456MPD2     H 6793   2.599   3.873  16.697 -1.7705  0.1665  2.1451
  456MPD2    H1 6794   2.395   4.101  16.392 -0.9132  0.0432  0.2936
  456MPD2    H2 6795   2.471   3.697  16.333 -1.4841 -1.3389  2.5745
  456MPD2    H3 6796   2.398   3.914  16.248 -0.2984 -0.5530  0.5245
  456MPD2     N 6797   2.503   4.118  16.652  0.0165 -0.3708 -0.0692
  456MPD2    H5 6798   2.531   4.101  16.748  0.0882  0.1472  0.0051
  456MPD2    N1 6799   2.611   3.662  16.553  0.1059  0.4039 -0.3704
  456MPD2    H7 6800   2.610   3.584  16.489  0.3575 -0.2736  0.4441
  457TMC3    C1 6801   2.523   4.348  16.715  0.0467  1.0371 -0.8151
  457TMC3    C2 6802   2.512   4.480  16.680 -0.3233 -0.0075 -0.1326
  457TMC3    C3 6803   2.530   4.578  16.774  0.3602  0.6827  0.3720
  457TMC3    C4 6804   2.568   4.311  16.838  0.0469  0.0823  0.1107
  457TMC3    C5 6805   2.587   4.406  16.932  0.3878  1.0720  0.5483
  457TMC3    C6 6806   2.554   4.535  16.902 -0.4263  0.3330  0.0132
  457TMC3     C 6807   2.503   4.251  16.605 -0.3508  0.2535  0.2561
  457TMC3     O 6808   2.500   4.292  16.491  0.1196  0.0643 -0.6812
  457TMC3     H 6809   2.479   4.512  16.582 -0.0989 -2.5586 -1.0500
  457TMC3    H1 6810   2.596   4.209  16.863 -2.4546 -0.5431  0.3744
  457TMC3    H2 6811   2.561   4.617  16.974  0.1390  0.3321 -0.0353
  457TMC3    C7 6812   2.584   4.361  17.072  0.2479 -0.2982 -0.8417
  457TMC3    C8 6813   2.508   4.721  16.738  0.3543  0.2446  0.1815
  457TMC3    O1 6814   2.557   4.243  17.089 -0.0413 -0.1818 -0.3944
  457TMC3    O2 6815   2.485   0.078  16.822  0.3465  0.1069 -0.1468
  458MPD2     C 6816   4.587   3.540  12.526  0.5586 -0.0842  0.1745
  458MPD2    C1 6817   4.621   3.482  12.642 -0.0325  0.0939 -0.0365
  458MPD2    C2 6818   4.531   3.383  12.689  0.3606 -0.0225 -0.5456
  458MPD2    C3 6819   4.426   3.344  12.612 -0.4855 -0.7210  0.4112
  458MPD2    C4 6820   4.403   3.406  12.485 -0.3942 -0.4887  0.1827
  458MPD2    C5 6821   4.484   3.507  12.441 -0.5586  0.6677 -0.4305
  458MPD2     H 6822   4.541   3.336  12.786  0.2098  0.2985 -0.3732
  458MPD2    H1 6823   4.328   3.376  12.412 -0.0030  0.5456 -0.6370
  458MPD2    H2 6824   4.655   3.610  12.479  1.7339 -0.9834  0.5322
  458MPD2    H3 6825   4.465   3.553  12.345 -1.2595  1.0688 -0.1043
  458MPD2     N 6826   4.340   3.252  12.674 -0.1976 -0.3908 -0.4596
  458MPD2    H5 6827   4.368   3.215  12.764 -1.0642  1.9510  0.7744
  458MPD2    N1 6828   0.005   3.529  12.712 -1.3101 -0.1010 -0.2291
  458MPD2    H7 6829   0.059   3.608  12.678  1.1699 -2.5490 -2.0266
  459TMC3    C1 6830   0.164   3.548  12.872  0.5838 -0.0604  1.1027
  459TMC3    C2 6831   0.267   3.572  12.780  0.0653 -0.0267  0.0798
  459TMC3    C3 6832   0.396   3.580  12.826 -0.4619 -0.3102 -0.2100
  459TMC3    C4 6833   0.183   3.541  13.011 -0.1807 -0.4751  0.4697
  459TMC3    C5 6834   0.319   3.529  13.047  0.5329  0.8155  0.4295
  459TMC3    C6 6835   0.421   3.550  12.959 -0.0032 -0.3865 -0.2420
  459TMC3     C 6836   0.049   3.477  12.830  0.8471  0.2584  0.2083
  459TMC3     O 6837   4.722   3.398  12.905 -0.2351  0.1624 -0.0168
  459TMC3     H 6838   0.252   3.579  12.673  2.5585 -0.1798 -0.2771
  459TMC3    H1 6839   0.095   3.533  13.074  0.2113  2.4456  1.3803
  459TMC3    H2 6840   0.524   3.532  12.988  0.0017 -0.0052 -0.0221
  459TMC3    C7 6841   0.335   3.451  13.170 -0.5020 -0.5764  0.2425
  459TMC3    C8 6842   0.499   3.637  12.750  0.0556  0.0008  1.1132
  459TMC3    O1 6843   0.232   3.396  13.206 -0.3288 -0.5540 -1.0532
  459TMC3    O2 6844   0.618   3.623  12.780  0.4901 -0.1690 -0.0591
  460MPD2     C 6845   4.344   0.723  10.581  0.1666 -0.2024  0.2418
  460MPD2    C1 6846   4.227   0.791  10.611 -0.0717  0.1057  0.9885
  460MPD2    C2 6847   4.140   0.824  10.509 -0.2159  0.1928 -0.5903
  460MPD2    C3 6848   4.151   0.759  10.383  0.4824 -0.0612  0.7177
  460MPD2    C4 6849   4.265   0.689  10.360  0.7732  0.0280  0.7546
  460MPD2    C5 6850   4.369   0.681  10.453 -0.4878  0.0057 -0.0015
  460MPD2     H 6851   4.066   0.900  10.532  1.1351  0.4507  2.8280
  460MPD2    H1 6852   4.283   0.647  10.262  0.3376  0.6746  0.3970
  460MPD2    H2 6853   4.411   0.697  10.663  1.1255  3.0394  0.4919
  460MPD2    H3 6854   4.468   0.641  10.432 -0.5247  0.3905 -0.9301
  460MPD2     N 6855   4.041   0.776  10.286  0.1158  0.0393  0.4025
  460MPD2    H5 6856   3.960   0.824  10.323 -0.8162  0.9479 -2.8023
  460MPD2    N1 6857   4.208   0.813  10.750 -0.7200  0.0537 -0.1330
  460MPD2    H7 6858   4.279   0.780  10.815 -0.2971 -1.7746 -1.5011
  461TMC3    C1 6859   3.909   0.701  10.106 -0.5442  0.0276  0.3802
  461TMC3    C2 6860   3.852   0.574  10.084  0.0622 -0.5123 -0.1467
  461TMC3    C3 6861   3.731   0.581  10.015  0.0153 -0.1475 -0.4069
  461TMC3    C4 6862   3.853   0.824  10.074  0.2632  0.0674  0.2632
  461TMC3    C5 6863   3.735   0.820  10.001 -0.4251 -0.3490  0.5937
  461TMC3    C6 6864   3.680   0.700   9.963  0.1980 -0.4008  0.1949
  461TMC3     C 6865   4.039   0.704  10.169 -0.0173 -0.3397 -0.0388
  461TMC3     O 6866   4.116   0.624  10.129  0.2192 -0.2832  0.3312
  461TMC3     H 6867   3.909   0.489  10.120  0.4992 -0.8967 -1.7749
  461TMC3    H1 6868   3.910   0.914  10.093 -0.7575  0.7661  0.0521
  461TMC3    H2 6869   3.584   0.709   9.914 -0.3861 -2.1593  0.9918
  461TMC3    C7 6870   3.671   0.939   9.963  0.4010  0.3175 -0.0435
  461TMC3    C8 6871   3.701   0.457   9.950  0.6743  0.5651 -0.1916
  461TMC3    O1 6872   3.584   0.926   9.878 -0.0060  0.2639  0.1477
  461TMC3    O2 6873   3.757   0.359   9.999  1.0595 -0.5413 -0.4897
  462TMC3    C1 6874   4.003   1.812  17.465 -0.1035 -0.0891 -0.1020
  462TMC3    C2 6875   3.921   1.721  17.396  0.4541 -0.7054  0.1865
  462TMC3    C3 6876   3.897   1.601  17.455 -0.3314 -0.1323 -1.0714
  462TMC3    C4 6877   4.049   1.785  17.590 -0.1287  0.1200 -0.5963
  462TMC3    C5 6878   4.019   1.659  17.646  0.2712 -0.5597  0.4778
  462TMC3    C6 6879   3.961   1.568  17.574  0.1620  0.0265 -0.9585
  462TMC3     C 6880   3.995   1.949  17.429 -0.4634 -0.5596  0.2843
  462TMC3     O 6881   3.963   2.032  17.514  0.2156  0.3493  0.0881
  462TMC3     H 6882   3.869   1.747  17.305 -1.0413  0.8711  1.4939
  462TMC3    H1 6883   4.100   1.869  17.635 -0.0137  0.4318 -1.3081
  462TMC3    H2 6884   3.934   1.472  17.616 -2.2056 -0.5777 -3.8774
  462TMC3    C7 6885   4.021   1.639   0.077 -0.4461 -0.2285  0.3057
  462TMC3    C8 6886   3.847   1.500  17.358 -0.4935 -0.0993 -0.0503
  462TMC3    O1 6887   3.995   1.535   0.126  0.4883  0.8430  0.2017
  462TMC3    O2 6888   3.763   1.534  17.278 -0.4636 -0.5058  0.3394
  463MPD2     C 6889   0.499   4.340   1.525  0.3690 -0.0859  0.2493
  463MPD2    C1 6890   0.519   4.481   1.511  0.2515  0.3582 -0.8466
  463MPD2    C2 6891   0.615   4.527   1.424  0.3012 -0.3315 -0.0247
  463MPD2    C3 6892   0.699   4.447   1.363 -0.0443  0.0610  0.8338
  463MPD2    C4 6893   0.679   4.314   1.372  0.2351 -0.3994 -0.2427
  463MPD2    C5 6894   0.576   4.265   1.454 -0.5821 -0.1764  0.3580
  463MPD2     H 6895   0.634   4.633   1.424  1.1994 -0.4752 -2.5140
  463MPD2    H1 6896   0.729   4.234   1.320  0.5553 -0.8171  0.6985
  463MPD2    H2 6897   0.422   4.295   1.586  1.0856 -2.3283 -0.5209
  463MPD2    H3 6898   0.568   4.158   1.466 -2.4708 -0.1831 -0.9076
  463MPD2     N 6899   0.815   4.489   1.292 -0.6151  0.4046 -0.6676
  463MPD2    H5 6900   0.863   4.414   1.243 -0.4113 -0.3269  0.6369
  463MPD2    N1 6901   0.448   4.572   1.594  0.4171  0.2440 -0.2288
  463MPD2    H7 6902   0.481   4.668   1.590 -1.0705  0.7440 -0.5369
  464TMC3    C1 6903   0.334   4.662   1.779 -0.1971 -0.8817 -0.1230
  464TMC3    C2 6904   0.294   0.052   1.723 -0.3127 -0.0432 -0.0938
  464TMC3    C3 6905   0.200   0.130   1.783  0.2520 -0.9149  0.0253
  464TMC3    C4 6906   0.285   4.626   1.904 -0.3577 -0.3089 -0.2437
  464TMC3    C5 6907   0.196   4.718   1.971  0.5657 -0.2837  0.4257
  464TMC3    C6 6908   0.148   0.096   1.900  0.3662 -0.5303 -0.5921
  464TMC3     C 6909   0.377   4.539   1.704 -0.1311  0.1080 -0.1147
  464TMC3     O 6910   0.366   4.427   1.756  0.1825  0.0035 -0.0009
  464TMC3     H 6911   0.303   0.062   1.615 -1.0648  2.2531  0.0610
  464TMC3    H1 6912   0.313   4.535   1.957 -1.5018 -0.6992 -0.2882
  464TMC3    H2 6913   0.072   0.151   1.954  1.8486  1.4991 -0.5743
  464TMC3    C7 6914   0.096   4.648   2.058 -0.4797  0.7074 -0.3737
  464TMC3    C8 6915   0.120   0.210   1.701 -0.5214 -0.3158 -0.0605
  464TMC3    O1 6916   0.135   4.571   2.148 -0.4693  0.3362  0.7411
  464TMC3    O2 6917   0.135   0.201   1.578 -0.9226 -0.1844  0.0595
  465MPD2     C 6918   1.285   3.781  16.095  0.9768 -0.5208 -0.3318
  465MPD2    C1 6919   1.206   3.778  16.205  0.0520 -0.0182  0.4159
  465MPD2    C2 6920   1.083   3.845  16.201 -0.0397 -0.0596 -0.4452
  465MPD2    C3 6921   1.049   3.921  16.092 -0.6844 -0.3585  0.0476
  465MPD2    C4 6922   1.127   3.919  15.981  0.6075 -0.2198 -0.0065
  465MPD2    C5 6923   1.246   3.848  15.984 -0.5540 -0.0277  0.3108
  465MPD2     H 6924   1.033   3.848  16.297 -1.2140  1.7108 -1.1095
  465MPD2    H1 6925   1.118   3.968  15.884  0.9923 -0.1682 -0.0145
  465MPD2    H2 6926   1.387   3.745  16.095  1.1326 -0.1161  1.9143
  465MPD2    H3 6927   1.322   3.849  15.906 -1.1268 -3.7289 -0.2990
  465MPD2     N 6928   0.929   3.998  16.106  0.9394 -0.3440 -0.7871
  465MPD2    H5 6929   0.885   4.005  16.198  1.9736 -0.0712 -0.3097
  465MPD2    N1 6930   1.238   3.696  16.315  0.2722  0.2867 -0.2931
  465MPD2    H7 6931   1.173   3.691  16.393  0.0511 -1.1313 -0.5634
  466TMC3    C1 6932   0.670   4.242  16.252  0.5580 -0.7038  0.2697
  466TMC3    C2 6933   0.688   4.365  16.200 -0.7911  0.7139 -0.1820
  466TMC3    C3 6934   0.739   4.385  16.073  0.0683 -0.0315  0.0719
  466TMC3    C4 6935   0.708   4.132  16.175 -0.4556 -0.6627 -1.0242
  466TMC3    C5 6936   0.757   4.153  16.047  0.3012  0.5048 -0.7931
  466TMC3    C6 6937   0.765   4.279  15.993  0.2765  0.7487  0.2414
  466TMC3     C 6938   0.679   4.224  16.393  0.5820 -0.4512 -0.2787
  466TMC3     O 6939   0.740   4.122  16.432  0.2983 -0.5540 -0.0713
  466TMC3     H 6940   0.651   4.453  16.252 -2.5044  0.1537 -0.4739
  466TMC3    H1 6941   0.693   4.034  16.218 -1.9786 -0.3017 -0.7247
  466TMC3    H2 6942   0.826   4.283  15.903 -0.4407 -1.7321 -0.3607
  466TMC3    C7 6943   0.876   4.078  16.005 -0.6563 -0.2135  0.4399
  466TMC3    C8 6944   0.815   4.500  16.034 -0.1144 -0.3956  0.0745
  466TMC3    O1 6945   0.917   4.082  15.891  0.0523 -0.5860 -0.3630
  466TMC3    O2 6946   0.843   4.514  15.912  0.0990  0.0613  0.5080
  467TMC3    C1 6947   1.825   2.697  13.979 -0.0793 -0.0842 -0.7383
  467TMC3    C2 6948   1.914   2.650  13.882  0.2516 -0.4828 -0.8072
  467TMC3    C3 6949   1.859   2.650  13.755  0.2077 -0.4914  0.0242
  467TMC3    C4 6950   1.695   2.728  13.954  0.2764  0.5587 -0.3236
  467TMC3    C5 6951   1.642   2.700  13.830  0.1163 -0.5206  0.1482
  467TMC3    C6 6952   1.729   2.669  13.729  0.0029 -0.0339  0.1968
  467TMC3     C 6953   1.897   2.783  14.067  0.3198  0.3215 -0.0276
  467TMC3     O 6954   1.970   2.736  14.151 -0.1134 -0.1149  0.5565
  467TMC3     H 6955   2.020   2.647  13.903  0.6867 -2.5279 -3.4412
  467TMC3    H1 6956   1.643   2.781  14.033  2.4575  0.8264  0.9289
  467TMC3    H2 6957   1.692   2.684  13.628  1.4725  0.5206 -0.2572
  467TMC3    C7 6958   1.508   2.738  13.795  0.7292  0.3599 -0.3873
  467TMC3    C8 6959   1.957   2.713  13.657 -0.1370  0.6365 -0.0379
  467TMC3    O1 6960   1.493   2.782  13.682 -0.3995  0.2046 -0.2532
  467TMC3    O2 6961   2.055   2.764  13.709  0.2929  0.1602 -0.1132
  468MPD2     C 6962   0.866   0.386  11.280 -0.1939  0.1913  0.6151
  468MPD2    C1 6963   0.997   0.343  11.261 -0.0350  0.2530  0.2560
  468MPD2    C2 6964   1.025   0.236  11.183  0.5307 -0.0181  0.6253
  468MPD2    C3 6965   0.916   0.173  11.125  1.0748 -0.9763 -0.4114
  468MPD2    C4 6966   0.783   0.210  11.150  0.4393  0.5590 -0.6088
  468MPD2    C5 6967   0.757   0.317  11.227 -0.3002  0.2101 -0.2817
  468MPD2     H 6968   1.126   0.202  11.165  0.0817 -0.3077 -1.3527
  468MPD2    H1 6969   0.703   0.159  11.097  0.2581 -0.9458  1.0788
  468MPD2    H2 6970   0.850   0.478  11.336  1.7933  1.5225 -1.0044
  468MPD2    H3 6971   0.656   0.354  11.241 -0.9579 -0.7542 -2.5028
  468MPD2     N 6972   0.930   0.056  11.046  0.3276 -0.3495 -0.5322
  468MPD2    H5 6973   0.847   0.006  11.016  0.8755 -0.1891 -2.2976
  468MPD2    N1 6974   1.109   0.415  11.293 -0.4265  0.0351  0.3909
  468MPD2    H7 6975   1.195   0.370  11.262  0.3321 -0.3431  3.0061
  469TMC3    C1 6976   1.257   0.578  11.378 -0.0316  0.0680 -0.2733
  469TMC3    C2 6977   1.365   0.525  11.304  0.2397 -0.1586 -0.2364
  469TMC3    C3 6978   1.476   0.603  11.291 -0.4669  0.1481 -0.3569
  469TMC3    C4 6979   1.261   0.701  11.435 -0.7543 -0.2040  0.6220
  469TMC3    C5 6980   1.376   0.774  11.421  0.6312  0.1921 -0.1542
  469TMC3    C6 6981   1.476   0.731  11.344 -0.2166  0.1880 -0.5109
  469TMC3     C 6982   1.119   0.528  11.358 -0.5760  0.7395 -0.2591
  469TMC3     O 6983   1.024   0.595  11.394  0.1140  0.5273 -0.2106
  469TMC3     H 6984   1.371   0.422  11.268 -0.3119  0.1033 -1.0678
  469TMC3    H1 6985   1.182   0.736  11.501 -0.0771  0.6476  0.9801
  469TMC3    H2 6986   1.561   0.794  11.321 -0.4649  0.7040 -0.0189
  469TMC3    C7 6987   1.428   0.837  11.540  0.2291  0.2191  0.4560
  469TMC3    C8 6988   1.593   0.523  11.324 -0.5883 -0.0751 -0.2234
  469TMC3    O1 6989   1.552   0.822  11.552  0.5086 -0.1223  0.2479
  469TMC3    O2 6990   1.606   0.420  11.260 -0.4275 -0.3959 -0.3494
  470TMC3    C1 6991   3.102   2.056   1.203  0.1118  0.3843 -0.1642
  470TMC3    C2 6992   3.120   2.146   1.298 -0.0239  0.2916 -0.0562
  470TMC3    C3 6993   3.005   2.219   1.340 -0.1274  0.3157 -0.3574
  470TMC3    C4 6994   2.988   2.047   1.127 -0.1946 -0.9861 -0.5160
  470TMC3    C5 6995   2.882   2.127   1.170 -0.1620 -0.8235  0.7655
  470TMC3    C6 6996   2.892   2.208   1.271 -0.1403 -0.2980 -0.3665
  470TMC3     C 6997   3.222   2.027   1.129 -0.3813 -0.4082 -0.5959
  470TMC3     O 6998   3.318   2.091   1.165  0.6665 -0.1721  0.0256
  470TMC3     H 6999   3.213   2.164   1.350  1.0840 -1.0377 -1.6160
  470TMC3    H1 7000   2.977   1.996   1.032  2.0435  1.3575 -2.0289
  470TMC3    H2 7001   2.809   2.259   1.318 -0.6497  0.3731 -1.9741
  470TMC3    C7 7002   2.773   2.136   1.075 -0.0134 -0.9015 -0.3938
  470TMC3    C8 7003   3.027   2.337   1.417  0.1022  0.0666  1.1690
  470TMC3    O1 7004   2.768   2.055   0.988 -0.1374 -0.2233 -0.0571
  470TMC3    O2 7005   2.945   2.429   1.418  0.1080  0.3414 -0.1762
  471MPD2     C 7006   3.823   2.885  16.356  0.9608  0.0936  0.1296
  471MPD2    C1 7007   3.705   2.812  16.372 -0.0034 -0.0610  0.4369
  471MPD2    C2 7008   3.655   2.788  16.499 -0.4893 -0.1089 -0.6744
  471MPD2    C3 7009   3.727   2.821  16.614  0.5627 -0.2386  0.4821
  471MPD2    C4 7010   3.840   2.889  16.596  0.2569  0.3969 -0.6671
  471MPD2    C5 7011   3.888   2.924  16.470 -0.3692 -0.2017  0.6129
  471MPD2     H 7012   3.571   2.721  16.503  0.9566 -1.7756  1.6638
  471MPD2    H1 7013   3.900   2.921  16.680  3.5495 -2.6049 -1.8743
  471MPD2    H2 7014   3.871   2.909  16.262  2.9017 -1.3092  0.7862
  471MPD2    H3 7015   3.985   2.972  16.462  0.1071 -1.0399  1.2663
  471MPD2     N 7016   3.695   2.783  16.742  0.5513  0.1168 -0.0519
  471MPD2    H5 7017   3.763   2.801  16.815 -1.2073  1.5309  1.2233
  471MPD2    N1 7018   3.632   2.754  16.269 -0.0742  0.4908 -0.2399
  471MPD2    H7 7019   3.534   2.728  16.273  0.0197  0.6203  2.5898
  472TMC3    C1 7020   3.623   2.637  16.069 -0.0351  0.1445 -0.3382
  472TMC3    C2 7021   3.499   2.693  16.046  0.9245 -0.0091  0.1129
  472TMC3    C3 7022   3.389   2.613  16.022  0.7586  0.5453 -0.3291
  472TMC3    C4 7023   3.628   2.497  16.068 -0.0295 -0.3669  0.6086
  472TMC3    C5 7024   3.523   2.415  16.044 -0.6193  0.3585  0.0024
  472TMC3    C6 7025   3.397   2.472  16.023 -0.0902 -0.5836  0.1410
  472TMC3     C 7026   3.700   2.704  16.166  0.8727 -0.3805  0.6243
  472TMC3     O 7027   3.822   2.690  16.157 -0.4427  0.0463 -0.1652
  472TMC3     H 7028   3.484   2.800  16.053  0.7033 -0.0624  0.4271
  472TMC3    H1 7029   3.722   2.445  16.082  2.5061  3.6675 -1.3029
  472TMC3    H2 7030   3.306   2.414  16.014 -0.0781 -0.2903 -1.9284
  472TMC3    C7 7031   3.523   2.288  16.109 -0.1062 -0.0875  0.1484
  472TMC3    C8 7032   3.267   2.675  16.063 -0.0275  0.0754 -0.4075
  472TMC3    O1 7033   3.576   2.287  16.218 -0.9385  0.4636  0.0063
  472TMC3    O2 7034   3.267   2.797  16.068  0.1589  0.0843 -0.2911
  473MPD2     C 7035   3.981   0.408  13.624 -0.4308 -0.1181  0.4446
  473MPD2    C1 7036   3.860   0.457  13.680  0.0106  0.6547  0.3116
  473MPD2    C2 7037   3.868   0.537  13.789  0.3915  0.0732  0.1555
  473MPD2    C3 7038   3.990   0.564  13.843  0.3522 -0.2837  0.8141
  473MPD2    C4 7039   4.104   0.504  13.792  0.2854 -0.2406  0.5877
  473MPD2    C5 7040   4.101   0.435  13.681 -0.0568 -0.5208  0.6460
  473MPD2     H 7041   3.775   0.582  13.822  0.1482 -0.6579  0.4797
  473MPD2    H1 7042   4.196   0.503  13.850  0.0223  0.9299  1.0193
  473MPD2    H2 7043   3.988   0.340  13.541  1.1203  3.8571 -2.6616
  473MPD2    H3 7044   4.188   0.378  13.648 -0.5391 -1.5152  1.0957
  473MPD2     N 7045   4.012   0.652  13.952  0.0932 -0.1292  0.1029
  473MPD2    H5 7046   4.104   0.659  13.994  0.0831  0.4922  0.0312
  473MPD2    N1 7047   3.736   0.417  13.628 -0.1845 -0.2242  0.5441
  473MPD2    H7 7048   3.651   0.438  13.680  0.4037 -0.5157  1.6164
  474TMC3    C1 7049   3.934   0.791  14.132 -0.7600  0.1859 -0.1311
  474TMC3    C2 7050   3.850   0.890  14.161 -0.2112  0.0227  0.3551
  474TMC3    C3 7051   3.857   0.954  14.279  0.5219 -0.7186 -0.0900
  474TMC3    C4 7052   4.039   0.762  14.213  0.1847 -0.1127 -0.1791
  474TMC3    C5 7053   4.047   0.829  14.334  0.3689 -0.2252 -0.0099
  474TMC3    C6 7054   3.951   0.927  14.370 -0.9325  1.0128 -0.5282
  474TMC3     C 7055   3.910   0.728  14.004 -0.4425 -0.8859 -0.3968
  474TMC3     O 7056   3.803   0.755  13.959 -0.1404 -0.0371  0.0175
  474TMC3     H 7057   3.768   0.906  14.092  1.3550  0.7025 -1.3217
  474TMC3    H1 7058   4.108   0.682  14.190  0.2657  0.6720 -2.7000
  474TMC3    H2 7059   3.966   0.985  14.461 -0.8903 -2.5349  1.7077
  474TMC3    C7 7060   4.184   0.831  14.388  0.1077  0.4532 -0.3680
  474TMC3    C8 7061   3.770   1.062  14.298  0.4578 -0.2668 -0.1683
  474TMC3    O1 7062   4.280   0.799  14.313 -0.1642  0.8153 -0.2165
  474TMC3    O2 7063   3.726   1.117  14.200  0.5888 -0.0293  0.1179
  475MPD2     C 7064   2.363   3.293  11.107  0.5638 -0.1571 -0.0276
  475MPD2    C1 7065   2.328   3.239  10.985  0.2686  0.0181  0.4340
  475MPD2    C2 7066   2.198   3.209  10.962 -0.6611  0.4173 -0.3689
  475MPD2    C3 7067   2.100   3.223  11.061 -0.2690 -0.2220 -0.3230
  475MPD2    C4 7068   2.137   3.267  11.187  0.2275  0.0823 -0.2758
  475MPD2    C5 7069   2.265   3.306  11.212 -0.2793  0.1163 -0.0438
  475MPD2     H 7070   2.159   3.172  10.868  0.2305  0.9361 -0.9420
  475MPD2    H1 7071   2.076   3.266  11.277  1.1150  0.7181  0.3314
  475MPD2    H2 7072   2.462   3.329  11.131  1.1988  0.0795 -3.0853
  475MPD2    H3 7073   2.292   3.331  11.314 -0.2481 -0.6433  0.1317
  475MPD2     N 7074   1.968   3.187  11.027 -0.5427  0.5893  0.1294
  475MPD2    H5 7075   1.953   3.152  10.933  2.3710 -1.4091  0.3839
  475MPD2    N1 7076   2.433   3.218  10.893  0.5619  0.1413  0.4816
  475MPD2    H7 7077   2.527   3.241  10.923 -0.1782 -0.0255  2.9715
  476TMC3    C1 7078   2.525   3.167  10.677  0.9194  0.6478  0.2119
  476TMC3    C2 7079   2.504   3.104  10.560  0.0161 -0.1388  0.8068
  476TMC3    C3 7080   2.596   3.116  10.467 -0.5609  0.2936  0.2995
  476TMC3    C4 7081   2.636   3.236  10.704 -0.5354  0.0998  0.2781
  476TMC3    C5 7082   2.740   3.222  10.609  0.2381  0.2998  0.6681
  476TMC3    C6 7083   2.722   3.160  10.490 -0.2018 -0.5855 -0.3630
  476TMC3     C 7084   2.402   3.173  10.762 -0.5170  0.6061 -0.1554
  476TMC3     O 7085   2.296   3.140  10.706 -0.1803 -0.1309  0.2388
  476TMC3     H 7086   2.406   3.063  10.537  1.2032 -2.7632  0.3985
  476TMC3    H1 7087   2.645   3.292  10.797 -3.7040  0.6568  0.2624
  476TMC3    H2 7088   2.792   3.147  10.408  1.1269 -1.4946  0.9045
  476TMC3    C7 7089   2.878   3.276  10.628  0.3218 -0.1769 -0.2416
  476TMC3    C8 7090   2.549   3.141  10.333 -0.5546 -0.1849 -0.3316
  476TMC3    O1 7091   2.951   3.284  10.534 -0.1939 -0.4853  0.1646
  476TMC3    O2 7092   2.608   3.222  10.253 -0.1383 -0.4429  0.3453
  477MPD2     C 7093   0.079   0.090  11.509  1.0275  0.1221  0.0057
  477MPD2    C1 7094   4.692   0.055  11.575 -0.2631  0.3440 -1.1227
  477MPD2    C2 7095   4.707   0.004  11.703  0.1690  0.9950  0.4533
  477MPD2    C3 7096   0.102   4.700  11.760  0.5549  0.3425  0.1193
  477MPD2    C4 7097   0.218   0.001  11.695 -0.4763  0.5729  0.7473
  477MPD2    C5 7098   0.201   0.065  11.570  0.8730  0.2882  0.3973
  477MPD2     H 7099   4.621   4.704  11.765  0.1156 -1.2078 -0.5989
  477MPD2    H1 7100   0.319   4.715  11.733 -0.1949 -2.4505 -1.1080
  477MPD2    H2 7101   0.087   0.145  11.416 -0.7983  1.0963  0.4356
  477MPD2    H3 7102   0.290   0.098  11.519  1.1517  0.1989  0.8236
  477MPD2     N 7103   0.089   4.651  11.892  0.0248 -0.4637  0.3228
  477MPD2    H5 7104   4.725   4.637  11.932 -0.2928 -1.0623 -0.6179
  477MPD2    N1 7105   4.571   0.086  11.518  0.1118  0.2156 -0.5147
  477MPD2    H7 7106   4.573   0.104  11.419  1.4459  0.5583 -0.4160
  478TMC3    C1 7107   4.341   0.123  11.498  0.1721  0.0404  1.4152
  478TMC3    C2 7108   4.237   0.182  11.570  0.1677  0.7222 -0.3920
  478TMC3    C3 7109   4.183   0.295  11.524 -0.0381 -0.0436  0.4444
  478TMC3    C4 7110   4.374   0.172  11.368 -0.4086  0.4556 -0.9619
  478TMC3    C5 7111   4.310   0.287  11.324 -0.1109 -0.6740 -0.3314
  478TMC3    C6 7112   4.215   0.346  11.404  0.3951  0.1670 -0.1470
  478TMC3     C 7113   4.447   0.084  11.585 -0.2239  0.4500  0.3647
  478TMC3     O 7114   4.428   0.080  11.708  0.5362  0.2891 -0.0094
  478TMC3     H 7115   4.221   0.156  11.674  0.4624 -0.1263 -0.5624
  478TMC3    H1 7116   4.439   0.111  11.307 -2.3428 -1.7452 -0.8577
  478TMC3    H2 7117   4.183   0.447  11.380 -1.1794  0.2710  2.3360
  478TMC3    C7 7118   4.323   0.315  11.178 -0.4145  0.1038 -0.6307
  478TMC3    C8 7119   4.151   0.386  11.635 -0.0037 -0.5073 -0.0830
  478TMC3    O1 7120   4.433   0.274  11.135 -0.4348 -0.1964  0.0819
  478TMC3    O2 7121   4.185   0.358  11.747  0.1686 -0.3234 -0.2139
  479MPD2     C 7122   3.054   1.982  15.115 -0.4283  0.0742  0.0190
  479MPD2    C1 7123   2.958   1.979  15.218 -0.7109  0.3202  0.6412
  479MPD2    C2 7124   2.998   2.004  15.348  0.1770 -0.2670 -0.4531
  479MPD2    C3 7125   3.132   2.045  15.380 -0.3565 -0.8529 -0.1512
  479MPD2    C4 7126   3.220   2.050  15.269  0.4627  0.2545  0.0071
  479MPD2    C5 7127   3.177   2.040  15.139  0.6397 -0.2879 -0.5760
  479MPD2     H 7128   2.930   1.988  15.430 -0.6142 -0.4483 -1.1480
  479MPD2    H1 7129   3.325   2.075  15.283 -0.1612  2.9053 -0.0624
  479MPD2    H2 7130   3.033   1.964  15.010 -1.4880  0.8588  0.0918
  479MPD2    H3 7131   3.250   2.060  15.061 -0.0347 -0.8267 -1.3406
  479MPD2     N 7132   3.182   2.067  15.511 -0.2295 -0.4528  0.3435
  479MPD2    H5 7133   3.282   2.074  15.521  0.0225 -0.9787 -1.8397
  479MPD2    N1 7134   2.829   1.927  15.194  0.1150  0.5874 -0.1397
  479MPD2    H7 7135   2.816   1.887  15.102  0.1242  1.5909 -0.5847
  480TMC3    C1 7136   2.780   2.101  15.758  0.1817  0.1172 -0.6226
  480TMC3    C2 7137   2.730   2.204  15.686 -0.5191 -0.0176 -0.1527
  480TMC3    C3 7138   2.810   2.264  15.595 -0.3255  0.5503  0.4710
  480TMC3    C4 7139   2.905   2.048  15.739 -0.3219  0.3361  0.4346
  480TMC3    C5 7140   2.976   2.102  15.633  0.3809 -0.3048 -0.0715
  480TMC3    C6 7141   2.937   2.216  15.571 -0.1664 -0.1136 -0.2220
  480TMC3     C 7142   2.698   2.042  15.864  0.3952  1.0225 -0.2050
  480TMC3     O 7143   2.712   1.921  15.884 -0.2819 -0.1810 -0.5856
  480TMC3     H 7144   2.625   2.229  15.681  0.0255  2.4559  0.5741
  480TMC3    H1 7145   2.939   1.957  15.787 -1.6003 -0.0225  0.6607
  480TMC3    H2 7146   3.011   2.248  15.498  0.2614  3.5989  1.8160
  480TMC3    C7 7147   3.112   2.075  15.628  0.4631 -0.3616 -0.5933
  480TMC3    C8 7148   2.766   2.384  15.519  0.2204  0.0028  0.7236
  480TMC3    O1 7149   3.155   2.064  15.739 -0.3486  0.2680  0.0154
  480TMC3    O2 7150   2.666   2.438  15.564 -0.0576 -0.0913  0.2020
  481MPD2     C 7151   0.329   2.277  14.256  0.0479  0.1248  0.4394
  481MPD2    C1 7152   0.227   2.191  14.258 -0.7319 -0.5910 -0.0109
  481MPD2    C2 7153   0.148   2.173  14.370 -0.0582 -0.9305 -0.1884
  481MPD2    C3 7154   0.179   2.239  14.490 -0.3042 -0.2883 -0.1686
  481MPD2    C4 7155   0.282   2.328  14.488 -0.6100  0.9816  0.1392
  481MPD2    C5 7156   0.353   2.344  14.374  0.3258  0.1343 -0.1842
  481MPD2     H 7157   0.060   2.110  14.364  0.6455 -2.0279  1.2969
  481MPD2    H1 7158   0.306   2.384  14.577 -0.8891  0.5682  0.4713
  481MPD2    H2 7159   0.394   2.294  14.171 -0.2367 -0.4528  0.1093
  481MPD2    H3 7160   0.433   2.417  14.378  0.9387 -0.5441  0.0099
  481MPD2     N 7161   0.123   2.201  14.618  0.5347  0.0806 -0.1397
  481MPD2    H5 7162   0.145   2.258  14.699 -1.5707  1.1694 -0.3387
  481MPD2    N1 7163   0.193   2.137  14.124 -0.3794  0.2879 -0.2005
  481MPD2    H7 7164   0.247   2.178  14.048 -1.3067  1.8709 -0.0280
  482TMC3    C1 7165   0.149   1.983  13.960 -0.6230 -0.6146  0.7401
  482TMC3    C2 7166   0.198   1.861  13.964  0.1210 -0.1009  0.3712
  482TMC3    C3 7167   0.251   1.813  13.850  0.0157 -0.0081 -0.4573
  482TMC3    C4 7168   0.152   2.062  13.850 -0.0504 -0.3301 -0.0271
  482TMC3    C5 7169   0.196   2.008  13.735 -0.2504 -0.2073 -0.0457
  482TMC3    C6 7170   0.247   1.879  13.734 -0.0582  0.2357  0.4010
  482TMC3     C 7171   0.106   2.040  14.088  0.3106  0.0001  0.5810
  482TMC3     O 7172   0.037   1.967  14.157  0.2081  0.1257  0.1207
  482TMC3     H 7173   0.205   1.809  14.059  1.3107 -0.6024  0.0050
  482TMC3    H1 7174   0.121   2.165  13.853 -0.1570 -0.3652  0.0753
  482TMC3    H2 7175   0.290   1.835  13.645  1.5849 -1.4638  2.0535
  482TMC3    C7 7176   0.118   2.046  13.619 -0.0194 -0.5611 -0.3406
  482TMC3    C8 7177   0.297   1.673  13.853  0.4683  0.0530  0.1485
  482TMC3    O1 7178   0.054   2.146  13.638  0.2476 -0.6765 -0.0675
  482TMC3    O2 7179   0.217   1.602  13.908 -0.0759 -0.0026  0.1948
  483TMC3    C1 7180   2.721   1.264   0.900 -0.3542 -0.7130  0.3254
  483TMC3    C2 7181   2.819   1.358   0.915  0.0920  0.3180  0.4805
  483TMC3    C3 7182   2.884   1.361   1.042 -0.5155 -0.9945 -0.5436
  483TMC3    C4 7183   2.677   1.189   1.002  0.1192  0.3233 -0.1301
  483TMC3    C5 7184   2.728   1.204   1.128  0.3381  0.5623 -0.1706
  483TMC3    C6 7185   2.831   1.294   1.151 -0.9167  0.0006  0.5967
  483TMC3     C 7186   2.690   1.221   0.767  0.2714 -0.1233  0.0832
  483TMC3     O 7187   2.710   1.306   0.682  0.4372 -0.1809 -0.3195
  483TMC3     H 7188   2.856   1.411   0.828  0.6946 -0.1202  0.4670
  483TMC3    H1 7189   2.581   1.139   0.989 -0.2297  0.4229  1.9216
  483TMC3    H2 7190   2.878   1.277   1.248 -0.9088 -2.0474  0.2425
  483TMC3    C7 7191   2.698   1.091   1.222  0.0457  0.5147 -0.2733
  483TMC3    C8 7192   3.026   1.385   1.027 -0.2390  0.0995  0.2514
  483TMC3    O1 7193   2.679   0.985   1.164  0.1116 -0.4910 -0.3065
  483TMC3    O2 7194   3.061   1.387   0.913  0.0477  0.4323  0.4531
  484MPD2     C 7195   0.472   3.813  12.418 -0.6037  0.7814  0.3662
  484MPD2    C1 7196   0.536   3.746  12.522  0.3042 -0.1971  0.1877
  484MPD2    C2 7197   0.675   3.723  12.517  0.2315  0.2336  0.1592
  484MPD2    C3 7198   0.741   3.763  12.403  0.1792  0.3558  0.3814
  484MPD2    C4 7199   0.678   3.829  12.300  0.7392 -0.4565  0.6455
  484MPD2    C5 7200   0.546   3.852  12.311 -0.3845  0.1185 -0.3409
  484MPD2     H 7201   0.735   3.672  12.592  0.8545  1.7965  0.7301
  484MPD2    H1 7202   0.725   3.872  12.212 -0.3789  0.8178  0.6722
  484MPD2    H2 7203   0.371   3.853  12.426 -1.7877 -2.3028  0.6220
  484MPD2    H3 7204   0.493   3.903  12.231  0.8634  0.2969 -1.0372
  484MPD2     N 7205   0.881   3.757  12.388  0.2345 -0.2775 -0.4196
  484MPD2    H5 7206   0.919   3.801  12.304  0.6219 -0.6623 -0.4462
  484MPD2    N1 7207   0.457   3.705  12.634  0.5512  0.5934  0.9723
  484MPD2    H7 7208   0.358   3.728  12.626  0.4798 -0.2808 -0.4948
  485TMC3    C1 7209   1.099   3.749  12.443 -0.0772 -0.3734 -1.3937
  485TMC3    C2 7210   1.203   3.696  12.516 -0.3888  0.0407  0.2019
  485TMC3    C3 7211   1.329   3.731  12.476 -0.0678  0.2298 -0.4931
  485TMC3    C4 7212   1.112   3.830  12.333 -0.7580  0.6876  0.0259
  485TMC3    C5 7213   1.240   3.856  12.285  0.0086 -0.0029  0.2076
  485TMC3    C6 7214   1.341   3.802  12.354  0.1932 -0.3586  0.0368
  485TMC3     C 7215   0.968   3.698  12.475 -0.6395 -0.1092 -0.1992
  485TMC3     O 7216   0.956   3.661  12.589  0.3912  0.1451 -0.2150
  485TMC3     H 7217   1.181   3.651  12.612  1.1210  1.2496  1.1208
  485TMC3    H1 7218   1.036   3.874  12.269 -0.1573 -1.8527 -2.4464
  485TMC3    H2 7219   1.442   3.839  12.338 -0.7730  1.8880 -0.8346
  485TMC3    C7 7220   1.261   3.842  12.142 -0.1093  0.4133  0.0485
  485TMC3    C8 7221   1.419   3.617  12.483 -0.1049 -0.3061  0.0621
  485TMC3    O1 7222   1.173   3.874  12.064 -0.0713 -0.1974 -0.6828
  485TMC3    O2 7223   1.524   3.636  12.422  0.5290 -0.2012  0.4329
  486MPD2     C 7224   2.943   2.374  12.165  0.1702  0.0371 -0.8000
  486MPD2    C1 7225   2.877   2.350  12.286  0.0220  0.0423  0.2598
  486MPD2    C2 7226   2.746   2.391  12.291  0.5819  0.3021 -0.0346
  486MPD2    C3 7227   2.679   2.439  12.184 -0.7573 -0.2477 -0.7828
  486MPD2    C4 7228   2.740   2.450  12.061 -0.0309  0.1516  0.2827
  486MPD2    C5 7229   2.875   2.414  12.055  0.4335 -0.1352 -0.4823
  486MPD2     H 7230   2.692   2.383  12.384  0.9325 -0.9655  0.0517
  486MPD2    H1 7231   2.692   2.496  11.975 -0.2454 -3.1546 -1.3892
  486MPD2    H2 7232   3.049   2.357  12.149  0.4095 -0.1383  0.9655
  486MPD2    H3 7233   2.923   2.410  11.958 -1.4658  1.0018 -1.4507
  486MPD2     N 7234   2.543   2.467  12.200 -0.6829 -0.2258  0.3286
  486MPD2    H5 7235   2.501   2.459  12.292 -2.7365  1.3459 -0.4895
  486MPD2    N1 7236   2.957   2.314  12.397 -0.1004  0.0040  0.0126
  486MPD2    H7 7237   3.050   2.280  12.373 -0.6081 -0.3750 -1.4484
  487TMC3    C1 7238   3.012   2.284  12.630  0.0638 -0.0081  0.2040
  487TMC3    C2 7239   3.055   2.158  12.616  0.6410 -0.2758  0.0514
  487TMC3    C3 7240   3.132   2.105  12.716  0.0472 -0.3721  0.4669
  487TMC3    C4 7241   3.015   2.349  12.752 -0.1680  0.6163 -0.5381
  487TMC3    C5 7242   3.077   2.282  12.854  0.1219 -1.1635 -0.1978
  487TMC3    C6 7243   3.152   2.177  12.831  0.8123  0.7461  0.4831
  487TMC3     C 7244   2.913   2.329  12.526 -0.4086 -0.0398 -0.3735
  487TMC3     O 7245   2.805   2.369  12.573 -0.0187 -0.8535 -0.6163
  487TMC3     H 7246   3.041   2.104  12.523 -5.5186 -2.9049  2.4970
  487TMC3    H1 7247   2.953   2.437  12.762 -0.8226  0.1032 -0.1166
  487TMC3    H2 7248   3.173   2.118  12.920 -1.4133 -0.9147 -0.0917
  487TMC3    C7 7249   3.053   2.323  12.994 -0.4762 -0.4020  1.0679
  487TMC3    C8 7250   3.100   1.968  12.752 -0.3789 -0.7701 -0.2050
  487TMC3    O1 7251   3.021   2.235  13.074 -0.0084  0.2082  0.3718
  487TMC3    O2 7252   2.995   1.912  12.728 -0.0826 -0.1846  0.4168
  488MPD2     C 7253   3.100   3.942  16.532  0.3761 -0.3460  0.3757
  488MPD2    C1 7254   3.133   4.057  16.594  0.3385  0.3373  0.0538
  488MPD2    C2 7255   3.100   4.070  16.728  0.8115  0.1496 -0.1422
  488MPD2    C3 7256   3.025   3.975  16.795  0.4001 -0.0986  0.2588
  488MPD2    C4 7257   2.976   3.873  16.718 -0.3111 -0.4047 -0.6373
  488MPD2    C5 7258   3.024   3.852  16.592  0.6115 -0.1481 -0.3829
  488MPD2     H 7259   3.136   4.152  16.788 -0.3053  1.6792 -1.5597
  488MPD2    H1 7260   2.916   3.794  16.763  2.5289 -1.3847  1.5134
  488MPD2    H2 7261   3.128   3.924  16.429 -1.8173 -0.1193 -0.2609
  488MPD2    H3 7262   2.972   3.773  16.540 -0.4345 -0.3888  1.0313
  488MPD2     N 7263   2.991   4.006  16.929 -0.4180  0.5038 -0.1226
  488MPD2    H5 7264   3.048   4.074  16.978 -0.2928  0.7124 -0.5547
  488MPD2    N1 7265   3.200   4.167  16.529  0.0666  0.0505  0.1136
  488MPD2    H7 7266   3.191   4.246  16.592 -0.3217 -0.4627  0.7019
  489TMC3    C1 7267   2.874   4.004  17.128 -0.6370  0.0058 -0.1055
  489TMC3    C2 7268   2.908   4.127  17.148  0.6983  0.3946 -1.2067
  489TMC3    C3 7269   2.891   4.181  17.272 -1.3037  0.3086 -0.0078
  489TMC3    C4 7270   2.809   3.927  17.222  0.1958 -0.0707 -0.0309
  489TMC3    C5 7271   2.781   3.987  17.345 -0.4339 -0.1193  0.9571
  489TMC3    C6 7272   2.827   4.114  17.371  0.0390 -0.2591  0.4093
  489TMC3     C 7273   2.898   3.941  17.000 -0.6926  0.4850 -0.8841
  489TMC3     O 7274   2.833   3.840  16.973  0.2908  0.1920  0.1237
  489TMC3     H 7275   2.962   4.188  17.076  1.9173 -0.2504 -0.8453
  489TMC3    H1 7276   2.770   3.829  17.198  1.3136 -0.4474 -0.2609
  489TMC3    H2 7277   2.798   4.161  17.465  2.9574  2.3975 -0.0184
  489TMC3    C7 7278   2.749   3.901  17.463 -0.8614  0.0536 -0.0637
  489TMC3    C8 7279   2.929   4.322  17.284  0.6188 -0.1575  0.5446
  489TMC3    O1 7280   2.763   3.962  17.566  0.2729  0.0217  0.7412
  489TMC3    O2 7281   2.958   4.388  17.180  0.5775 -0.2576  0.1389
  490MPD2     C 7282   3.699   3.689   0.058  0.7693  0.3878  0.4130
  490MPD2    C1 7283   3.714   3.582   0.140  0.5528 -0.1399 -0.1128
  490MPD2    C2 7284   3.757   3.598   0.266  0.6989  0.0379  0.4777
  490MPD2    C3 7285   3.787   3.718   0.323 -1.2517  0.0121 -0.0937
  490MPD2    C4 7286   3.765   3.827   0.242 -0.6452  0.1822  0.1648
  490MPD2    C5 7287   3.721   3.810   0.111  0.3135 -0.2823 -0.6066
  490MPD2     H 7288   3.778   3.503   0.315  0.4876 -1.0209 -1.4863
  490MPD2    H1 7289   3.792   3.927   0.274  1.0372 -0.0186 -0.6118
  490MPD2    H2 7290   3.678   3.691  17.665 -3.3397  0.3898  1.2237
  490MPD2    H3 7291   3.710   3.894   0.043  0.5564  0.2481  0.0087
  490MPD2     N 7292   3.859   3.733   0.443  0.7182 -0.1466 -0.1072
  490MPD2    H5 7293   3.902   3.824   0.458 -0.2473  0.3840 -0.5608
  490MPD2    N1 7294   3.706   3.444   0.098  0.8119  0.3965  0.3549
  490MPD2    H7 7295   3.724   3.372   0.167  1.6915  1.0947  0.8448
  491TMC3    C1 7296   3.681   3.248  17.673 -0.5529 -0.1431  0.0746
  491TMC3    C2 7297   3.726   3.165   0.060  0.8725  0.5135  0.0774
  491TMC3    C3 7298   3.724   3.030   0.033  0.7154  0.6319  0.6846
  491TMC3    C4 7299   3.642   3.201  17.555  0.0149  0.6538  0.0945
  491TMC3    C5 7300   3.626   3.066  17.539 -0.6204 -0.5651  0.3844
  491TMC3    C6 7301   3.673   2.977  17.627 -0.1063 -0.2748  0.0315
  491TMC3     C 7302   3.680   3.396  17.685  0.6903  0.4157 -0.0524
  491TMC3     O 7303   3.647   3.463  17.586 -0.7338  0.3466  0.2953
  491TMC3     H 7304   3.773   3.205   0.149  0.1254  0.3462  0.5469
  491TMC3    H1 7305   3.608   3.275  17.483  1.0589  1.1632  0.1171
  491TMC3    H2 7306   3.651   2.872  17.612  0.4926 -0.1779 -1.5023
  491TMC3    C7 7307   3.595   3.022  17.404 -0.1108  0.4960 -0.3224
  491TMC3    C8 7308   3.708   2.942   0.153 -0.0025  0.4702  0.2529
  491TMC3    O1 7309   3.526   2.920  17.389 -0.7387  0.2264  0.6765
  491TMC3    O2 7310   3.700   2.825   0.126  0.0030  0.6045 -0.0207
  492MPD2     C 7311   4.681   3.204  11.095  0.7428  0.2654  0.4158
  492MPD2    C1 7312   4.580   3.137  11.036  0.4268  0.6978 -0.2391
  492MPD2    C2 7313   4.487   3.085  11.119  0.5083 -0.2578  0.8462
  492MPD2    C3 7314   4.498   3.098  11.259  0.6150 -0.6138 -0.5688
  492MPD2    C4 7315   4.598   3.172  11.305 -0.0918 -0.2741  0.7661
  492MPD2    C5 7316   4.694   3.217  11.227 -0.6535  0.1370 -0.1175
  492MPD2     H 7317   4.403   3.031  11.077  1.3924 -0.5340 -0.5636
  492MPD2    H1 7318   4.604   3.175  11.413  0.1937 -0.8971  0.7708
  492MPD2    H2 7319   0.031   3.246  11.033 -0.5850 -0.5647 -1.8583
  492MPD2    H3 7320   0.048   3.273  11.269 -0.1608 -2.2616  2.1674
  492MPD2     N 7321   4.391   3.056  11.350  0.3865 -0.3495  0.7122
  492MPD2    H5 7322   4.410   3.072  11.449 -0.5236 -3.3495  1.3542
  492MPD2    N1 7323   4.576   3.135  10.894  0.3380  0.1690  0.3263
  492MPD2    H7 7324   4.661   3.176  10.857  0.0196 -1.3456 -2.0573
  493TMC3    C1 7325   4.489   3.133  10.682  0.3281 -0.2111 -0.2558
  493TMC3    C2 7326   4.568   3.242  10.646 -0.1668  0.3474 -0.4562
  493TMC3    C3 7327   4.548   3.297  10.523 -0.7134  0.4751 -0.4733
  493TMC3    C4 7328   4.394   3.083  10.595  0.6584  0.1783 -0.6804
  493TMC3    C5 7329   4.371   3.151  10.477 -0.4938 -0.2700 -0.4024
  493TMC3    C6 7330   4.456   3.253  10.442  0.3412 -0.4762 -0.0603
  493TMC3     C 7331   4.472   3.092  10.818  0.1366  0.0654  1.0302
  493TMC3     O 7332   4.385   3.011  10.846  0.6412 -0.0879 -0.4368
  493TMC3     H 7333   4.613   3.297  10.728  0.3796  0.5540 -0.8958
  493TMC3    H1 7334   4.321   3.010  10.629 -0.1828  1.9748  1.3932
  493TMC3    H2 7335   4.427   3.313  10.357  0.3583 -1.1993 -0.5822
  493TMC3    C7 7336   4.257   3.112  10.403 -1.1088  0.1990  0.8978
  493TMC3    C8 7337   4.615   3.427  10.498 -0.3280 -0.1153  0.3906
  493TMC3    O1 7338   4.167   3.048  10.454  0.1650 -0.1504  0.8122
  493TMC3    O2 7339   4.556   3.519  10.434 -0.2433 -0.4515 -0.7415
  494TMC3    C1 7340   0.166   0.047   0.482  0.6241 -0.1463  0.2895
  494TMC3    C2 7341   0.203   4.646   0.470  0.5087 -0.0288  0.1164
  494TMC3    C3 7342   0.236   4.600   0.347  0.4211  1.0250  0.2599
  494TMC3    C4 7343   0.137   0.131   0.370  0.2315 -0.0121  0.1088
  494TMC3    C5 7344   0.170   0.083   0.247  0.1637 -0.2443  0.0213
  494TMC3    C6 7345   0.223   4.685   0.235  0.2121  0.4832 -0.2109
  494TMC3     C 7346   0.089   0.086   0.604  0.4110  0.0470  0.2341
  494TMC3     O 7347   0.020   0.185   0.596  0.0953  0.0597  0.0962
  494TMC3     H 7348   0.237   4.596   0.560  1.3218 -0.8313 -0.6350
  494TMC3    H1 7349   0.088   0.226   0.387  0.3741 -0.0532  0.7303
  494TMC3    H2 7350   0.253   4.653   0.136 -0.2921 -1.9648  0.4301
  494TMC3    C7 7351   0.120   0.155   0.127  0.8172 -0.5186 -0.4691
  494TMC3    C8 7352   0.216   4.455   0.333  0.1632 -0.0908  0.1234
  494TMC3    O1 7353   0.135   0.100   0.019  0.4513 -0.7583 -0.1225
  494TMC3    O2 7354   0.172   4.404   0.435  0.8637 -0.1499 -0.7398
  495TMC3    C1 7355   3.267   2.362  14.746  0.7787 -0.2419  0.2225
  495TMC3    C2 7356   3.221   2.433  14.636 -0.5675  0.0685 -0.1384
  495TMC3    C3 7357   3.173   2.561  14.659 -0.2312 -0.5724 -0.5531
  495TMC3    C4 7358   3.261   2.415  14.866  1.0790  0.1455  0.4515
  495TMC3    C5 7359   3.191   2.526  14.890  0.4725 -0.0076 -0.2161
  495TMC3    C6 7360   3.144   2.598  14.788  0.3765 -0.3465 -0.0780
  495TMC3     C 7361   3.237   2.222  14.746  0.9992  0.3449 -0.2518
  495TMC3     O 7362   3.132   2.199  14.687 -0.7427  0.5124 -0.0258
  495TMC3     H 7363   3.217   2.383  14.540  0.0128  2.5671 -1.4622
  495TMC3    H1 7364   3.314   2.360  14.943  0.8912 -1.5608 -0.6220
  495TMC3    H2 7365   3.106   2.700  14.793  0.2120 -0.4704  1.0418
  495TMC3    C7 7366   3.095   2.502  14.996  0.4211 -0.3654 -0.1781
  495TMC3    C8 7367   3.064   2.603  14.575  0.6564  0.1009  0.7621
  495TMC3    O1 7368   3.113   2.397  15.054 -0.5008 -0.2363  0.3259
  495TMC3    O2 7369   2.961   2.636  14.631 -0.2077 -0.3231  0.1023
  496MPD2     C 7370   0.553   1.903  15.872 -0.2495  0.4775 -0.5559
  496MPD2    C1 7371   0.610   2.019  15.826 -0.1967  0.3571  0.1712
  496MPD2    C2 7372   0.588   2.138  15.890 -0.1387 -0.4350 -0.1390
  496MPD2    C3 7373   0.508   2.141  16.002  0.2512 -0.0359 -0.2435
  496MPD2    C4 7374   0.443   2.023  16.041 -0.1096 -0.2025  0.2793
  496MPD2    C5 7375   0.458   1.912  15.973 -0.3221  0.1466 -0.1272
  496MPD2     H 7376   0.634   2.230  15.855  1.6752 -1.2887  0.0250
  496MPD2    H1 7377   0.379   2.037  16.128  0.8893 -0.1237  1.0045
  496MPD2    H2 7378   0.588   1.809  15.831 -0.3276  0.2481 -0.0959
  496MPD2    H3 7379   0.411   1.818  16.000 -0.3650 -0.3058 -1.7797
  496MPD2     N 7380   0.480   2.260  16.075 -0.3540  0.4973  0.1883
  496MPD2    H5 7381   0.420   2.245  16.155 -2.1597 -1.4831 -1.5328
  496MPD2    N1 7382   0.699   2.020  15.718 -0.0721 -0.3225  0.2683
  496MPD2    H7 7383   0.737   1.928  15.696 -2.6631 -1.2513 -0.4293
  497TMC3    C1 7384   0.510   2.481  16.163 -0.1678 -0.5847 -0.0594
  497TMC3    C2 7385   0.414   2.465  16.261 -0.4521 -0.0307 -0.0365
  497TMC3    C3 7386   0.437   2.534  16.380 -0.5638  0.2159  0.0102
  497TMC3    C4 7387   0.604   2.577  16.189  0.0496 -0.2739 -0.1397
  497TMC3    C5 7388   0.614   2.644  16.298  0.4375 -0.8294  0.1284
  497TMC3    C6 7389   0.534   2.623  16.405 -0.5764 -0.8678  0.7388
  497TMC3     C 7390   0.530   2.385  16.051  0.3050 -0.4790  0.3283
  497TMC3     O 7391   0.586   2.424  15.950 -0.1210 -0.1821  0.1382
  497TMC3     H 7392   0.339   2.390  16.238 -1.3723  0.7917  0.2688
  497TMC3    H1 7393   0.687   2.588  16.121  1.8460 -2.0731  1.7644
  497TMC3    H2 7394   0.539   2.684  16.494 -0.2227  1.4277 -0.8744
  497TMC3    C7 7395   0.732   2.721  16.320 -0.2050  0.2576  0.3103
  497TMC3    C8 7396   0.331   2.521  16.477 -0.0352 -0.6473  0.0005
  497TMC3    O1 7397   0.784   2.776  16.223 -0.0304  0.1258 -0.1133
  497TMC3    O2 7398   0.345   2.564  16.594 -0.0296  0.3409 -0.1107
  498MPD2     C 7399   1.140   2.899   9.200  0.3371  0.1264  0.1597
  498MPD2    C1 7400   1.169   2.886   9.332  0.2709  0.1826  0.3026
  498MPD2    C2 7401   1.065   2.878   9.423 -0.0664 -0.1080 -0.7203
  498MPD2    C3 7402   0.937   2.895   9.390  0.4617 -0.2196 -0.2535
  498MPD2    C4 7403   0.909   2.912   9.258 -0.5277  0.0422 -0.5366
  498MPD2    C5 7404   1.007   2.901   9.161  0.1764  0.8808  0.1744
  498MPD2     H 7405   1.082   2.881   9.530  1.2092  0.8346 -0.9552
  498MPD2    H1 7406   0.806   2.925   9.225  0.0880  1.4303 -1.9065
  498MPD2    H2 7407   1.208   2.902   9.115 -0.4977  0.7908 -0.4754
  498MPD2    H3 7408   0.990   2.908   9.054  0.3069 -1.9351 -0.0330
  498MPD2     N 7409   0.841   2.908   9.490  0.7503 -0.2763 -0.5119
  498MPD2    H5 7410   0.865   2.881   9.585  2.5792  1.4460 -0.4882
  498MPD2    N1 7411   1.306   2.881   9.383  0.1243 -0.1514 -0.2417
  498MPD2    H7 7412   1.319   2.877   9.483  0.0894  0.9896 -0.1896
  499TMC3    C1 7413   1.528   2.859   9.384 -0.4730  0.2227 -0.0887
  499TMC3    C2 7414   1.521   2.790   9.501  0.7136  0.6502  0.0372
  499TMC3    C3 7415   1.635   2.774   9.576 -0.4706  0.0490 -0.1013
  499TMC3    C4 7416   1.644   2.904   9.325  0.5173  0.2912 -0.2771
  499TMC3    C5 7417   1.754   2.885   9.399  0.4783 -0.1117 -0.2917
  499TMC3    C6 7418   1.751   2.823   9.523 -0.1835  0.4846  0.2716
  499TMC3     C 7419   1.411   2.873   9.303  0.8787  0.6872 -0.0680
  499TMC3     O 7420   1.429   2.888   9.182  0.1531 -0.3382  0.3838
  499TMC3     H 7421   1.428   2.754   9.543  0.4256  2.1982  0.7101
  499TMC3    H1 7422   1.637   2.959   9.231  0.9956  1.6219  0.4670
  499TMC3    H2 7423   1.845   2.797   9.568 -0.0885  0.2383 -0.0675
  499TMC3    C7 7424   1.884   2.894   9.328 -0.2518 -0.5142  0.5363
  499TMC3    C8 7425   1.633   2.699   9.693  1.0674 -0.1443  0.1612
  499TMC3    O1 7426   1.984   2.895   9.401  0.0137  0.2842  0.6501
  499TMC3    O2 7427   1.739   2.642   9.720 -0.2386 -0.3761  0.0145
  500MPD2     C 7428   2.984   4.389  10.020 -0.2870  0.0595  0.2560
  500MPD2    C1 7429   3.019   4.325  10.137 -0.0084 -0.3060  0.3667
  500MPD2    C2 7430   2.966   4.197  10.164 -0.2449  0.1406  0.6252
  500MPD2    C3 7431   2.872   4.137  10.085 -0.4051 -0.3234  1.0772
  500MPD2    C4 7432   2.829   4.209   9.977 -0.1069 -0.1813 -0.6792
  500MPD2    C5 7433   2.884   4.333   9.949 -0.3583  0.0149  0.5993
  500MPD2     H 7434   3.001   4.152  10.256  0.8407  0.4518  0.3630
  500MPD2    H1 7435   2.746   4.179   9.914  1.6321 -1.1034 -2.5493
  500MPD2    H2 7436   3.025   4.484   9.988 -0.4668 -0.3348 -1.1423
  500MPD2    H3 7437   2.831   4.383   9.868  1.1189 -0.2179 -0.5011
  500MPD2     N 7438   2.825   4.000  10.106 -0.3461 -0.1651 -0.3971
  500MPD2    H5 7439   2.762   3.959  10.038 -2.9367  1.5869  0.9279
  500MPD2    N1 7440   3.121   4.374  10.221  0.8195 -0.2932 -0.6106
  500MPD2    H7 7441   3.154   4.307  10.290  0.9196  0.6043  0.2025
  501TMC3    C1 7442   3.289   4.533  10.298  0.7445  0.3630  0.3567
  501TMC3    C2 7443   3.329   4.659  10.286 -0.4703  0.1883 -0.0178
  501TMC3    C3 7444   3.431   4.702  10.367 -0.0211  0.1147  0.1513
  501TMC3    C4 7445   3.332   4.454  10.395  0.6482 -0.5826  0.4033
  501TMC3    C5 7446   3.422   4.507  10.485 -0.4113  0.1219 -0.4511
  501TMC3    C6 7447   3.469   4.628  10.477 -0.0235 -0.0688  0.5926
  501TMC3     C 7448   3.195   4.490  10.198  0.7160  0.8700 -0.0986
  501TMC3     O 7449   3.178   4.582  10.119  0.2637  0.2910 -0.6508
  501TMC3     H 7450   3.292   4.728  10.211  0.8944 -0.1438 -0.9976
  501TMC3    H1 7451   3.304   4.350  10.404 -0.2363 -0.2373  1.6614
  501TMC3    H2 7452   3.543   4.664  10.548 -0.8002  2.2107  0.2309
  501TMC3    C7 7453   3.471   4.423  10.594  0.4132 -0.3305  0.2791
  501TMC3    C8 7454   3.485   0.111  10.367  0.9365  0.0461  0.0777
  501TMC3    O1 7455   3.518   4.480  10.693 -0.1853 -0.8696  0.0448
  501TMC3    O2 7456   3.521   0.148  10.476 -0.4251  0.2573 -0.0536
  502TMC3    C1 7457   2.690   3.042  14.917 -0.7772  0.0429  0.3215
  502TMC3    C2 7458   2.720   3.165  14.864  0.2849 -1.0619  0.0819
  502TMC3    C3 7459   2.650   3.272  14.911 -0.3903 -0.3048 -0.3218
  502TMC3    C4 7460   2.570   3.024  14.988  0.2859 -0.1707 -0.5503
  502TMC3    C5 7461   2.497   3.137  15.021 -0.0947 -0.8174  0.3576
  502TMC3    C6 7462   2.544   3.257  14.989 -0.0655 -0.0894  0.8875
  502TMC3     C 7463   2.799   2.990  14.989 -0.5703  0.1833  0.2941
  502TMC3     O 7464   2.914   3.016  14.952 -0.7977 -0.1514  0.2151
  502TMC3     H 7465   2.804   3.176  14.796  1.3789  0.5878  1.7034
  502TMC3    H1 7466   2.530   2.927  15.015  1.3353 -0.9062 -1.6130
  502TMC3    H2 7467   2.497   3.350  15.019  1.5789  1.0845 -0.1254
  502TMC3    C7 7468   2.425   3.122  15.147 -0.5962  0.4919  0.2193
  502TMC3    C8 7469   2.749   3.380  14.951 -0.3754 -0.0984  0.1184
  502TMC3    O1 7470   2.459   3.017  15.199  0.2452 -0.3997 -0.1280
  502TMC3    O2 7471   2.709   3.494  14.971  0.3424  0.9424 -0.7231
  503MPD2     C 7472   0.156   3.866  16.929 -0.3232 -0.3538  0.5471
  503MPD2    C1 7473   0.130   3.878  17.064  0.3584 -0.2029  0.8235
  503MPD2    C2 7474   0.181   3.779  17.141  0.2433  0.1252 -0.4323
  503MPD2    C3 7475   0.230   3.662  17.092 -0.5130  0.2607  0.2283
  503MPD2    C4 7476   0.252   3.653  16.954 -0.4643 -0.4409  0.2741
  503MPD2    C5 7477   0.213   3.755  16.878 -0.4059 -0.1691  0.0233
  503MPD2     H 7478   0.173   3.783  17.249  0.7252 -2.1460 -0.3056
  503MPD2    H1 7479   0.308   3.567  16.918  0.7629 -0.3167  1.8799
  503MPD2    H2 7480   0.125   3.945  16.861 -0.2049 -0.3245  0.5282
  503MPD2    H3 7481   0.227   3.756  16.771 -1.3973  0.5388 -0.0978
  503MPD2     N 7482   0.281   3.561  17.183  0.0979  0.4308 -0.1979
  503MPD2    H5 7483   0.243   3.569  17.277 -2.0614 -1.7278 -0.8899
  503MPD2    N1 7484   0.086   4.001  17.117  0.2643 -0.2920 -0.2240
  503MPD2    H7 7485   0.068   3.997  17.216  0.7217  1.0120 -0.0775
  504TMC3    C1 7486   0.414   3.369  17.253  0.2678 -0.2715 -0.1064
  504TMC3    C2 7487   0.337   3.352  17.362  0.1329  0.3310  0.2234
  504TMC3    C3 7488   0.392   3.288  17.465  0.9357  1.1158 -0.3060
  504TMC3    C4 7489   0.538   3.318  17.242 -0.1046  1.0674 -0.3899
  504TMC3    C5 7490   0.588   3.245  17.339  0.5625 -0.0389  0.0678
  504TMC3    C6 7491   0.508   3.220  17.448 -0.5839 -0.0528 -0.2762
  504TMC3     C 7492   0.371   3.458  17.149 -0.3917 -0.6684  0.9539
  504TMC3     O 7493   0.431   3.443  17.044  0.3966 -0.2175 -0.0215
  504TMC3     H 7494   0.249   3.414  17.376  1.0377  2.1425 -2.1195
  504TMC3    H1 7495   0.593   3.310  17.148 -1.8073  0.8150 -1.3564
  504TMC3    H2 7496   0.551   3.155  17.523  0.8238 -0.0922 -1.1349
  504TMC3    C7 7497   0.722   3.200  17.318  0.4270  0.3704  0.3415
  504TMC3    C8 7498   0.309   3.271  17.585  0.2376  1.0199 -0.3544
  504TMC3    O1 7499   0.778   3.257  17.224 -0.1112  0.1668  0.0943
  504TMC3    O2 7500   0.195   3.310  17.569  0.2842  0.5147  0.0252
  505MPD2     C 7501   0.127   2.427  10.525 -0.8477  0.3398 -0.1742
  505MPD2    C1 7502   0.201   2.320  10.492 -0.1945  0.7388 -0.0154
  505MPD2    C2 7503   0.335   2.323  10.521 -0.0203 -0.1782 -0.3519
  505MPD2    C3 7504   0.389   2.417  10.606 -0.0035  0.6309 -0.5027
  505MPD2    C4 7505   0.306   2.512  10.658  0.2785  0.1542 -0.8813
  505MPD2    C5 7506   0.176   2.518  10.615 -0.9624 -0.6106 -0.0851
  505MPD2     H 7507   0.399   2.251  10.472 -1.5436 -2.6376  1.2586
  505MPD2    H1 7508   0.326   2.572  10.746  0.6265 -0.9851 -0.1748
  505MPD2    H2 7509   0.026   2.429  10.487 -0.3376 -3.0858 -1.6618
  505MPD2    H3 7510   0.113   2.599  10.650 -0.1911 -0.5118  1.0792
  505MPD2     N 7511   0.527   2.399  10.624 -0.8306 -0.0690  0.0133
  505MPD2    H5 7512   0.567   2.321  10.573  0.3066  0.0227  0.7614
  505MPD2    N1 7513   0.148   2.220  10.403  0.4527  0.1901 -0.7255
  505MPD2    H7 7514   0.059   2.232  10.356 -0.1117 -1.6262 -0.0990
  506TMC3    C1 7515   0.143   2.041  10.264  0.1549 -0.0213 -0.3923
  506TMC3    C2 7516   0.138   2.112  10.150  0.1848  0.2649  0.2303
  506TMC3    C3 7517   0.138   2.045  10.036  0.1360 -0.5125 -0.4292
  506TMC3    C4 7518   0.174   1.907  10.260  0.5015 -0.2001  0.3869
  506TMC3    C5 7519   0.205   1.846  10.140  0.2045 -0.4359 -0.1887
  506TMC3    C6 7520   0.165   1.913  10.031 -0.2557 -0.2380 -0.3887
  506TMC3     C 7521   0.220   2.109  10.362 -0.6176  0.0044 -0.2612
  506TMC3     O 7522   0.315   2.052  10.410 -0.0030  0.0756  0.1140
  506TMC3     H 7523   0.101   2.213  10.157  0.0155  0.5020 -3.7965
  506TMC3    H1 7524   0.198   1.863  10.356 -4.4556  1.8831  2.5936
  506TMC3    H2 7525   0.187   1.866   9.936 -3.4168  2.3343 -2.3572
  506TMC3    C7 7526   0.344   1.814  10.118  0.4717  0.5021  0.6333
  506TMC3    C8 7527   0.124   2.114   9.908  0.1026  0.2916 -0.2847
  506TMC3    O1 7528   0.373   1.767  10.010 -0.4183 -0.0896  0.0337
  506TMC3    O2 7529   0.080   2.046   9.815 -0.2405  0.3364  0.1334
  507TMC3    C1 7530   1.308   3.639  14.838  0.0598 -0.1175  0.9943
  507TMC3    C2 7531   1.283   3.526  14.769  0.7849 -0.0165  0.6104
  507TMC3    C3 7532   1.347   3.507  14.655  0.0735 -0.7762  0.9184
  507TMC3    C4 7533   1.412   3.723  14.798 -0.3265  0.4274  0.0706
  507TMC3    C5 7534   1.471   3.701  14.671 -0.0756 -0.8927 -0.0517
  507TMC3    C6 7535   1.450   3.584  14.606 -0.1190  0.0991  0.0148
  507TMC3     C 7536   1.184   3.701  14.882  0.5805  0.6222  0.1119
  507TMC3     O 7537   1.192   3.806  14.942 -0.2794  0.4777 -0.5098
  507TMC3     H 7538   1.203   3.460  14.801  0.1395  0.3977 -0.1403
  507TMC3    H1 7539   1.421   3.821  14.843  0.1098  2.0215 -3.4862
  507TMC3    H2 7540   1.497   3.564  14.511  0.5720 -2.0922  0.7961
  507TMC3    C7 7541   1.458   3.806  14.571  0.3675  1.0003  0.0524
  507TMC3    C8 7542   1.252   3.488  14.554 -0.5409 -0.7254  0.0575
  507TMC3    O1 7543   1.445   3.762  14.454 -0.0383  0.5055 -0.0845
  507TMC3    O2 7544   1.136   3.523  14.578 -1.1965 -0.4237  0.1852
  508MPD2     C 7545   2.111   1.623  16.895  0.1719  0.0868  0.3923
  508MPD2    C1 7546   2.020   1.730  16.876 -0.7085 -0.4367  0.1146
  508MPD2    C2 7547   1.970   1.743  16.746 -0.1060  0.1815  0.4674
  508MPD2    C3 7548   2.014   1.665  16.636  0.4754 -0.3113 -0.0822
  508MPD2    C4 7549   2.101   1.558  16.660 -0.1727 -0.3432 -0.1116
  508MPD2    C5 7550   2.148   1.542  16.787  0.5438  0.9671  0.0910
  508MPD2     H 7551   1.908   1.826  16.715 -0.5779 -0.9527 -1.6352
  508MPD2    H1 7552   2.128   1.491  16.579  0.1566 -1.1193  0.6332
  508MPD2    H2 7553   2.166   1.615  16.988  2.9272 -1.4370 -1.3663
  508MPD2    H3 7554   2.212   1.455  16.799  0.9440  1.3462  0.7238
  508MPD2     N 7555   1.981   1.710  16.510 -0.4055 -0.2563 -0.1635
  508MPD2    H5 7556   1.930   1.798  16.507  1.2853  0.7798  1.3943
  508MPD2    N1 7557   1.995   1.817  16.980 -0.1316 -0.0567 -0.2729
  508MPD2    H7 7558   2.035   1.780  17.066 -1.9182  1.5379  1.2496
  509TMC3    C1 7559   1.903   1.948  16.196  0.5368  0.2968  0.4158
  509TMC3    C2 7560   1.989   1.957  16.087  0.3752 -0.1282  0.2195
  509TMC3    C3 7561   2.102   1.868  16.092 -0.5796 -0.1446 -0.1584
  509TMC3    C4 7562   1.917   1.855  16.297  0.0922 -0.3837 -0.8234
  509TMC3    C5 7563   2.027   1.775  16.294  0.2916  0.0452  0.0733
  509TMC3    C6 7564   2.122   1.777  16.197 -0.2703  1.1218 -0.6526
  509TMC3     C 7565   1.782   2.030  16.193  0.4532  0.5059 -0.0024
  509TMC3     O 7566   1.701   2.000  16.279 -0.5709 -0.1926  0.8265
  509TMC3     H 7567   1.959   1.995  15.991 -2.8664 -0.4161  1.1201
  509TMC3    H1 7568   1.834   1.833  16.362  0.4194  0.9148  0.0409
  509TMC3    H2 7569   2.211   1.714  16.198 -0.9502  0.2068  1.4890
  509TMC3    C7 7570   2.047   1.672  16.396  0.4497  0.0672 -0.9612
  509TMC3    C8 7571   2.189   1.857  15.973  1.0046 -0.4082  0.3426
  509TMC3    O1 7572   2.127   1.586  16.375 -0.1609  0.3150  0.2872
  509TMC3    O2 7573   2.272   1.769  15.967 -0.5909 -0.1590  0.0739
  510MPD2     C 7574   4.649   3.243  14.477  0.2876  0.3965 -0.6164
  510MPD2    C1 7575   4.718   3.163  14.568  0.0010  0.0176  0.5946
  510MPD2    C2 7576   0.127   3.167  14.567  0.2245  0.5695 -1.0907
  510MPD2    C3 7577   0.196   3.226  14.463  0.6975 -0.0456  0.1392
  510MPD2    C4 7578   0.127   3.321  14.382  0.6583  0.1013 -0.0156
  510MPD2    C5 7579   4.720   3.331  14.396  0.6908 -0.2555 -0.2082
  510MPD2     H 7580   0.195   3.126  14.641 -1.6541 -1.0663 -0.2911
  510MPD2    H1 7581   0.169   3.397  14.317  1.2085 -1.1152 -1.0743
  510MPD2    H2 7582   4.540   3.247  14.474  0.3202  3.7418  3.4097
  510MPD2    H3 7583   4.658   3.400  14.341  0.1174 -1.2453 -0.7907
  510MPD2     N 7584   0.331   3.198  14.449 -0.9583 -0.2193  0.2094
  510MPD2    H5 7585   0.369   3.130  14.514 -1.1436  0.5174  1.0891
  510MPD2    N1 7586   4.642   3.090  14.660 -0.8999 -0.6354 -0.3145
  510MPD2    H7 7587   4.540   3.090  14.658 -0.9440 -2.8508  1.3216
  511TMC3    C1 7588   4.594   2.934  14.818 -0.3237 -0.0080  0.4946
  511TMC3    C2 7589   4.585   2.954  14.954 -0.4231  0.0965  0.4242
  511TMC3    C3 7590   4.506   2.863  15.017  0.3543  1.0148  0.2586
  511TMC3    C4 7591   4.551   2.827  14.755 -0.0997 -0.2677  0.0544
  511TMC3    C5 7592   4.487   2.730  14.827 -0.2251  0.7685 -0.5606
  511TMC3    C6 7593   4.461   2.743  14.959 -0.7503  0.2289 -0.8477
  511TMC3     C 7594   4.695   3.003  14.750  0.9153  0.7998  0.3063
  511TMC3     O 7595   0.082   2.975  14.775 -0.2822  0.0627 -0.0017
  511TMC3     H 7596   4.633   3.036  15.005  1.6608 -0.1630 -1.1067
  511TMC3    H1 7597   4.590   2.809  14.656  1.1473 -2.4794  0.9228
  511TMC3    H2 7598   4.395   2.673  15.008  1.7157 -1.2194  0.4315
  511TMC3    C7 7599   4.479   2.605  14.761  0.9957 -0.0115 -0.2791
  511TMC3    C8 7600   4.461   2.905  15.143  0.1146  0.1441 -0.4473
  511TMC3    O1 7601   4.498   2.613  14.643 -0.9959 -0.3948  0.2180
  511TMC3    O2 7602   4.494   3.018  15.174  0.5186  0.3106 -0.0083
  512TMC3    C1 7603   3.477   2.187  13.512  0.1080  0.5976  0.4848
  512TMC3    C2 7604   3.476   2.192  13.649  0.5503  1.0824 -0.4964
  512TMC3    C3 7605   3.537   2.085  13.713 -1.2378  0.3013  0.1805
  512TMC3    C4 7606   3.521   2.081  13.440  0.4723 -0.2994  0.1732
  512TMC3    C5 7607   3.571   1.976  13.506  0.1772 -0.0556 -0.0749
  512TMC3    C6 7608   3.581   1.973  13.647  0.5547 -0.0528  0.0022
  512TMC3     C 7609   3.411   2.287  13.426  0.9637 -0.4736 -0.2106
  512TMC3     O 7610   3.369   2.262  13.315  0.1480 -0.5647  0.6014
  512TMC3     H 7611   3.398   2.251  13.695 -0.4714  0.0595 -0.9059
  512TMC3    H1 7612   3.514   2.085  13.332 -1.0445 -0.5444  0.2575
  512TMC3    H2 7613   3.650   1.900  13.688 -2.4247 -1.9091  1.7121
  512TMC3    C7 7614   3.616   1.857  13.429  0.6175 -0.1420 -0.1552
  512TMC3    C8 7615   3.578   2.111  13.852  0.0041  0.2087  0.1659
  512TMC3    O1 7616   3.620   1.875  13.307 -0.1070  0.4548  0.0172
  512TMC3    O2 7617   3.632   2.015  13.910 -0.1896  0.1985  0.1334
  513MPD2     C 7618   0.485   2.328  13.324 -0.0208 -0.3475  0.6142
  513MPD2    C1 7619   0.520   2.194  13.293 -0.3565  0.1920  0.4034
  513MPD2    C2 7620   0.632   2.139  13.350 -0.3311  0.2291 -0.4408
  513MPD2    C3 7621   0.719   2.210  13.427 -0.0154  0.1754 -1.0882
  513MPD2    C4 7622   0.686   2.342  13.460  0.3540 -0.2129 -0.1574
  513MPD2    C5 7623   0.567   2.393  13.410  0.3049 -0.2391  0.2934
  513MPD2     H 7624   0.645   2.033  13.333  2.0927  0.7953 -2.1224
  513MPD2    H1 7625   0.741   2.406  13.528  1.5126 -1.0168 -0.3328
  513MPD2    H2 7626   0.396   2.371  13.279 -1.7312 -3.0488  1.4295
  513MPD2    H3 7627   0.549   2.498  13.428  1.4593  0.4087 -2.2755
  513MPD2     N 7628   0.842   2.149  13.455  0.1169  0.7660  0.5843
  513MPD2    H5 7629   0.865   2.058  13.417  1.2785  1.6957 -0.9042
  513MPD2    N1 7630   0.435   2.116  13.210  0.2714  0.8180  0.0201
  513MPD2    H7 7631   0.468   2.022  13.190 -3.6619 -0.1432 -2.0338
  514TMC3    C1 7632   0.290   2.045  13.041  0.0395 -0.7729 -0.0444
  514TMC3    C2 7633   0.281   2.092  12.913  0.4211  0.3785  0.0776
  514TMC3    C3 7634   0.354   2.030  12.815 -0.4306  0.9135 -0.6395
  514TMC3    C4 7635   0.360   1.932  13.071 -0.2010  0.3801 -0.0882
  514TMC3    C5 7636   0.431   1.867  12.972  0.1577 -0.1597 -0.6084
  514TMC3    C6 7637   0.441   1.922  12.842 -0.0437  0.0629 -0.5571
  514TMC3     C 7638   0.326   2.154  13.136  0.5930  0.1303  0.5736
  514TMC3     O 7639   0.277   2.264  13.114  0.2861  0.1851 -0.0420
  514TMC3     H 7640   0.229   2.186  12.901  1.1046  0.6017 -1.0981
  514TMC3    H1 7641   0.335   1.887  13.166  0.6097 -1.9151 -0.9616
  514TMC3    H2 7642   0.496   1.872  12.763  0.8992 -1.4357  1.0388
  514TMC3    C7 7643   0.553   1.818  13.036  0.2495  0.1142 -0.2670
  514TMC3    C8 7644   0.325   2.073  12.675  0.9512  0.4707  0.2227
  514TMC3    O1 7645   0.569   1.858  13.151 -0.3640 -0.7995  0.0132
  514TMC3    O2 7646   0.224   2.141  12.664 -0.3189  0.2126 -0.1040
  515MPD2     C 7647   3.629   3.999  15.320  0.1102 -0.2365  0.1824
  515MPD2    C1 7648   3.693   3.988  15.196 -0.6133  0.6668  0.1167
  515MPD2    C2 7649   3.773   4.097  15.156  0.2605 -0.2807 -0.4216
  515MPD2    C3 7650   3.803   4.198  15.236  0.0389 -0.1812  0.4021
  515MPD2    C4 7651   3.742   4.212  15.357  0.0532 -0.0668  0.7826
  515MPD2    C5 7652   3.652   4.107  15.395  0.2224  0.3077 -0.3583
  515MPD2     H 7653   3.806   4.103  15.053  0.5805 -0.7277 -0.3451
  515MPD2    H1 7654   3.761   4.292  15.428 -0.7168 -1.0836  2.1367
  515MPD2    H2 7655   3.559   3.926  15.360 -1.7531 -0.4784 -3.4512
  515MPD2    H3 7656   3.596   4.111  15.488  1.0900 -0.5923  0.2054
  515MPD2     N 7657   3.895   4.302  15.192 -0.0265  0.1533 -0.1481
  515MPD2    H5 7658   3.915   4.374  15.260  1.6511  0.8111 -1.3096
  515MPD2    N1 7659   3.676   3.867  15.115  0.2212 -0.4472 -0.0885
  515MPD2    H7 7660   3.712   3.865  15.020 -1.4309 -1.4167 -0.7016
  516TMC3    C1 7661   3.614   3.661  15.042  1.0565 -0.0409  1.0051
  516TMC3    C2 7662   3.580   3.714  14.922  0.5548  0.0517  0.1763
  516TMC3    C3 7663   3.553   3.627  14.818  0.1508 -0.3645 -0.6790
  516TMC3    C4 7664   3.609   3.531  15.063  0.3836 -0.5106 -0.4515
  516TMC3    C5 7665   3.588   3.442  14.959  0.4318 -1.1558  0.4920
  516TMC3    C6 7666   3.565   3.492  14.835  0.4217 -0.0153  0.4789
  516TMC3     C 7667   3.634   3.742  15.161 -0.0724 -0.4562 -0.3751
  516TMC3     O 7668   3.594   3.705  15.271  0.3136  0.0424 -0.3172
  516TMC3     H 7669   3.562   3.821  14.913  0.1384 -0.0514 -0.2233
  516TMC3    H1 7670   3.608   3.491  15.164  0.6867 -1.4334 -0.8100
  516TMC3    H2 7671   3.559   3.436  14.743 -0.0156  0.3674  0.2732
  516TMC3    C7 7672   3.582   3.304  14.989 -0.7182  0.5233 -0.5201
  516TMC3    C8 7673   3.475   3.667  14.699  0.2615 -0.0211  0.2581
  516TMC3    O1 7674   3.611   3.277  15.106 -0.6561 -0.0568  0.0729
  516TMC3    O2 7675   3.450   3.583  14.614  0.1173  0.4751 -0.2477
  517MPD2     C 7676   3.492   1.041   0.217  0.2552  0.6188  0.1497
  517MPD2    C1 7677   3.619   1.000   0.258  0.1732 -0.6636 -0.7034
  517MPD2    C2 7678   3.677   1.043   0.378  0.2786 -0.1523 -0.4502
  517MPD2    C3 7679   3.607   1.129   0.459 -0.5330  0.1813  0.5358
  517MPD2    C4 7680   3.475   1.160   0.426 -0.1906  0.0793 -0.4148
  517MPD2    C5 7681   3.425   1.116   0.308 -0.6090  0.0660  0.0749
  517MPD2     H 7682   3.781   1.015   0.391  0.3512  0.1905 -0.2890
  517MPD2    H1 7683   3.413   1.223   0.490  1.2012 -1.2019  2.2232
  517MPD2    H2 7684   3.446   1.005   0.126  1.6556 -0.0710 -0.2861
  517MPD2    H3 7685   3.328   1.160   0.289 -1.3021 -1.4298  0.2315
  517MPD2     N 7686   3.665   1.183   0.578 -0.9464 -0.6305  0.1002
  517MPD2    H5 7687   3.598   1.242   0.627  2.0850  1.4001  1.7447
  517MPD2    N1 7688   3.696   0.906   0.185 -0.7364  0.2366  0.5061
  517MPD2    H7 7689   3.777   0.870   0.234 -0.7087  2.4434  2.1046
  518TMC3    C1 7690   3.753   0.733   0.019 -0.6299 -0.2744  0.4236
  518TMC3    C2 7691   3.692   0.641  17.652 -0.2020  0.1248 -0.3299
  518TMC3    C3 7692   3.770   0.538  17.616 -0.9689 -0.2055 -0.4468
  518TMC3    C4 7693   3.881   0.725   0.057 -0.4819  0.3396 -0.0192
  518TMC3    C5 7694   3.958   0.627   0.018  0.0263  0.4781 -0.1857
  518TMC3    C6 7695   3.896   0.529  17.655  0.0866  0.0099 -0.3977
  518TMC3     C 7696   3.660   0.834   0.075 -0.9057  0.2032  0.1141
  518TMC3     O 7697   3.550   0.841   0.015 -0.2383  0.5153  0.0463
  518TMC3     H 7698   3.591   0.658  17.618  0.0875 -0.1722 -1.3380
  518TMC3    H1 7699   3.926   0.792   0.129 -0.3428 -0.4654  0.6341
  518TMC3    H2 7700   3.944   0.436  17.627 -0.4443 -0.5066  0.4089
  518TMC3    C7 7701   4.075   0.586   0.098 -0.3158  0.0658  0.4825
  518TMC3    C8 7702   3.704   0.427  17.550 -0.0890 -0.0135  0.3170
  518TMC3    O1 7703   4.083   0.632   0.207  0.4329 -0.2009  0.2606
  518TMC3    O2 7704   3.768   0.364  17.466  0.1705 -0.2193 -0.2502
  519MPD2     C 7705   0.103   3.913  14.715 -0.2354  0.2041  0.4006
  519MPD2    C1 7706   0.031   3.926  14.597  0.0823  0.2998 -0.2230
  519MPD2    C2 7707   0.069   3.852  14.483  0.3609 -0.3551  0.0797
  519MPD2    C3 7708   0.187   3.778  14.485 -1.0059 -0.4123  0.5049
  519MPD2    C4 7709   0.264   3.773  14.599  0.6677 -0.0070 -0.1454
  519MPD2    C5 7710   0.213   3.835  14.715 -0.1771 -0.0819 -0.8776
  519MPD2     H 7711   0.010   3.857  14.392 -1.2881 -0.1752  1.1693
  519MPD2    H1 7712   0.348   3.704  14.599 -0.3105 -1.1961 -1.0917
  519MPD2    H2 7713   0.080   3.967  14.806 -0.6587 -1.4054  1.2495
  519MPD2    H3 7714   0.269   3.836  14.808 -0.7039  0.1481 -0.5617
  519MPD2     N 7715   0.236   3.706  14.368  0.2326  0.4456 -0.1999
  519MPD2    H5 7716   0.325   3.659  14.377 -1.0244 -1.3338  2.9149
  519MPD2    N1 7717   4.640   4.000  14.595  0.7878  0.3563 -0.2513
  519MPD2    H7 7718   4.596   4.015  14.685 -0.2650 -1.7226 -0.4257
  520TMC3    C1 7719   0.269   3.634  14.149  0.0434  0.1073 -0.0491
  520TMC3    C2 7720   0.208   3.601  14.031 -0.6523 -0.5889  0.1215
  520TMC3    C3 7721   0.281   3.520  13.947  0.1717  0.2566 -0.1169
  520TMC3    C4 7722   0.404   3.614  14.175 -0.5165 -0.3028  0.4570
  520TMC3    C5 7723   0.480   3.547  14.084  0.1057 -0.5574  0.3666
  520TMC3    C6 7724   0.419   3.500  13.969  0.3529  0.6708 -0.1775
  520TMC3     C 7725   0.176   3.699  14.246  0.0136  0.6167 -0.1195
  520TMC3     O 7726   0.065   3.732  14.205  0.0588 -0.6894 -0.6275
  520TMC3     H 7727   0.100   3.607  14.017 -0.6479 -2.7596 -0.9192
  520TMC3    H1 7728   0.452   3.653  14.264 -0.9223  1.0223  0.1066
  520TMC3    H2 7729   0.467   3.441  13.891  0.0995  1.4013 -0.8779
  520TMC3    C7 7730   0.608   3.497  14.131  0.2192 -0.6787 -0.1336
  520TMC3    C8 7731   0.233   3.505  13.804  0.1636  0.7400 -0.7636
  520TMC3    O1 7732   0.640   3.523  14.247 -0.1557 -0.6713  0.9625
  520TMC3    O2 7733   0.316   3.506  13.715  0.0019  0.1013  0.6883
  521MPD2     C 7734   0.425   1.369   0.206  0.2475  0.3498 -0.1100
  521MPD2    C1 7735   0.426   1.395   0.068 -0.1157  0.2697  1.0666
  521MPD2    C2 7736   0.546   1.391  17.710  0.2583 -0.1486  0.0496
  521MPD2    C3 7737   0.665   1.346   0.060  0.0635 -0.2529  0.2169
  521MPD2    C4 7738   0.647   1.304   0.192  0.1054  0.1359  0.2425
  521MPD2    C5 7739   0.530   1.311   0.263  0.6672  0.3998 -0.4804
  521MPD2     H 7740   0.553   1.407  17.603 -0.8785 -0.9398 -0.1313
  521MPD2    H1 7741   0.719   1.238   0.239  1.2149  1.1331 -0.0840
  521MPD2    H2 7742   0.331   1.364   0.259  0.9175  2.1673  1.2460
  521MPD2    H3 7743   0.516   1.272   0.363 -2.7244  3.2521  0.1765
  521MPD2     N 7744   0.786   1.349  17.703  0.8723 -0.4413  0.0644
  521MPD2    H5 7745   0.795   1.397  17.613 -1.2605 -1.0377 -0.4685
  521MPD2    N1 7746   0.304   1.409   0.007  0.4797  0.0726 -0.5074
  521MPD2    H7 7747   0.227   1.373   0.063 -1.5000 -0.0620 -3.3113
  522TMC3    C1 7748   1.017   1.331  17.684  0.2275 -0.8313 -0.4611
  522TMC3    C2 7749   1.128   1.364   0.045  0.4022 -0.0664 -0.3881
  522TMC3    C3 7750   1.241   1.397  17.691 -0.0820  0.5864  0.8820
  522TMC3    C4 7751   1.022   1.310  17.544  0.7553 -1.3171 -0.7015
  522TMC3    C5 7752   1.136   1.345  17.477  0.2315 -1.4179 -0.2998
  522TMC3    C6 7753   1.243   1.396  17.553  0.6803 -0.8966 -0.2570
  522TMC3     C 7754   0.904   1.293   0.047 -0.5615  0.2768 -1.0238
  522TMC3     O 7755   0.924   1.237   0.153 -0.3038  0.6036  0.7797
  522TMC3     H 7756   1.126   1.394   0.150 -1.2946  0.5070 -0.5848
  522TMC3    H1 7757   0.934   1.275  17.491  0.7127 -2.0490 -0.1546
  522TMC3    H2 7758   1.325   1.432  17.492  1.0693  0.6847  1.2238
  522TMC3    C7 7759   1.143   1.337  17.333  0.4424  0.1753  0.3459
  522TMC3    C8 7760   1.343   1.469   0.049  0.0597  0.5072 -0.0319
  522TMC3    O1 7761   1.250   1.318  17.280 -0.2308 -0.3800 -0.4818
  522TMC3    O2 7762   1.378   1.420   0.156  0.1271 -0.0551  0.0866
  523MPD2     C 7763   3.718   1.275  10.131 -0.0348 -0.1636  0.0995
  523MPD2    C1 7764   3.670   1.177  10.045 -1.0468 -0.5027  0.2465
  523MPD2    C2 7765   3.579   1.216   9.948 -0.2209  0.0594  0.0593
  523MPD2    C3 7766   3.518   1.343   9.951  0.3876  0.5880 -0.4596
  523MPD2    C4 7767   3.572   1.436  10.036  0.0634  0.2180 -0.2475
  523MPD2    C5 7768   3.669   1.402  10.128 -0.2171  0.0686 -0.2715
  523MPD2     H 7769   3.542   1.150   9.870  0.3769 -1.4803  1.0820
  523MPD2    H1 7770   3.519   1.530  10.037  0.1661  0.2605  1.7509
  523MPD2    H2 7771   3.791   1.262  10.210 -1.9412  0.9630  2.0597
  523MPD2    H3 7772   3.696   1.473  10.205  0.4627 -0.8147  0.3099
  523MPD2     N 7773   3.406   1.383   9.867  0.1499  0.1762  0.5946
  523MPD2    H5 7774   3.384   1.482   9.865 -1.8657 -0.2756 -0.0790
  523MPD2    N1 7775   3.717   1.043  10.047  0.3196  0.0503 -0.0637
  523MPD2    H7 7776   3.775   1.010  10.124 -0.3345  0.1530  0.4773
  524TMC3    C1 7777   3.241   1.373   9.689  0.9977  0.0005  0.0766
  524TMC3    C2 7778   3.192   1.287   9.594  0.7379 -0.5413  0.1903
  524TMC3    C3 7779   3.086   1.335   9.521  0.0619 -0.0217 -1.4697
  524TMC3    C4 7780   3.186   1.493   9.728 -0.0559 -0.6842 -0.4324
  524TMC3    C5 7781   3.075   1.530   9.656 -0.3638  0.4673  0.1560
  524TMC3    C6 7782   3.028   1.457   9.556  0.4224 -0.0101 -0.0274
  524TMC3     C 7783   3.346   1.305   9.766 -0.8930  0.4590  0.0271
  524TMC3     O 7784   3.340   1.183   9.756  0.2905  0.0075  0.6052
  524TMC3     H 7785   3.251   1.204   9.555 -1.4307 -1.3270 -1.4506
  524TMC3    H1 7786   3.235   1.558   9.799  0.0618 -0.9393 -0.2803
  524TMC3    H2 7787   2.944   1.482   9.493  0.2577 -0.0202  0.1900
  524TMC3    C7 7788   3.022   1.668   9.666  0.6509  0.4249  0.0745
  524TMC3    C8 7789   3.018   1.249   9.429  0.4239 -0.8788 -0.5511
  524TMC3    O1 7790   3.089   1.734   9.745 -0.0742  0.2981  0.5471
  524TMC3    O2 7791   2.936   1.309   9.360  0.3298 -0.3127  0.1272
  525MPD2     C 7792   1.736   3.254  14.760 -0.5284 -0.1056  0.7043
  525MPD2    C1 7793   1.849   3.271  14.838 -0.0618 -0.3696 -0.2636
  525MPD2    C2 7794   1.949   3.359  14.793  0.4568 -0.3318  0.3942
  525MPD2    C3 7795   1.921   3.440  14.683  0.5725  0.2128  0.1541
  525MPD2    C4 7796   1.799   3.436  14.620 -0.8642  0.5344 -0.4409
  525MPD2    C5 7797   1.713   3.343  14.661 -0.2403  0.2706  0.1414
  525MPD2     H 7798   2.042   3.376  14.846  1.1784 -1.1027 -0.6330
  525MPD2    H1 7799   1.779   3.503  14.537 -0.1632  1.4903  0.1700
  525MPD2    H2 7800   1.658   3.183  14.782  2.3729 -2.6192  2.9772
  525MPD2    H3 7801   1.619   3.338  14.608  0.3626  0.1337 -0.9152
  525MPD2     N 7802   2.010   3.537  14.636 -0.0275 -0.5337  0.6464
  525MPD2    H5 7803   1.977   3.618  14.584  2.1156 -0.2403 -0.2641
  525MPD2    N1 7804   1.871   3.190  14.953  0.0149  0.8974 -0.0303
  525MPD2    H7 7805   1.966   3.190  14.987  0.0399  1.1402 -0.1020
  526TMC3    C1 7806   1.821   3.087  15.144  0.3005 -1.1697 -0.1703
  526TMC3    C2 7807   1.725   3.069  15.241  0.4229 -0.1911  0.8038
  526TMC3    C3 7808   1.762   2.984  15.343  1.0960  0.0512 -0.8185
  526TMC3    C4 7809   1.938   3.018  15.146 -0.1301  0.0586  0.5946
  526TMC3    C5 7810   1.965   2.930  15.248  0.3048 -0.3277 -0.1185
  526TMC3    C6 7811   1.872   2.908  15.346 -0.3180  0.0378 -0.1876
  526TMC3     C 7812   1.772   3.140  15.027 -0.0797 -0.0189  0.1882
  526TMC3     O 7813   1.649   3.152  15.021 -0.1889 -0.0441 -0.0617
  526TMC3     H 7814   1.635   3.129  15.235  1.1617  0.5361 -2.7127
  526TMC3    H1 7815   2.015   3.043  15.074  0.0307 -2.1591 -0.0167
  526TMC3    H2 7816   1.890   2.838  15.427 -1.3173 -0.3618 -0.3120
  526TMC3    C7 7817   2.064   2.822  15.224 -0.4915  0.1427 -0.0391
  526TMC3    C8 7818   1.676   2.993  15.458  0.0179 -0.0704  0.5949
  526TMC3    O1 7819   2.095   2.747  15.309 -0.0538 -0.2109  0.7596
  526TMC3    O2 7820   1.720   2.945  15.565  0.6911 -0.5933  0.3719
  527MPD2     C 7821   4.597   0.896   1.629 -0.7807 -0.0547  0.6599
  527MPD2    C1 7822   4.715   0.836   1.585 -0.2133 -0.7410  0.0924
  527MPD2    C2 7823   4.724   0.776   1.461  0.0244  0.6193  0.7515
  527MPD2    C3 7824   4.614   0.770   1.375 -0.4289  0.0083 -0.0639
  527MPD2    C4 7825   4.505   0.843   1.413  0.5594 -0.1339  0.3157
  527MPD2    C5 7826   4.494   0.900   1.542  0.0910  0.6070  0.1386
  527MPD2     H 7827   0.088   0.725   1.436 -1.8259 -1.9239 -1.0095
  527MPD2    H1 7828   4.412   0.836   1.358 -0.3095  0.2870  1.7203
  527MPD2    H2 7829   4.586   0.960   1.716 -0.6433 -1.4428  1.6784
  527MPD2    H3 7830   4.400   0.939   1.578 -0.1453  0.2698 -0.1173
  527MPD2     N 7831   4.632   0.718   1.246  0.3584 -0.5328 -0.4190
  527MPD2    H5 7832   4.723   0.675   1.232  0.1044 -0.3902 -2.4320
  527MPD2    N1 7833   0.104   0.838   1.672  0.8153 -0.3442 -0.2513
  527MPD2    H7 7834   0.173   0.769   1.644 -1.1226 -1.9809 -0.9628
  528TMC3    C1 7835   0.227   0.860   1.868  0.0336 -0.3609 -0.1538
  528TMC3    C2 7836   0.262   0.944   1.973  0.1427  0.9741  0.3576
  528TMC3    C3 7837   0.347   0.900   2.070  0.0082 -0.5402  0.6766
  528TMC3    C4 7838   0.281   0.734   1.852 -0.3415  0.3702  0.7537
  528TMC3    C5 7839   0.359   0.695   1.957 -0.5816  0.5343 -0.1417
  528TMC3    C6 7840   0.396   0.775   2.062 -0.2356  0.3339  0.2381
  528TMC3     C 7841   0.111   0.906   1.792 -0.4132  0.2723  0.2061
  528TMC3     O 7842   0.050   1.006   1.825 -0.5612  0.5357  0.0023
  528TMC3     H 7843   0.231   1.046   1.991 -0.0664  0.7581  1.2790
  528TMC3    H1 7844   0.232   0.665   1.784  0.7235 -0.5566  0.9391
  528TMC3    H2 7845   0.472   0.734   2.127  0.5800  2.2721  0.5105
  528TMC3    C7 7846   0.399   0.561   1.954 -0.6993  0.1307 -0.2015
  528TMC3    C8 7847   0.390   0.992   2.182  0.4344  0.9336  0.3086
  528TMC3    O1 7848   0.427   0.511   1.846  0.1917 -0.0003  0.2490
  528TMC3    O2 7849   0.362   1.109   2.170 -0.4380  0.4212  0.1525
  529MPD2     C 7850   2.252   0.564   0.740  0.1345  0.3789 -0.5115
  529MPD2    C1 7851   2.250   0.435   0.685 -0.2002 -0.6789 -0.1212
  529MPD2    C2 7852   2.251   0.418   0.548  0.2722 -0.2277 -0.3407
  529MPD2    C3 7853   2.258   0.522   0.457  0.1724 -0.0001 -0.6994
  529MPD2    C4 7854   2.257   0.647   0.516  0.0913 -0.0352 -0.9349
  529MPD2    C5 7855   2.258   0.668   0.652 -0.3151  0.0059  0.6924
  529MPD2     H 7856   2.248   0.315   0.514 -0.7852 -0.8040  1.4537
  529MPD2    H1 7857   2.262   0.732   0.449 -0.1581  1.1953  0.6418
  529MPD2    H2 7858   2.246   0.587   0.846  1.8738 -0.3028 -0.2565
  529MPD2    H3 7859   2.249   0.770   0.686 -0.7484  0.2759 -0.2240
  529MPD2     N 7860   2.252   0.513   0.324 -0.1123 -0.1863  0.7088
  529MPD2    H5 7861   2.259   0.599   0.270 -0.3448 -1.2292 -0.9911
  529MPD2    N1 7862   2.242   0.324   0.768  0.2763  0.6356  0.7034
  529MPD2    H7 7863   2.230   0.234   0.722  1.1104  1.1064 -0.4511
  530TMC3    C1 7864   2.248   0.195   0.973 -0.4518  0.1538 -0.4020
  530TMC3    C2 7865   2.323   0.174   1.090  0.4932 -0.6250  0.3287
  530TMC3    C3 7866   2.339   0.039   1.119  0.5782 -0.3803  0.1245
  530TMC3    C4 7867   2.191   0.095   0.892  0.2157  0.7536 -0.3667
  530TMC3    C5 7868   2.199   4.697   0.940 -0.5094 -0.0067  0.0015
  530TMC3    C6 7869   2.282   4.665   1.044 -0.6767  0.0284  0.4524
  530TMC3     C 7870   2.262   0.326   0.908  0.1115  0.3852  0.1713
  530TMC3     O 7871   2.295   0.416   0.986 -0.4711 -0.5490  0.8112
  530TMC3     H 7872   2.361   0.257   1.148  1.0632 -1.4102  1.0841
  530TMC3    H1 7873   2.125   0.122   0.810  0.0784 -1.7919 -1.0788
  530TMC3    H2 7874   2.291   4.563   1.079 -2.8534 -0.3363 -0.0837
  530TMC3    C7 7875   2.123   4.591   0.867 -0.3172  0.5614 -0.6137
  530TMC3    C8 7876   2.397   0.012   1.251  0.0845  0.2834  0.2782
  530TMC3    O1 7877   2.052   4.625   0.774  0.1868 -0.0876  0.1870
  530TMC3    O2 7878   2.401   0.111   1.324 -0.2454  0.5315 -0.3539
  531MPD2     C 7879   1.013   1.588  13.061  0.5158  0.1172 -0.3220
  531MPD2    C1 7880   0.950   1.692  13.136  0.3816  0.7472 -0.0872
  531MPD2    C2 7881   0.831   1.741  13.094  0.0722 -0.8705 -0.5445
  531MPD2    C3 7882   0.759   1.681  12.997 -0.1936  0.4761 -0.4394
  531MPD2    C4 7883   0.806   1.573  12.938  1.1371 -0.4899  0.3238
  531MPD2    C5 7884   0.939   1.530  12.958 -0.3880 -0.5698  0.0038
  531MPD2     H 7885   0.790   1.819  13.157 -0.8090 -1.6338 -0.1614
  531MPD2    H1 7886   0.745   1.529  12.860  2.6317  1.4207 -1.8926
  531MPD2    H2 7887   1.103   1.542  13.098  1.6342  0.6430 -2.3863
  531MPD2    H3 7888   0.981   1.439  12.915 -1.0053 -1.3445  1.0374
  531MPD2     N 7889   0.627   1.726  12.961  0.8109 -0.1550 -0.0061
  531MPD2    H5 7890   0.590   1.694  12.872 -1.4982 -3.1631  2.0178
  531MPD2    N1 7891   1.027   1.750  13.236  0.2900 -0.0971  0.5801
  531MPD2    H7 7892   1.123   1.719  13.235  0.4988  0.4514  3.0174
  532TMC3    C1 7893   1.098   1.925  13.386 -0.3686 -0.6552  0.4536
  532TMC3    C2 7894   1.063   2.061  13.378 -0.3921 -0.3150 -0.5525
  532TMC3    C3 7895   1.075   2.138  13.491 -0.4833  0.4896 -0.6034
  532TMC3    C4 7896   1.163   1.872  13.492  0.6428 -0.7677 -0.3897
  532TMC3    C5 7897   1.198   1.965  13.588 -0.3159 -0.1497  0.2244
  532TMC3    C6 7898   1.141   2.091  13.598  0.5082 -0.9997  0.1516
  532TMC3     C 7899   0.989   1.847  13.324  0.6652  0.2612 -0.5744
  532TMC3     O 7900   0.879   1.892  13.344  0.3169 -0.6058 -0.4040
  532TMC3     H 7901   1.020   2.086  13.282 -0.5141  0.6159 -0.2506
  532TMC3    H1 7902   1.189   1.767  13.497 -3.0517 -1.7053 -1.1075
  532TMC3    H2 7903   1.168   2.158  13.678 -1.0411 -0.3089  0.1071
  532TMC3    C7 7904   1.299   1.921  13.679 -0.6238  0.0873 -0.4365
  532TMC3    C8 7905   0.949   2.216  13.510 -0.4948 -0.9971  0.5922
  532TMC3    O1 7906   1.334   1.998  13.770  0.1458 -0.3110 -0.6343
  532TMC3    O2 7907   0.942   2.298  13.598  0.4411  0.2019  0.3814
  533TMC3    C1 7908   2.214   3.670  14.653  0.1944  0.1796 -0.4285
  533TMC3    C2 7909   2.344   3.675  14.627 -0.5644  0.0548 -0.0217
  533TMC3    C3 7910   2.389   3.798  14.602 -0.1870 -0.1427  0.6771
  533TMC3    C4 7911   2.127   3.771  14.664  0.1587  1.3801  0.5429
  533TMC3    C5 7912   2.180   3.890  14.661 -0.2477  0.6284 -0.1465
  533TMC3    C6 7913   2.311   3.911  14.621 -0.7270 -0.2432  0.1307
  533TMC3     C 7914   2.144   3.538  14.674  0.1923  0.2556 -0.1453
  533TMC3     O 7915   2.217   3.443  14.694 -0.0724  0.2783 -0.1003
  533TMC3     H 7916   2.403   3.585  14.616 -2.6835 -1.3733  0.3136
  533TMC3    H1 7917   2.020   3.766  14.683  0.0063 -0.0446 -0.6421
  533TMC3    H2 7918   2.342   4.015  14.618  0.7877 -0.6922  0.5082
  533TMC3    C7 7919   2.131   3.995  14.748  0.1426 -0.2936 -0.2809
  533TMC3    C8 7920   2.532   3.817  14.584 -0.0653  0.0263 -0.0855
  533TMC3    O1 7921   2.142   4.111  14.716  0.2007  0.3207  0.5533
  533TMC3    O2 7922   2.605   3.747  14.649 -0.0207  0.0678  0.6132
  534MPD2     C 7923   4.566   4.516   2.143  0.4436 -0.6244 -0.2681
  534MPD2    C1 7924   4.593   4.563   2.021  0.7530  0.3494 -0.1164
  534MPD2    C2 7925   4.491   4.541   1.922  0.1043  0.0747  0.1524
  534MPD2    C3 7926   4.374   4.478   1.944  0.2611  0.0657  0.1677
  534MPD2    C4 7927   4.346   4.441   2.074 -0.5711  0.2024 -0.2274
  534MPD2    C5 7928   4.446   4.452   2.170 -0.9605 -0.2725 -0.6810
  534MPD2     H 7929   4.501   4.588   1.825 -2.8502  1.1544  0.3725
  534MPD2    H1 7930   4.245   4.405   2.089 -1.5943  2.7404 -1.0598
  534MPD2    H2 7931   4.637   4.515   2.225  1.8843 -2.2487 -1.5206
  534MPD2    H3 7932   4.429   4.409   2.267  0.2862 -0.0219 -0.3530
  534MPD2     N 7933   4.287   4.471   1.835  0.4989  0.1706  0.2062
  534MPD2    H5 7934   4.315   4.519   1.750  0.2230 -0.2680 -0.1333
  534MPD2    N1 7935   4.713   4.625   1.980  0.2312 -0.0164 -1.2661
  534MPD2    H7 7936   4.722   4.646   1.881  0.2248  1.3687 -0.9620
  535TMC3    C1 7937   4.079   4.438   1.719  0.2009 -0.3420 -0.1620
  535TMC3    C2 7938   3.954   4.383   1.715  0.0542 -0.3425 -0.1925
  535TMC3    C3 7939   3.879   4.413   1.606 -0.2098 -0.4635 -0.0653
  535TMC3    C4 7940   4.125   4.526   1.623  0.0546 -0.4363  0.0239
  535TMC3    C5 7941   4.042   4.554   1.520  0.4476  0.7825 -0.1121
  535TMC3    C6 7942   3.922   4.494   1.505  0.5507 -0.1559 -0.3816
  535TMC3     C 7943   4.166   4.404   1.835 -0.2275 -0.5278  0.1378
  535TMC3     O 7944   4.111   4.333   1.917  0.2312 -0.1055 -0.4941
  535TMC3     H 7945   3.925   4.309   1.789  3.0920 -1.2495  0.1245
  535TMC3    H1 7946   4.217   4.583   1.628  0.5629 -1.3143  0.6898
  535TMC3    H2 7947   3.860   4.515   1.419 -1.9603 -1.4248  1.1048
  535TMC3    C7 7948   4.093   4.631   1.415  1.1261 -0.3013 -0.6070
  535TMC3    C8 7949   3.750   4.337   1.589  0.3531  0.0145 -0.6726
  535TMC3    O1 7950   4.216   4.647   1.408 -0.0832  0.1980 -0.4844
  535TMC3    O2 7951   3.701   4.331   1.478 -0.7588  0.3534 -0.4428
  536MPD2     C 7952   3.238   3.078  16.336  0.0683  0.2797 -0.3540
  536MPD2    C1 7953   3.112   3.071  16.388 -1.1817  0.3096 -0.0270
  536MPD2    C2 7954   3.004   3.086  16.303  1.2465  0.1125 -0.1560
  536MPD2    C3 7955   3.025   3.114  16.170 -0.2565  0.1958 -0.3259
  536MPD2    C4 7956   3.149   3.124  16.118  0.3823  0.1575 -0.3931
  536MPD2    C5 7957   3.251   3.104  16.203  0.7385 -0.3237  0.3281
  536MPD2     H 7958   2.906   3.103  16.347  0.2713 -2.4741 -1.3691
  536MPD2    H1 7959   3.167   3.154  16.016 -1.4802 -1.3518 -1.1767
  536MPD2    H2 7960   3.324   3.064  16.401  0.4705  0.2873 -0.8881
  536MPD2    H3 7961   3.352   3.125  16.169 -0.3914  1.9285 -1.6258
  536MPD2     N 7962   2.922   3.115  16.067  0.6358  1.2426 -1.1942
  536MPD2    H5 7963   2.947   3.119  15.969  0.2417  0.8286 -1.3129
  536MPD2    N1 7964   3.101   3.027  16.523  0.0618  0.5821  0.1939
  536MPD2    H7 7965   3.187   3.001  16.571  0.2273  1.3693  0.3213
  537TMC3    C1 7966   3.006   2.945  16.722  0.5911  0.1942 -0.0955
  537TMC3    C2 7967   3.128   2.956  16.786  0.1185  0.3175 -0.2881
  537TMC3    C3 7968   3.134   2.913  16.914 -0.1635 -0.0573  0.0503
  537TMC3    C4 7969   2.899   2.870  16.774  0.1295  0.0828 -0.1079
  537TMC3    C5 7970   2.922   2.813  16.894 -0.0336  0.4844  0.5904
  537TMC3    C6 7971   3.030   2.837  16.974 -0.1895  0.3229 -0.2864
  537TMC3     C 7972   2.982   3.015  16.595  0.3799 -0.7720  0.1008
  537TMC3     O 7973   2.865   3.039  16.568  0.1271 -0.1456 -0.6171
  537TMC3     H 7974   3.193   3.035  16.749 -0.1236  0.2403 -0.8813
  537TMC3    H1 7975   2.815   2.852  16.709  0.7701 -1.4775 -0.4995
  537TMC3    H2 7976   3.033   2.810  17.079  0.8081 -1.0720 -0.6663
  537TMC3    C7 7977   2.805   2.758  16.959  0.1367 -0.1748 -0.3166
  537TMC3    C8 7978   3.257   2.937  16.993  0.1260  0.2092  0.0860
  537TMC3    O1 7979   2.702   2.813  16.932  0.2141  0.4830  0.3349
  537TMC3    O2 7980   3.250   2.937  17.114  0.1191 -0.3898 -0.0082
  538TMC3    C1 7981   4.413   1.150  10.785 -0.4289  0.0405 -0.0911
  538TMC3    C2 7982   4.497   1.061  10.714  0.0694 -0.4582 -0.4206
  538TMC3    C3 7983   4.463   1.024  10.590 -0.0499  0.0658  0.1764
  538TMC3    C4 7984   4.304   1.206  10.729 -0.5591 -0.0505 -0.0112
  538TMC3    C5 7985   4.274   1.153  10.609  0.3038  0.4066  0.0065
  538TMC3    C6 7986   4.353   1.072  10.531 -0.1221  0.2077  0.2644
  538TMC3     C 7987   4.437   1.171  10.930  0.8443 -0.0972  0.6401
  538TMC3     O 7988   4.372   1.256  10.989 -0.7902 -0.1341  0.5300
  538TMC3     H 7989   4.587   1.019  10.757  0.4836  0.5019 -0.3508
  538TMC3    H1 7990   4.234   1.269  10.782  0.3024 -0.6986  1.9124
  538TMC3    H2 7991   4.321   1.042  10.432 -2.2146 -1.4647  1.4582
  538TMC3    C7 7992   4.167   1.219  10.527  0.3924  0.3498  0.6814
  538TMC3    C8 7993   4.577   1.009  10.502 -0.0177 -0.0134  0.3978
  538TMC3    O1 7994   4.096   1.157  10.449 -0.2948 -1.1980  0.0674
  538TMC3    O2 7995   4.563   1.051  10.386 -0.3359 -0.4195 -0.5386
  539MPD2     C 7996   4.023   0.560  11.836 -0.1236 -0.2959  0.0490
  539MPD2    C1 7997   4.030   0.594  11.701 -0.6412 -0.1382 -0.5490
  539MPD2    C2 7998   3.979   0.714  11.658  1.1680 -0.7471 -0.0984
  539MPD2    C3 7999   3.948   0.816  11.743 -0.0241  0.1051 -0.1506
  539MPD2    C4 8000   3.951   0.787  11.879 -0.6067 -0.4023 -0.1359
  539MPD2    C5 8001   3.987   0.664  11.914 -0.1808 -0.0431 -0.9103
  539MPD2     H 8002   3.968   0.727  11.551 -0.8836 -2.6093 -0.1020
  539MPD2    H1 8003   3.922   0.854  11.959  3.2248 -0.8468  1.6577
  539MPD2    H2 8004   4.048   0.464  11.879  1.7433  0.7498  1.2867
  539MPD2    H3 8005   3.979   0.659  12.022  2.0949  0.7302 -0.7140
  539MPD2     N 8006   3.894   0.947  11.707  0.1848  0.1647  0.1243
  539MPD2    H5 8007   3.892   1.018  11.780  0.7954  1.6865 -1.3313
  539MPD2    N1 8008   4.083   0.500  11.600 -0.4385  0.1332  0.2589
  539MPD2    H7 8009   4.079   0.529  11.503  2.8095  1.9531  0.6934
  540TMC3    C1 8010   3.825   1.115  11.566  0.2055  0.5430 -0.0040
  540TMC3    C2 8011   3.818   1.173  11.445  0.2658 -0.4347 -0.0936
  540TMC3    C3 8012   3.789   1.308  11.436 -0.3705 -0.4238  0.7292
  540TMC3    C4 8013   3.804   1.193  11.677 -0.6743  0.1764 -0.0314
  540TMC3    C5 8014   3.784   1.330  11.666  0.1614  0.5824 -0.8606
  540TMC3    C6 8015   3.772   1.387  11.544  0.8828  0.1705 -0.3544
  540TMC3     C 8016   3.893   0.991  11.577  0.2344  0.0393  0.3982
  540TMC3     O 8017   3.929   0.940  11.472 -0.0483  0.3265  0.1565
  540TMC3     H 8018   3.856   1.127  11.355 -0.9813  0.4956 -1.1107
  540TMC3    H1 8019   3.817   1.162  11.780 -0.5928 -0.5916 -0.2737
  540TMC3    H2 8020   3.764   1.494  11.529  0.9373 -0.0546 -2.0341
  540TMC3    C7 8021   3.707   1.380  11.772 -0.4370  0.3777  0.3636
  540TMC3    C8 8022   3.803   1.365  11.296  0.3723  0.6388 -0.0077
  540TMC3    O1 8023   3.635   1.298  11.825  0.5465 -0.0176  0.5671
  540TMC3    O2 8024   3.824   1.485  11.284  0.1286  0.7621  0.3899
  541MPD2     C 8025   2.342   1.899  13.112  0.0939 -0.1891 -0.3772
  541MPD2    C1 8026   2.398   1.813  13.015  0.1043  0.3072  0.5015
  541MPD2    C2 8027   2.370   1.836  12.883  0.3644 -0.4754  0.6942
  541MPD2    C3 8028   2.298   1.955  12.853  0.1676  0.2145 -0.0784
  541MPD2    C4 8029   2.240   2.033  12.949 -0.4110  0.3009  0.4666
  541MPD2    C5 8030   2.264   2.008  13.077  0.4178 -0.1381 -0.1838
  541MPD2     H 8031   2.416   1.777  12.805 -0.0854 -0.4557  0.4115
  541MPD2    H1 8032   2.177   2.119  12.929  0.2269  0.4276 -1.0078
  541MPD2    H2 8033   2.365   1.888  13.217 -1.1709  1.9051  0.1191
  541MPD2    H3 8034   2.213   2.063  13.155  0.9535  0.1473 -0.0299
  541MPD2     N 8035   2.282   2.003  12.724 -0.3139 -0.4245  0.8074
  541MPD2    H5 8036   2.216   2.078  12.709  1.1945  0.7632  0.0839
  541MPD2    N1 8037   2.473   1.700  13.061  0.1724 -0.1620  0.4033
  541MPD2    H7 8038   2.493   1.696  13.160  2.8562 -0.6835 -0.1492
  542TMC3    C1 8039   2.310   2.035  12.491 -0.4433  0.2485  0.1386
  542TMC3    C2 8040   2.394   2.029  12.378  0.3879 -0.4830  0.8040
  542TMC3    C3 8041   2.356   2.088  12.256 -0.2741 -0.6072 -0.3533
  542TMC3    C4 8042   2.188   2.099  12.480  0.1997  0.6103  0.1592
  542TMC3    C5 8043   2.153   2.153  12.357 -0.7788 -0.1584  0.1674
  542TMC3    C6 8044   2.238   2.156  12.245 -0.8650  0.8032 -0.1475
  542TMC3     C 8045   2.348   1.958  12.611 -0.0630 -0.2988  1.0426
  542TMC3     O 8046   2.428   1.862  12.594 -0.3859 -0.2116 -0.1563
  542TMC3     H 8047   2.484   1.970  12.381  0.0045 -1.0826  0.5392
  542TMC3    H1 8048   2.123   2.106  12.567 -0.8595 -1.6079 -0.4632
  542TMC3    H2 8049   2.213   2.211  12.156 -0.4199  1.2320 -0.0079
  542TMC3    C7 8050   2.036   2.239  12.339  0.0158 -0.8697 -0.7385
  542TMC3    C8 8051   2.445   2.099  12.142 -0.6366 -0.2744  0.1553
  542TMC3    O1 8052   1.983   2.246  12.230 -0.2202  0.5336 -0.6720
  542TMC3    O2 8053   2.392   2.120  12.033 -0.1811 -0.3391  0.4350
  543TMC3    C1 8054   1.550   3.922  17.234  0.3721  0.7007 -0.1947
  543TMC3    C2 8055   1.552   3.802  17.297 -0.2790 -0.4580  0.1897
  543TMC3    C3 8056   1.449   3.765  17.372 -0.2710  0.5370 -0.2282
  543TMC3    C4 8057   1.439   4.001  17.241 -0.1281 -0.2818 -0.1280
  543TMC3    C5 8058   1.337   3.957  17.319 -0.6722 -0.5501 -0.0371
  543TMC3    C6 8059   1.338   3.842  17.396  0.6535  0.0996  0.6214
  543TMC3     C 8060   1.659   3.935  17.136  0.6806  0.3711  0.2669
  543TMC3     O 8061   1.728   3.842  17.123  0.1611  0.2129  0.0216
  543TMC3     H 8062   1.633   3.732  17.283 -0.4021 -0.5791  0.0829
  543TMC3    H1 8063   1.441   4.101  17.200 -2.1447 -0.2042 -0.0296
  543TMC3    H2 8064   1.255   3.824  17.463  1.1421 -0.3124  1.1138
  543TMC3    C7 8065   1.238   4.059  17.361 -0.1999 -0.3554  1.0235
  543TMC3    C8 8066   1.448   3.623  17.395  0.0682  0.3538 -0.3958
  543TMC3    O1 8067   1.269   4.177  17.352  0.0652  0.0443 -0.2888
  543TMC3    O2 8068   1.558   3.568  17.398  0.1263 -0.2317 -0.1284
  544MPD2     C 8069   1.214   3.183  17.514 -0.5131  0.3080  0.2749
  544MPD2    C1 8070   1.339   3.208  17.465  0.2418 -0.6263  0.4381
  544MPD2    C2 8071   1.384   3.335  17.442 -0.1909 -0.0247 -0.4512
  544MPD2    C3 8072   1.290   3.436  17.446 -0.2439  0.4964  0.3707
  544MPD2    C4 8073   1.158   3.411  17.484  0.4008  0.1701  0.0992
  544MPD2    C5 8074   1.126   3.284  17.524  0.2441  0.2017 -0.7162
  544MPD2     H 8075   1.490   3.349  17.429 -0.2027 -1.1571 -1.7775
  544MPD2    H1 8076   1.090   3.495  17.485  2.7685  2.1016 -1.1982
  544MPD2    H2 8077   1.177   3.082  17.529 -0.0972  0.1176  0.0306
  544MPD2    H3 8078   1.027   3.257  17.560  0.4806 -0.5482 -0.6237
  544MPD2     N 8079   1.319   3.571  17.406  0.4922  0.0078  0.3591
  544MPD2    H5 8080   1.240   3.629  17.382 -0.3525 -0.1976  2.6559
  544MPD2    N1 8081   1.423   3.089  17.430  0.3919 -0.4707 -0.3068
  544MPD2    H7 8082   1.379   2.998  17.439 -1.7761  0.4768 -1.4763
  545TMC3    C1 8083   1.597   2.950  17.347  0.4997 -0.5669  0.4932
  545TMC3    C2 8084   1.709   2.936  17.266 -0.3033 -0.1639 -0.8655
  545TMC3    C3 8085   1.777   2.818  17.274 -0.3614  0.4134  0.0948
  545TMC3    C4 8086   1.556   2.847  17.430  0.1806  0.6588 -0.1011
  545TMC3    C5 8087   1.631   2.732  17.426  0.0030  0.5211 -1.0769
  545TMC3    C6 8088   1.750   2.721  17.366 -0.5910  0.6824  0.3914
  545TMC3     C 8089   1.545   3.088  17.365  0.2504 -0.1736 -0.1626
  545TMC3     O 8090   1.611   3.179  17.324  0.1350 -0.0975 -0.5471
  545TMC3     H 8091   1.759   3.018  17.215 -0.2773 -0.2539 -0.9840
  545TMC3    H1 8092   1.463   2.854  17.485 -0.2307  3.1223 -1.1001
  545TMC3    H2 8093   1.808   2.631  17.353  1.1419  1.9371 -0.5855
  545TMC3    C7 8094   1.591   2.617  17.503  0.0588 -0.1640 -0.9501
  545TMC3    C8 8095   1.920   2.827  17.235  0.0320  0.5059  0.7791
  545TMC3    O1 8096   1.476   2.610  17.539  0.2572 -0.3965 -0.0274
  545TMC3    O2 8097   2.000   2.756  17.297 -0.5154 -0.0570  0.3928
  546MPD2     C 8098   3.153   3.980  17.616  0.8916 -0.2933 -0.0084
  546MPD2    C1 8099   3.154   3.941  17.482  0.2368  0.3192 -0.6327
  546MPD2    C2 8100   3.193   4.037  17.391  0.3547 -0.0898 -0.4727
  546MPD2    C3 8101   3.237   4.164  17.424  0.0766  0.6112  0.0004
  546MPD2    C4 8102   3.242   4.196  17.559  0.2870  0.0151 -0.5228
  546MPD2    C5 8103   3.206   4.097  17.651 -0.1221  0.1213  0.4076
  546MPD2     H 8104   3.197   4.004  17.288  1.5942 -0.7998 -0.1998
  546MPD2    H1 8105   3.285   4.284  17.605 -1.9242  0.5142  0.5822
  546MPD2    H2 8106   3.111   3.921  17.697  0.4857  1.2130  0.8915
  546MPD2    H3 8107   3.212   4.127   0.041  2.2833 -1.3293  0.6974
  546MPD2     N 8108   3.289   4.259  17.330  0.2339  0.1519  0.3483
  546MPD2    H5 8109   3.299   4.354  17.365 -1.7574  0.3516  0.3963
  546MPD2    N1 8110   3.121   3.808  17.455 -0.8307  0.0176 -0.2553
  546MPD2    H7 8111   3.093   3.743  17.528 -1.1874  1.3367  0.7977
  547TMC3    C1 8112   3.058   3.627  17.332 -1.1663  0.3075 -0.0340
  547TMC3    C2 8113   2.978   3.603  17.222 -0.4602 -0.8698 -0.0296
  547TMC3    C3 8114   2.896   3.491  17.237  0.0640  0.5258  0.5269
  547TMC3    C4 8115   3.055   3.553  17.449  0.3863  0.1753 -0.0744
  547TMC3    C5 8116   2.966   3.448  17.461 -0.2195 -0.2008 -0.0147
  547TMC3    C6 8117   2.886   3.418  17.354 -0.1293  0.3218  0.5717
  547TMC3     C 8118   3.115   3.758  17.326  0.5550  0.8600 -0.4488
  547TMC3     O 8119   3.130   3.805  17.212 -0.3529 -0.2818  1.1016
  547TMC3     H 8120   2.955   3.669  17.139 -1.5069  0.9800  1.7229
  547TMC3    H1 8121   3.117   3.570  17.536  2.0523  2.3280 -1.6811
  547TMC3    H2 8122   2.812   3.340  17.366 -0.3138  0.4521  0.3032
  547TMC3    C7 8123   3.002   3.346  17.555  0.5253 -0.7593 -0.2854
  547TMC3    C8 8124   2.784   3.488  17.149  1.3252 -0.0935  1.0997
  547TMC3    O1 8125   3.116   3.339  17.587 -0.1229  0.4251 -0.3551
  547TMC3    O2 8126   2.741   3.590  17.104 -0.3026 -0.1542  0.1669
  548MPD2     C 8127   2.776   3.624  12.874  0.4040 -0.1585 -0.6310
  548MPD2    C1 8128   2.733   3.530  12.786 -0.5707 -0.1929 -0.0139
  548MPD2    C2 8129   2.827   3.465  12.704  1.1234  0.0363  0.6062
  548MPD2    C3 8130   2.967   3.498  12.722 -0.1951  0.4347 -0.7288
  548MPD2    C4 8131   3.006   3.591  12.818  0.4313 -0.0556 -0.1218
  548MPD2    C5 8132   2.909   3.641  12.900 -1.1478 -0.3680 -0.0401
  548MPD2     H 8133   2.802   3.396  12.625 -0.8733 -0.7533  1.9291
  548MPD2    H1 8134   3.108   3.613  12.847 -0.5814  1.3829  2.3729
  548MPD2    H2 8135   2.705   3.680  12.933 -0.5315  0.4840 -2.3619
  548MPD2    H3 8136   2.940   3.721  12.967  0.2832  1.6784 -3.1098
  548MPD2     N 8137   3.064   3.440  12.634 -0.3791  0.0869  0.2315
  548MPD2    H5 8138   3.033   3.365  12.574  0.7946 -2.0807  2.3423
  548MPD2    N1 8139   2.593   3.511  12.783  0.2492  0.3408  0.4601
  548MPD2    H7 8140   2.542   3.577  12.841  2.0381 -1.2548  3.8956
  549TMC3    C1 8141   2.393   3.468  12.678  0.0822 -0.0666 -1.2788
  549TMC3    C2 8142   2.367   3.598  12.701 -0.6203 -0.2745  0.0344
  549TMC3    C3 8143   2.238   3.635  12.672 -0.5605 -0.1061 -0.7679
  549TMC3    C4 8144   2.308   3.376  12.632 -0.0991 -0.4845 -0.7264
  549TMC3    C5 8145   2.178   3.413  12.607  0.1533 -0.4286  0.6004
  549TMC3    C6 8146   2.138   3.546  12.636  0.0049  0.1071 -0.3752
  549TMC3     C 8147   2.527   3.419  12.710  0.5553  0.6979 -0.4256
  549TMC3     O 8148   2.560   3.339  12.625  0.2599 -0.2390 -0.0864
  549TMC3     H 8149   2.440   3.679  12.703 -0.3458 -0.4880 -1.1529
  549TMC3    H1 8150   2.336   3.272  12.645  0.6045 -0.1618  0.3498
  549TMC3    H2 8151   2.041   3.587  12.611 -0.7069 -1.4252 -0.1373
  549TMC3    C7 8152   2.069   3.313  12.594  0.3930  0.5841 -0.0872
  549TMC3    C8 8153   2.202   3.770  12.659 -0.6770 -0.4695 -0.1230
  549TMC3    O1 8154   1.962   3.367  12.574 -0.7935 -0.2252  0.4121
  549TMC3    O2 8155   2.097   3.795  12.597 -0.3351 -0.3515 -0.3261
  550TMC3    C1 8156   1.553   1.925  12.786  0.1141 -0.7202 -0.0912
  550TMC3    C2 8157   1.465   1.975  12.881 -0.2540  1.4722  0.0510
  550TMC3    C3 8158   1.416   2.104  12.862 -0.4047  0.1775 -0.5247
  550TMC3    C4 8159   1.594   1.998  12.676  0.0910  0.0256  0.5226
  550TMC3    C5 8160   1.534   2.121  12.659  0.5670 -0.4320 -0.4694
  550TMC3    C6 8161   1.454   2.177  12.751  0.2720  0.7544 -0.3101
  550TMC3     C 8162   1.579   1.786  12.790 -1.3307  0.1807 -0.0519
  550TMC3     O 8163   1.560   1.725  12.896  0.2050 -0.1078 -0.4364
  550TMC3     H 8164   1.438   1.906  12.960  1.4429 -0.2134 -0.8259
  550TMC3    H1 8165   1.633   1.952  12.586  0.7353 -0.1996  0.9162
  550TMC3    H2 8166   1.405   2.273  12.734  1.3232  1.3472 -0.0110
  550TMC3    C7 8167   1.481   2.136  12.525 -0.0514 -0.1593  0.4487
  550TMC3    C8 8168   1.295   2.160  12.913  0.1579 -0.3420 -0.0527
  550TMC3    O1 8169   1.370   2.177  12.521  0.1393 -0.1328  0.5740
  550TMC3    O2 8170   1.288   2.281  12.930 -0.6290 -0.4662 -0.1825
  551TMC3    C1 8171   4.235   0.133  13.104 -0.5221 -0.2796 -0.1510
  551TMC3    C2 8172   4.318   0.186  13.010  0.4642 -0.2414  0.0685
  551TMC3    C3 8173   4.424   0.258  13.048  0.1616 -0.1091  0.1615
  551TMC3    C4 8174   4.250   0.148  13.238 -0.6786  0.1421  0.2391
  551TMC3    C5 8175   4.360   0.212  13.281 -0.6059 -0.1265  0.0904
  551TMC3    C6 8176   4.446   0.266  13.186  0.0228 -0.1042 -0.8020
  551TMC3     C 8177   4.111   0.074  13.050 -0.1076  0.0144 -0.5267
  551TMC3     O 8178   4.114   0.045  12.932  0.0463  0.1243  0.4453
  551TMC3     H 8179   4.307   0.171  12.903  2.3502  0.2328 -0.1823
  551TMC3    H1 8180   4.196   0.089  13.311  1.0348  0.3614  1.6693
  551TMC3    H2 8181   4.531   0.321  13.223  1.1749 -3.0549  0.9007
  551TMC3    C7 8182   4.383   0.223  13.428 -0.2041 -0.0607  0.4898
  551TMC3    C8 8183   4.472   0.375  12.972 -0.4048 -0.4009 -0.0866
  551TMC3    O1 8184   4.292   0.174  13.494 -0.6730 -0.8251  0.2031
  551TMC3    O2 8185   4.533   0.454  13.042  0.0035 -0.0266 -0.6445
  552MPD2     C 8186   1.015   1.756  13.778  0.4383  0.1854  0.1253
  552MPD2    C1 8187   1.103   1.653  13.810  0.3791  0.2109 -0.1543
  552MPD2    C2 8188   1.166   1.667  13.933 -0.4351  0.4287 -0.4095
  552MPD2    C3 8189   1.161   1.787  14.004 -0.3872 -0.5601 -0.3532
  552MPD2    C4 8190   1.086   1.893  13.963 -0.2523 -0.3289  0.3659
  552MPD2    C5 8191   1.019   1.874  13.846 -0.0532 -0.8370  0.0390
  552MPD2     H 8192   1.233   1.586  13.959  1.2835  1.9959  0.0353
  552MPD2    H1 8193   1.080   1.990  14.011  1.6693 -0.7139  1.3494
  552MPD2    H2 8194   0.957   1.765  13.687  0.7179 -3.5275 -0.4269
  552MPD2    H3 8195   0.962   1.960  13.813 -0.0175 -1.0486 -0.5728
  552MPD2     N 8196   1.243   1.814  14.125 -0.5659  0.6746 -0.1393
  552MPD2    H5 8197   1.233   1.903  14.173 -0.1588  1.6758 -1.9237
  552MPD2    N1 8198   1.126   1.538  13.729 -0.3435 -0.5301 -0.1630
  552MPD2    H7 8199   1.190   1.473  13.775  0.5088 -0.4402 -1.2222
  553TMC3    C1 8200   1.104   1.385  13.547  0.2499  0.4455  0.0453
  553TMC3    C2 8201   1.089   1.381  13.411  0.1179 -0.6416  0.1957
  553TMC3    C3 8202   1.130   1.266  13.347  0.4016  0.3363 -0.7268
  553TMC3    C4 8203   1.175   1.293  13.618  0.2640 -0.1493  0.2925
  553TMC3    C5 8204   1.209   1.176  13.544  0.3403  0.6374 -0.7491
  553TMC3    C6 8205   1.186   1.160  13.413  0.1155 -0.3670  0.2043
  553TMC3     C 8206   1.061   1.511  13.606  0.0338  0.1996  0.1545
  553TMC3     O 8207   0.989   1.589  13.538 -0.2976 -0.0609 -0.0974
  553TMC3     H 8208   1.057   1.471  13.360 -1.4213 -2.3459 -1.8822
  553TMC3    H1 8209   1.192   1.297  13.725  1.8970 -1.0351  0.0657
  553TMC3    H2 8210   1.234   1.080  13.358 -2.3112 -1.2413 -0.6493
  553TMC3    C7 8211   1.319   1.098  13.590 -0.4919 -0.0391  0.2327
  553TMC3    C8 8212   1.198   1.308  13.225  0.1352 -0.7711  0.8695
  553TMC3    O1 8213   1.335   0.988  13.542 -0.0655  0.3845 -0.5328
  553TMC3    O2 8214   1.243   1.422  13.224  0.4334  1.0130 -0.7085
  554TMC3    C1 8215   2.818   0.986  11.601 -0.0407  0.0103  0.2913
  554TMC3    C2 8216   2.723   0.934  11.517 -0.4374 -0.0770 -0.2443
  554TMC3    C3 8217   2.724   0.983  11.390  0.3286  0.0389  0.2898
  554TMC3    C4 8218   2.917   1.061  11.555  0.3380 -0.3753  0.2559
  554TMC3    C5 8219   2.913   1.116  11.426  0.2070 -0.1760  1.2857
  554TMC3    C6 8220   2.809   1.083  11.344  0.3704 -0.3437  0.3525
  554TMC3     C 8221   2.809   0.951  11.740 -0.1541  1.0970  0.6475
  554TMC3     O 8222   2.710   0.887  11.768 -0.4110 -0.1398  0.3846
  554TMC3     H 8223   2.664   0.848  11.546  1.1657 -0.6911  1.2058
  554TMC3    H1 8224   3.004   1.086  11.615  1.3508  0.5149 -1.5839
  554TMC3    H2 8225   2.810   1.115  11.240 -0.2174 -0.2838  0.3660
  554TMC3    C7 8226   3.035   1.135  11.353 -0.4000 -0.6008 -0.4848
  554TMC3    C8 8227   2.672   0.891  11.293  0.3100  0.0970  0.8042
  554TMC3    O1 8228   3.042   1.079  11.245  0.1364  0.5188 -0.2628
  554TMC3    O2 8229   2.730   0.897  11.185  0.2699  0.5811  0.3572
  555TMC3    C1 8230   2.085   0.309  14.752  0.1714 -0.3799  0.6708
  555TMC3    C2 8231   2.069   0.430  14.820  0.0351 -0.7796 -0.3403
  555TMC3    C3 8232   2.035   0.412  14.953 -0.1917 -0.8467 -0.2747
  555TMC3    C4 8233   2.111   0.194  14.816  0.2836  0.0475  0.0185
  555TMC3    C5 8234   2.093   0.189  14.954  0.1201  0.2588 -0.1593
  555TMC3    C6 8235   2.041   0.298  15.028 -0.2174 -0.0733 -0.1703
  555TMC3     C 8236   2.119   0.319  14.608  0.0065 -0.2801  0.2363
  555TMC3     O 8237   2.179   0.230  14.553 -0.3695  0.0313  0.1560
  555TMC3     H 8238   2.079   0.532  14.786 -0.1167 -2.0617 -4.2081
  555TMC3    H1 8239   2.154   0.110  14.762 -0.3630 -0.9582  1.0653
  555TMC3    H2 8240   2.036   0.289  15.136  2.2026 -0.2883 -0.0667
  555TMC3    C7 8241   2.128   0.073  15.033 -0.4497 -0.1722 -0.2145
  555TMC3    C8 8242   1.962   0.517  15.019  0.7632  0.4618  0.3168
  555TMC3    O1 8243   2.072   0.069  15.136 -0.2235 -0.4439  0.0533
  555TMC3    O2 8244   1.902   0.589  14.942  0.1749 -0.1218  0.5270
  556MPD2     C 8245   4.697   1.694  10.511 -0.3082  0.2430 -0.0077
  556MPD2    C1 8246   0.082   1.680  10.590 -0.2327  0.5968 -0.4990
  556MPD2    C2 8247   0.194   1.617  10.526  0.2845  0.7712  0.0385
  556MPD2    C3 8248   0.193   1.585  10.392  0.4083 -0.0841  0.0383
  556MPD2    C4 8249   0.080   1.602  10.317  0.7133 -0.1820  0.3117
  556MPD2    C5 8250   4.698   1.648  10.382 -1.0227 -0.0325  1.5684
  556MPD2     H 8251   0.284   1.600  10.583  1.2093 -0.2895 -1.7086
  556MPD2    H1 8252   0.067   1.575  10.213  0.9509  2.0020 -0.2926
  556MPD2    H2 8253   4.609   1.748  10.545 -0.8033  0.0659 -1.0127
  556MPD2    H3 8254   4.605   1.650  10.327  0.2879 -2.3708 -0.7362
  556MPD2     N 8255   0.314   1.518  10.344 -0.4193  0.4572  0.0792
  556MPD2    H5 8256   0.386   1.500  10.412  1.5394 -2.2140 -2.6761
  556MPD2    N1 8257   0.086   1.734  10.723  0.3062  0.3931  0.0348
  556MPD2    H7 8258   0.167   1.719  10.783  0.6060 -2.0405 -1.0017
  557TMC3    C1 8259   0.443   1.390  10.194 -0.0891  0.1593  1.3134
  557TMC3    C2 8260   0.476   1.380  10.062  0.3342  0.6875  0.3632
  557TMC3    C3 8261   0.532   1.264  10.017 -0.0009 -0.4658  0.1551
  557TMC3    C4 8262   0.446   1.280  10.277  0.1341  0.7359 -0.1076
  557TMC3    C5 8263   0.510   1.165  10.230  0.3759 -0.4113 -0.5603
  557TMC3    C6 8264   0.552   1.157  10.100  0.0224  0.2827 -0.0096
  557TMC3     C 8265   0.327   1.471  10.213  0.4544 -0.4065 -0.2018
  557TMC3     O 8266   0.265   1.487  10.115 -0.1037 -0.1695  0.0537
  557TMC3     H 8267   0.476   1.467   9.997 -1.3906 -0.3752 -1.0789
  557TMC3    H1 8268   0.405   1.285  10.377  0.2444  1.0619 -0.0796
  557TMC3    H2 8269   0.584   1.064  10.055 -1.3802  0.2142 -0.8776
  557TMC3    C7 8270   0.471   1.038  10.287 -0.1416 -0.1280  0.3840
  557TMC3    C8 8271   0.604   1.270   9.892 -0.1416  0.2615  0.3119
  557TMC3    O1 8272   0.546   0.943  10.280  0.2115  0.2949 -0.0763
  557TMC3    O2 8273   0.630   1.376   9.840  0.6185 -0.5895  0.1726
  558TMC3    C1 8274   2.786   3.792  10.203 -0.0927 -0.4480  0.6810
  558TMC3    C2 8275   2.741   3.733  10.321 -0.0342  0.3217 -0.7913
  558TMC3    C3 8276   2.689   3.611  10.313  0.0610  0.0154  0.8433
  558TMC3    C4 8277   2.768   3.734  10.081  0.0899 -0.1388 -0.2565
  558TMC3    C5 8278   2.716   3.609  10.087  0.2902  0.6943 -0.1222
  558TMC3    C6 8279   2.666   3.549  10.198 -0.3547 -0.4248 -0.2194
  558TMC3     C 8280   2.842   3.926  10.218  0.1438 -0.3106  0.2248
  558TMC3     O 8281   2.915   3.947  10.314  0.1838 -0.0823 -0.1333
  558TMC3     H 8282   2.754   3.785  10.416 -0.9873 -1.7315  0.4539
  558TMC3    H1 8283   2.802   3.778   9.987  3.3736  0.3950  1.1714
  558TMC3    H2 8284   2.606   3.459  10.205  0.9342 -1.3476 -0.9697
  558TMC3    C7 8285   2.731   3.518   9.968 -0.4289 -0.8130  0.0709
  558TMC3    C8 8286   2.618   3.560  10.427  0.2382 -0.1257  0.4535
  558TMC3    O1 8287   2.774   3.558   9.859 -0.3914 -0.0342 -0.1119
  558TMC3    O2 8288   2.515   3.494  10.412  0.4702  0.3139 -0.3419
  559MPD2     C 8289   2.624   0.129  10.573 -0.5049 -0.5664  0.2401
  559MPD2    C1 8290   2.564   0.129  10.692  0.0043  0.5163  0.4450
  559MPD2    C2 8291   2.639   0.181  10.794  0.3211 -0.4554 -0.7141
  559MPD2    C3 8292   2.770   0.223  10.782 -0.0605  0.7644  0.5374
  559MPD2    C4 8293   2.826   0.229  10.657  0.3339 -0.0373  0.0067
  559MPD2    C5 8294   2.750   0.181  10.560 -0.4787 -0.7471  0.1786
  559MPD2     H 8295   2.588   0.189  10.890  0.3766 -2.0756 -0.5567
  559MPD2    H1 8296   2.919   0.275  10.625  2.1996 -1.4933  3.3933
  559MPD2    H2 8297   2.575   0.099  10.481  1.0347 -0.8330 -0.4762
  559MPD2    H3 8298   2.792   0.182  10.460 -1.1912 -4.5121 -0.1644
  559MPD2     N 8299   2.845   0.249  10.899 -0.3539  0.0591  0.1728
  559MPD2    H5 8300   2.799   0.257  10.989 -1.0172  3.2061 -0.4676
  559MPD2    N1 8301   2.432   0.079  10.714  0.1015 -0.0654  0.1891
  559MPD2    H7 8302   2.391   0.103  10.803 -0.4652 -0.0763 -0.0723
  560TMC3    C1 8303   3.036   0.251  11.038  0.2378 -0.2561 -0.0643
  560TMC3    C2 8304   2.996   0.129  11.091 -0.1477  0.1317 -0.0260
  560TMC3    C3 8305   3.057   0.086  11.202 -0.3828  0.0810  0.6195
  560TMC3    C4 8306   3.140   0.319  11.081 -0.1882 -0.6516  0.1159
  560TMC3    C5 8307   3.198   0.270  11.191 -0.1087  0.8964  0.3930
  560TMC3    C6 8308   3.163   0.150  11.256 -0.1159 -0.4149  0.5514
  560TMC3     C 8309   2.979   0.280  10.908 -0.4291 -0.0952 -0.0826
  560TMC3     O 8310   3.060   0.332  10.828  0.4015 -0.1777  0.2857
  560TMC3     H 8311   2.910   0.078  11.049  1.4605 -2.4432 -0.1895
  560TMC3    H1 8312   3.166   0.418  11.047  0.2817 -0.7027  0.3192
  560TMC3    H2 8313   3.194   0.127  11.357  1.7183 -3.2233 -0.6404
  560TMC3    C7 8314   3.275   0.360  11.273 -0.6791  0.2083 -0.2533
  560TMC3    C8 8315   3.057   4.669  11.228 -0.3578 -0.2765  0.1253
  560TMC3    O1 8316   3.257   0.349  11.391 -0.5956  0.4544 -0.5971
  560TMC3    O2 8317   2.970   4.596  11.177  0.7746  0.1380  0.0686
  561TMC3    C1 8318   0.571   3.652  11.407 -0.5180 -0.0532  0.4432
  561TMC3    C2 8319   0.548   3.643  11.542  0.0706  0.2308  0.1722
  561TMC3    C3 8320   0.483   3.746  11.595  0.1442  0.0182  0.5382
  561TMC3    C4 8321   0.543   3.750  11.322 -0.3910  0.1515 -0.1430
  561TMC3    C5 8322   0.449   3.833  11.384 -0.2036  0.3042  0.7238
  561TMC3    C6 8323   0.416   3.838  11.515  0.0025  0.2991  0.1269
  561TMC3     C 8324   0.620   3.529  11.339  0.1910 -0.1514 -0.3122
  561TMC3     O 8325   0.569   3.426  11.380  0.0841  0.2629  0.0587
  561TMC3     H 8326   0.586   3.561  11.601 -1.2977  0.5235  1.4366
  561TMC3    H1 8327   0.542   3.745  11.214 -0.3788  1.7737 -0.2183
  561TMC3    H2 8328   0.358   3.916  11.562  0.9086  0.0498  1.6862
  561TMC3    C7 8329   0.390   3.928  11.292 -0.0838 -0.0619 -0.2082
  561TMC3    C8 8330   0.429   3.740  11.726 -0.2631 -0.4524 -0.6046
  561TMC3    O1 8331   0.285   3.968  11.337  0.2330  0.6153  0.3736
  561TMC3    O2 8332   0.411   3.627  11.766  0.3171  0.0555 -0.0771
  562TMC3    C1 8333   1.864   0.877  16.260 -0.6903  0.6012 -0.0225
  562TMC3    C2 8334   1.782   0.987  16.251  0.1879 -0.0240 -0.4376
  562TMC3    C3 8335   1.756   1.029  16.120  0.0104  0.4227  0.4562
  562TMC3    C4 8336   1.922   0.814  16.153  0.5009  0.0541 -0.3369
  562TMC3    C5 8337   1.878   0.850  16.031 -0.5240 -0.5080  0.4024
  562TMC3    C6 8338   1.788   0.946  16.016  0.1948 -0.1761 -0.7169
  562TMC3     C 8339   1.904   0.827  16.389 -0.0382 -0.0921 -0.1153
  562TMC3     O 8340   1.855   0.885  16.482  0.6137  0.4142  0.1899
  562TMC3     H 8341   1.735   1.035  16.337 -0.3603 -0.7044 -0.3614
  562TMC3    H1 8342   1.992   0.731  16.156  0.9603  0.4648  0.3767
  562TMC3    H2 8343   1.779   0.971  15.911 -1.9025  0.0765 -0.4761
  562TMC3    C7 8344   1.908   0.770  15.915  0.3383  0.1612  0.1072
  562TMC3    C8 8345   1.679   1.149  16.101 -0.2593 -0.3961 -0.2778
  562TMC3    O1 8346   1.819   0.754  15.832  0.0731  0.2467  0.2462
  562TMC3    O2 8347   1.684   1.228  16.196  0.2765 -0.0178  0.0422
  563MPD2     C 8348   4.030   1.572  15.677 -0.8233  1.2110 -0.1982
  563MPD2    C1 8349   4.024   1.703  15.723  0.0932 -0.4975 -0.0355
  563MPD2    C2 8350   4.131   1.767  15.773 -0.0937 -0.5829 -0.6795
  563MPD2    C3 8351   4.247   1.696  15.781  0.2365 -0.0927  0.0858
  563MPD2    C4 8352   4.256   1.561  15.738  0.5082 -0.4702 -1.0170
  563MPD2    C5 8353   4.146   1.505  15.681 -0.2971 -0.1766  0.4403
  563MPD2     H 8354   4.117   1.866  15.814 -0.0717  0.0256 -2.1744
  563MPD2    H1 8355   4.342   1.499  15.714  0.6424  0.0512 -1.8721
  563MPD2    H2 8356   3.938   1.527  15.641 -1.2969  1.5738  0.5371
  563MPD2    H3 8357   4.151   1.407  15.634  1.0447  0.8550 -1.5144
  563MPD2     N 8358   4.347   1.757  15.858  0.0931 -0.4986 -0.8043
  563MPD2    H5 8359   4.329   1.843  15.908  1.3038 -1.2581  0.9448
  563MPD2    N1 8360   3.905   1.780  15.720 -0.1555 -0.2420 -0.2512
  563MPD2    H7 8361   3.908   1.870  15.767  1.5247 -0.9596  1.0317
  564TMC3    C1 8362   3.676   1.811  15.775  0.3732  0.1772 -0.4408
  564TMC3    C2 8363   3.569   1.725  15.790 -0.4400  0.0121 -0.4393
  564TMC3    C3 8364   3.530   1.690  15.921 -0.3072 -0.3389  1.1959
  564TMC3    C4 8365   3.718   1.880  15.883  0.0834 -0.3213  0.9352
  564TMC3    C5 8366   3.678   1.839  16.003  0.7923 -0.1482  0.3236
  564TMC3    C6 8367   3.574   1.760  16.025 -0.0959 -0.4586 -0.5099
  564TMC3     C 8368   3.777   1.739  15.695  0.0969 -0.2713 -0.3450
  564TMC3     O 8369   3.741   1.626  15.658  0.1551 -0.1667  0.0385
  564TMC3     H 8370   3.524   1.681  15.702 -1.6971  0.1223  0.1432
  564TMC3    H1 8371   3.812   1.935  15.880 -1.0812  1.7362  2.2077
  564TMC3    H2 8372   3.535   1.731  16.122  0.6942  2.4828  0.7076
  564TMC3    C7 8373   3.789   1.794  16.082  0.0069 -0.0466 -0.3427
  564TMC3    C8 8374   3.495   1.554  15.947 -0.1140  0.2133 -0.1890
  564TMC3    O1 8375   3.892   1.862  16.097 -0.0597 -0.3555  0.0902
  564TMC3    O2 8376   3.453   1.528  16.062 -0.3296 -0.5448 -0.5960
  565TMC3    C1 8377   0.042   2.611  10.050  0.0258 -0.8388  0.1448
  565TMC3    C2 8378   0.009   2.518  10.140  0.3169  0.2319  0.1593
  565TMC3    C3 8379   4.625   2.449  10.107 -0.7312 -0.6029  0.2556
  565TMC3    C4 8380   4.713   2.623   9.928 -0.4751  0.0252 -0.2887
  565TMC3    C5 8381   4.598   2.551   9.902 -0.6196 -0.3591  0.2551
  565TMC3    C6 8382   4.548   2.470   9.993 -0.4231  0.3502  0.4526
  565TMC3     C 8383   0.141   2.705  10.083  0.1188 -0.2069  0.3662
  565TMC3     O 8384   0.140   2.809  10.014 -0.7123 -0.1816 -0.1365
  565TMC3     H 8385   0.045   2.519  10.242  0.3889  2.5877  0.1287
  565TMC3    H1 8386   0.024   2.695   9.857 -0.7210 -0.0152 -0.4641
  565TMC3    H2 8387   4.474   2.396   9.964  1.3254 -1.6782  1.2114
  565TMC3    C7 8388   4.531   2.555   9.771  0.1020 -0.2738 -0.3316
  565TMC3    C8 8389   4.559   2.380  10.222  0.4941 -0.6748  1.6291
  565TMC3    O1 8390   4.470   2.457   9.736  0.1144 -0.1264 -0.1235
  565TMC3    O2 8391   4.628   2.322  10.304 -0.1442  0.6458 -0.3779
  566MPD2     C 8392   1.364   0.687  14.199  0.4076 -0.3293  0.3314
  566MPD2    C1 8393   1.460   0.589  14.219 -0.3530  0.6773 -0.1941
  566MPD2    C2 8394   1.416   0.464  14.260  0.5502  0.2072 -0.0952
  566MPD2    C3 8395   1.284   0.434  14.256  0.2650  0.0623  0.0272
  566MPD2    C4 8396   1.190   0.537  14.246  0.2471  0.2070 -0.1229
  566MPD2    C5 8397   1.233   0.658  14.220  0.6499 -0.1914 -0.2434
  566MPD2     H 8398   1.496   0.392  14.269  1.8541  1.5772 -0.7292
  566MPD2    H1 8399   1.085   0.510  14.246  1.0237 -2.9009  2.3398
  566MPD2    H2 8400   1.387   0.793  14.199  1.3868 -0.5337  0.3771
  566MPD2    H3 8401   1.166   0.742  14.209  1.0155  0.2533  0.8581
  566MPD2     N 8402   1.232   0.307  14.244  0.0879 -0.4045 -0.1003
  566MPD2    H5 8403   1.131   0.299  14.242  0.0472 -0.0365  0.7234
  566MPD2    N1 8404   1.601   0.619  14.197 -0.2275 -0.1559 -0.1366
  566MPD2    H7 8405   1.625   0.697  14.137  2.1222 -2.2315 -1.8870
  567TMC3    C1 8406   1.823   0.538  14.147 -0.2228 -0.0860 -0.1890
  567TMC3    C2 8407   1.803   0.540  14.008 -0.9867 -0.3434 -0.1550
  567TMC3    C3 8408   1.885   0.463  13.928 -0.0590  0.5369 -0.1849
  567TMC3    C4 8409   1.921   0.457  14.203 -0.2754 -0.2866  0.4877
  567TMC3    C5 8410   1.985   0.372  14.124  0.0424 -0.1918 -1.0065
  567TMC3    C6 8411   1.978   0.381  13.991 -0.2185 -0.3565 -1.4782
  567TMC3     C 8412   1.698   0.524  14.218 -0.2026  0.3263  0.1406
  567TMC3     O 8413   1.703   0.438  14.307 -0.7272 -0.5401  0.4519
  567TMC3     H 8414   1.713   0.591  13.976 -0.4571  0.1314 -0.8791
  567TMC3    H1 8415   1.934   0.453  14.310  1.0623  2.3372  0.4195
  567TMC3    H2 8416   2.028   0.314  13.922  1.3457 -0.9490  0.2455
  567TMC3    C7 8417   2.013   0.233  14.173 -0.1453  0.2486 -0.3926
  567TMC3    C8 8418   1.845   0.444  13.793  0.0749  0.2136 -0.1531
  567TMC3    O1 8419   2.052   0.148  14.092 -0.4042  0.2390 -0.5067
  567TMC3    O2 8420   1.744   0.502  13.759 -0.3990 -0.3586  0.4033
  568MPD2     C 8421   3.570   0.204  16.571  0.4454  0.1060  0.1628
  568MPD2    C1 8422   3.592   0.322  16.638 -0.8417  0.8302  0.0520
  568MPD2    C2 8423   3.520   0.435  16.599  0.3967 -0.8055 -0.4148
  568MPD2    C3 8424   3.435   0.429  16.486  0.1603  0.3467  0.5866
  568MPD2    C4 8425   3.406   0.306  16.430  0.7044  0.1502 -0.3475
  568MPD2    C5 8426   3.470   0.196  16.479  0.0273  0.0230  1.1038
  568MPD2     H 8427   3.534   0.529  16.652 -0.6670 -1.1975  0.5505
  568MPD2    H1 8428   3.339   0.294  16.346  0.0394 -2.3099  0.5502
  568MPD2    H2 8429   3.630   0.117  16.596 -0.6235 -0.6631  0.0342
  568MPD2    H3 8430   3.460   0.107  16.418  1.2112  1.3437 -1.0671
  568MPD2     N 8431   3.373   0.546  16.438  0.6134  0.2445  0.0249
  568MPD2    H5 8432   3.393   0.633  16.485 -1.3144 -0.0446  1.4147
  568MPD2    N1 8433   3.694   0.325  16.745 -0.2230  0.5303  0.4378
  568MPD2    H7 8434   3.761   0.250  16.734 -1.4435 -0.2511 -1.6631
  569TMC3    C1 8435   3.263   0.700  16.312 -0.1371 -0.7955 -1.3551
  569TMC3    C2 8436   3.243   0.773  16.418 -0.3924 -0.2059 -0.1360
  569TMC3    C3 8437   3.287   0.902  16.413  0.1337  1.2334 -0.2068
  569TMC3    C4 8438   3.312   0.746  16.194 -0.7233  0.1517 -0.3321
  569TMC3    C5 8439   3.347   0.884  16.188 -0.4214 -0.2633  0.5637
  569TMC3    C6 8440   3.341   0.964  16.298  0.5554  0.3787 -0.3063
  569TMC3     C 8441   3.292   0.563  16.325 -0.0456  0.0433 -0.3912
  569TMC3     O 8442   3.270   0.486  16.231 -0.2502 -0.6520 -0.3823
  569TMC3     H 8443   3.207   0.733  16.511  0.3765  0.0894  0.2852
  569TMC3    H1 8444   3.322   0.681  16.108  0.5279  0.5045 -0.4679
  569TMC3    H2 8445   3.384   1.064  16.293  1.7006 -0.0749  0.5565
  569TMC3    C7 8446   3.425   0.920  16.072  0.0071  0.1280  0.0060
  569TMC3    C8 8447   3.309   0.967  16.542  0.2840  0.3774 -0.5283
  569TMC3    O1 8448   3.465   0.821  16.010  0.1818  0.3635  0.2092
  569TMC3    O2 8449   3.285   0.901  16.641  0.5326 -0.1150 -0.0584
  570TMC3    C1 8450   3.298   4.302  16.368 -0.0668  0.2269  0.0016
  570TMC3    C2 8451   3.395   4.319  16.279 -0.5990 -0.1266 -0.0648
  570TMC3    C3 8452   3.424   4.449  16.245 -0.7323 -0.1038  0.7148
  570TMC3    C4 8453   3.232   4.410  16.424  0.2712 -0.0984  0.0792
  570TMC3    C5 8454   3.254   4.538  16.385 -0.1723 -0.5317 -0.4269
  570TMC3    C6 8455   3.357   4.557  16.296 -0.0267  0.5079  0.3660
  570TMC3     C 8456   3.256   4.167  16.410  0.6347  0.2998 -0.3696
  570TMC3     O 8457   3.250   4.079  16.328  0.0860 -0.0359  0.2707
  570TMC3     H 8458   3.460   4.235  16.260  1.4685  1.3755  0.3534
  570TMC3    H1 8459   3.152   4.399  16.497 -0.1596 -0.7495 -0.4958
  570TMC3    H2 8460   3.371   4.655  16.252 -0.7781  1.2662  1.8187
  570TMC3    C7 8461   3.207   4.645  16.469  0.2598 -0.4665 -0.3446
  570TMC3    C8 8462   3.531   4.471  16.144 -0.9500  0.8814 -0.4412
  570TMC3    O1 8463   3.176   4.617  16.587 -0.0202 -0.1219  0.3887
  570TMC3    O2 8464   3.584   4.582  16.147  0.0786 -0.2357  0.6503
  571MPD2     C 8465   0.520   0.862   0.098 -0.0773  0.3907 -0.4363
  571MPD2    C1 8466   0.435   0.951   0.039  0.1103  0.2981 -0.2238
  571MPD2    C2 8467   0.333   1.014   0.107  0.7545  1.0690  0.2399
  571MPD2    C3 8468   0.326   0.995   0.246 -0.5826 -0.8773  0.1848
  571MPD2    C4 8469   0.410   0.903   0.306  0.2720 -0.1057 -0.1881
  571MPD2    C5 8470   0.504   0.834   0.231 -0.0768 -0.5909 -0.9295
  571MPD2     H 8471   0.261   1.077   0.057  1.2780  0.6063 -1.0713
  571MPD2    H1 8472   0.413   0.895   0.415  1.5308 -2.4899 -0.3973
  571MPD2    H2 8473   0.592   0.811   0.035  1.8721  1.0278  1.2633
  571MPD2    H3 8474   0.577   0.771   0.282  0.5250  1.1402  0.3564
  571MPD2     N 8475   0.234   1.069   0.331 -0.0686  0.2358  1.1180
  571MPD2    H5 8476   0.239   1.055   0.432 -0.1442 -0.7869  0.9732
  571MPD2    N1 8477   0.467   0.980  17.619  0.1123  0.4041 -0.7155
  571MPD2    H7 8478   0.557   0.944  17.587  0.9461  1.8236  0.0468
  572TMC3    C1 8479   0.092   1.246   0.382 -0.3290 -0.2001  0.6950
  572TMC3    C2 8480   0.064   1.184   0.495 -0.9989  0.1676 -0.3300
  572TMC3    C3 8481   4.724   1.263   0.590  0.3070  0.1429 -0.1301
  572TMC3    C4 8482   0.067   1.381   0.362  0.4164  0.2723 -0.3394
  572TMC3    C5 8483   0.021   1.450   0.471 -0.2688  0.0300  0.4577
  572TMC3    C6 8484   4.709   1.400   0.587  0.2712 -0.4413  0.2001
  572TMC3     C 8485   0.155   1.168   0.279 -0.5323  0.8850 -0.1376
  572TMC3     O 8486   0.166   1.225   0.171 -0.2251 -0.4750  0.4574
  572TMC3     H 8487   0.049   1.077   0.509 -0.3586  0.4182  2.1729
  572TMC3    H1 8488   0.095   1.433   0.271  1.9005  1.0699  0.5800
  572TMC3    H2 8489   4.677   1.464   0.669  0.5095 -1.7009  1.2849
  572TMC3    C7 8490   4.724   1.596   0.442  0.6752 -0.6982 -0.1345
  572TMC3    C8 8491   4.702   1.207   0.723 -0.3057  0.1449 -0.5726
  572TMC3    O1 8492   0.045   1.644   0.341 -0.2627 -0.3650  0.0179
  572TMC3    O2 8493   4.618   1.261   0.793  1.2447  0.3732  0.7807
  573MPD2     C 8494   2.756   1.553   0.437  0.0988 -0.3144 -0.0114
  573MPD2    C1 8495   2.618   1.544   0.433 -0.7167 -0.7085 -0.5501
  573MPD2    C2 8496   2.553   1.632   0.353  1.0546  0.4781  0.1088
  573MPD2    C3 8497   2.620   1.738   0.289  0.0611 -0.3956  0.2174
  573MPD2    C4 8498   2.756   1.744   0.297  0.4930  0.2220  0.0871
  573MPD2    C5 8499   2.820   1.655   0.375  0.1185  0.3872  0.1263
  573MPD2     H 8500   2.445   1.637   0.352  1.0793  0.6127 -1.1007
  573MPD2    H1 8501   2.816   1.818   0.246  0.9446  1.3174  2.2254
  573MPD2    H2 8502   2.815   1.484   0.495  3.2147 -1.2100 -4.2345
  573MPD2    H3 8503   2.928   1.667   0.384  0.0569  1.7925 -0.9863
  573MPD2     N 8504   2.557   1.836   0.212 -0.3895  0.3611  0.7520
  573MPD2    H5 8505   2.613   1.911   0.173 -0.9868  1.1169  1.3663
  573MPD2    N1 8506   2.552   1.453   0.510  0.0237 -0.6442 -0.5259
  573MPD2    H7 8507   2.609   1.403   0.578  2.4165 -0.6835 -2.5726
  574TMC3    C1 8508   2.371   1.972   0.120  0.3296 -0.0134 -0.8622
  574TMC3    C2 8509   2.240   1.976   0.081 -0.0799 -0.7847  0.2033
  574TMC3    C3 8510   2.188   2.091   0.021 -0.3444  0.1337  0.0003
  574TMC3    C4 8511   2.453   2.072   0.091 -0.7913  0.4008 -0.5502
  574TMC3    C5 8512   2.403   2.191   0.038  0.2659  0.2227  0.4068
  574TMC3    C6 8513   2.271   2.199  17.699 -0.0559  0.7218 -0.2742
  574TMC3     C 8514   2.421   1.846   0.185  0.1484  0.2698 -0.3224
  574TMC3     O 8515   2.331   1.772   0.216  0.7449  1.0999 -0.2875
  574TMC3     H 8516   2.172   1.894   0.100  0.2021 -1.4377 -1.6373
  574TMC3    H1 8517   2.556   2.067   0.123 -1.1328  1.4780  0.7097
  574TMC3    H2 8518   2.230   2.280  17.640  0.4213  1.1391 -0.0395
  574TMC3    C7 8519   2.497   2.298   0.020 -0.1815  0.7173  0.4077
  574TMC3    C8 8520   2.047   2.088  17.694  0.4123  0.1188  0.1300
  574TMC3    O1 8521   2.615   2.270   0.044 -0.0832 -0.4222  0.2354
  574TMC3    O2 8522   1.987   1.980  17.691  0.5726 -0.3238 -0.7121
  575TMC3    C1 8523   4.570   2.334  11.081  0.6940  0.6935 -0.4043
  575TMC3    C2 8524   4.462   2.306  11.160 -0.2362  1.1187 -0.4350
  575TMC3    C3 8525   4.343   2.258  11.099 -0.9512  0.1531 -0.4022
  575TMC3    C4 8526   4.563   2.326  10.945  0.2269 -0.0717  0.2389
  575TMC3    C5 8527   4.448   2.282  10.884  0.9268  0.9618 -0.2414
  575TMC3    C6 8528   4.339   2.240  10.960 -1.0219 -0.2642 -0.2332
  575TMC3     C 8529   4.680   2.400  11.150  0.2800 -0.1081 -0.0941
  575TMC3     O 8530   4.655   2.456  11.256  0.0016  0.3719 -0.0264
  575TMC3     H 8531   4.472   2.312  11.268  1.6973  1.3863 -0.6284
  575TMC3    H1 8532   4.641   2.366  10.882  0.3781  0.0158  0.4804
  575TMC3    H2 8533   4.253   2.200  10.908 -2.0280  0.5333  0.8063
  575TMC3    C7 8534   4.440   2.288  10.741  0.7458 -0.2939 -0.1047
  575TMC3    C8 8535   4.226   2.253  11.183 -0.5766 -0.3073 -0.4210
  575TMC3    O1 8536   4.554   2.293  10.693 -0.0723  0.5076 -0.2140
  575TMC3    O2 8537   4.248   2.291  11.300  0.4189 -0.2285  0.0441
  576MPD2     C 8538   4.289   4.609  12.342  0.1380  0.0275  0.7152
  576MPD2    C1 8539   4.383   4.545  12.414 -0.2110  0.0603 -0.5716
  576MPD2    C2 8540   4.355   4.505  12.545 -0.3202 -0.0427  0.0513
  576MPD2    C3 8541   4.234   4.522  12.594 -0.6992  0.6466  0.3072
  576MPD2    C4 8542   4.133   4.587  12.520 -0.1266  0.3976 -0.0535
  576MPD2    C5 8543   4.164   4.638  12.394  0.2924  0.5098 -0.3564
  576MPD2     H 8544   4.428   4.457  12.609  0.6070  1.4283  0.1064
  576MPD2    H1 8545   4.028   4.600  12.548  0.1999  0.9522  0.9215
  576MPD2    H2 8546   4.314   4.660  12.249 -0.3451 -0.7066  0.1749
  576MPD2    H3 8547   4.088   4.689  12.337  0.0136  1.4119  0.8348
  576MPD2     N 8548   4.215   4.470  12.722 -0.7214  0.2568 -0.0784
  576MPD2    H5 8549   4.300   4.442  12.768  0.4227  0.1341 -2.2309
  576MPD2    N1 8550   4.514   4.530  12.362 -0.1700  0.2967 -0.4273
  576MPD2    H7 8551   4.581   4.490  12.427 -1.9830 -0.7419  0.7937
  577TMC3    C1 8552   4.683   4.506  12.206 -0.1892  0.0061  0.2807
  577TMC3    C2 8553   4.712   4.379  12.239  0.1243 -0.4068  0.0208
  577TMC3    C3 8554   0.108   4.330  12.198 -0.4790  0.0745 -0.9328
  577TMC3    C4 8555   0.029   4.587  12.126  0.5712  0.7165 -0.2398
  577TMC3    C5 8556   0.137   4.531  12.077  0.6905  1.1085 -0.3988
  577TMC3    C6 8557   0.184   4.407  12.112 -0.0204 -0.9205  0.1948
  577TMC3     C 8558   4.564   4.575  12.245  0.0173 -0.0682  0.1630
  577TMC3     O 8559   4.513   4.639  12.157 -0.4702  0.1792  0.0137
  577TMC3     H 8560   4.634   4.312  12.274  0.5900 -0.9855 -0.0555
  577TMC3    H1 8561   0.015   4.694  12.116  0.4745  0.5156 -2.2883
  577TMC3    H2 8562   0.285   4.380  12.084 -0.7418 -2.8870 -0.4614
  577TMC3    C7 8563   0.192   4.594  11.959  0.1016 -0.5802 -0.2934
  577TMC3    C8 8564   0.127   4.187  12.210 -0.1931 -0.6607 -0.1059
  577TMC3    O1 8565   0.314   4.587  11.935 -0.0310 -0.6766  0.5100
  577TMC3    O2 8566   0.094   4.131  12.316  0.1468  0.1021  0.1744
  578MPD2     C 8567   2.630   0.318   1.148 -0.5471  0.2467 -0.1452
  578MPD2    C1 8568   2.663   0.229   1.055 -0.0285  0.3088  0.6505
  578MPD2    C2 8569   2.737   0.112   1.093  0.0240 -0.3307  0.6938
  578MPD2    C3 8570   2.753   0.095   1.229 -0.2533  0.2706 -0.1895
  578MPD2    C4 8571   2.698   0.184   1.324  0.3162  0.3150 -0.2295
  578MPD2    C5 8572   2.653   0.302   1.282  0.1161 -0.6719  0.0733
  578MPD2     H 8573   2.762   0.035   1.021 -2.7225  0.0222 -0.6454
  578MPD2    H1 8574   2.693   0.163   1.431 -0.2622 -0.0598 -0.3376
  578MPD2    H2 8575   2.575   0.409   1.126  1.5358  1.4224 -0.4577
  578MPD2    H3 8576   2.614   0.378   1.349 -0.2016 -0.8203  0.0586
  578MPD2     N 8577   2.809   4.698   1.262 -0.3655 -0.3687  0.5397
  578MPD2    H5 8578   2.854   4.644   1.189 -1.0165 -2.1707  1.4648
  578MPD2    N1 8579   2.634   0.262   0.914  0.2613  0.0278  0.4448
  578MPD2    H7 8580   2.583   0.349   0.899  1.1734  0.9541  2.6896
  579TMC3    C1 8581   2.887   4.514   1.378 -0.0296  0.1136  0.1329
  579TMC3    C2 8582   2.963   4.486   1.488 -1.5357 -0.0653 -0.0428
  579TMC3    C3 8583   3.044   4.375   1.485 -0.0330 -1.1261  0.7670
  579TMC3    C4 8584   2.891   4.437   1.269 -0.2742  0.6114 -0.0585
  579TMC3    C5 8585   2.994   4.348   1.253  0.1180 -0.6647  0.3772
  579TMC3    C6 8586   3.071   4.309   1.367 -0.4250  0.1587  1.1548
  579TMC3     C 8587   2.813   4.640   1.386 -0.2435  0.4516 -0.4511
  579TMC3     O 8588   2.782   4.681   1.498  0.2612  0.2467 -1.0246
  579TMC3     H 8589   2.966   4.547   1.578  2.6482  1.5194 -1.2582
  579TMC3    H1 8590   2.821   4.455   1.187  0.5462  1.5365 -0.5613
  579TMC3    H2 8591   3.141   4.227   1.356  0.0673  0.5602  1.3066
  579TMC3    C7 8592   3.006   4.261   1.135 -0.1019 -0.3782  0.0461
  579TMC3    C8 8593   3.111   4.340   1.604  0.1360  0.9073  0.0049
  579TMC3    O1 8594   3.113   4.209   1.119  0.5245  0.8227  0.1458
  579TMC3    O2 8595   3.051   4.364   1.708 -0.0929  0.3519 -0.3883
  580TMC3    C1 8596   2.166   3.647  12.225  0.7418 -0.6988  0.8943
  580TMC3    C2 8597   2.275   3.683  12.292 -0.2927 -0.0715  1.3150
  580TMC3    C3 8598   2.357   3.587  12.345 -0.2124  0.6094 -0.1629
  580TMC3    C4 8599   2.139   3.519  12.199 -0.0672  0.5020 -0.6962
  580TMC3    C5 8600   2.218   3.427  12.252 -0.5274  0.2786 -0.6614
  580TMC3    C6 8601   2.336   3.459  12.313 -0.0631  0.0295  0.3123
  580TMC3     C 8602   2.126   3.744  12.124  0.0448  0.5445  0.2983
  580TMC3     O 8603   2.008   3.757  12.100  0.1279  0.2103 -0.0812
  580TMC3     H 8604   2.306   3.786  12.305 -0.6565  0.0603  1.1466
  580TMC3    H1 8605   2.052   3.497  12.138 -1.7412  1.7938  1.1996
  580TMC3    H2 8606   2.404   3.381  12.346 -1.4423 -0.4722  1.9588
  580TMC3    C7 8607   2.212   3.294  12.194 -0.3680  0.0985  0.4082
  580TMC3    C8 8608   2.494   3.629  12.389 -0.4314 -0.2003  0.3887
  580TMC3    O1 8609   2.248   3.199  12.268  0.4323  0.2004 -0.1002
  580TMC3    O2 8610   2.505   3.736  12.451  0.2074 -0.4350  0.6203
  581MPD2     C 8611   0.396   3.429  14.843  0.4820  0.3494 -0.0514
  581MPD2    C1 8612   0.378   3.495  14.959 -0.2800  0.1311  0.4540
  581MPD2    C2 8613   0.254   3.556  14.985  0.2892 -0.0937  0.6660
  581MPD2    C3 8614   0.152   3.531  14.899  0.0401 -0.3882 -0.0487
  581MPD2    C4 8615   0.168   3.455  14.788  0.5236 -0.1657 -0.1541
  581MPD2    C5 8616   0.290   3.411  14.755  0.1659 -1.0992 -0.7209
  581MPD2     H 8617   0.235   3.604  15.081  3.6692  1.6893  0.4356
  581MPD2    H1 8618   0.091   3.436  14.715  0.3120 -2.6170  0.7142
  581MPD2    H2 8619   0.487   3.375  14.820  0.3908 -0.4082  1.3673
  581MPD2    H3 8620   0.313   3.357  14.663 -1.5510 -0.0729 -1.7519
  581MPD2     N 8621   0.039   3.596  14.938  0.1430  0.0940  0.3830
  581MPD2    H5 8622   0.048   3.658  15.017  1.8316 -0.8706  0.9461
  581MPD2    N1 8623   0.482   3.485  15.054 -0.2284 -0.2134  0.2074
  581MPD2    H7 8624   0.547   3.411  15.030 -2.5835 -1.6118 -1.9607
  582TMC3    C1 8625   0.553   3.449  15.273  0.2456 -0.2545 -0.4349
  582TMC3    C2 8626   0.547   3.474  15.408 -0.0152  0.0416 -0.1929
  582TMC3    C3 8627   0.578   3.363  15.489 -0.6510 -0.0159 -0.7538
  582TMC3    C4 8628   0.589   3.328  15.228  0.4029  0.5392 -0.4915
  582TMC3    C5 8629   0.602   3.222  15.317  0.4215 -0.3450  0.0599
  582TMC3    C6 8630   0.611   3.241  15.447 -1.0407 -0.0161  0.6937
  582TMC3     C 8631   0.486   3.541  15.182 -0.3429 -0.1198 -0.7015
  582TMC3     O 8632   0.415   3.629  15.232  0.0711 -0.8325  0.0533
  582TMC3     H 8633   0.519   3.572  15.443 -0.1227 -0.1352  0.2092
  582TMC3    H1 8634   0.606   3.303  15.124  4.3684  0.1499  0.2302
  582TMC3    H2 8635   0.615   3.153  15.511  0.7460  0.6268  1.4794
  582TMC3    C7 8636   0.594   3.084  15.276  0.2333 -0.6119  0.3952
  582TMC3    C8 8637   0.607   3.393  15.632  0.4107  0.0613  0.2591
  582TMC3    O1 8638   0.671   3.004  15.326  0.7013  0.4993  0.4371
  582TMC3    O2 8639   0.553   3.490  15.682 -0.2843 -0.0416 -0.4114
  583MPD2     C 8640   0.616   0.123  16.544  0.3348  0.2239  0.1683
  583MPD2    C1 8641   0.534   0.229  16.509 -0.0621  0.1647 -0.2273
  583MPD2    C2 8642   0.417   0.256  16.579  0.0332 -0.4098  0.2719
  583MPD2    C3 8643   0.389   0.201  16.706 -0.3625 -0.4739  0.3713
  583MPD2    C4 8644   0.471   0.091  16.732  0.1109 -0.5230  0.2159
  583MPD2    C5 8645   0.586   0.059  16.657  0.6722  0.4539  1.0595
  583MPD2     H 8646   0.357   0.341  16.549 -0.6558 -0.2731  2.0092
  583MPD2    H1 8647   0.461   0.030  16.821  2.2830 -1.4565 -0.1917
  583MPD2    H2 8648   0.702   0.091  16.487 -0.1985  2.2025 -1.7574
  583MPD2    H3 8649   0.646   4.700  16.678  1.5782  0.0145 -3.3406
  583MPD2     N 8650   0.297   0.264  16.793 -0.6384  0.0815  0.5320
  583MPD2    H5 8651   0.258   0.356  16.775 -0.0426  0.0906 -0.7418
  583MPD2    N1 8652   0.562   0.306  16.399 -0.2070 -0.1433  0.2002
  583MPD2    H7 8653   0.524   0.399  16.391 -0.4349 -0.2266  0.3332
  584TMC3    C1 8654   0.213   0.323  17.004 -0.1649  0.2205  0.4892
  584TMC3    C2 8655   0.161   0.436  16.948  0.4848 -0.4123  0.4320
  584TMC3    C3 8656   0.119   0.535  17.034 -1.2863  0.1682  0.5339
  584TMC3    C4 8657   0.207   0.304  17.139  0.7289  0.2817  0.6104
  584TMC3    C5 8658   0.195   0.416  17.212  0.3573  0.1923 -0.4182
  584TMC3    C6 8659   0.154   0.532  17.168  0.5685 -0.1031 -0.2035
  584TMC3     C 8660   0.285   0.228  16.926  0.0578  0.5069 -0.1700
  584TMC3     O 8661   0.305   0.121  16.978 -0.4496  0.0089  0.4782
  584TMC3     H 8662   0.161   0.464  16.843  0.9881  1.2890  0.8935
  584TMC3    H1 8663   0.237   0.219  17.199 -1.9384 -0.6231  0.6780
  584TMC3    H2 8664   0.161   0.618  17.233  0.5642 -0.1405 -0.1535
  584TMC3    C7 8665   0.173   0.386  17.354 -0.3283 -0.2635 -0.3040
  584TMC3    C8 8666   0.131   0.661  16.971  0.5183 -0.0700  0.0399
  584TMC3    O1 8667   0.246   0.306  17.408 -0.5073 -1.2229 -0.3701
  584TMC3    O2 8668   0.220   0.674  16.889  0.0661  0.0414 -0.5174
  585MPD2     C 8669   4.340   4.153   1.034  0.2142  0.2142 -0.5772
  585MPD2    C1 8670   4.394   4.167   0.906 -0.8075  0.2943 -0.0237
  585MPD2    C2 8671   4.373   4.072   0.812 -0.3081  0.8166  0.0488
  585MPD2    C3 8672   4.284   3.963   0.838  0.2521  0.1261  0.6435
  585MPD2    C4 8673   4.235   3.951   0.966  0.7782 -0.1018  0.0300
  585MPD2    C5 8674   4.265   4.044   1.062 -0.5172  0.1622 -0.1787
  585MPD2     H 8675   4.416   4.075   0.712 -1.2924  3.5376 -0.2935
  585MPD2    H1 8676   4.170   3.870   0.997  0.0354 -0.4591 -2.5549
  585MPD2    H2 8677   4.355   4.225   1.114 -0.7055 -0.0457 -0.1750
  585MPD2    H3 8678   4.218   4.029   1.159  1.0472 -2.3430  0.1851
  585MPD2     N 8679   4.246   3.875   0.741 -0.2734 -0.7035 -0.2713
  585MPD2    H5 8680   4.186   3.800   0.774 -3.4121  3.0214  2.6184
  585MPD2    N1 8681   4.455   4.289   0.882 -0.0903  0.2286 -0.1088
  585MPD2    H7 8682   4.447   4.353   0.960 -0.6694 -2.9074  2.4069
  586TMC3    C1 8683   4.212   3.773   0.534  0.0967  0.3284 -0.1692
  586TMC3    C2 8684   4.270   3.715   0.425  0.3973 -1.1290  0.5529
  586TMC3    C3 8685   4.214   3.597   0.386  0.1956 -0.3667  0.4158
  586TMC3    C4 8686   4.091   3.734   0.590  0.9499  0.0451  0.4250
  586TMC3    C5 8687   4.038   3.620   0.542 -0.1169 -0.1934 -0.6279
  586TMC3    C6 8688   4.098   3.548   0.442  0.1241 -0.5118  0.8467
  586TMC3     C 8689   4.284   3.878   0.604  1.0860 -0.0156 -0.9142
  586TMC3     O 8690   4.372   3.937   0.539 -0.1179  0.2040  0.3062
  586TMC3     H 8691   4.364   3.739   0.377  1.0653  1.2526  3.0814
  586TMC3    H1 8692   4.031   3.792   0.659 -0.4636 -1.9742  0.8641
  586TMC3    H2 8693   4.050   3.464   0.393  1.9796 -1.1240  0.0709
  586TMC3    C7 8694   3.894   3.625   0.520 -0.0872  0.0419 -0.0228
  586TMC3    C8 8695   4.240   3.559   0.247  0.5421 -0.6132 -0.5432
  586TMC3    O1 8696   3.834   3.520   0.536  0.1220 -0.7023 -0.0224
  586TMC3    O2 8697   4.197   3.449   0.222 -0.5821  0.3641 -0.1808
  587TMC3    C1 8698   2.245   2.540  16.959 -0.3954  0.2632 -0.3687
  587TMC3    C2 8699   2.194   2.611  16.853 -0.0773  0.3353 -0.2720
  587TMC3    C3 8700   2.270   2.621  16.741  0.1551  0.1086 -0.3193
  587TMC3    C4 8701   2.358   2.471  16.936  0.4636 -0.2145  0.1152
  587TMC3    C5 8702   2.428   2.488  16.820 -0.2306 -0.2398  0.5348
  587TMC3    C6 8703   2.391   2.571  16.722 -0.5248 -1.3217 -0.0376
  587TMC3     C 8704   2.170   2.505  17.085 -0.3178  0.0839 -0.0885
  587TMC3     O 8705   2.236   2.463  17.178 -0.1926 -0.0501 -0.0041
  587TMC3     H 8706   2.132   2.698  16.873  0.5903  0.2594  2.1161
  587TMC3    H1 8707   2.394   2.410  17.018  2.0913  1.4103  0.5960
  587TMC3    H2 8708   2.435   2.567  16.623  0.8272 -1.6991  0.5769
  587TMC3    C7 8709   2.550   2.418  16.806  0.1239 -0.4157  0.7058
  587TMC3    C8 8710   2.223   2.709  16.637 -0.1277  0.9425  0.1812
  587TMC3    O1 8711   2.561   2.316  16.875 -0.3067  0.5286 -0.3542
  587TMC3    O2 8712   2.293   2.743  16.543 -0.2091  0.6175 -0.2305
  588TMC3    C1 8713   4.202   0.489   9.826 -0.0622  0.3177 -0.8052
  588TMC3    C2 8714   4.158   0.380   9.890 -0.6065 -0.1628 -0.0492
  588TMC3    C3 8715   4.249   0.300   9.962  0.6663 -0.2463  0.3017
  588TMC3    C4 8716   4.337   0.511   9.816  0.0763  0.6901 -0.3219
  588TMC3    C5 8717   4.428   0.424   9.871  0.4819 -0.2990 -0.4231
  588TMC3    C6 8718   4.389   0.312   9.948 -0.1068  0.2764 -0.4634
  588TMC3     C 8719   4.115   0.609   9.801 -0.0039  0.1062  0.3075
  588TMC3     O 8720   4.006   0.591   9.752 -0.3569 -0.4813 -0.1214
  588TMC3     H 8721   4.052   0.361   9.906 -1.2123  2.5934 -0.8782
  588TMC3    H1 8722   4.375   0.596   9.759 -1.4161  1.3674 -0.3120
  588TMC3    H2 8723   4.456   0.251  10.008  0.0267 -1.7911 -2.7128
  588TMC3    C7 8724   4.560   0.474   9.907 -0.3806 -0.0187 -0.1783
  588TMC3    C8 8725   4.190   0.179  10.025 -0.0923 -0.4970 -0.4190
  588TMC3    O1 8726   4.615   0.405   9.987  0.3357 -0.8477  0.0748
  588TMC3    O2 8727   4.067   0.171  10.015 -0.1608  0.6472 -0.1249
  589TMC3    C1 8728   3.088   3.192   1.461  0.4446 -0.6901  0.3579
  589TMC3    C2 8729   3.184   3.250   1.535  0.1706 -0.3497  0.1944
  589TMC3    C3 8730   3.292   3.179   1.575 -0.5560 -0.0650  0.1615
  589TMC3    C4 8731   3.086   3.063   1.430  0.0345  0.1921  0.5958
  589TMC3    C5 8732   3.192   2.990   1.476  0.3387  0.2412  0.2147
  589TMC3    C6 8733   3.299   3.045   1.544  0.0628  0.3350 -0.3070
  589TMC3     C 8734   2.968   3.276   1.421  0.3275  0.3025  0.8618
  589TMC3     O 8735   2.890   3.227   1.342 -0.1908  0.6862  0.0586
  589TMC3     H 8736   3.184   3.356   1.558  0.7058 -0.1604 -0.7002
  589TMC3    H1 8737   2.997   3.014   1.391  2.5850 -3.7890 -0.1580
  589TMC3    H2 8738   3.388   2.993   1.575 -1.4614 -1.9139  0.2345
  589TMC3    C7 8739   3.168   2.845   1.487  0.2634  0.3431  0.5110
  589TMC3    C8 8740   3.379   3.224   1.674  0.5902 -0.0099  0.4640
  589TMC3    O1 8741   3.074   2.802   1.423 -0.1135  0.1059  0.2060
  589TMC3    O2 8742   3.317   3.296   1.751 -0.1797  0.2796 -0.6144
  590MPD2     C 8743   2.415   1.695  17.257  0.2056 -0.1668  0.0346
  590MPD2    C1 8744   2.381   1.796  17.166 -0.4062  0.6301  0.1146
  590MPD2    C2 8745   2.428   1.786  17.040  0.8544  0.5849 -0.0295
  590MPD2    C3 8746   2.492   1.674  16.994 -0.2426 -0.5224 -0.1724
  590MPD2    C4 8747   2.525   1.574  17.081 -0.1645 -0.3422 -0.2930
  590MPD2    C5 8748   2.487   1.590  17.218  0.2590  0.2621  0.0875
  590MPD2     H 8749   2.412   1.863  16.965  0.7003  0.4443 -0.1394
  590MPD2    H1 8750   2.579   1.485  17.050  0.3846 -0.8040  1.9530
  590MPD2    H2 8751   2.386   1.689  17.361  0.0044  2.3304  0.1223
  590MPD2    H3 8752   2.522   1.522  17.295  1.4671  1.1394  0.3213
  590MPD2     N 8753   2.527   1.658  16.857 -0.5014  0.4799 -0.1035
  590MPD2    H5 8754   2.508   1.732  16.791 -0.0565  0.8002  0.1263
  590MPD2    N1 8755   2.303   1.912  17.203 -0.3631  0.0006  0.1818
  590MPD2    H7 8756   2.276   1.978  17.130 -0.8211  1.5891  1.8057
  591TMC3    C1 8757   2.596   1.586  16.643  0.5585  1.3919  0.6886
  591TMC3    C2 8758   2.683   1.511  16.566 -0.1976  0.0885  0.4343
  591TMC3    C3 8759   2.687   1.536  16.434  0.3403  0.0326  0.0200
  591TMC3    C4 8760   2.511   1.685  16.599  0.3437  0.2029  0.2320
  591TMC3    C5 8761   2.520   1.702  16.467  0.0094  0.0860 -0.4591
  591TMC3    C6 8762   2.605   1.633  16.382  0.5041  0.8764  0.1442
  591TMC3     C 8763   2.582   1.553  16.785  0.4747 -0.3321 -0.1389
  591TMC3     O 8764   2.627   1.446  16.825  0.1258 -0.0033 -0.3181
  591TMC3     H 8765   2.751   1.441  16.613 -0.0250  1.8334  2.7655
  591TMC3    H1 8766   2.454   1.757  16.657  1.6563  0.6648  0.9676
  591TMC3    H2 8767   2.605   1.643  16.274  0.3119 -1.2273 -0.0525
  591TMC3    C7 8768   2.449   1.817  16.417  0.0966 -0.4841  0.1607
  591TMC3    C8 8769   2.807   1.498  16.369 -0.4682 -0.7856  0.2241
  591TMC3    O1 8770   2.363   1.878  16.482  0.0239  0.2162  0.4090
  591TMC3    O2 8771   2.877   1.406  16.406 -0.0017  0.2875 -0.2572
  592MPD2     C 8772   3.664   3.187  11.371  0.1143 -0.0747  0.2345
  592MPD2    C1 8773   3.657   3.180  11.508  0.0943  0.3874  0.0278
  592MPD2    C2 8774   3.553   3.094  11.553 -0.6445 -0.0658  0.0406
  592MPD2    C3 8775   3.468   3.034  11.465  0.4521  0.1844 -0.4682
  592MPD2    C4 8776   3.473   3.049  11.329  0.2547  0.2429 -0.4651
  592MPD2    C5 8777   3.577   3.128  11.281  0.1871 -0.0444 -0.0709
  592MPD2     H 8778   3.535   3.086  11.659 -0.8865  2.3201  0.1823
  592MPD2    H1 8779   3.408   3.004  11.255 -0.2691  0.2565 -0.0127
  592MPD2    H2 8780   3.736   3.256  11.329 -0.4317  0.1779 -0.2799
  592MPD2    H3 8781   3.583   3.163  11.178 -2.1654 -0.1640 -0.2397
  592MPD2     N 8782   3.364   2.957  11.523 -0.3401 -0.1192 -0.5734
  592MPD2    H5 8783   3.366   2.949  11.624 -1.9235  1.4423 -0.4299
  592MPD2    N1 8784   3.754   3.252  11.585  0.3233 -0.0554  0.5726
  592MPD2    H7 8785   3.812   3.324  11.543  0.4233  1.1112  2.7330
  593TMC3    C1 8786   3.828   3.342  11.798 -0.7508  0.5276  0.6625
  593TMC3    C2 8787   3.768   3.394  11.908 -0.0700  0.7530 -0.0020
  593TMC3    C3 8788   3.812   3.510  11.970 -1.1375 -0.0162  0.5654
  593TMC3    C4 8789   3.920   3.416  11.732  0.9394 -0.7499 -0.5377
  593TMC3    C5 8790   3.962   3.534  11.792  0.5139 -0.0768 -0.0754
  593TMC3    C6 8791   3.913   3.582  11.915  0.0220 -0.4777 -0.2900
  593TMC3     C 8792   3.737   3.248  11.723 -0.1394  0.6776  0.0730
  593TMC3     O 8793   3.676   3.168  11.793 -0.4585  0.0267 -0.3960
  593TMC3     H 8794   3.684   3.341  11.952 -0.3775  1.1870 -0.0609
  593TMC3    H1 8795   3.957   3.384  11.635  0.3908  1.4694 -1.4623
  593TMC3    H2 8796   3.941   3.680  11.953  2.2410 -0.6242 -1.5579
  593TMC3    C7 8797   4.054   3.615  11.711 -0.1218  0.1940 -0.2213
  593TMC3    C8 8798   3.732   3.568  12.080 -0.3671  0.2668 -0.1896
  593TMC3    O1 8799   4.047   3.593  11.592 -0.0039  0.0689  0.5398
  593TMC3    O2 8800   3.622   3.522  12.104  0.2102 -0.1698  0.5623
  594MPD2     C 8801   1.730   2.193  14.039  0.3326 -0.0028 -1.2842
  594MPD2    C1 8802   1.753   2.169  14.172  0.3807 -0.0071 -0.1770
  594MPD2    C2 8803   1.858   2.228  14.233 -0.1468 -0.1810 -1.1575
  594MPD2    C3 8804   1.948   2.309  14.162  0.4062 -0.2999  0.3058
  594MPD2    C4 8805   1.929   2.325  14.028 -0.0608  0.1986 -0.1286
  594MPD2    C5 8806   1.816   2.270  13.976 -0.8183 -0.4946 -0.6382
  594MPD2     H 8807   1.865   2.213  14.340 -0.6655 -2.5115 -1.4305
  594MPD2    H1 8808   2.004   2.372  13.966  0.6055  1.5235  1.7160
  594MPD2    H2 8809   1.679   2.122  13.975 -0.6996 -1.9897  1.7290
  594MPD2    H3 8810   1.797   2.285  13.870 -0.5728  1.7559 -0.3683
  594MPD2     N 8811   2.055   2.372  14.231  0.2325 -0.3343 -0.3749
  594MPD2    H5 8812   2.043   2.369  14.332  1.4331  0.2673 -0.2090
  594MPD2    N1 8813   1.670   2.063  14.228  0.0184 -0.4312  0.0188
  594MPD2    H7 8814   1.596   2.025  14.169 -0.6471 -0.9179  1.1712
  595TMC3    C1 8815   2.437   2.611  14.349  0.1024  0.1240 -0.1097
  595TMC3    C2 8816   2.363   2.535  14.254  0.0879 -0.1537  0.1521
  595TMC3    C3 8817   2.226   2.516  14.276  0.1486  0.3343  0.2186
  595TMC3    C4 8818   2.371   2.655  14.458 -0.0514  0.3775  0.8088
  595TMC3    C5 8819   2.241   2.646  14.475 -0.1212 -0.1248 -0.5418
  595TMC3    C6 8820   2.167   2.576  14.384  0.1918 -0.2876  0.4263
  595TMC3     C 8821   2.578   2.587  14.372  0.1160 -0.1166 -0.0327
  595TMC3     O 8822   2.622   2.608  14.489 -0.3515  0.0908  0.2407
  595TMC3     H 8823   2.402   2.485  14.166 -0.7042 -1.1286  0.3472
  595TMC3    H1 8824   2.430   2.712  14.529 -1.5076  1.2132  1.3478
  595TMC3    H2 8825   2.062   2.565  14.406  0.1091 -1.0505 -0.3580
  595TMC3    C7 8826   2.181   2.652  14.602 -0.1770  0.5065 -0.9384
  595TMC3    C8 8827   2.155   2.446  14.179  0.6812  0.0486  0.6396
  595TMC3    O1 8828   2.100   2.743  14.617 -0.2039  0.1966  0.1962
  595TMC3    O2 8829   2.200   2.443  14.070 -0.0169  0.3239  0.0317
  596MPD2     C 8830   1.414   0.195  16.640  0.3957  0.2169 -0.4722
  596MPD2    C1 8831   1.399   0.326  16.602  0.2059  0.5286 -0.5967
  596MPD2    C2 8832   1.428   0.355  16.467  0.5598 -0.0557  0.9127
  596MPD2    C3 8833   1.447   0.251  16.376  0.2364 -0.0079 -0.7224
  596MPD2    C4 8834   1.470   0.120  16.418 -0.0055 -0.1895 -0.2267
  596MPD2    C5 8835   1.460   0.101  16.549  0.0994 -0.1089  0.0847
  596MPD2     H 8836   1.425   0.460  16.439 -1.1816 -0.3577 -0.0171
  596MPD2    H1 8837   1.503   0.047  16.345  1.1814 -1.0502  1.1770
  596MPD2    H2 8838   1.407   0.172  16.746  0.5017  1.3122 -0.2230
  596MPD2    H3 8839   1.478   4.726  16.576  0.1571 -0.4327 -1.1910
  596MPD2     N 8840   1.437   0.267  16.234  0.2558  0.5145  0.4892
  596MPD2    H5 8841   1.430   0.182  16.179 -0.6103  0.8957  0.0279
  596MPD2    N1 8842   1.354   0.438  16.687 -0.2251  0.0203 -0.1544
  596MPD2    H7 8843   1.356   0.530  16.645 -1.0528  0.3859  0.6160
  597TMC3    C1 8844   1.217   0.536  16.850  0.8462  0.0537 -0.5785
  597TMC3    C2 8845   1.267   0.659  16.810  0.0046  0.5965  0.2297
  597TMC3    C3 8846   1.211   0.773  16.858  0.7663  0.1551  0.0342
  597TMC3    C4 8847   1.102   0.525  16.918  0.6483  0.0751 -0.5995
  597TMC3    C5 8848   1.037   0.647  16.947 -0.3883 -0.1770  0.2195
  597TMC3    C6 8849   1.095   0.770  16.930  0.1750  0.3568 -0.7469
  597TMC3     C 8850   1.285   0.415  16.796  0.1082 -0.4219 -0.7151
  597TMC3     O 8851   1.254   0.313  16.856  0.1315 -0.3971  0.0850
  597TMC3     H 8852   1.371   0.670  16.780  0.5889  0.4897  2.2146
  597TMC3    H1 8853   1.061   0.428  16.945 -1.8258  1.3596  0.3214
  597TMC3    H2 8854   1.053   0.858  16.977 -1.5605  0.1193 -1.8531
  597TMC3    C7 8855   0.924   0.639  17.040  1.4354  0.9666 -0.5640
  597TMC3    C8 8856   1.238   0.902  16.803  0.0008 -0.1951  0.0503
  597TMC3    O1 8857   0.904   0.527  17.088 -0.5596 -0.0541  0.0129
  597TMC3    O2 8858   1.214   0.997  16.879 -0.8022  0.2503  0.2672
  598TMC3    C1 8859   4.218   1.849  15.301 -0.1605  0.4570 -0.4353
  598TMC3    C2 8860   4.113   1.759  15.302 -0.5362 -0.1438  1.4304
  598TMC3    C3 8861   4.049   1.731  15.176 -0.7184 -0.1429 -0.8105
  598TMC3    C4 8862   4.256   1.917  15.187 -0.1693 -0.0199  0.4305
  598TMC3    C5 8863   4.195   1.875  15.072  0.6482  0.0255 -0.4543
  598TMC3    C6 8864   4.092   1.790  15.059 -0.8087  0.4756  0.7315
  598TMC3     C 8865   4.242   1.926  15.418 -0.0651 -0.3417 -1.8129
  598TMC3     O 8866   4.143   1.949  15.488 -0.2138  0.5275  0.3085
  598TMC3     H 8867   4.081   1.704  15.389  1.0211  1.6569  3.1352
  598TMC3    H1 8868   4.343   1.981  15.182  0.8859 -1.2742  2.6230
  598TMC3    H2 8869   4.055   1.767  14.960  0.5119  1.0336  0.1089
  598TMC3    C7 8870   4.232   1.939  14.941 -0.2656  0.1034  0.0966
  598TMC3    C8 8871   3.941   1.635  15.174  0.0296 -0.2523  0.0605
  598TMC3    O1 8872   4.217   1.877  14.836  0.3702 -0.1454  0.0089
  598TMC3    O2 8873   3.906   1.594  15.287  0.1448 -0.2930 -0.4969
  599MPD2     C 8874   3.932   4.011  15.925 -0.2230 -0.3357 -0.1082
  599MPD2    C1 8875   4.026   4.073  16.003  0.3674  0.1182  0.3254
  599MPD2    C2 8876   3.995   4.100  16.129  0.3443 -0.1817 -0.0193
  599MPD2    C3 8877   3.861   4.084  16.175 -0.2619  0.1133  0.5683
  599MPD2    C4 8878   3.770   4.020  16.102  0.2738  0.9039 -0.4618
  599MPD2    C5 8879   3.809   3.985  15.975  0.0019  0.6556  0.0269
  599MPD2     H 8880   4.065   4.135  16.203  2.3739 -1.7438 -1.2140
  599MPD2    H1 8881   3.666   4.016  16.132  0.7298  1.0010  1.1383
  599MPD2    H2 8882   3.966   3.970  15.830 -0.6557  0.5494 -0.6460
  599MPD2    H3 8883   3.724   3.948  15.920  0.0151  2.9192 -1.5108
  599MPD2     N 8884   3.817   4.124  16.306 -0.1157  0.0641 -0.2508
  599MPD2    H5 8885   3.730   4.086  16.341  0.3732 -0.4974  0.3451
  599MPD2    N1 8886   4.154   4.072  15.947 -0.5476  0.5521  0.3880
  599MPD2    H7 8887   4.161   4.036  15.853  0.5717 -0.5525  0.8967
  600TMC3    C1 8888   3.825   4.243  16.514  0.3218  0.3401 -0.4918
  600TMC3    C2 8889   3.734   4.152  16.563  0.2704  0.2467  0.2641
  600TMC3    C3 8890   3.659   4.197  16.668  0.2250 -0.6272 -0.4523
  600TMC3    C4 8891   3.851   4.373  16.559  0.0439 -0.6304 -0.1059
  600TMC3    C5 8892   3.767   4.404  16.666  0.1320 -0.2914 -0.0282
  600TMC3    C6 8893   3.665   4.326  16.716 -0.6425  0.0281  0.0792
  600TMC3     C 8894   3.885   4.215  16.380  0.1695 -0.3086  0.9725
  600TMC3     O 8895   3.984   4.281  16.356  0.1918 -0.0233 -0.3377
  600TMC3     H 8896   3.734   4.049  16.531 -0.1553 -0.2493  1.8323
  600TMC3    H1 8897   3.929   4.439  16.525  0.4606 -1.3386 -0.5359
  600TMC3    H2 8898   3.614   4.354  16.808  0.1905  0.2406  0.4799
  600TMC3    C7 8899   3.796   4.532  16.730 -1.2126  0.3151 -0.7450
  600TMC3    C8 8900   3.611   4.106  16.763 -0.3030 -0.1365 -0.1108
  600TMC3    O1 8901   3.910   4.569  16.707  0.3936 -0.0435 -0.5706
  600TMC3    O2 8902   3.642   4.136  16.879 -0.2272  0.0776 -0.1722
  601MPD2     C 8903   4.483   2.035   0.555  0.3560 -0.2837  0.5588
  601MPD2    C1 8904   4.559   2.004   0.445 -0.0211  0.3317 -0.0286
  601MPD2    C2 8905   4.603   1.872   0.436  0.0671 -0.4977 -0.6094
  601MPD2    C3 8906   4.564   1.775   0.529  0.8686  0.1954  0.3707
  601MPD2    C4 8907   4.480   1.805   0.629 -1.1244  0.3434 -0.2574
  601MPD2    C5 8908   4.439   1.937   0.638 -0.2083 -0.1370  0.0504
  601MPD2     H 8909   4.678   1.849   0.361  0.1219  0.6592 -0.9182
  601MPD2    H1 8910   4.447   1.728   0.698  0.9979  0.6072  1.0532
  601MPD2    H2 8911   4.452   2.134   0.586  2.2870  0.3192  0.5122
  601MPD2    H3 8912   4.364   1.957   0.714  0.6737  1.1596  0.5628
  601MPD2     N 8913   4.631   1.645   0.534  0.0645  0.0122 -0.1935
  601MPD2    H5 8914   4.590   1.578   0.598 -0.5474  2.4817  1.9543
  601MPD2    N1 8915   4.593   2.099   0.349 -0.2246 -0.1325  0.2383
  601MPD2    H7 8916   4.661   2.065   0.281  1.3708  1.1616  1.1852
  602TMC3    C1 8917   4.588   2.293   0.226  0.3052 -0.3072  0.4736
  602TMC3    C2 8918   4.580   2.432   0.234  0.3045 -0.3877  0.2184
  602TMC3    C3 8919   4.607   2.500   0.125 -0.0796  0.3573 -0.2943
  602TMC3    C4 8920   4.616   2.224   0.106 -0.3837 -0.5874  0.9892
  602TMC3    C5 8921   4.650   2.302  17.713 -0.2301 -0.0773  0.4845
  602TMC3    C6 8922   4.644   2.442   0.005  0.1953 -0.3314 -0.4009
  602TMC3     C 8923   4.540   2.223   0.345 -0.9620  0.0481 -0.5813
  602TMC3     O 8924   4.455   2.282   0.410 -0.0902  0.3634 -0.1173
  602TMC3     H 8925   4.549   2.480   0.326  2.5283 -1.6790  1.6415
  602TMC3    H1 8926   4.614   2.117   0.090 -1.3530 -0.4368  0.0769
  602TMC3    H2 8927   4.698   2.508  17.652 -0.6427  1.7382  0.9963
  602TMC3    C7 8928   4.695   2.248  17.592 -0.5015 -0.4157 -0.3985
  602TMC3    C8 8929   4.602   2.640   0.126  0.9693 -0.1664 -0.2874
  602TMC3    O1 8930   0.052   2.160  17.588 -0.3982  0.3362 -0.6108
  602TMC3    O2 8931   4.615   2.689   0.237  0.7526  0.4304  0.1893
  603TMC3    C1 8932   4.019   2.576  11.084  0.0975 -0.2825  0.9630
  603TMC3    C2 8933   4.060   2.589  11.218 -0.7461 -0.2057 -0.1266
  603TMC3    C3 8934   4.192   2.601  11.250  0.2674  0.0050  0.1800
  603TMC3    C4 8935   4.113   2.585  10.987 -0.9471 -0.2019  0.6635
  603TMC3    C5 8936   4.240   2.616  11.026 -0.4649 -0.9467  0.6828
  603TMC3    C6 8937   4.288   2.611  11.150  0.0894 -0.1464 -0.5297
  603TMC3     C 8938   3.896   2.533  11.052  0.0081 -0.1249 -0.6134
  603TMC3     O 8939   3.883   2.487  10.938 -0.1137 -0.4035  0.2605
  603TMC3     H 8940   4.002   2.579  11.308 -1.9325 -0.0406 -0.8666
  603TMC3    H1 8941   4.082   2.578  10.883 -2.2113 -0.6971  1.0765
  603TMC3    H2 8942   4.389   2.639  11.179 -0.7879  2.7340 -0.2715
  603TMC3    C7 8943   4.337   2.625  10.920  0.0509  0.0618  0.0449
  603TMC3    C8 8944   4.229   2.600  11.379  0.1198 -0.0575 -0.8915
  603TMC3    O1 8945   4.452   2.591  10.947  0.2136  0.4220  0.1306
  603TMC3    O2 8946   4.158   2.542  11.462 -0.5966  0.0577  0.2585
  604MPD2     C 8947   0.243   1.189  16.386  0.4715 -0.3873 -0.4926
  604MPD2    C1 8948   0.167   1.253  16.294  0.1673 -0.0369  0.5932
  604MPD2    C2 8949   0.201   1.251  16.162  0.1221 -0.3548  0.0093
  604MPD2    C3 8950   0.311   1.181  16.122  0.4843  1.1409  0.1677
  604MPD2    C4 8951   0.377   1.098  16.212  0.2014  0.3578 -0.0565
  604MPD2    C5 8952   0.345   1.111  16.344 -0.0437 -0.7098 -0.3344
  604MPD2     H 8953   0.158   1.315  16.087  0.5466 -2.2758 -1.8903
  604MPD2    H1 8954   0.458   1.037  16.173  1.1342  0.8820  1.0605
  604MPD2    H2 8955   0.227   1.197  16.493  0.6121 -0.1767 -0.4865
  604MPD2    H3 8956   0.390   1.046  16.418 -0.7162  1.0583  1.6383
  604MPD2     N 8957   0.339   1.181  15.982  0.3017  0.0577 -0.3078
  604MPD2    H5 8958   0.272   1.231  15.924 -1.0256 -3.1524 -1.5461
  604MPD2    N1 8959   0.066   1.323  16.345  0.5935  0.2231 -0.2277
  604MPD2    H7 8960   0.057   1.326  16.446 -0.6039 -0.3741 -0.3235
  605TMC3    C1 8961   4.614   1.472  16.343  0.6352  0.5246  0.3463
  605TMC3    C2 8962   4.673   1.569  16.415 -0.8422 -0.4400  0.1538
  605TMC3    C3 8963   4.605   1.685  16.433  1.0897  0.5311 -1.0102
  605TMC3    C4 8964   4.492   1.502  16.290  0.9058 -1.1089 -0.4569
  605TMC3    C5 8965   4.421   1.616  16.312 -0.0277  0.5097 -0.2371
  605TMC3    C6 8966   4.479   1.718  16.387 -0.0192 -0.0527  0.5457
  605TMC3     C 8967   4.696   1.377  16.270  0.1755  0.1474 -0.5054
  605TMC3     O 8968   4.663   1.356  16.151  0.3497 -0.2429 -0.3951
  605TMC3     H 8969   0.051   1.557  16.434 -0.4353 -0.1546 -1.9319
  605TMC3    H1 8970   4.448   1.429  16.223  1.3370 -1.1097 -0.7392
  605TMC3    H2 8971   4.429   1.814  16.397  0.2239  0.0221  1.0712
  605TMC3    C7 8972   4.290   1.630  16.243  0.0274  0.1421  0.2725
  605TMC3    C8 8973   4.664   1.755  16.545 -0.1401 -0.6656 -0.1256
  605TMC3    O1 8974   4.265   1.739  16.194 -0.3103 -0.0645  0.1855
  605TMC3    O2 8975   0.040   1.703  16.577  0.1330  0.2718 -0.1959
  606TMC3    C1 8976   1.800   0.285  16.702  0.8055 -0.3153  1.2076
  606TMC3    C2 8977   1.785   0.308  16.837 -0.3566 -0.2282 -0.1486
  606TMC3    C3 8978   1.755   0.207  16.927 -0.0515  0.4469  0.1915
  606TMC3    C4 8979   1.783   0.157  16.663 -0.6271  0.2849  0.0542
  606TMC3    C5 8980   1.758   0.058  16.751 -0.1921  0.1032  0.2471
  606TMC3    C6 8981   1.747   0.075  16.887  0.1900 -0.2192  0.8905
  606TMC3     C 8982   1.755   0.388  16.605 -0.9301 -0.1622 -0.3004
  606TMC3     O 8983   1.698   0.488  16.653  0.2536 -0.0552  0.2861
  606TMC3     H 8984   1.779   0.410  16.874  2.5315 -0.3340  0.5926
  606TMC3    H1 8985   1.754   0.134  16.561 -0.1283 -2.3191  0.4928
  606TMC3    H2 8986   1.748   4.720  16.956  2.5771 -0.0433  1.0571
  606TMC3    C7 8987   1.738   4.656  16.690 -0.9698  0.3504  0.0528
  606TMC3    C8 8988   1.786   0.246  17.062  0.5320 -0.2103  0.3057
  606TMC3    O1 8989   1.791   4.638  16.582  0.2130  0.1107 -0.2091
  606TMC3    O2 8990   1.856   0.347  17.076  0.3122  0.4868  0.7167
  607MPD2     C 8991   3.635   2.630  11.582  0.3905 -0.7580 -0.3628
  607MPD2    C1 8992   3.679   2.741  11.647 -0.2788  0.2649  0.0913
  607MPD2    C2 8993   3.632   2.760  11.770  0.5289  0.2608 -0.5466
  607MPD2    C3 8994   3.558   2.672  11.846  0.1699 -0.1197  0.4519
  607MPD2    C4 8995   3.513   2.561  11.780 -0.2426  0.3273 -0.0481
  607MPD2    C5 8996   3.542   2.546  11.644  0.3227  0.9812  0.1773
  607MPD2     H 8997   3.668   2.841  11.832 -0.6372  0.0864  0.3592
  607MPD2    H1 8998   3.448   2.488  11.828 -0.1633 -0.2682 -0.8263
  607MPD2    H2 8999   3.684   2.595  11.492 -1.0440  0.7893 -1.7314
  607MPD2    H3 9000   3.504   2.460  11.591  2.2833  0.1108  0.2004
  607MPD2     N 9001   3.544   2.698  11.982  0.0033  0.4720  0.6635
  607MPD2    H5 9002   3.585   2.788  12.004  0.8987  0.1173  0.4499
  607MPD2    N1 9003   3.784   2.831  11.616 -0.0599  0.4582 -0.2310
  607MPD2    H7 9004   3.804   2.895  11.692 -1.2202  2.1545 -1.3501
  608TMC3    C1 9005   3.969   2.929  11.499  0.3899 -0.3270 -0.5979
  608TMC3    C2 9006   3.985   3.006  11.610  0.5880  0.2844  1.0001
  608TMC3    C3 9007   4.108   3.064  11.630  0.5468  0.1771 -0.5182
  608TMC3    C4 9008   4.057   2.924  11.397  0.1537  0.4205 -0.2863
  608TMC3    C5 9009   4.178   2.984  11.422 -0.4498  0.1490  0.4166
  608TMC3    C6 9010   4.203   3.056  11.536  0.1813 -0.1037 -0.8648
  608TMC3     C 9011   3.865   2.821  11.503 -0.1718 -0.0069 -0.4912
  608TMC3     O 9012   3.862   2.738  11.412  0.0931 -0.5400 -0.2244
  608TMC3     H 9013   3.901   3.025  11.675  1.9029 -1.0840  3.1230
  608TMC3    H1 9014   4.043   2.877  11.300 -0.9706 -2.0891  1.1017
  608TMC3    H2 9015   4.283   3.129  11.538  1.1288 -1.2207  1.8313
  608TMC3    C7 9016   4.270   2.995  11.312 -0.0887  0.3331  0.2650
  608TMC3    C8 9017   4.138   3.125  11.756  0.4023  0.6543 -0.3554
  608TMC3    O1 9018   4.249   2.942  11.205 -0.3090 -0.8665 -0.5083
  608TMC3    O2 9019   4.227   3.206  11.758 -0.3777  0.5236  0.2316
  609TMC3    C1 9020   1.934   1.132   9.182  0.0709 -0.0607  0.6443
  609TMC3    C2 9021   1.885   1.107   9.056  0.4528  0.2519  0.0702
  609TMC3    C3 9022   1.962   1.038   8.968 -0.3811 -0.0099 -0.0401
  609TMC3    C4 9023   2.031   1.052   9.228 -1.0826 -0.0102  0.4221
  609TMC3    C5 9024   2.101   0.980   9.138  0.1677 -0.6047  0.3625
  609TMC3    C6 9025   2.072   0.971   9.003 -0.4773 -0.4779  0.5125
  609TMC3     C 9026   1.860   1.191   9.285 -0.1246 -0.1918 -0.1884
  609TMC3     O 9027   1.886   1.173   9.403 -0.1033  0.1893 -0.3267
  609TMC3     H 9028   1.787   1.137   9.021  1.7747  4.8493  0.3682
  609TMC3    H1 9029   2.067   1.066   9.329 -1.5876  1.2027  0.4370
  609TMC3    H2 9030   2.142   0.930   8.931 -0.2329 -1.2201  1.1771
  609TMC3    C7 9031   2.224   0.914   9.190  0.6180  0.6462 -0.4328
  609TMC3    C8 9032   1.905   1.004   8.838 -0.5485  0.4150  0.8935
  609TMC3    O1 9033   2.255   0.941   9.306  0.2994  0.6668  0.1740
  609TMC3    O2 9034   1.815   1.078   8.793 -0.2935  0.5131 -0.0402
  610TMC3    C1 9035   3.965   2.445  12.773 -0.2215  1.0385 -1.0902
  610TMC3    C2 9036   4.036   2.544  12.699 -0.3096  0.5317  0.8241
  610TMC3    C3 9037   4.159   2.504  12.645  0.0503  0.3293 -0.1775
  610TMC3    C4 9038   4.021   2.320  12.789 -0.0461 -0.9546 -0.3021
  610TMC3    C5 9039   4.149   2.301  12.743  0.7449  0.6832 -0.1452
  610TMC3    C6 9040   4.219   2.387  12.664  1.4482  0.6743 -0.4956
  610TMC3     C 9041   3.875   2.493  12.875  0.3895  0.0257  0.1875
  610TMC3     O 9042   3.861   2.419  12.969 -0.4122  0.2918 -0.5740
  610TMC3     H 9043   4.001   2.645  12.685 -1.3229  0.1590  0.6493
  610TMC3    H1 9044   3.969   2.243  12.845  0.4843  0.8558  2.6583
  610TMC3    H2 9045   4.316   2.368  12.619  1.4740  1.9311 -0.9713
  610TMC3    C7 9046   4.202   2.168  12.745  0.1209 -0.5999 -0.9398
  610TMC3    C8 9047   4.238   2.616  12.598  0.6263 -0.1179 -1.0017
  610TMC3    O1 9048   4.325   2.159  12.749 -0.2173 -0.0815  0.2194
  610TMC3    O2 9049   4.352   2.625  12.639 -0.1173  0.4437 -0.0170
  611MPD2     C 9050   3.389   2.988   9.982 -0.2867 -0.4438  0.5070
  611MPD2    C1 9051   3.426   2.882  10.060  0.6130  0.0385 -0.9461
  611MPD2    C2 9052   3.559   2.844  10.059 -0.8210  1.0382  0.1628
  611MPD2    C3 9053   3.646   2.912   9.972 -0.7298  0.2119  0.2413
  611MPD2    C4 9054   3.603   3.012   9.892  0.0016  0.5302  0.1612
  611MPD2    C5 9055   3.475   3.054   9.898 -0.0657  0.3817 -0.0713
  611MPD2     H 9056   3.598   2.764  10.121 -2.2281 -0.8036 -1.3554
  611MPD2    H1 9057   3.672   3.072   9.834  0.3629  0.2016  0.2504
  611MPD2    H2 9058   3.287   3.024   9.980  0.5078  1.7715 -0.6451
  611MPD2    H3 9059   3.444   3.142   9.842  0.4491 -0.2713 -1.3867
  611MPD2     N 9060   3.781   2.888   9.971 -0.4475 -0.2538 -0.0676
  611MPD2    H5 9061   3.840   2.936   9.904 -1.2687  0.3398 -0.3688
  611MPD2    N1 9062   3.332   2.829  10.149 -0.4175  0.0421  0.5775
  611MPD2    H7 9063   3.248   2.883  10.167 -0.1821  0.7111 -0.3280
  612TMC3    C1 9064   4.002   2.823  10.039 -0.4771 -0.3263  0.0793
  612TMC3    C2 9065   4.092   2.803  10.137  0.1211  0.4499 -0.3215
  612TMC3    C3 9066   4.227   2.815  10.113 -0.2458 -0.1604 -0.2397
  612TMC3    C4 9067   4.043   2.867   9.916  0.2847 -0.2156  0.1705
  612TMC3    C5 9068   4.180   2.888   9.898  0.1180 -0.1816  0.3212
  612TMC3    C6 9069   4.274   2.850   9.990  0.1230  0.5284  0.2537
  612TMC3     C 9070   3.855   2.821  10.068  0.2926 -0.2871  0.2939
  612TMC3     O 9071   3.822   2.758  10.169 -0.7807 -0.2409 -0.5681
  612TMC3     H 9072   4.049   2.769  10.231  0.9320 -2.0602 -0.8531
  612TMC3    H1 9073   3.971   2.880   9.837 -0.3563 -0.6691  0.6812
  612TMC3    H2 9074   4.378   2.860   9.961 -0.1604  3.1419  0.0569
  612TMC3    C7 9075   4.223   2.974   9.793 -0.0388 -0.1585 -0.0164
  612TMC3    C8 9076   4.319   2.764  10.207 -0.9196  0.2791  0.3127
  612TMC3    O1 9077   4.140   3.001   9.709  0.0056 -0.1531 -0.3813
  612TMC3    O2 9078   4.421   2.730  10.156  0.4544  0.1804  0.8238
  613MPD2     C 9079   2.599   1.274  16.023 -0.2352  0.3055  0.6462
  613MPD2    C1 9080   2.514   1.178  15.971 -1.2153  0.1407  0.5122
  613MPD2    C2 9081   2.559   1.051  15.951 -0.6760  0.2981 -1.0753
  613MPD2    C3 9082   2.695   1.024  15.959  0.3205  0.3942 -0.1078
  613MPD2    C4 9083   2.782   1.124  15.991  0.4882  0.2230 -0.1122
  613MPD2    C5 9084   2.737   1.251  16.021  0.6895 -0.0804  0.4403
  613MPD2     H 9085   2.486   0.975  15.923  1.5580 -1.9015 -0.9942
  613MPD2    H1 9086   2.886   1.094  15.994  0.1355 -1.1904 -1.7166
  613MPD2    H2 9087   2.564   1.376  16.026  1.9228  1.0815 -0.8864
  613MPD2    H3 9088   2.809   1.330  16.036 -0.0330  1.0152 -1.9403
  613MPD2     N 9089   2.749   0.896  15.916 -0.2307  0.4936  0.0826
  613MPD2    H5 9090   2.849   0.884  15.915 -0.3490 -0.4679  0.2476
  613MPD2    N1 9091   2.388   1.230  15.936 -0.5808  0.1739  0.5916
  613MPD2    H7 9092   2.382   1.331  15.928  2.0037  0.3203  0.4423
  614TMC3    C1 9093   2.250   1.171  15.758  0.6906 -0.1891  0.7298
  614TMC3    C2 9094   2.358   1.165  15.679 -0.6454  0.4102  0.8579
  614TMC3    C3 9095   2.357   1.076  15.574  0.3058  0.3239 -0.1084
  614TMC3    C4 9096   2.149   1.086  15.743  0.1046 -0.3851  0.2501
  614TMC3    C5 9097   2.147   1.001  15.630 -0.1083 -0.0026  0.0467
  614TMC3    C6 9098   2.248   1.001  15.546 -0.0486 -0.7014  0.2595
  614TMC3     C 9099   2.290   1.142  15.899  0.0417 -0.0255 -0.2028
  614TMC3     O 9100   2.250   1.045  15.955 -0.0642  0.4420  0.3626
  614TMC3     H 9101   2.441   1.233  15.699 -2.1511  3.4431 -3.1465
  614TMC3    H1 9102   2.053   1.090  15.793 -0.8816  1.0224 -1.7249
  614TMC3    H2 9103   2.244   0.944  15.454 -0.3329 -0.4728  0.1298
  614TMC3    C7 9104   2.027   0.926  15.593  0.1427 -0.1881 -0.2557
  614TMC3    C8 9105   2.482   1.021  15.521  0.0427 -0.1826  0.0982
  614TMC3    O1 9106   1.922   0.990  15.615  0.7831  0.0698  0.3303
  614TMC3    O2 9107   2.483   0.908  15.476  0.6932  0.6668 -0.1407
  615MPD2     C 9108   1.621   1.649  16.609 -0.1557  0.7980  0.1672
  615MPD2    C1 9109   1.596   1.738  16.502  0.7188  0.1051 -0.5843
  615MPD2    C2 9110   1.603   1.688  16.369  0.4619  0.2918  0.1528
  615MPD2    C3 9111   1.630   1.555  16.344 -0.6477  0.6724 -0.4240
  615MPD2    C4 9112   1.654   1.469  16.448 -0.3702  0.2400  0.3720
  615MPD2    C5 9113   1.659   1.520  16.577  0.6501  1.0873 -0.8574
  615MPD2     H 9114   1.578   1.761  16.293 -0.2410  2.0941  2.1184
  615MPD2    H1 9115   1.699   1.371  16.433 -1.2082 -0.3679  1.7511
  615MPD2    H2 9116   1.648   1.682  16.709  0.4484  0.3081  0.1674
  615MPD2    H3 9117   1.681   1.453  16.659 -0.4207  1.0224 -0.6216
  615MPD2     N 9118   1.663   1.500  16.216 -0.1528  0.1383 -0.2856
  615MPD2    H5 9119   1.681   1.400  16.218  0.0227  0.1757  0.0672
  615MPD2    N1 9120   1.574   1.873  16.523  0.6246 -0.2317  0.4324
  615MPD2    H7 9121   1.581   1.932  16.441  1.1824 -2.4921 -1.1523
  616TMC3    C1 9122   1.514   2.063  16.635 -0.7220  0.2330 -0.1235
  616TMC3    C2 9123   1.601   2.138  16.561  0.5890  0.2258  0.4091
  616TMC3    C3 9124   1.570   2.268  16.544  0.3928 -0.3021  0.6125
  616TMC3    C4 9125   1.399   2.110  16.695  0.2951 -0.1518  0.6311
  616TMC3    C5 9126   1.378   2.242  16.681  0.2848  0.2497 -0.3253
  616TMC3    C6 9127   1.457   2.325  16.606 -0.2107  0.7263  0.0571
  616TMC3     C 9128   1.529   1.921  16.645  0.0058  0.5692 -0.0722
  616TMC3     O 9129   1.487   1.863  16.743 -0.2972  0.3483  0.0473
  616TMC3     H 9130   1.676   2.091  16.499 -0.7236 -2.0883  0.5451
  616TMC3    H1 9131   1.331   2.040  16.741  0.8074 -1.6830 -0.9313
  616TMC3    H2 9132   1.443   2.431  16.623 -1.4963  0.6804 -0.6997
  616TMC3    C7 9133   1.266   2.301  16.745  0.3916  1.2076 -0.3130
  616TMC3    C8 9134   1.658   2.367  16.481  0.0184 -0.5345 -0.3305
  616TMC3    O1 9135   1.211   2.399  16.690 -0.3458 -0.0545  0.2403
  616TMC3    O2 9136   1.602   2.467  16.432 -0.7976 -0.4236  0.2428
  617MPD2     C 9137   4.652   4.655  13.789  0.1982 -0.5271  0.7671
  617MPD2    C1 9138   4.663   4.611  13.913  0.3823 -0.5226 -0.4241
  617MPD2    C2 9139   4.548   4.581  13.986  0.2940  0.7942  0.2942
  617MPD2    C3 9140   4.422   4.580  13.926 -0.4027 -0.0592 -0.1860
  617MPD2    C4 9141   4.415   4.615  13.791  0.3483 -1.0868 -0.1119
  617MPD2    C5 9142   4.529   4.645  13.729  0.5656 -0.0015 -0.6171
  617MPD2     H 9143   4.559   4.544  14.087 -0.8646 -0.6035 -0.0982
  617MPD2    H1 9144   4.327   4.599  13.731 -0.6601 -0.2509  1.1510
  617MPD2    H2 9145   0.010   4.672  13.726 -0.5373 -1.0548 -0.3728
  617MPD2    H3 9146   4.516   4.667  13.624 -2.2194  0.9968 -0.0691
  617MPD2     N 9147   4.302   4.549  13.992  0.5209  0.3118  0.1757
  617MPD2    H5 9148   4.220   4.554  13.933 -1.5615 -3.1052  2.8104
  617MPD2    N1 9149   0.066   4.598  13.959  0.7024  0.3410 -0.1792
  617MPD2    H7 9150   0.140   4.616  13.892  1.7706 -0.4468  0.7768
  618TMC3    C1 9151   0.252   4.518  14.066 -0.5491  0.8568 -0.1167
  618TMC3    C2 9152   0.307   4.402  14.114 -0.1465  0.6675  0.0665
  618TMC3    C3 9153   0.430   4.372  14.075 -0.2560 -0.2679 -0.2290
  618TMC3    C4 9154   0.329   4.624  14.026 -0.1850 -0.4524  0.9881
  618TMC3    C5 9155   0.464   4.594  14.008  0.6153 -0.0552 -0.2054
  618TMC3    C6 9156   0.514   4.469  14.024 -0.3549 -0.3180 -0.0916
  618TMC3     C 9157   0.111   4.534  14.073  0.4109  0.2575 -0.0364
  618TMC3     O 9158   0.050   4.499  14.175 -0.0482  0.3233  0.5041
  618TMC3     H 9159   0.246   4.322  14.155  0.7290 -0.4708 -0.8569
  618TMC3    H1 9160   0.292   4.726  14.018  1.8115  0.2709  0.9466
  618TMC3    H2 9161   0.622   4.462  14.013 -0.3111 -0.0392  0.1354
  618TMC3    C7 9162   0.561   4.705  13.987 -0.3684  0.4263  0.3758
  618TMC3    C8 9163   0.423   4.269  13.972  0.0631  0.1299  0.0618
  618TMC3    O1 9164   0.561   0.062  14.076 -0.0186 -0.2551 -0.0186
  618TMC3    O2 9165   0.312   4.213  13.962  0.2189  0.1382 -0.4479
  619MPD2     C 9166   1.807   0.788  13.420 -0.0032 -0.2088 -0.1496
  619MPD2    C1 9167   1.741   0.877  13.338 -0.5713  0.0507  1.1719
  619MPD2    C2 9168   1.616   0.838  13.289 -0.2889  0.8365  0.9068
  619MPD2    C3 9169   1.544   0.728  13.331 -0.1303 -0.2674  1.0126
  619MPD2    C4 9170   1.605   0.653  13.426  0.4896  0.7255  0.9481
  619MPD2    C5 9171   1.736   0.677  13.458  0.4378  0.0840  0.5013
  619MPD2     H 9172   1.573   0.909  13.220 -2.0049 -0.5689  0.5236
  619MPD2    H1 9173   1.554   0.567  13.468 -0.3427  0.3608 -0.8086
  619MPD2    H2 9174   1.912   0.784  13.447  0.3359  2.4757 -1.0797
  619MPD2    H3 9175   1.780   0.604  13.526 -0.3734 -0.0333  0.9008
  619MPD2     N 9176   1.408   0.699  13.298 -0.6118 -0.7308 -0.1909
  619MPD2    H5 9177   1.366   0.635  13.365  0.7746 -0.0220  1.3716
  619MPD2    N1 9178   1.806   0.997  13.297  0.3896  0.0653 -0.5172
  619MPD2    H7 9179   1.747   1.055  13.239 -0.2771  1.8095  1.9210
  620TMC3    C1 9180   1.927   1.196  13.342  0.6467  0.3341  0.3296
  620TMC3    C2 9181   1.857   1.240  13.232 -0.1605  0.7788 -0.9762
  620TMC3    C3 9182   1.823   1.374  13.220 -0.5957  0.0063  0.4525
  620TMC3    C4 9183   1.927   1.274  13.455  0.5102  0.2852  0.6816
  620TMC3    C5 9184   1.881   1.401  13.444  0.0806 -0.2680 -0.9471
  620TMC3    C6 9185   1.831   1.457  13.329  0.0025 -0.1986  0.1863
  620TMC3     C 9186   1.916   1.052  13.360 -0.1508 -0.1983  0.6819
  620TMC3     O 9187   1.980   1.007  13.454 -0.2601 -0.1467 -0.0313
  620TMC3     H 9188   1.856   1.172  13.148  0.1560  2.4621 -2.3444
  620TMC3    H1 9189   1.966   1.229  13.546  0.6424  0.9112  0.9361
  620TMC3    H2 9190   1.801   1.559  13.307  3.4590  0.5646 -0.8736
  620TMC3    C7 9191   1.862   1.471  13.568 -0.1131  0.2436 -0.7071
  620TMC3    C8 9192   1.701   1.404  13.145 -0.2923  0.0951  0.3975
  620TMC3    O1 9193   1.939   1.457  13.662  0.0601 -0.0087  0.2929
  620TMC3    O2 9194   1.634   1.496  13.191 -0.4488  0.0240 -0.0239
  621MPD2     C 9195   1.595   1.036  10.385 -0.6160 -0.2069  0.5148
  621MPD2    C1 9196   1.712   0.976  10.421 -0.0076 -0.3958 -0.5720
  621MPD2    C2 9197   1.822   1.001  10.336  0.0367  0.0059 -0.5081
  621MPD2    C3 9198   1.810   1.077  10.219 -0.6004  0.3482 -0.2754
  621MPD2    C4 9199   1.692   1.141  10.184  0.0917  0.6378  0.5268
  621MPD2    C5 9200   1.587   1.124  10.273 -0.2786  0.5270 -0.6520
  621MPD2     H 9201   1.915   0.954  10.367 -0.7141 -1.9481 -1.2280
  621MPD2    H1 9202   1.679   1.210  10.101 -0.3941  0.3557  0.3728
  621MPD2    H2 9203   1.500   1.020  10.435 -1.5985 -0.9358 -1.5747
  621MPD2    H3 9204   1.493   1.166  10.241  0.8412  1.9759 -2.0309
  621MPD2     N 9205   1.924   1.105  10.138 -0.1910  0.7680 -0.8437
  621MPD2    H5 9206   2.002   1.040  10.144 -0.0739  0.8889 -1.0830
  621MPD2    N1 9207   1.734   0.882  10.527 -1.1677 -0.3351  0.2705
  621MPD2    H7 9208   1.827   0.846  10.542 -1.1440 -0.6114 -0.5838
  622TMC3    C1 9209   1.666   0.733  10.702 -0.1307  0.7819  0.3273
  622TMC3    C2 9210   1.579   0.711  10.793  0.3619  0.2295 -0.1426
  622TMC3    C3 9211   1.575   0.576  10.834  0.4084 -0.2990  0.1336
  622TMC3    C4 9212   1.742   0.635  10.639  0.0843  0.4424  0.2680
  622TMC3    C5 9213   1.729   0.501  10.674 -0.1325 -0.7149 -0.0667
  622TMC3    C6 9214   1.651   0.474  10.779  0.6632 -0.5319  0.3252
  622TMC3     C 9215   1.633   0.849  10.615  0.0903  0.2209 -0.0150
  622TMC3     O 9216   1.522   0.894  10.619  0.6510 -0.2498 -0.0942
  622TMC3     H 9217   1.509   0.787  10.826  0.4517  0.2176  0.0751
  622TMC3    H1 9218   1.817   0.660  10.565  1.8632 -0.5098  1.7743
  622TMC3    H2 9219   1.636   0.373  10.815  1.2308 -0.6539  0.2168
  622TMC3    C7 9220   1.793   0.392  10.611  0.0215  0.0491  0.3747
  622TMC3    C8 9221   1.447   0.523  10.886  0.4125 -0.3421  0.3871
  622TMC3    O1 9222   1.819   0.291  10.672 -0.3277 -0.2671 -0.1669
  622TMC3    O2 9223   1.406   0.411  10.865  0.2986 -0.3256  0.2683
  623MPD2     C 9224   0.345   1.565  16.150  0.3051  0.7405  0.5439
  623MPD2    C1 9225   0.293   1.681  16.200 -0.0209 -0.2675  0.2514
  623MPD2    C2 9226   0.336   1.728  16.324  0.6606  0.0611  0.9467
  623MPD2    C3 9227   0.440   1.659  16.393  0.1248  0.8092  0.6631
  623MPD2    C4 9228   0.488   1.537  16.344 -0.3530 -0.2996  0.4417
  623MPD2    C5 9229   0.441   1.492  16.228  0.1983  0.2520  0.7683
  623MPD2     H 9230   0.305   1.826  16.359  0.3097 -0.0275  0.8826
  623MPD2    H1 9231   0.561   1.471  16.387 -1.7508 -1.4601  1.0394
  623MPD2    H2 9232   0.298   1.518  16.064 -0.6948  2.7969 -0.0328
  623MPD2    H3 9233   0.475   1.394  16.197 -0.6449 -0.2893  1.5444
  623MPD2     N 9234   0.494   1.704  16.514 -0.2999 -0.5072  0.7186
  623MPD2    H5 9235   0.568   1.648  16.556  1.2879  0.5999 -0.5635
  623MPD2    N1 9236   0.187   1.740  16.125  0.5022 -0.4371 -0.1038
  623MPD2    H7 9237   0.156   1.693  16.040 -1.2920  3.0833 -1.3722
  624TMC3    C1 9238   0.534   1.700  16.907  0.2146 -1.0152 -0.6366
  624TMC3    C2 9239   0.432   1.755  16.975  0.0233  0.3345  0.1670
  624TMC3    C3 9240   0.363   1.855  16.914 -0.1914  0.1215 -0.6602
  624TMC3    C4 9241   0.564   1.728  16.771 -0.4538  0.3808 -0.4041
  624TMC3    C5 9242   0.484   1.825  16.715 -0.2125 -0.0505  0.2759
  624TMC3    C6 9243   0.386   1.891  16.787 -0.2263  0.1580  0.3118
  624TMC3     C 9244   0.637   1.645  16.994 -0.5387 -0.4737  0.8149
  624TMC3     O 9245   0.629   1.661  17.116 -0.9353 -0.1101  0.1464
  624TMC3     H 9246   0.392   1.717  17.068  0.8332 -0.8051  0.0366
  624TMC3    H1 9247   0.655   1.694  16.722 -0.0528  0.7624  0.0730
  624TMC3    H2 9248   0.322   1.966  16.743 -0.0224 -0.8337 -1.6726
  624TMC3    C7 9249   0.462   1.825  16.575 -0.1922 -0.5205  0.0795
  624TMC3    C8 9250   0.233   1.875  16.963  0.4532  0.2324  0.2290
  624TMC3    O1 9251   0.412   1.927  16.525 -0.0965  0.9624 -0.2071
  624TMC3    O2 9252   0.175   1.776  16.995 -0.1050 -0.3356  0.4784
  625MPD2     C 9253   1.073   2.593   0.570  0.1147 -0.6232 -0.4374
  625MPD2    C1 9254   1.078   2.735   0.556  0.2566  0.3124  0.3168
  625MPD2    C2 9255   1.187   2.787   0.495 -0.0298 -0.7082  0.7785
  625MPD2    C3 9256   1.289   2.709   0.446  0.0636 -0.3323 -0.9821
  625MPD2    C4 9257   1.293   2.573   0.462 -0.0870 -0.3161 -0.0654
  625MPD2    C5 9258   1.183   2.518   0.533 -0.9766  0.3624 -0.0355
  625MPD2     H 9259   1.186   2.895   0.481 -0.4218 -0.9413 -0.9434
  625MPD2    H1 9260   1.367   2.507   0.419  1.6761  1.6982 -0.1191
  625MPD2    H2 9261   0.992   2.538   0.617 -0.4778  1.6735  1.2568
  625MPD2    H3 9262   1.179   2.410   0.542 -0.2146  0.1832 -1.9555
  625MPD2     N 9263   1.394   2.777   0.381 -0.0152 -0.2811 -0.8425
  625MPD2    H5 9264   1.380   2.877   0.372 -1.5627 -0.3475  1.0500
  625MPD2    N1 9265   0.972   2.819   0.592  0.6519 -0.0777 -0.4426
  625MPD2    H7 9266   0.968   2.913   0.554 -0.9159 -0.3493 -0.9391
  626TMC3    C1 9267   0.753   2.871   0.656  0.0069  0.1692 -0.9835
  626TMC3    C2 9268   0.726   2.971   0.564 -0.5246  0.0699 -0.5564
  626TMC3    C3 9269   0.617   3.047   0.582  0.0723  0.1167  0.0598
  626TMC3    C4 9270   0.677   2.858   0.768  1.2811 -0.7086 -0.5956
  626TMC3    C5 9271   0.569   2.941   0.786 -0.0087  0.5835 -0.1814
  626TMC3    C6 9272   0.538   3.041   0.690  0.0686  0.1176 -0.8163
  626TMC3     C 9273   0.860   2.774   0.657 -0.6261 -0.4602 -0.0346
  626TMC3     O 9274   0.845   2.679   0.732  0.5056 -0.8538 -0.9565
  626TMC3     H 9275   0.789   2.980   0.476  0.2019  0.4934  0.0106
  626TMC3    H1 9276   0.692   2.783   0.845  0.3059  0.7444  1.0097
  626TMC3    H2 9277   0.449   3.102   0.697  0.7127  1.3305 -3.1728
  626TMC3    C7 9278   0.486   2.924   0.903 -0.7136  0.5683  0.3443
  626TMC3    C8 9279   0.573   3.125   0.465 -0.9152  0.6421  0.4334
  626TMC3    O1 9280   0.541   2.891   1.007  0.1858 -0.0616 -0.6110
  626TMC3    O2 9281   0.656   3.169   0.389 -0.1574 -0.3709  0.2025
  627MPD2     C 9282   3.943   3.537  14.665  0.5066  0.0018  0.3186
  627MPD2    C1 9283   4.019   3.494  14.778 -0.1796 -0.6167 -0.8221
  627MPD2    C2 9284   4.004   3.366  14.826  0.1859  0.9302 -0.6022
  627MPD2    C3 9285   3.909   3.280  14.763  0.3890 -0.0105 -0.0387
  627MPD2    C4 9286   3.834   3.328  14.654 -0.1193 -1.1929 -0.1916
  627MPD2    C5 9287   3.853   3.453  14.610 -0.0914 -0.5018 -0.0999
  627MPD2     H 9288   4.059   3.327  14.911 -1.5501  0.9578  0.5416
  627MPD2    H1 9289   3.770   3.258  14.601 -1.1028 -1.3735  1.2354
  627MPD2    H2 9290   3.940   3.639  14.629 -0.7753  0.4990  1.8733
  627MPD2    H3 9291   3.790   3.489  14.529 -0.2932  0.2634  0.3889
  627MPD2     N 9292   3.890   3.146  14.813  0.0996  0.1222 -0.4083
  627MPD2    H5 9293   3.953   3.122  14.889 -0.0259  0.4921 -0.1854
  627MPD2    N1 9294   4.109   3.586  14.821 -0.1680  0.4571  0.1671
  627MPD2    H7 9295   4.133   3.667  14.765 -0.3721 -0.2880 -0.9953
  628TMC3    C1 9296   4.307   3.642  14.942 -0.9054 -0.0598 -0.5061
  628TMC3    C2 9297   4.426   3.573  14.965 -0.6111  0.1481 -1.2084
  628TMC3    C3 9298   4.542   3.642  14.957 -0.1547 -0.1733  0.0558
  628TMC3    C4 9299   4.315   3.780  14.922 -0.4746  0.4355  0.4553
  628TMC3    C5 9300   4.438   3.845  14.922 -0.0712  0.6224  0.2148
  628TMC3    C6 9301   4.552   3.772  14.921  0.2795  0.8775 -0.6992
  628TMC3     C 9302   4.175   3.574  14.937  0.6325 -0.7228  0.6971
  628TMC3     O 9303   4.152   3.502  15.035 -0.2021 -0.0144 -0.1127
  628TMC3     H 9304   4.414   3.465  14.968 -1.4529  0.2537 -0.6980
  628TMC3    H1 9305   4.219   3.830  14.920 -1.4994 -1.6549 -1.8423
  628TMC3    H2 9306   4.651   3.816  14.923 -1.8919  5.6989  0.6362
  628TMC3    C7 9307   4.454   3.983  14.877  0.1637  0.2781  0.6983
  628TMC3    C8 9308   4.643   3.558  14.897  0.3265  0.3114 -0.2448
  628TMC3    O1 9309   4.571   4.029  14.887 -0.0117 -0.7486  0.0896
  628TMC3    O2 9310   4.618   3.458  14.831  0.5665 -1.5020 -0.6236
  629MPD2     C 9311   2.099   2.546  16.294 -0.6057 -0.1342 -0.4321
  629MPD2    C1 9312   2.131   2.433  16.373  0.1670  0.5112  0.1265
  629MPD2    C2 9313   2.030   2.364  16.434 -0.2779 -0.4039  0.0828
  629MPD2    C3 9314   1.902   2.410  16.423 -0.4796 -0.4392 -0.4391
  629MPD2    C4 9315   1.873   2.533  16.363 -0.1650  0.0767 -0.0563
  629MPD2    C5 9316   1.972   2.597  16.303 -0.0728 -0.6139 -0.3793
  629MPD2     H 9317   2.049   2.264  16.470 -1.3685 -0.0422  1.6709
  629MPD2    H1 9318   1.777   2.582  16.357  0.1546  0.3779 -3.0412
  629MPD2    H2 9319   2.169   2.623  16.264 -1.2659  0.5083 -0.3279
  629MPD2    H3 9320   1.949   2.695  16.262  1.9818  0.1754  0.4098
  629MPD2     N 9321   1.791   2.337  16.483 -0.2511  0.2813 -0.5135
  629MPD2    H5 9322   1.818   2.252  16.531 -0.5206  0.0787 -0.7186
  629MPD2    N1 9323   2.268   2.401  16.394 -0.0670  0.0992 -0.5609
  629MPD2    H7 9324   2.338   2.458  16.347  0.2607  0.5410  0.4771
  630TMC3    C1 9325   2.449   2.261  16.482 -0.0742  0.3936  0.0213
  630TMC3    C2 9326   2.534   2.306  16.386  0.3914 -0.3819  0.3934
  630TMC3    C3 9327   2.665   2.249  16.391 -0.3961  0.3945  0.1895
  630TMC3    C4 9328   2.480   2.159  16.568 -0.1676 -0.1545 -0.8357
  630TMC3    C5 9329   2.610   2.115  16.567 -0.4322 -0.5748 -0.4589
  630TMC3    C6 9330   2.702   2.153  16.474 -0.0927 -0.0847  0.4034
  630TMC3     C 9331   2.309   2.302  16.478 -0.7427  0.0799 -0.5525
  630TMC3     O 9332   2.242   2.235  16.556  0.1043 -0.3134  0.6308
  630TMC3     H 9333   2.511   2.372  16.303 -2.1090  1.7875  2.8273
  630TMC3    H1 9334   2.420   2.135  16.655 -2.1028  3.0246 -1.2937
  630TMC3    H2 9335   2.807   2.132  16.493 -0.1316 -0.0841  0.6171
  630TMC3    C7 9336   2.643   2.019  16.670 -0.0504  0.2265  0.1087
  630TMC3    C8 9337   2.775   2.331  16.337  0.6330  0.2829 -0.0944
  630TMC3    O1 9338   2.561   2.015  16.757 -0.1763  0.7094  0.9018
  630TMC3    O2 9339   2.886   2.283  16.331  0.3620  0.0249 -0.7306
  631MPD2     C 9340   1.393   1.757  15.270 -0.3440 -0.3220 -0.4963
  631MPD2    C1 9341   1.327   1.779  15.392 -0.5702 -0.2809  0.1914
  631MPD2    C2 9342   1.380   1.717  15.499 -0.2595  0.3690 -0.5224
  631MPD2    C3 9343   1.501   1.651  15.493  0.1411 -0.4422  0.2239
  631MPD2    C4 9344   1.572   1.642  15.370 -0.1549  0.1224  0.0923
  631MPD2    C5 9345   1.515   1.695  15.259  0.5593  0.0590  0.5303
  631MPD2     H 9346   1.341   1.721  15.600 -0.0226  0.0024 -0.4188
  631MPD2    H1 9347   1.665   1.592  15.347 -0.0148  0.7349 -0.6844
  631MPD2    H2 9348   1.351   1.792  15.176  2.6642  3.2501 -0.5341
  631MPD2    H3 9349   1.562   1.676  15.163  0.7811 -0.6287  0.7759
  631MPD2     N 9350   1.551   1.592  15.616 -0.2036  0.1266 -0.2121
  631MPD2    H5 9351   1.511   1.602  15.709 -0.1181  0.2098 -0.1841
  631MPD2    N1 9352   1.208   1.849  15.384  0.4145 -0.1603 -0.1926
  631MPD2    H7 9353   1.186   1.884  15.291 -2.1669  0.1393  0.5527
  632TMC3    C1 9354   1.027   1.981  15.466  0.0684  0.1106 -0.5564
  632TMC3    C2 9355   0.909   1.979  15.535  0.3176 -0.0035 -0.0106
  632TMC3    C3 9356   0.824   2.088  15.529 -0.2915  0.1610 -0.0109
  632TMC3    C4 9357   1.045   2.072  15.362  0.8987 -0.1498  1.1718
  632TMC3    C5 9358   0.958   2.182  15.361  0.4115  0.0049 -0.4495
  632TMC3    C6 9359   0.854   2.194  15.451  0.2184 -0.1230  0.0745
  632TMC3     C 9360   1.119   1.878  15.486 -0.1153  0.9314 -0.4013
  632TMC3     O 9361   1.111   1.824  15.594  0.5418  0.1222 -0.5509
  632TMC3     H 9362   0.917   1.914  15.621 -1.2933 -0.0826  0.0947
  632TMC3    H1 9363   1.133   2.067  15.299 -1.4253 -0.2975 -2.0512
  632TMC3    H2 9364   0.792   2.283  15.451  0.3196 -0.0661  2.5357
  632TMC3    C7 9365   0.972   2.279  15.255  0.1232  0.2570 -0.5595
  632TMC3    C8 9366   0.725   2.125  15.637  1.0879  0.3753  0.8347
  632TMC3    O1 9367   0.868   2.324  15.212  0.0088  1.1233 -1.0707
  632TMC3    O2 9368   0.653   2.224  15.619  0.1301 -0.0033  0.0830
  633MPD2     C 9369   0.632   0.001  17.096  0.2216  0.3381  0.0080
  633MPD2    C1 9370   0.766   0.009  17.063  0.6529  0.3841 -0.7998
  633MPD2    C2 9371   0.850   4.634  17.101 -0.0840 -0.4245 -0.8705
  633MPD2    C3 9372   0.818   4.525  17.169 -0.1235 -0.1432  0.0777
  633MPD2    C4 9373   0.685   4.523  17.215 -0.4024 -0.1851 -0.0016
  633MPD2    C5 9374   0.598   4.623  17.181  0.5209  0.0025 -0.1743
  633MPD2     H 9375   0.954   4.635  17.070  0.1281  0.8075 -0.1129
  633MPD2    H1 9376   0.637   4.445  17.272 -2.7641  0.6828 -0.7926
  633MPD2    H2 9377   0.562   0.077  17.064  1.6742  0.3231 -3.1935
  633MPD2    H3 9378   0.493   4.605  17.202  0.8210  0.5156  1.7096
  633MPD2     N 9379   0.898   4.410  17.190  0.0454 -0.0410  0.2289
  633MPD2    H5 9380   0.843   4.334  17.230  1.1921 -1.4539 -0.9121
  633MPD2    N1 9381   0.820   0.123  16.999  0.0125  0.5350 -0.1342
  633MPD2    H7 9382   0.918   0.111  16.973  0.0270 -1.1809  0.6772
  634TMC3    C1 9383   0.824   0.286  16.826  0.1114  0.4434 -0.0940
  634TMC3    C2 9384   0.908   0.211  16.751  0.3892  0.6213 -0.5385
  634TMC3    C3 9385   0.944   0.258  16.625  0.4852  0.0056 -0.2146
  634TMC3    C4 9386   0.765   0.401  16.778  0.2977 -0.4059 -1.1143
  634TMC3    C5 9387   0.782   0.431  16.645 -0.3213  0.6145 -0.0431
  634TMC3    C6 9388   0.878   0.364  16.571  0.6750  0.1584 -0.0433
  634TMC3     C 9389   0.751   0.224  16.944  0.1631 -0.7719  0.6285
  634TMC3     O 9390   0.650   0.274  16.989  0.2622  0.1892 -0.7426
  634TMC3     H 9391   0.941   0.115  16.789 -3.5570 -0.7069 -0.4100
  634TMC3    H1 9392   0.704   0.462  16.844 -0.0215 -1.2852 -0.6018
  634TMC3    H2 9393   0.901   0.389  16.468  1.8262  0.4096  0.2743
  634TMC3    C7 9394   0.771   0.567  16.596 -0.1496  0.3529  0.1143
  634TMC3    C8 9395   0.991   0.153  16.540 -0.4269 -0.2479  0.5915
  634TMC3    O1 9396   0.840   0.605  16.501 -0.3140 -0.2259 -0.3422
  634TMC3    O2 9397   0.954   0.035  16.560 -0.2193  0.5507 -0.1501
  635TMC3    C1 9398   0.494   1.124  17.433  0.0120  0.0072  0.6221
  635TMC3    C2 9399   0.427   1.202  17.341  0.1544  0.0918 -0.3265
  635TMC3    C3 9400   0.509   1.248  17.239  0.0112  0.5199 -0.1089
  635TMC3    C4 9401   0.631   1.095  17.423  0.3741  0.4091  0.2974
  635TMC3    C5 9402   0.699   1.137  17.313  0.4370 -0.7970 -0.0931
  635TMC3    C6 9403   0.642   1.226  17.229 -0.2678 -0.0333  0.6599
  635TMC3     C 9404   0.411   1.077  17.544 -0.4298  0.0998 -0.6033
  635TMC3     O 9405   0.294   1.109  17.540 -0.2982 -0.2242 -0.6961
  635TMC3     H 9406   0.322   1.225  17.334  0.3103  0.9323  0.0295
  635TMC3    H1 9407   0.684   1.051  17.507 -0.7853  0.8479  1.2500
  635TMC3    H2 9408   0.692   1.267  17.142 -0.4326 -3.3419 -1.0046
  635TMC3    C7 9409   0.834   1.089  17.273 -0.0983  0.7944  0.0543
  635TMC3    C8 9410   0.440   1.321  17.137 -0.7783  0.5549 -0.4175
  635TMC3    O1 9411   0.879   1.147  17.177 -0.1858  0.0002  0.1932
  635TMC3    O2 9412   0.337   1.383  17.172  0.7523 -0.2840 -0.1434
  636MPD2     C 9413   2.026   0.570  15.720 -0.4312  0.3689 -0.1471
  636MPD2    C1 9414   2.096   0.645  15.807  0.1595  0.8413  0.7563
  636MPD2    C2 9415   2.234   0.627  15.813 -0.2259  0.0608  0.1120
  636MPD2    C3 9416   2.299   0.563  15.713  0.7291  0.1336 -0.6604
  636MPD2    C4 9417   2.222   0.495  15.615 -0.3185  0.6166 -0.4218
  636MPD2    C5 9418   2.092   0.494  15.621 -0.1267 -0.3953  0.3931
  636MPD2     H 9419   2.302   0.665  15.888  0.5263 -2.5092  0.7178
  636MPD2    H1 9420   2.267   0.451  15.527  2.4492 -0.8749  1.7140
  636MPD2    H2 9421   1.918   0.566  15.710 -0.2343  0.1566 -2.1622
  636MPD2    H3 9422   2.037   0.443  15.542  0.5281 -1.2599  0.4914
  636MPD2     N 9423   2.441   0.578  15.714 -0.0828 -0.4466  0.0997
  636MPD2    H5 9424   2.480   0.643  15.781 -2.1084  2.3351 -1.4217
  636MPD2    N1 9425   2.042   0.739  15.901  0.0320  0.0564  0.0315
  636MPD2    H7 9426   2.102   0.767  15.978  0.7922  1.3807 -1.0384
  637TMC3    C1 9427   2.656   0.519  15.672  0.3315  0.2365 -0.1574
  637TMC3    C2 9428   2.667   0.580  15.789 -0.9409  0.3119 -0.1317
  637TMC3    C3 9429   2.747   0.685  15.811  0.9122 -0.5488  0.1982
  637TMC3    C4 9430   2.730   0.570  15.564 -1.2452  0.8417  0.0596
  637TMC3    C5 9431   2.812   0.677  15.588 -0.0034  0.5673  0.7210
  637TMC3    C6 9432   2.830   0.735  15.718  0.4550 -0.3596  0.9066
  637TMC3     C 9433   2.528   0.498  15.637 -0.1008  0.3332  0.2515
  637TMC3     O 9434   2.506   0.412  15.553  0.2201 -0.2315 -0.0973
  637TMC3     H 9435   2.628   0.535  15.880 -0.3471  0.1172  0.0297
  637TMC3    H1 9436   2.725   0.538  15.461 -1.9329 -2.0505  0.9997
  637TMC3    H2 9437   2.895   0.821  15.722 -0.6048  0.5526 -1.4613
  637TMC3    C7 9438   2.910   0.698  15.484 -0.5566  0.2576  0.1987
  637TMC3    C8 9439   2.669   0.792  15.877  0.0842  1.2474  0.1174
  637TMC3    O1 9440   2.942   0.603  15.426  0.1529 -0.0432 -0.0494
  637TMC3    O2 9441   2.550   0.763  15.876  0.2070 -0.2319  0.4752
  638MPD2     C 9442   1.932   4.115  14.957 -0.2331  0.1896 -0.1689
  638MPD2    C1 9443   1.995   3.996  14.959 -0.0521  1.0922 -0.1245
  638MPD2    C2 9444   1.944   3.905  15.049 -0.8104 -0.4733 -0.6953
  638MPD2    C3 9445   1.830   3.918  15.129 -0.0750 -0.6063  0.2605
  638MPD2    C4 9446   1.766   4.043  15.124  0.0007  0.4041  0.3245
  638MPD2    C5 9447   1.821   4.135  15.039 -0.7575  0.0326  0.3357
  638MPD2     H 9448   1.999   3.812  15.051  0.2722  0.1928  0.3623
  638MPD2    H1 9449   1.676   4.069  15.178 -0.5885 -1.5097  0.2530
  638MPD2    H2 9450   1.960   4.185  14.879 -0.7471  1.9075  1.1705
  638MPD2    H3 9451   1.785   4.238  15.039  2.7277  1.2468  1.0822
  638MPD2     N 9452   1.799   3.821  15.226  0.2797 -0.0883  0.6999
  638MPD2    H5 9453   1.849   3.734  15.216 -0.5724 -0.4573 -0.2623
  638MPD2    N1 9454   2.079   3.941  14.864 -0.2296  1.1391  0.4412
  638MPD2    H7 9455   2.106   3.843  14.869 -1.3159  0.7671 -1.0294
  639TMC3    C1 9456   1.662   3.682  15.341 -0.6442 -0.5866 -0.0975
  639TMC3    C2 9457   1.530   3.638  15.342 -0.0466  0.5013 -0.3789
  639TMC3    C3 9458   1.502   3.513  15.386  0.2266 -0.0920  0.5255
  639TMC3    C4 9459   1.759   3.608  15.387  0.4081 -0.1835 -0.4541
  639TMC3    C5 9460   1.729   3.482  15.419  0.2224 -0.1054  0.4491
  639TMC3    C6 9461   1.606   3.427  15.420  0.3313 -0.1398 -0.3132
  639TMC3     C 9462   1.691   3.820  15.304  0.2330 -0.6086  1.2799
  639TMC3     O 9463   1.598   3.892  15.342  0.4744 -0.3157 -0.4259
  639TMC3     H 9464   1.453   3.708  15.312  0.5732  1.1693 -0.4376
  639TMC3    H1 9465   1.859   3.648  15.397  1.1143 -1.6904 -1.4269
  639TMC3    H2 9466   1.586   3.321  15.427 -2.5189  0.2307 -2.9035
  639TMC3    C7 9467   1.835   3.392  15.468  0.2643  0.6086 -0.8039
  639TMC3    C8 9468   1.408   3.448  15.288 -0.0092 -0.7119 -0.4148
  639TMC3    O1 9469   1.794   3.320  15.560 -0.1287  0.4791  0.1167
  639TMC3    O2 9470   1.454   3.361  15.221 -0.7974 -0.3900 -0.2385
  640MPD2     C 9471   2.473   2.209   9.860 -0.5760  0.0599 -0.4772
  640MPD2    C1 9472   2.348   2.155   9.826  0.7580 -0.3358  0.2037
  640MPD2    C2 9473   2.235   2.233   9.847 -0.5459  0.0885  0.1448
  640MPD2    C3 9474   2.245   2.367   9.877  0.4810 -0.2705 -0.9218
  640MPD2    C4 9475   2.372   2.418   9.893 -0.0671  0.1055 -0.5353
  640MPD2    C5 9476   2.486   2.338   9.887  0.0734  0.0063  0.1577
  640MPD2     H 9477   2.134   2.198   9.830 -0.3640  0.8661 -2.4258
  640MPD2    H1 9478   2.386   2.523   9.920  0.4152 -0.0131 -0.3292
  640MPD2    H2 9479   2.564   2.148   9.858  0.7135  1.9428  1.1687
  640MPD2    H3 9480   2.586   2.375   9.907  0.3780  0.4913 -2.2331
  640MPD2     N 9481   2.139   2.460   9.885 -0.5453  0.1816 -0.2236
  640MPD2    H5 9482   2.163   2.555   9.909  0.7977  0.4182 -2.4399
  640MPD2    N1 9483   2.329   2.025   9.785  0.0071 -0.1740 -0.4929
  640MPD2    H7 9484   2.403   1.958   9.805  2.4867  2.9452  0.7701
  641TMC3    C1 9485   2.236   1.840   9.660  0.6250  0.5404  0.8224
  641TMC3    C2 9486   2.337   1.760   9.710 -0.5688 -0.2328 -0.3229
  641TMC3    C3 9487   2.349   1.636   9.648  0.4914 -0.5093  0.4270
  641TMC3    C4 9488   2.158   1.803   9.549 -0.1972  0.2133 -0.0640
  641TMC3    C5 9489   2.185   1.681   9.491 -0.3183 -0.9041  0.7388
  641TMC3    C6 9490   2.281   1.598   9.532  0.6112 -0.5221 -0.0679
  641TMC3     C 9491   2.218   1.975   9.713 -0.8277  0.2659  0.1283
  641TMC3     O 9492   2.127   2.039   9.661  0.0106 -0.5548  0.0524
  641TMC3     H 9493   2.394   1.786   9.798 -1.1101 -0.2867  0.0389
  641TMC3    H1 9494   2.072   1.864   9.521 -1.6858 -2.0681 -0.4599
  641TMC3    H2 9495   2.282   1.501   9.483  4.4497 -0.3273 -0.3524
  641TMC3    C7 9496   2.111   1.653   9.367 -0.5623 -0.0169  0.3754
  641TMC3    C8 9497   2.441   1.527   9.697 -0.3325  0.0606 -0.2665
  641TMC3    O1 9498   1.996   1.690   9.347  0.2416 -0.4519  0.3323
  641TMC3    O2 9499   2.414   1.414   9.659  0.0545 -0.1949 -0.3085
  642TMC3    C1 9500   3.283   3.411  12.519 -0.3890 -0.1407  0.2880
  642TMC3    C2 9501   3.414   3.447  12.512 -0.0606 -0.0268 -0.0336
  642TMC3    C3 9502   3.494   3.392  12.415 -0.1114 -0.1443 -0.0663
  642TMC3    C4 9503   3.231   3.316  12.433 -0.4795  0.0748 -0.4144
  642TMC3    C5 9504   3.314   3.271  12.338  0.2901 -0.1742 -0.1827
  642TMC3    C6 9505   3.442   3.303  12.324  0.3129  0.0401  0.1274
  642TMC3     C 9506   3.192   3.488  12.611  0.1934 -0.0448 -0.2110
  642TMC3     O 9507   3.249   3.582  12.659 -0.3456 -0.5544 -0.1069
  642TMC3     H 9508   3.455   3.498  12.599  0.1763 -0.5758  0.1774
  642TMC3    H1 9509   3.130   3.281  12.418  0.4476 -2.6518 -0.3786
  642TMC3    H2 9510   3.498   3.275  12.236 -0.3401 -1.0510  0.0520
  642TMC3    C7 9511   3.278   3.160  12.254  0.5260 -0.1546 -0.4670
  642TMC3    C8 9512   3.638   3.424  12.429  0.1005 -0.1559 -0.2164
  642TMC3    O1 9513   3.315   3.167  12.138 -0.2626  0.0377  0.1883
  642TMC3    O2 9514   3.717   3.332  12.404  0.0257  0.2956  0.1971
  643TMC3    C1 9515   2.370   3.024   0.506 -0.8946 -0.2481 -0.4998
  643TMC3    C2 9516   2.243   3.042   0.453 -0.6584  1.0046  0.4473
  643TMC3    C3 9517   2.221   3.034   0.316 -0.1980  0.6262  0.4683
  643TMC3    C4 9518   2.470   3.007   0.423 -0.1909  0.0321 -0.3919
  643TMC3    C5 9519   2.449   2.994   0.287 -0.4030 -0.2090 -0.4904
  643TMC3    C6 9520   2.324   3.008   0.230 -1.0679 -0.4487  0.3071
  643TMC3     C 9521   2.380   3.100   0.632 -0.4218 -0.6062  1.4243
  643TMC3     O 9522   2.313   3.205   0.642 -0.4651 -0.1904  0.3003
  643TMC3     H 9523   2.158   3.069   0.514 -1.5933 -1.0192  0.0197
  643TMC3    H1 9524   2.569   3.025   0.465  0.0630 -1.7694 -0.2378
  643TMC3    H2 9525   2.305   2.991   0.124  1.3285 -0.5690 -0.0973
  643TMC3    C7 9526   2.540   3.045   0.193 -0.1857 -0.1941  0.6727
  643TMC3    C8 9527   2.136   3.136   0.265 -0.6472 -0.6770  0.1297
  643TMC3    O1 9528   2.496   3.129   0.114  0.2237  0.1078 -0.0199
  643TMC3    O2 9529   2.019   3.142   0.301 -0.1507 -0.2135  0.5749
  644MPD2     C 9530   1.839   2.257   9.579  0.4998 -0.3734  0.3935
  644MPD2    C1 9531   1.846   2.233   9.445  0.0070 -0.1203  0.1584
  644MPD2    C2 9532   1.738   2.275   9.372  0.6279 -0.6063 -0.9678
  644MPD2    C3 9533   1.628   2.344   9.430 -0.0561  0.3757  0.4685
  644MPD2    C4 9534   1.636   2.367   9.563  1.1635 -0.0550  0.0169
  644MPD2    C5 9535   1.737   2.326   9.635  0.1008  0.3461 -0.2072
  644MPD2     H 9536   1.741   2.256   9.265 -0.3196 -0.4130 -1.0346
  644MPD2    H1 9537   1.564   2.422   9.622 -0.3022 -2.2333  0.2688
  644MPD2    H2 9538   1.916   2.220   9.645  3.0083  1.3526 -1.5588
  644MPD2    H3 9539   1.733   2.349   9.741  1.0038  0.1526 -0.1351
  644MPD2     N 9540   1.514   2.387   9.350  0.5334  0.1703 -0.0562
  644MPD2    H5 9541   1.508   2.364   9.251 -0.1998  0.2288 -0.0306
  644MPD2    N1 9542   1.959   2.165   9.392 -0.1966 -0.0727 -0.3429
  644MPD2    H7 9543   2.039   2.145   9.451 -0.8563  0.8411  0.8603
  645TMC3    C1 9544   1.313   2.473   9.293 -0.6384  0.3540  0.9161
  645TMC3    C2 9545   1.179   2.470   9.326  0.2709  0.2037  0.1201
  645TMC3    C3 9546   1.091   2.524   9.241  0.6600 -0.0713 -0.7241
  645TMC3    C4 9547   1.361   2.513   9.173 -0.3141  1.0363 -0.7320
  645TMC3    C5 9548   1.267   2.540   9.082  0.2330  0.1186 -1.0156
  645TMC3    C6 9549   1.136   2.546   9.115 -0.0182  1.0519 -0.1144
  645TMC3     C 9550   1.409   2.455   9.397  0.9755 -0.6671  0.3597
  645TMC3     O 9551   1.381   2.501   9.506  0.5091 -0.0210 -0.4695
  645TMC3     H 9552   1.162   2.432   9.427  1.4935 -1.4178 -0.2769
  645TMC3    H1 9553   1.468   2.505   9.156  0.0813  1.7804  1.4091
  645TMC3    H2 9554   1.060   2.575   9.043 -1.0635 -0.0044  0.5578
  645TMC3    C7 9555   1.304   2.558   8.946 -0.5633 -0.0603 -0.7593
  645TMC3    C8 9556   0.950   2.551   9.274 -0.9403 -0.2534  0.2116
  645TMC3    O1 9557   1.225   2.614   8.874  0.5905 -0.8888  0.0287
  645TMC3    O2 9558   0.876   2.581   9.177 -0.0464 -0.0407  0.6456
  646MPD2     C 9559   1.786   2.770  14.933  0.0448 -0.6374  0.3927
  646MPD2    C1 9560   1.667   2.751  15.006  0.3186 -1.0082 -0.3354
  646MPD2    C2 9561   1.554   2.830  14.970  0.3057  0.0098 -0.3522
  646MPD2    C3 9562   1.550   2.885  14.848  0.6358  0.7294  0.9878
  646MPD2    C4 9563   1.668   2.891  14.772 -0.7348 -0.3317 -0.2511
  646MPD2    C5 9564   1.787   2.844  14.823 -0.1326  0.2868 -0.0403
  646MPD2     H 9565   1.461   2.823  15.025  0.0962 -0.6905 -0.7953
  646MPD2    H1 9566   1.666   2.947  14.679 -0.5203  1.3369  0.7382
  646MPD2    H2 9567   1.878   2.719  14.961 -0.7524 -2.8518 -1.0116
  646MPD2    H3 9568   1.882   2.845  14.770 -0.5637  0.7076 -0.8025
  646MPD2     N 9569   1.423   2.931  14.797 -0.0081  0.9660  0.4818
  646MPD2    H5 9570   1.345   2.940  14.862 -0.7962 -2.4453  0.0023
  646MPD2    N1 9571   1.663   2.657  15.109  0.0053 -0.2640 -0.2536
  646MPD2    H7 9572   1.747   2.600  15.109 -1.4494 -2.3939 -1.9683
  647TMC3    C1 9573   1.610   2.549  15.309  0.3715  0.3915 -0.0704
  647TMC3    C2 9574   1.574   2.568  15.435  0.4937 -0.7198 -0.4429
  647TMC3    C3 9575   1.629   2.482  15.525  0.0339 -0.0249 -0.0365
  647TMC3    C4 9576   1.686   2.440  15.266 -0.4279 -0.8558 -0.0576
  647TMC3    C5 9577   1.747   2.359  15.356  0.1281 -0.0768  0.1386
  647TMC3    C6 9578   1.721   2.383  15.488 -0.1279  0.7729  0.2867
  647TMC3     C 9579   1.574   2.652  15.209  0.2646  0.1631 -0.5746
  647TMC3     O 9580   1.494   2.738  15.239  0.1208  0.2092  0.4515
  647TMC3     H 9581   1.508   2.647  15.469  0.5214 -0.1612 -1.7012
  647TMC3    H1 9582   1.700   2.418  15.161 -0.5970  0.7798 -0.4213
  647TMC3    H2 9583   1.769   2.313  15.555  0.4836  3.4341  2.6013
  647TMC3    C7 9584   1.831   2.245  15.321  0.1544 -0.3404  0.1582
  647TMC3    C8 9585   1.554   2.457  15.656  0.6226  0.3822 -0.2577
  647TMC3    O1 9586   1.931   2.221  15.384  0.4939 -0.0832  0.1854
  647TMC3    O2 9587   1.445   2.509  15.682  0.5036 -0.4939  0.2595
  648TMC3    C1 9588   1.405   0.367  16.024  0.1818  0.6565 -0.2745
  648TMC3    C2 9589   1.459   0.261  15.962  0.4795 -0.7837  0.1990
  648TMC3    C3 9590   1.434   0.245  15.827  0.0375 -0.0085  0.1787
  648TMC3    C4 9591   1.310   0.455  15.964 -0.2432 -0.2496 -0.6850
  648TMC3    C5 9592   1.282   0.428  15.833  0.5332 -0.5258  0.4861
  648TMC3    C6 9593   1.343   0.329  15.762  0.3888 -0.5074 -0.2115
  648TMC3     C 9594   1.421   0.385  16.166 -0.5324  0.1655 -1.3371
  648TMC3     O 9595   1.388   0.488  16.215  0.3928  0.1464 -0.5314
  648TMC3     H 9596   1.526   0.198  16.019 -0.8720  1.0927  3.8636
  648TMC3    H1 9597   1.252   0.523  16.025 -0.2086 -0.2830 -0.6143
  648TMC3    H2 9598   1.301   0.299  15.667 -0.3812 -3.0411  0.9282
  648TMC3    C7 9599   1.163   0.492  15.774 -0.4950 -0.2754 -0.7506
  648TMC3    C8 9600   1.465   0.110  15.783 -0.6456  0.1697 -0.4103
  648TMC3    O1 9601   1.106   0.434  15.682 -0.1522  0.1961 -0.4818
  648TMC3    O2 9602   1.572   0.065  15.825  0.1943 -0.2935 -0.2433
  649TMC3    C1 9603   0.100   0.994  12.652  0.1814 -0.2178  0.4956
  649TMC3    C2 9604   0.171   0.931  12.550 -0.2755  0.3100  0.2488
  649TMC3    C3 9605   0.275   0.858  12.586  0.4722  0.3540 -0.1650
  649TMC3    C4 9606   0.138   0.976  12.785 -0.2078  0.2646 -0.2560
  649TMC3    C5 9607   0.236   0.890  12.818 -0.1602 -0.6662  0.1586
  649TMC3    C6 9608   0.310   0.831  12.721  0.6556  0.2329 -0.3788
  649TMC3     C 9609   4.702   1.068  12.621  0.7744 -0.0894 -0.6329
  649TMC3     O 9610   4.647   1.117  12.721 -0.3614 -0.0412 -0.0143
  649TMC3     H 9611   0.151   0.960  12.447  1.9587  3.7434  0.7719
  649TMC3    H1 9612   0.083   1.023  12.866 -0.1689 -2.1423  1.1887
  649TMC3    H2 9613   0.405   0.780  12.733 -1.1629 -3.1175  0.0099
  649TMC3    C7 9614   0.212   0.826  12.945  0.1064 -0.6984 -0.1804
  649TMC3    C8 9615   0.377   0.828  12.483  0.4013 -0.2937 -0.1340
  649TMC3    O1 9616   0.143   0.890  13.021 -0.0695  0.2133  0.4554
  649TMC3    O2 9617   0.493   0.844  12.516 -0.1670  0.0907 -0.0690
  650TMC3    C1 9618   2.324   2.506  12.142  0.2002  0.6078  0.3781
  650TMC3    C2 9619   2.298   2.556  12.270 -0.3586  0.6004 -0.3658
  650TMC3    C3 9620   2.173   2.614  12.283  0.2548  0.2122 -0.2128
  650TMC3    C4 9621   2.238   2.535  12.041 -0.6401  0.4195 -1.0629
  650TMC3    C5 9622   2.116   2.589  12.058  0.2559 -0.1112  0.8444
  650TMC3    C6 9623   2.083   2.630  12.183 -0.3144 -0.0047 -0.0246
  650TMC3     C 9624   2.461   2.495  12.089 -0.2777  0.5543  0.5447
  650TMC3     O 9625   2.488   2.493  11.966  0.0950 -0.6275  0.0175
  650TMC3     H 9626   2.369   2.558  12.352  0.4139  0.6692 -1.0320
  650TMC3    H1 9627   2.264   2.523  11.937  3.1383 -2.4323  0.1781
  650TMC3    H2 9628   1.994   2.690  12.200  0.3708  0.8876  0.4462
  650TMC3    C7 9629   2.083   2.694  11.966  1.1443  0.0013  0.3983
  650TMC3    C8 9630   2.157   2.700  12.397 -0.5742  0.6172  0.7201
  650TMC3    O1 9631   2.041   2.663  11.857 -0.0900 -0.1982  0.5753
  650TMC3    O2 9632   2.254   2.724  12.465 -0.5175  0.4074 -0.2051
  651MPD2     C 9633   1.439   4.358  10.545 -0.2363 -0.2091  0.7459
  651MPD2    C1 9634   1.455   4.400  10.674  0.5524 -0.0184 -0.1653
  651MPD2    C2 9635   1.577   4.446  10.714  0.0850 -0.0788 -0.2145
  651MPD2    C3 9636   1.684   4.439  10.624 -0.4372  0.2136 -0.7374
  651MPD2    C4 9637   1.668   4.393  10.494  0.1687 -0.5066 -0.2749
  651MPD2    C5 9638   1.546   4.351  10.461 -0.0259 -0.0020  0.3298
  651MPD2     H 9639   1.601   4.479  10.815 -2.5066  0.0894  0.3361
  651MPD2    H1 9640   1.752   4.411  10.427  1.0034 -0.5673  0.7500
  651MPD2    H2 9641   1.347   4.323  10.499 -1.2614  0.2643  2.4722
  651MPD2    H3 9642   1.528   4.312  10.361 -0.2611 -0.8272  0.6929
  651MPD2     N 9643   1.806   4.498  10.671 -0.6445  0.0105 -0.1160
  651MPD2    H5 9644   1.803   4.517  10.771 -1.8882  0.8450 -0.3121
  651MPD2    N1 9645   1.347   4.421  10.756  0.2871 -0.3207 -0.4426
  651MPD2    H7 9646   1.372   4.464  10.845 -0.7855  1.8383 -1.1705
  652TMC3    C1 9647   2.220   4.718  10.675 -0.3300  0.2050  0.3084
  652TMC3    C2 9648   2.140   4.627  10.623 -0.9995 -0.4655  0.3493
  652TMC3    C3 9649   2.009   4.621  10.666  0.3527  1.1522  0.3985
  652TMC3    C4 9650   2.176   0.088  10.761 -0.0468  0.0242  0.0864
  652TMC3    C5 9651   2.048   0.076  10.809 -0.2642 -0.1019 -0.2423
  652TMC3    C6 9652   1.956   4.709  10.765  0.1676  0.7985 -0.1666
  652TMC3     C 9653   2.362   4.718  10.638 -0.0851  0.2624 -0.5451
  652TMC3     O 9654   2.393   4.665  10.532  0.2876  0.3977 -0.6484
  652TMC3     H 9655   2.169   4.546  10.557 -1.8931 -0.5603  0.0713
  652TMC3    H1 9656   2.242   0.171  10.783  0.4324 -0.3982  0.2355
  652TMC3    H2 9657   1.854   4.708  10.799  0.2182  1.2885 -0.0061
  652TMC3    C7 9658   2.000   0.179  10.894 -1.0463  0.2912  0.6259
  652TMC3    C8 9659   1.917   4.530  10.594  1.2490  0.1654  0.0442
  652TMC3    O1 9660   1.913   0.146  10.975 -0.5059  0.7678 -0.4974
  652TMC3    O2 9661   1.951   4.492  10.484  0.4691  0.1805 -0.0693
  653MPD2     C 9662   0.510   4.681  17.635  0.7310  0.1070 -0.0797
  653MPD2    C1 9663   0.419   0.031  17.566  0.8660 -0.1001 -0.2358
  653MPD2    C2 9664   0.323   4.701  17.493 -0.3297 -0.2405 -0.2614
  653MPD2    C3 9665   0.316   4.563  17.465  0.2179  0.0312 -0.7487
  653MPD2    C4 9666   0.421   4.487  17.516 -0.2588  0.0198  0.0104
  653MPD2    C5 9667   0.515   4.548  17.603 -0.2188  0.2644 -0.7034
  653MPD2     H 9668   0.244   0.039  17.461 -0.3631 -0.1626 -0.0173
  653MPD2    H1 9669   0.445   4.389  17.478  0.3174  0.5389 -0.9655
  653MPD2    H2 9670   0.592   4.725  17.691  1.9778 -0.0091 -1.8351
  653MPD2    H3 9671   0.605   4.501  17.640 -0.3663  0.6410  0.1359
  653MPD2     N 9672   0.197   4.510  17.399  1.1131  0.6619  0.8722
  653MPD2    H5 9673   0.139   4.578  17.350 -1.8538 -0.6541  2.5400
  653MPD2    N1 9674   0.415   0.174  17.588 -0.3022 -0.2075  0.1285
  653MPD2    H7 9675   0.348   0.226  17.532  0.9781  2.3768  1.0136
  654TMC3    C1 9676   0.048   4.342  17.329 -0.4124 -0.0913  0.2710
  654TMC3    C2 9677   4.689   4.438  17.294 -0.4310 -0.2628  0.2009
  654TMC3    C3 9678   4.618   4.422  17.180  0.0614 -0.4045  0.0353
  654TMC3    C4 9679   0.069   4.226  17.257  0.1238 -0.0674 -0.1689
  654TMC3    C5 9680   4.715   4.215  17.147  0.3621 -0.1675 -0.0539
  654TMC3    C6 9681   4.633   4.312  17.099  0.4376 -0.2082 -0.1562
  654TMC3     C 9682   0.171   4.377  17.390  0.2880 -0.2409 -0.7022
  654TMC3     O 9683   0.241   4.284  17.431  0.4578  0.2944  0.1704
  654TMC3     H 9684   4.684   4.528  17.353  0.5363  0.2801 -0.5581
  654TMC3    H1 9685   0.144   4.152  17.282  2.7256  2.5910 -0.1623
  654TMC3    H2 9686   4.568   4.300  17.013  0.7773  0.7532 -0.5500
  654TMC3    C7 9687   0.019   4.107  17.053  0.1807 -0.3675 -0.6321
  654TMC3    C8 9688   4.537   4.535  17.132  0.4751  0.3535 -0.3114
  654TMC3    O1 9689   4.703   4.117  16.937 -0.0374  0.0810  0.5053
  654TMC3    O2 9690   4.515   4.633  17.205  0.0194 -0.6703  0.0364
  655MPD2     C 9691   1.700   0.342  15.646  0.5433 -0.6279 -0.0532
  655MPD2    C1 9692   1.654   0.438  15.558  0.3712  0.1552  0.0338
  655MPD2    C2 9693   1.651   0.394  15.425  0.7841 -0.3766 -0.3126
  655MPD2    C3 9694   1.680   0.263  15.386 -0.3062 -0.1345 -0.5742
  655MPD2    C4 9695   1.725   0.176  15.483  0.0949 -0.4756  0.5053
  655MPD2    C5 9696   1.725   0.213  15.612 -0.3069  0.0670 -0.2729
  655MPD2     H 9697   1.645   0.469  15.346  3.6128 -1.5929 -1.6632
  655MPD2    H1 9698   1.772   0.082  15.456 -0.4477 -0.1523 -1.5425
  655MPD2    H2 9699   1.695   0.360  15.753 -0.9022 -0.1807 -0.2018
  655MPD2    H3 9700   1.750   0.144  15.692  1.0500  1.5267  0.5489
  655MPD2     N 9701   1.676   0.218  15.247  0.0027  1.3280 -0.6337
  655MPD2    H5 9702   1.725   0.134  15.219  2.9427  2.7870  0.1102
  655MPD2    N1 9703   1.603   0.567  15.587 -0.1495  0.1462  0.0403
  655MPD2    H7 9704   1.588   0.626  15.506  0.2137  0.3613  0.1316
  656TMC3    C1 9705   1.550   0.763  15.715 -1.2443  0.5334 -0.0857
  656TMC3    C2 9706   1.515   0.815  15.839 -0.2146 -0.5045 -0.7792
  656TMC3    C3 9707   1.419   0.907  15.850  0.2504 -0.2095  0.5365
  656TMC3    C4 9708   1.493   0.820  15.604  0.3561  0.4723  0.2419
  656TMC3    C5 9709   1.392   0.917  15.622  0.4534 -0.5907 -0.3606
  656TMC3    C6 9710   1.358   0.964  15.745  0.2032  0.1961 -0.0215
  656TMC3     C 9711   1.594   0.624  15.710 -0.5678  0.3898 -0.4680
  656TMC3     O 9712   1.595   0.558  15.814  0.3118  0.4072 -0.1678
  656TMC3     H 9713   1.548   0.767  15.930 -2.9645  2.7192  1.9342
  656TMC3    H1 9714   1.526   0.808  15.501  0.0929  0.6177  0.1418
  656TMC3    H2 9715   1.279   1.037  15.760 -1.3767 -1.0710 -2.0614
  656TMC3    C7 9716   1.295   0.946  15.514  0.3130 -0.0168 -0.3067
  656TMC3    C8 9717   1.335   0.863  15.952 -0.1570  0.4586 -0.5525
  656TMC3    O1 9718   1.314   0.906  15.401  0.9066 -0.2387 -0.3769
  656TMC3    O2 9719   1.313   0.745  15.963  0.0251 -0.3380  0.1985
  657TMC3    C1 9720   0.571   4.495  14.618 -0.6576  0.0025 -0.3521
  657TMC3    C2 9721   0.576   4.557  14.740 -0.0102  0.1462 -0.0645
  657TMC3    C3 9722   0.519   4.676  14.756  0.0513  0.2215  0.0663
  657TMC3    C4 9723   0.499   4.557  14.520  0.6069 -1.0997  0.3955
  657TMC3    C5 9724   0.458   4.689  14.538 -0.0454 -0.6367  0.3577
  657TMC3    C6 9725   0.463   0.022  14.653 -0.2757  0.2119 -0.7044
  657TMC3     C 9726   0.649   4.381  14.587  0.6867 -0.4674  0.1105
  657TMC3     O 9727   0.634   4.328  14.479  0.6235  0.1737 -0.4356
  657TMC3     H 9728   0.624   4.509  14.825  1.5015  2.9782  0.6913
  657TMC3    H1 9729   0.481   4.508  14.425 -3.0801  0.4271  0.3147
  657TMC3    H2 9730   0.414   0.118  14.667 -0.7459 -0.3168  1.3329
  657TMC3    C7 9731   0.367   0.007  14.432  0.2545  0.1627 -0.6876
  657TMC3    C8 9732   0.535   0.032  14.881 -0.8163  0.6787  0.4942
  657TMC3    O1 9733   0.340   4.655  14.343 -0.0631  0.1121  0.4760
  657TMC3    O2 9734   0.527   0.147  14.883 -0.3644  0.4429 -0.0666
  658MPD2     C 9735   1.913   4.606  14.522 -0.1802  0.1540 -0.4226
  658MPD2    C1 9736   1.866   4.723  14.578  0.5094 -0.1015 -0.3209
  658MPD2    C2 9737   1.869   0.104  14.494  0.1267 -0.2065  0.6429
  658MPD2    C3 9738   1.932   0.099  14.369 -0.0331 -0.2950 -0.4475
  658MPD2    C4 9739   1.965   4.701  14.310  0.9910  1.0877 -0.2765
  658MPD2    C5 9740   1.951   4.596  14.394  0.3614 -0.0077 -0.3062
  658MPD2     H 9741   1.839   0.204  14.522 -0.1664 -0.4777  1.3107
  658MPD2    H1 9742   2.011   4.695  14.212  0.8949  1.1089 -0.3231
  658MPD2    H2 9743   1.914   4.517  14.584 -0.0004  1.2252  1.1099
  658MPD2    H3 9744   1.993   4.503  14.358  0.0455 -0.9495  1.7143
  658MPD2     N 9745   1.942   0.215  14.295 -0.7149 -0.2032 -0.6838
  658MPD2    H5 9746   1.886   0.291  14.332  0.1057 -0.7081  1.6058
  658MPD2    N1 9747   1.816   4.721  14.710 -0.3286 -0.4126  0.5712
  658MPD2    H7 9748   1.828   4.630  14.753 -0.7544 -1.0493 -0.6540
  659TMC3    C1 9749   1.668   0.060  14.877 -0.5338 -0.3598 -1.0098
  659TMC3    C2 9750   1.687   0.138  14.986 -0.5848  0.6650 -0.3656
  659TMC3    C3 9751   1.568   0.196  15.045  0.5034  0.5412  0.2753
  659TMC3    C4 9752   1.539   0.062  14.825  0.9697 -0.1642 -0.1735
  659TMC3    C5 9753   1.431   0.125  14.880  0.2935 -0.0252  0.4620
  659TMC3    C6 9754   1.440   0.203  14.990 -0.5418  0.0511  0.5891
  659TMC3     C 9755   1.763   0.101  14.781  0.4005 -0.3701 -0.5955
  659TMC3     O 9756   1.762   0.222  14.762  0.5469 -0.1040  0.2943
  659TMC3     H 9757   1.785   0.163  15.025 -0.0308 -3.6553  0.9664
  659TMC3    H1 9758   1.529   0.037  14.720  2.9224 -0.4818 -0.2807
  659TMC3    H2 9759   1.353   0.242  15.041  1.7864  3.1848  2.1535
  659TMC3    C7 9760   1.305   0.129  14.811 -0.2802  0.5172 -0.5279
  659TMC3    C8 9761   1.597   0.282  15.158  0.9760 -0.7388  0.2868
  659TMC3    O1 9762   1.221   0.209  14.855 -0.0640 -0.1756  0.0275
  659TMC3    O2 9763   1.513   0.369  15.181  0.4607 -0.1442  0.1866
  660MPD2     C 9764   4.528   3.958  12.967 -0.0407 -0.3752 -0.7547
  660MPD2    C1 9765   4.399   3.944  12.929  0.5605  0.3154 -0.1997
  660MPD2    C2 9766   4.320   3.841  12.979  0.0246 -0.6447 -0.0134
  660MPD2    C3 9767   4.369   3.751  13.070  0.1600 -0.4035 -0.1183
  660MPD2    C4 9768   4.499   3.769  13.111  0.3059 -0.5439  0.6260
  660MPD2    C5 9769   4.579   3.873  13.061 -0.1497 -0.0445 -0.2910
  660MPD2     H 9770   4.218   3.827  12.946  0.0029 -2.4014  0.8024
  660MPD2    H1 9771   4.538   3.712  13.195  0.8347  1.3591  1.6818
  660MPD2    H2 9772   4.605   4.028  12.935 -0.3431 -0.6597 -2.0792
  660MPD2    H3 9773   4.673   3.883  13.114 -1.9168  3.2404  2.2596
  660MPD2     N 9774   4.308   3.636  13.112  0.1456  0.1182 -0.1959
  660MPD2    H5 9775   4.374   3.580  13.164  2.0490  0.3639 -2.3503
  660MPD2    N1 9776   4.348   4.039  12.836  0.2280 -0.0365 -0.2564
  660MPD2    H7 9777   4.418   4.101  12.798 -0.2877  1.0574  0.5965
  661TMC3    C1 9778   4.187   4.140  12.681 -0.2536 -0.0220  0.0637
  661TMC3    C2 9779   4.290   4.178  12.590  0.5213  0.6666  0.2104
  661TMC3    C3 9780   4.250   4.204  12.465 -0.2173 -0.5144  0.2486
  661TMC3    C4 9781   4.056   4.148  12.642  0.2654 -1.4297 -0.7433
  661TMC3    C5 9782   4.022   4.186  12.518  0.5695  0.1675  0.0399
  661TMC3    C6 9783   4.119   4.208  12.424 -1.3385  0.3179  0.3277
  661TMC3     C 9784   4.211   4.056  12.806 -0.1847  0.6102  0.0385
  661TMC3     O 9785   4.108   3.998  12.847  0.1630 -0.6621  0.4703
  661TMC3     H 9786   4.395   4.171  12.616  0.4663 -0.0989  0.2134
  661TMC3    H1 9787   3.978   4.112  12.707  0.7981 -0.9935  0.1449
  661TMC3    H2 9788   4.089   4.227  12.322  1.3275  1.2857 -0.2712
  661TMC3    C7 9789   3.889   4.161  12.481  0.5035 -0.3132 -0.2866
  661TMC3    C8 9790   4.347   4.187  12.365 -0.5595 -0.0886 -0.2845
  661TMC3    O1 9791   3.803   4.173  12.569  0.4106  0.4028  0.3162
  661TMC3    O2 9792   4.439   4.116  12.397 -0.3435  0.2681  0.8560
  662MPD2     C 9793   4.365   3.610  17.467  0.2702 -0.1696 -0.0989
  662MPD2    C1 9794   4.348   3.492  17.540 -0.1739  0.2014  0.0796
  662MPD2    C2 9795   4.318   3.509  17.672  0.5200  0.8261  0.3785
  662MPD2    C3 9796   4.311   3.631   0.023  0.6175  0.0708  0.3394
  662MPD2    C4 9797   4.323   3.742  17.652 -0.1479  0.7143 -0.0580
  662MPD2    C5 9798   4.348   3.728  17.523 -0.3767  0.1076 -0.0795
  662MPD2     H 9799   4.302   3.418   0.016 -1.6577  1.4781  0.7907
  662MPD2    H1 9800   4.322   3.846  17.685  1.2599  0.6278  0.2402
  662MPD2    H2 9801   4.385   3.605  17.360  2.0654  1.2728  0.1855
  662MPD2    H3 9802   4.359   3.813  17.457 -0.8428 -2.0055 -2.8723
  662MPD2     N 9803   4.274   3.655   0.159 -0.3621  0.6939 -0.1646
  662MPD2    H5 9804   4.291   3.749   0.191  0.1808  0.4962  0.1334
  662MPD2    N1 9805   4.346   3.360  17.493 -0.1303  0.5652 -0.5850
  662MPD2    H7 9806   4.336   3.282  17.558 -2.0968  0.3271 -1.1699
  663TMC3    C1 9807   4.358   3.174  17.336  0.2794 -0.3580  0.3183
  663TMC3    C2 9808   4.327   3.087  17.437 -0.1419 -0.1939  0.0516
  663TMC3    C3 9809   4.272   2.961  17.417  0.0598 -0.6353 -0.0117
  663TMC3    C4 9810   4.345   3.128  17.207  0.4057 -0.2842 -0.8078
  663TMC3    C5 9811   4.282   3.004  17.193  0.4563 -0.3189 -0.0983
  663TMC3    C6 9812   4.257   2.908  17.292  0.2273  0.3097  0.3251
  663TMC3     C 9813   4.379   3.318  17.362 -0.1121  0.1686 -0.4904
  663TMC3     O 9814   4.397   3.383  17.262  0.6840  0.3732  0.3949
  663TMC3     H 9815   4.378   3.098  17.532  0.2360 -1.6868  0.0175
  663TMC3    H1 9816   4.375   3.190  17.123  2.4905  2.8600  2.2342
  663TMC3    H2 9817   4.180   2.832  17.278  1.4829 -0.7212 -0.9273
  663TMC3    C7 9818   4.259   2.951  17.059  0.3236 -0.2205 -0.1599
  663TMC3    C8 9819   4.279   2.854  17.515  0.2363 -0.0459  0.7827
  663TMC3    O1 9820   4.250   3.036  16.973 -0.0316 -0.1630  0.2212
  663TMC3    O2 9821   4.302   2.743  17.470  0.1399 -0.0587 -0.4814
  664MPD2     C 9822   3.220   1.740  17.713  0.1658  0.4868  0.0691
  664MPD2    C1 9823   3.128   1.836   0.012 -0.4728  0.2803 -0.6168
  664MPD2    C2 9824   3.105   1.898   0.130 -0.1263 -0.6368  0.0898
  664MPD2    C3 9825   3.151   1.840   0.251 -0.7730  0.1251 -0.0188
  664MPD2    C4 9826   3.241   1.741   0.237  0.7948  0.9722 -0.0166
  664MPD2    C5 9827   3.277   1.690   0.115  0.2314 -0.5363 -0.6121
  664MPD2     H 9828   3.038   1.982   0.139 -1.5619 -1.7045 -0.5295
  664MPD2    H1 9829   3.283   1.710   0.332  0.7970 -0.0103 -0.3391
  664MPD2    H2 9830   3.239   1.680  17.624  2.1643  1.0035  0.1412
  664MPD2    H3 9831   3.353   1.613   0.113  0.7838  0.0079 -0.7128
  664MPD2     N 9832   3.107   1.887   0.375  0.0909  0.1440  0.7455
  664MPD2    H5 9833   3.029   1.953   0.369 -1.9327 -2.3393 -0.3360
  664MPD2    N1 9834   3.061   1.894  17.618 -0.1048  0.5040  1.2756
  664MPD2    H7 9835   2.999   1.969  17.646 -1.4042 -0.5533  1.2071
  665TMC3    C1 9836   3.083   1.937   0.598  0.0797 -0.0702  0.0450
  665TMC3    C2 9837   2.949   1.924   0.577 -0.4080 -0.0003  0.0702
  665TMC3    C3 9838   2.876   2.021   0.647 -0.9255 -0.5463  0.0825
  665TMC3    C4 9839   3.145   2.029   0.670 -0.5449 -0.2700  0.4035
  665TMC3    C5 9840   3.071   2.116   0.749 -0.8236 -0.1248  0.0624
  665TMC3    C6 9841   2.929   2.108   0.737  0.2249  0.1739  0.4178
  665TMC3     C 9842   3.165   1.876   0.497 -0.1865  0.1043  0.0033
  665TMC3     O 9843   3.277   1.843   0.527 -0.4948 -0.1108  0.2045
  665TMC3     H 9844   2.910   1.846   0.512 -1.3453  0.7148 -0.2271
  665TMC3    H1 9845   3.250   2.006   0.685 -0.6564 -0.4229  0.9785
  665TMC3    H2 9846   2.858   2.169   0.793 -0.5301 -0.7096  0.4237
  665TMC3    C7 9847   3.136   2.201   0.839 -0.1252  0.2383 -0.3959
  665TMC3    C8 9848   2.734   2.022   0.634 -0.3063 -0.6365 -0.1772
  665TMC3    O1 9849   3.257   2.195   0.842  0.3563 -0.0039 -0.2420
  665TMC3    O2 9850   2.677   2.129   0.636 -0.0813  0.2743  0.5949
  666TMC3    C1 9851   2.077   1.213   9.988  0.4016  0.9111 -0.0438
  666TMC3    C2 9852   2.164   1.118  10.044  0.8165  0.4856 -0.4717
  666TMC3    C3 9853   2.297   1.157  10.051 -0.5153 -0.1567  1.0818
  666TMC3    C4 9854   2.112   1.344   9.965  0.2129 -0.2515 -0.3315
  666TMC3    C5 9855   2.241   1.383   9.985 -0.8731 -0.2294  0.6907
  666TMC3    C6 9856   2.334   1.287  10.021 -0.4814  1.3316 -0.7438
  666TMC3     C 9857   1.943   1.201  10.042  0.3545  0.7209  0.1465
  666TMC3     O 9858   1.868   1.289  10.008 -0.2077  0.3905 -0.2746
  666TMC3     H 9859   2.135   1.017  10.069  1.1009  0.6588  0.5791
  666TMC3    H1 9860   2.039   1.417   9.931 -0.4641  0.0040  1.6800
  666TMC3    H2 9861   2.432   1.316  10.058 -1.1899 -0.2272  2.3389
  666TMC3    C7 9862   2.266   1.531   9.988  0.0843  0.2688 -0.4210
  666TMC3    C8 9863   2.378   1.069  10.135 -0.7828  0.4455 -0.2110
  666TMC3    O1 9864   2.179   1.606   9.941  0.0469 -0.0163 -0.1992
  666TMC3    O2 9865   2.323   0.991  10.214 -0.2707 -0.5512  0.1736
  667MPD2     C 9866   3.096   1.380  14.745  0.7551 -0.7373 -0.2615
  667MPD2    C1 9867   2.997   1.435  14.822 -0.2039 -0.0616 -0.0779
  667MPD2    C2 9868   2.864   1.430  14.785  0.0754  0.0698 -0.0875
  667MPD2    C3 9869   2.821   1.358  14.677  0.4160  0.4925 -0.7941
  667MPD2    C4 9870   2.914   1.287  14.609  0.0209 -0.5073  0.8773
  667MPD2    C5 9871   3.047   1.295  14.647 -0.2546  0.0634 -0.0677
  667MPD2     H 9872   2.789   1.478  14.846  1.5844  2.5793 -0.2387
  667MPD2    H1 9873   2.897   1.221  14.525 -1.4461  0.2256  0.6061
  667MPD2    H2 9874   3.202   1.400  14.760  0.1826  0.6429  2.0118
  667MPD2    H3 9875   3.116   1.250  14.576  0.2434  0.6716  0.0306
  667MPD2     N 9876   2.688   1.343  14.638 -0.4015  0.1205 -0.1779
  667MPD2    H5 9877   2.669   1.282  14.559 -3.3892 -1.0596  1.4247
  667MPD2    N1 9878   3.034   1.517  14.924  0.1278 -0.0762 -0.0693
  667MPD2    H7 9879   2.957   1.568  14.965 -0.1700 -0.9366  0.4511
  668TMC3    C1 9880   3.164   1.631  15.083  0.4206 -0.3804  0.6375
  668TMC3    C2 9881   3.293   1.676  15.116  0.0268  0.5457 -0.7403
  668TMC3    C3 9882   3.321   1.718  15.247  0.6246 -0.4038  0.3066
  668TMC3    C4 9883   3.064   1.626  15.174  0.6428  0.3606  0.5776
  668TMC3    C5 9884   3.104   1.658  15.304  0.5245  0.2782  0.5217
  668TMC3    C6 9885   3.224   1.692  15.342 -0.4688  0.3778 -0.5518
  668TMC3     C 9886   3.159   1.554  14.964  0.7259  0.3429  0.5730
  668TMC3     O 9887   3.269   1.526  14.914 -0.3729 -0.1324 -0.3433
  668TMC3     H 9888   3.375   1.681  15.046 -0.8826 -0.0348 -1.8541
  668TMC3    H1 9889   2.968   1.582  15.151  1.6425 -0.5566 -1.8478
  668TMC3    H2 9890   3.243   1.710  15.447  2.2532 -1.3301 -0.7449
  668TMC3    C7 9891   2.996   1.661  15.406 -0.3118 -0.0604  0.3168
  668TMC3    C8 9892   3.445   1.768  15.296 -0.5887 -0.0170 -0.6819
  668TMC3    O1 9893   3.027   1.739  15.502  0.6517 -0.5141  0.4686
  668TMC3    O2 9894   3.451   1.779  15.416  0.0450 -0.2370 -0.5941
  669TMC3    C1 9895   1.494   1.720  14.501  0.2584 -0.2556 -0.0403
  669TMC3    C2 9896   1.393   1.706  14.407 -0.2726 -0.1921  0.3884
  669TMC3    C3 9897   1.393   1.780  14.295  0.4654  0.8012  0.0996
  669TMC3    C4 9898   1.595   1.812  14.478 -0.5823  0.5533 -0.5172
  669TMC3    C5 9899   1.586   1.880  14.361 -0.6695 -0.6941 -0.0639
  669TMC3    C6 9900   1.487   1.868  14.268 -0.0086 -0.8566 -0.8880
  669TMC3     C 9901   1.480   1.644  14.623 -0.3174  0.1446  0.0434
  669TMC3     O 9902   1.371   1.592  14.635  0.2068  0.1974  0.1121
  669TMC3     H 9903   1.315   1.633  14.424 -1.7629  0.7319 -2.5647
  669TMC3    H1 9904   1.672   1.844  14.548 -1.2287 -1.3356  1.0525
  669TMC3    H2 9905   1.479   1.907  14.167  0.1008 -1.1076 -0.9933
  669TMC3    C7 9906   1.682   1.992  14.344 -0.3859  0.0462 -0.4960
  669TMC3    C8 9907   1.320   1.719  14.183  0.0528 -0.3249  0.4751
  669TMC3    O1 9908   1.775   2.001  14.423 -0.8347  0.1811 -0.3593
  669TMC3    O2 9909   1.362   1.613  14.152 -0.3555  0.4492  0.0851
  670MPD2     C 9910   4.313   4.223  13.698 -0.0568 -0.1031 -0.2553
  670MPD2    C1 9911   4.428   4.250  13.764  0.6048  0.7164  0.6215
  670MPD2    C2 9912   4.428   4.236  13.903  0.2913 -1.0076 -0.2728
  670MPD2    C3 9913   4.322   4.187  13.974 -0.9528  0.5609 -0.1834
  670MPD2    C4 9914   4.205   4.168  13.906 -0.0639 -0.3769  0.0482
  670MPD2    C5 9915   4.211   4.184  13.775  0.5520  0.8006  0.9481
  670MPD2     H 9916   4.522   4.271  13.945 -0.4709 -0.8986  1.3520
  670MPD2    H1 9917   4.108   4.157  13.954  0.0600  0.1696  0.4207
  670MPD2    H2 9918   4.300   4.226  13.590  1.6953 -0.2617 -0.4701
  670MPD2    H3 9919   4.128   4.157  13.710  0.0249  1.9389  1.1456
  670MPD2     N 9920   4.334   4.159  14.113 -0.2208  0.3529 -0.5124
  670MPD2    H5 9921   4.423   4.186  14.152 -1.0865  0.3570  1.4289
  670MPD2    N1 9922   4.544   4.288  13.696 -0.2907  0.1648  0.5881
  670MPD2    H7 9923   4.625   4.298  13.756 -0.0791 -0.5256  0.4166
  671TMC3    C1 9924   4.275   4.097  14.329 -0.6234 -0.2165  0.6084
  671TMC3    C2 9925   4.406   4.118  14.362 -0.8987  0.2958  0.1902
  671TMC3    C3 9926   4.445   4.058  14.467 -0.2182  0.4388  0.3419
  671TMC3    C4 9927   4.194   4.013  14.400 -0.1457  0.6915  0.1395
  671TMC3    C5 9928   4.245   3.940  14.497 -0.6154  0.6696  0.2670
  671TMC3    C6 9929   4.367   3.969  14.536  0.4328  0.2748 -0.0356
  671TMC3     C 9930   4.241   4.099  14.195 -0.5263 -1.4433 -0.2655
  671TMC3     O 9931   4.152   4.025  14.162 -0.6323 -0.5760  0.8349
  671TMC3     H 9932   4.467   4.198  14.321  0.8410 -1.9199 -1.5813
  671TMC3    H1 9933   4.092   3.992  14.373 -0.0010  0.6640 -0.3745
  671TMC3    H2 9934   4.411   3.902  14.609  1.0530  2.1473  1.3069
  671TMC3    C7 9935   4.207   3.797  14.512 -0.1251 -0.4147 -0.2567
  671TMC3    C8 9936   4.588   4.044  14.473  0.4111 -0.1722  0.1944
  671TMC3    O1 9937   4.224   3.736  14.616  0.3319 -0.2852  0.9678
  671TMC3    O2 9938   4.640   4.055  14.365 -0.2230 -0.2173  0.0241
  672MPD2     C 9939   4.686   4.025   0.996 -0.4754 -0.1036  0.0785
  672MPD2    C1 9940   0.071   4.017   0.925  0.0624 -0.3774 -0.4020
  672MPD2    C2 9941   0.179   4.095   0.958  0.5497  0.2591  0.3015
  672MPD2    C3 9942   0.176   4.181   1.068  0.3931  0.1054  0.6047
  672MPD2    C4 9943   0.061   4.194   1.133 -0.1864  0.6933  0.0881
  672MPD2    C5 9944   4.679   4.111   1.100 -0.4885  0.2660 -0.1144
  672MPD2     H 9945   0.264   4.081   0.892  0.0854 -2.6716  0.3111
  672MPD2    H1 9946   0.049   4.259   1.219 -2.9333 -1.0408  1.0410
  672MPD2    H2 9947   4.589   3.981   0.974 -1.0531  1.7591 -1.1041
  672MPD2    H3 9948   4.587   4.111   1.158  1.2682  1.5949  2.7142
  672MPD2     N 9949   0.289   4.260   1.101 -0.0295 -0.3886  0.6142
  672MPD2    H5 9950   0.278   4.314   1.187  2.2556 -0.3604  0.8836
  672MPD2    N1 9951   0.083   3.924   0.817  0.9158 -0.2297  0.0124
  672MPD2    H7 9952   0.173   3.921   0.770  2.0099  0.8097  2.0576
  673TMC3    C1 9953   0.059   3.743   0.671 -0.5750 -0.5073 -0.0050
  673TMC3    C2 9954   0.025   3.613   0.671  0.3157  0.5098  0.3271
  673TMC3    C3 9955   0.084   3.545   0.568 -0.4512  0.0035  0.0387
  673TMC3    C4 9956   0.118   3.812   0.573 -0.5629  0.2234 -0.2480
  673TMC3    C5 9957   0.167   3.738   0.468  0.3648 -0.0458 -0.1978
  673TMC3    C6 9958   0.158   3.602   0.470 -0.3127 -0.2831  0.2225
  673TMC3     C 9959   0.001   3.826   0.778 -0.3192  0.8827  0.1368
  673TMC3     O 9960   4.638   3.779   0.845 -0.2662 -0.9658  0.1399
  673TMC3     H 9961   4.719   3.560   0.759  1.3227  0.9339  0.9711
  673TMC3    H1 9962   0.135   3.919   0.577 -1.2543  0.2834  1.4898
  673TMC3    H2 9963   0.206   3.548   0.390 -2.9610 -1.4654 -0.5851
  673TMC3    C7 9964   0.205   3.801   0.345 -0.3056  0.5751 -0.1022
  673TMC3    C8 9965   0.148   3.424   0.629 -0.8675 -0.2450 -0.3933
  673TMC3    O1 9966   0.238   3.725   0.251  0.4261 -0.8174  0.3837
  673TMC3    O2 9967   0.077   3.358   0.703  0.2469 -0.4010 -0.1879
  674MPD2     C 9968   4.692   4.376  17.707  0.3948  0.1078  0.2159
  674MPD2    C1 9969   4.659   4.282   0.089  0.2777 -0.4339  0.3309
  674MPD2    C2 9970   4.620   4.311   0.216 -0.3204 -0.2866  0.0889
  674MPD2    C3 9971   4.629   4.441   0.263  0.5739 -0.4686  0.1748
  674MPD2    C4 9972   4.669   4.536   0.174  0.2565  0.6107 -0.1565
  674MPD2    C5 9973   4.695   4.503   0.044 -0.0425  0.0357  0.4280
  674MPD2     H 9974   4.570   4.240   0.281  1.4219 -0.4643  1.2298
  674MPD2    H1 9975   4.670   4.643   0.191 -1.1090  0.6212 -0.1013
  674MPD2    H2 9976   4.721   4.351  17.606 -0.5782  0.9364 -0.2521
  674MPD2    H3 9977   4.718   4.590  17.697  1.0850 -1.3146 -1.1000
  674MPD2     N 9978   4.590   4.471   0.394  0.6785  1.0010 -0.0860
  674MPD2    H5 9979   4.577   4.389   0.452  1.8849  1.6310  1.0768
  674MPD2    N1 9980   4.667   4.149   0.040  0.0026  0.0458  0.8585
  674MPD2    H7 9981   4.685   4.137  17.655 -0.9773  1.4653  0.5061
  675TMC3    C1 9982   4.694   3.919   0.034  0.5220  0.0012  0.5824
  675TMC3    C2 9983   4.644   3.791   0.065 -0.8038 -0.2011 -0.6965
  675TMC3    C3 9984   4.700   3.686  17.710 -0.3405  0.3706 -0.2849
  675TMC3    C4 9985   0.082   3.935  17.673  0.6145 -0.4498 -0.3314
  675TMC3    C5 9986   0.126   3.825  17.608 -0.9190 -0.3853  0.3436
  675TMC3    C6 9987   0.068   3.702  17.614  0.1863  0.4629 -0.0477
  675TMC3     C 9988   4.650   4.032   0.111  0.5645  0.8158  0.1344
  675TMC3     O 9989   4.618   4.003   0.226 -0.7598  0.0208  0.3817
  675TMC3     H 9990   4.553   3.776   0.121  1.1388  0.7545  2.7610
  675TMC3    H1 9991   0.126   4.028  17.637  2.3585 -0.9413  0.5765
  675TMC3    H2 9992   0.111   3.614  17.569 -0.0886  0.7258 -0.8333
  675TMC3    C7 9993   0.241   3.830  17.514  0.0732 -0.0441 -0.3596
  675TMC3    C8 9994   4.679   3.552   0.050 -0.0344 -0.8808 -0.1463
  675TMC3    O1 9995   0.246   3.932  17.445 -0.5891 -0.2314  0.5506
  675TMC3    O2 9996   4.687   3.459  17.685  0.1958  0.6934  0.7394
  676MPD2     C 9997   3.014   2.524  10.916 -0.5358 -0.0775 -0.8627
  676MPD2    C1 9998   2.902   2.489  10.982  0.0118  0.2415 -0.7393
  676MPD2    C2 9999   2.859   2.360  10.975  0.1927  0.1063  0.2349
  676MPD2    C310000   2.922   2.272  10.894  0.6386 -0.1593  0.0240
  676MPD2    C410001   3.034   2.305  10.836 -0.0825  0.5175 -0.0154
  676MPD2    C510002   3.084   2.432  10.848  0.1358 -0.2819  0.3464
  676MPD2     H10003   2.767   2.336  11.027  0.6184  0.4949  1.1650
  676MPD2    H110004   3.082   2.228  10.777  0.1988  0.2286  0.5939
  676MPD2    H210005   3.046   2.626  10.934 -2.4976  0.2451  0.8044
  676MPD2    H310006   3.183   2.461  10.815  0.7824 -1.9468  0.8334
  676MPD2     N10007   2.885   2.136  10.887  0.0475 -0.1299  0.0238
  676MPD2    H510008   2.938   2.078  10.822  3.2041 -0.0798  2.6015
  676MPD2    N110009   2.821   2.565  11.069  0.5585  0.5067  0.0979
  676MPD2    H710010   2.745   2.506  11.101  1.3775 -0.3449  0.4665
  677TMC3    C110011   2.719   2.719  11.206 -0.0712 -0.0683  0.1185
  677TMC3    C210012   2.601   2.657  11.172  0.0079  0.7266 -0.3190
  677TMC3    C310013   2.517   2.619  11.266  0.2652  0.0039  0.9126
  677TMC3    C410014   2.745   2.766  11.327  0.1445  0.1620 -0.2513
  677TMC3    C510015   2.647   2.741  11.418  0.4079 -0.5862 -0.3028
  677TMC3    C610016   2.538   2.666  11.395  0.0623  0.6734 -0.2252
  677TMC3     C10017   2.838   2.687  11.128  0.5716 -0.5455  0.0402
  677TMC3     O10018   2.936   2.763  11.141 -0.0207  0.4016 -0.3201
  677TMC3     H10019   2.583   2.639  11.067 -0.7402 -0.1934 -0.0236
  677TMC3    H110020   2.846   2.795  11.355  0.7743 -0.5189 -1.8174
  677TMC3    H210021   2.457   2.657  11.466  0.9945 -0.1395  0.7342
  677TMC3    C710022   2.674   2.749  11.565 -0.2317 -0.2526 -0.4261
  677TMC3    C810023   2.500   2.476  11.259  0.5777 -0.0333  0.5519
  677TMC3    O110024   2.602   2.691  11.644  0.1455 -0.1442  0.5803
  677TMC3    O210025   2.553   2.422  11.161  0.0280 -0.2563  0.0183
  678MPD2     C10026   3.818   3.253   1.951 -0.0365  0.6022  0.1448
  678MPD2    C110027   3.843   3.202   1.822  0.5209  0.6422  0.6098
  678MPD2    C210028   3.738   3.189   1.735 -0.6193  0.5475  0.0279
  678MPD2    C310029   3.612   3.222   1.770 -0.7474 -0.5411 -0.8049
  678MPD2    C410030   3.585   3.276   1.896 -0.0198  0.8382  0.5226
  678MPD2    C510031   3.687   3.287   1.980  0.2859 -0.4058 -0.8444
  678MPD2     H10032   3.767   3.150   1.638 -2.2676 -1.2948  0.2842
  678MPD2    H110033   3.485   3.303   1.927 -0.4668  0.3137 -0.4446
  678MPD2    H210034   3.895   3.290   2.018  1.3342 -1.1159 -0.5171
  678MPD2    H310035   3.665   3.330   2.077  1.9693 -1.8109  0.1561
  678MPD2     N10036   3.517   3.198   1.665  0.1762 -0.1856  0.2034
  678MPD2    H510037   3.551   3.156   1.580  1.3922  1.1021  0.0573
  678MPD2    N110038   3.970   3.180   1.766 -0.4219  0.3674  0.0314
  678MPD2    H710039   3.969   3.146   1.670  0.0918  0.2872  0.0520
  679TMC3    C110040   4.416   3.024   1.770 -0.1285 -0.2913  0.3928
  679TMC3    C210041   4.314   3.086   1.832  0.0539 -0.2445  0.0188
  679TMC3    C310042   4.200   3.118   1.760  0.1125 -0.3117 -0.1929
  679TMC3    C410043   4.407   2.994   1.635 -0.0711 -0.2366  0.2067
  679TMC3    C510044   4.302   3.038   1.561  0.4801 -0.0663  0.3045
  679TMC3    C610045   4.193   3.100   1.622  0.2279 -0.0562  0.0351
  679TMC3     C10046   4.530   2.963   1.846  0.3843 -0.0586 -0.0757
  679TMC3     O10047   4.595   2.880   1.787  0.4462 -0.2325  0.0956
  679TMC3     H10048   4.306   3.087   1.940  1.9898 -0.5590  0.1698
  679TMC3    H110049   4.492   2.949   1.586  0.5151  1.5598 -0.4334
  679TMC3    H210050   4.111   3.132   1.559 -0.9566 -3.3738 -0.0978
  679TMC3    C710051   4.281   2.997   1.421 -1.0396 -0.7433 -0.1910
  679TMC3    C810052   4.091   3.188   1.835 -0.0475 -0.5755  0.3097
  679TMC3    O110053   4.177   3.035   1.366 -0.4385 -0.3781 -0.2200
  679TMC3    O210054   4.108   3.225   1.948  0.6732 -0.1338 -0.1012
  680MPD2     C10055   0.585   1.273  13.685 -0.8379  0.0718  0.0728
  680MPD2    C110056   0.454   1.269  13.735 -0.5157 -0.3630 -0.1820
  680MPD2    C210057   0.400   1.394  13.767  0.7124  0.0096 -0.9781
  680MPD2    C310058   0.470   1.515  13.758  0.8043  1.3093  0.0176
  680MPD2    C410059   0.601   1.509  13.708 -0.1366 -0.2955  0.8308
  680MPD2    C510060   0.660   1.388  13.679  0.2808 -0.5396 -0.2670
  680MPD2     H10061   0.295   1.399  13.792  0.3224 -2.4298 -2.1749
  680MPD2    H110062   0.662   1.598  13.703 -1.0536  0.2456 -0.7569
  680MPD2    H210063   0.643   1.183  13.667 -0.7944  0.1126  0.0084
  680MPD2    H310064   0.764   1.388  13.650  1.0870 -0.1081  2.6650
  680MPD2     N10065   0.417   1.648  13.781 -0.2085  0.1317  0.4221
  680MPD2    H510066   0.475   1.728  13.756 -1.0858  0.5996 -0.1342
  680MPD2    N110067   0.370   1.158  13.744  0.1079 -0.4137  0.7094
  680MPD2    H710068   0.274   1.174  13.775 -0.4865 -0.3901 -1.1441
  681TMC3    C110069   0.299   0.932  13.719  0.6080 -0.5759  0.6826
  681TMC3    C210070   0.201   0.940  13.819  0.1450  0.2017 -0.6781
  681TMC3    C310071   0.107   0.836  13.819 -0.2468  0.0042  0.8639
  681TMC3    C410072   0.311   0.831  13.631  0.2342 -0.4472  0.7030
  681TMC3    C510073   0.218   0.729  13.648 -0.3845 -0.5635  0.0522
  681TMC3    C610074   0.116   0.730  13.734 -0.3209  0.3721  0.6400
  681TMC3     C10075   0.405   1.035  13.693  0.4457  0.3616  0.2610
  681TMC3     O10076   0.505   1.000  13.636 -0.0953 -0.5255 -0.2483
  681TMC3     H10077   0.204   1.028  13.882 -2.2206 -0.9660  1.1120
  681TMC3    H110078   0.390   0.821  13.558 -0.5850  2.6927 -0.5922
  681TMC3    H210079   0.041   0.653  13.724 -0.2103  0.1539  1.4364
  681TMC3    C710080   0.228   0.628  13.551 -0.2783  0.0149 -0.1626
  681TMC3    C810081   4.706   0.854  13.892  0.4745  0.4804 -0.4380
  681TMC3    O110082   0.224   0.514  13.589  0.2998 -0.2224 -0.2823
  681TMC3    O210083   4.627   0.764  13.891  0.1437  0.2455 -0.2736
  682MPD2     C10084   1.916   2.627  10.669 -0.1924 -0.1900  0.1668
  682MPD2    C110085   1.910   2.490  10.692  0.4201 -0.2900  0.2145
  682MPD2    C210086   1.861   2.445  10.806  0.6711  0.0764 -0.4271
  682MPD2    C310087   1.847   2.523  10.917  0.7316 -0.1394 -0.6716
  682MPD2    C410088   1.862   2.660  10.897  0.5993  0.0195  0.2489
  682MPD2    C510089   1.894   2.711  10.779 -0.6283  0.6179  0.2858
  682MPD2     H10090   1.841   2.338  10.808 -0.6379  0.3734  2.9522
  682MPD2    H110091   1.836   2.730  10.976 -0.7137  0.7025 -0.7682
  682MPD2    H210092   1.935   2.663  10.569 -1.4798  0.6004  0.2176
  682MPD2    H310093   1.899   2.819  10.771  0.6879  0.5393  0.0382
  682MPD2     N10094   1.796   2.473  11.036 -0.3278 -0.2802  0.4004
  682MPD2    H510095   1.758   2.550  11.090  1.4562  1.3918 -0.7204
  682MPD2    N110096   1.941   2.394  10.596 -0.1145 -0.0661 -0.1099
  682MPD2    H710097   1.905   2.300  10.614 -0.8530 -0.5414 -4.0647
  683TMC3    C110098   1.695   2.346  11.426 -0.2807  0.5364 -0.3140
  683TMC3    C210099   1.682   2.214  11.454  0.6107 -0.0289 -0.2410
  683TMC3    C310100   1.687   2.127  11.349  0.6196 -0.7566 -0.2208
  683TMC3    C410101   1.716   2.392  11.302 -0.4222 -0.4870 -0.4575
  683TMC3    C510102   1.731   2.302  11.199 -0.8038  0.5178 -0.1362
  683TMC3    C610103   1.703   2.170  11.218  0.5210 -0.2890  0.8123
  683TMC3     C10104   1.690   2.451  11.530  0.3473  0.3141  0.2293
  683TMC3     O10105   1.719   2.566  11.511  0.1398 -1.0133  0.5247
  683TMC3     H10106   1.660   2.179  11.554  0.5052 -0.8234 -0.5416
  683TMC3    H110107   1.733   2.499  11.288  2.2790 -0.5579  2.3117
  683TMC3    H210108   1.714   2.100  11.136  1.3622 -2.0375  2.4504
  683TMC3    C710109   1.788   2.339  11.072  0.3142  0.7588 -0.3800
  683TMC3    C810110   1.698   1.988  11.366  0.6691 -0.5977  0.3168
  683TMC3    O110111   1.844   2.251  11.016 -0.2779  0.0256 -0.2893
  683TMC3    O210112   1.664   1.925  11.268 -0.3795 -0.3465 -0.4592
  684MPD2     C10113   4.447   2.449  16.007 -0.3979 -0.0141  0.9881
  684MPD2    C110114   4.579   2.402  16.010 -0.0099  0.6699 -0.6883
  684MPD2    C210115   4.678   2.493  16.022  0.9539  0.3419 -0.4856
  684MPD2    C310116   4.651   2.633  16.034 -0.0815 -0.7310  0.0846
  684MPD2    C410117   4.523   2.678  16.046  0.5970 -0.4679 -0.8824
  684MPD2    C510118   4.423   2.582  16.023 -0.8476 -0.7675 -0.3659
  684MPD2     H10119   0.051   2.456  16.028  0.6680 -0.8400 -2.8755
  684MPD2    H110120   4.490   2.779  16.068  0.0636 -0.9400  0.4672
  684MPD2    H210121   4.359   2.387  15.998 -0.7389  0.6339 -0.0769
  684MPD2    H310122   4.321   2.619  16.023 -0.2604  0.8473 -0.0972
  684MPD2     N10123   0.025   2.731  16.022 -1.1816  0.0514 -0.1748
  684MPD2    H510124   4.727   2.829  16.013 -0.2616  0.3955  0.9726
  684MPD2    N110125   4.612   2.270  16.008 -0.4738  0.2954 -0.3232
  684MPD2    H710126   4.712   2.252  16.011 -0.2894  1.0786 -2.1443
  685TMC3    C110127   4.581   2.038  15.988  0.3217  0.1595 -0.5019
  685TMC3    C210128   4.515   1.941  15.919 -0.5759 -0.0522  0.3612
  685TMC3    C310129   4.562   1.814  15.928 -0.0119  0.1531  0.1468
  685TMC3    C410130   4.684   2.003  16.072 -0.7980 -0.5172  0.3343
  685TMC3    C510131   0.006   1.878  16.073  0.6827  0.1147  0.3208
  685TMC3    C610132   4.675   1.777  16.002  0.1048  0.1572  0.2219
  685TMC3     C10133   4.524   2.171  15.997  0.7359  0.1282  0.1066
  685TMC3     O10134   4.405   2.165  15.960 -0.1287  0.2218 -0.6400
  685TMC3     H10135   4.446   1.972  15.842 -0.1693  1.0060  0.4183
  685TMC3    H110136   0.009   2.075  16.133  2.2591  0.0903 -3.0574
  685TMC3    H210137   4.706   1.673  16.002 -0.4798 -0.0116  0.7389
  685TMC3    C710138   0.116   1.848  16.159  0.2921  0.8914  0.1275
  685TMC3    C810139   4.476   1.709  15.878  0.0341 -0.6113 -0.0991
  685TMC3    O110140   0.127   1.913  16.262  1.1697  0.2972 -0.2990
  685TMC3    O210141   4.522   1.600  15.844 -0.0775  0.4302  0.2873
  686MPD2     C10142   1.997   1.876  15.500 -0.4070 -0.6055 -0.0602
  686MPD2    C110143   1.903   1.848  15.596 -0.2734 -0.2822  0.3016
  686MPD2    C210144   1.936   1.752  15.688 -0.0842 -1.0458 -0.4530
  686MPD2    C310145   2.055   1.679  15.682 -0.0822 -0.4013  0.1599
  686MPD2    C410146   2.139   1.695  15.576  0.3531  0.0799  0.2970
  686MPD2    C510147   2.109   1.797  15.494  0.2175  0.4549  0.1735
  686MPD2     H10148   1.872   1.736  15.774  1.1145  2.6170  1.1231
  686MPD2    H110149   2.225   1.635  15.548 -0.0140 -0.6047  0.6251
  686MPD2    H210150   1.981   1.958  15.430  0.3634  0.4025  0.9361
  686MPD2    H310151   2.167   1.820  15.405 -0.4707  0.1513 -0.3528
  686MPD2     N10152   2.104   1.583  15.772 -0.2054  0.3434  0.0330
  686MPD2    H510153   2.201   1.559  15.754 -0.1183  1.2492 -0.6635
  686MPD2    N110154   1.794   1.933  15.597  0.0569 -0.2231  0.0600
  686MPD2    H710155   1.797   2.002  15.523 -1.4295  1.2854  1.4168
  687TMC3    C110156   1.912   1.500  15.884 -0.3922 -0.4493 -0.2457
  687TMC3    C210157   1.860   1.461  15.764 -0.1923  0.0424  0.5841
  687TMC3    C310158   1.725   1.484  15.750 -0.1436  0.0920  0.0865
  687TMC3    C410159   1.843   1.514  16.002  0.9146  0.2521  0.1056
  687TMC3    C510160   1.709   1.496  15.988 -0.0774  0.5189  0.5594
  687TMC3    C610161   1.651   1.499  15.863  0.1353  0.4997  0.9453
  687TMC3     C10162   2.047   1.531  15.890 -0.1462 -0.7029 -0.1218
  687TMC3     O10163   2.109   1.480  15.987  0.1353 -0.6088 -0.0518
  687TMC3     H10164   1.922   1.448  15.676  1.3215  1.4014  1.4513
  687TMC3    H110165   1.883   1.554  16.095  1.2139  1.7272 -0.6592
  687TMC3    H210166   1.543   1.497  15.873  0.1453  2.2820  1.4768
  687TMC3    C710167   1.646   1.565  16.098  0.2397  0.5453 -0.2301
  687TMC3    C810168   1.668   1.509  15.617  0.0953 -0.2046 -0.1774
  687TMC3    O110169   1.609   1.681  16.073 -0.0610 -0.3934 -0.0022
  687TMC3    O210170   1.722   1.458  15.520  0.0957 -0.5933 -0.5147
  688MPD2     C10171   0.471   0.818  17.225 -0.6514  0.2309 -0.5345
  688MPD2    C110172   0.541   0.701  17.263 -0.7227  0.5190  0.4586
  688MPD2    C210173   0.664   0.676  17.192  0.4694 -0.6858  0.2126
  688MPD2    C310174   0.707   0.764  17.092 -0.2895 -0.2405  0.0008
  688MPD2    C410175   0.632   0.879  17.056  0.8520 -0.6113  0.0997
  688MPD2    C510176   0.514   0.897  17.126 -0.1871 -0.8202  0.0675
  688MPD2     H10177   0.724   0.595  17.233  1.3332 -0.7394 -1.1718
  688MPD2    H110178   0.668   0.944  16.977  1.4608  0.5482  1.3281
  688MPD2    H210179   0.376   0.855  17.259 -1.7006 -1.8683 -1.1428
  688MPD2    H310180   0.456   0.986  17.102 -0.8137 -1.9810 -2.7382
  688MPD2     N10181   0.835   0.748  17.025  1.0010 -0.0361 -0.3748
  688MPD2    H510182   0.864   0.819  16.957  1.0179 -0.0532 -0.3855
  688MPD2    N110183   0.495   0.620  17.364  0.0725 -0.3670  0.3114
  688MPD2    H710184   0.563   0.553  17.400  0.2254 -1.1744 -1.4948
  689TMC3    C110185   0.373   0.572  17.552  0.1720 -0.3668  0.4463
  689TMC3    C210186   0.317   0.626  17.664 -0.1366 -0.3119  0.2646
  689TMC3    C310187   0.327   0.565   0.068  0.3003 -0.3469  0.1536
  689TMC3    C410188   0.440   0.451  17.554 -0.0485  0.2741  0.0597
  689TMC3    C510189   0.458   0.393  17.675  0.5671  0.1431  0.5563
  689TMC3    C610190   0.392   0.446   0.072  0.0718 -0.0108  0.4874
  689TMC3     C10191   0.381   0.649  17.435 -0.3513 -0.5289 -0.6023
  689TMC3     O10192   0.285   0.725  17.420 -0.1491  0.0269  0.2166
  689TMC3     H10193   0.260   0.715  17.642 -0.3340 -0.3172  0.7699
  689TMC3    H110194   0.479   0.400  17.468 -1.0756 -0.8563  0.2678
  689TMC3    H210195   0.399   0.384   0.161  0.9121  1.9362  1.7857
  689TMC3    C710196   0.493   0.247  17.674  0.0704 -0.0012  0.5979
  689TMC3    C810197   0.256   0.614   0.184  0.3173 -0.2077 -0.2805
  689TMC3    O110198   0.568   0.208   0.054 -0.5799  0.1724  0.0772
  689TMC3    O210199   0.281   0.556   0.288 -0.5624 -0.9089 -0.8640
  690MPD2     C10200   2.635   2.779  15.847 -0.4779  0.0209 -0.0589
  690MPD2    C110201   2.638   2.772  15.707  0.3584  0.4586 -0.2725
  690MPD2    C210202   2.761   2.780  15.641 -0.1715 -0.5776  0.4717
  690MPD2    C310203   2.878   2.787  15.707 -0.1082  0.2681 -0.1926
  690MPD2    C410204   2.871   2.802  15.847  0.1500  0.4482  0.5546
  690MPD2    C510205   2.753   2.788  15.910 -0.0989 -0.0949 -0.1864
  690MPD2     H10206   2.771   2.747  15.538  2.0833  2.7598 -0.3524
  690MPD2    H110207   2.965   2.829  15.894  0.0557 -0.1504  1.0796
  690MPD2    H210208   2.545   2.780  15.907  0.2545 -1.3583  1.0658
  690MPD2    H310209   2.742   2.794  16.018 -1.0603 -1.0715 -0.2260
  690MPD2     N10210   2.992   2.770  15.629  0.5198  0.3986  0.6283
  690MPD2    H510211   2.987   2.775  15.528  0.5762 -0.9119  0.5649
  690MPD2    N110212   2.521   2.762  15.634 -0.5626  0.2933  0.7141
  690MPD2    H710213   2.526   2.747  15.534  0.8936  1.7946  0.5651
  691TMC3    C110214   2.298   2.707  15.598  0.1147  0.0140 -0.1575
  691TMC3    C210215   2.165   2.717  15.640 -0.0476 -0.6481  0.0126
  691TMC3    C310216   2.074   2.619  15.617 -0.2136 -1.0340  0.9376
  691TMC3    C410217   2.338   2.600  15.524 -0.1683  0.1481 -0.9899
  691TMC3    C510218   2.245   2.509  15.488  0.2570  1.1952 -0.4082
  691TMC3    C610219   2.119   2.519  15.537 -0.6442 -0.3856 -0.1577
  691TMC3     C10220   2.397   2.758  15.682 -0.7894 -0.1104  0.0166
  691TMC3     O10221   2.357   2.782  15.791 -0.2363 -0.4165 -0.0381
  691TMC3     H10222   2.147   2.799  15.708 -0.6057  0.8401 -1.9585
  691TMC3    H110223   2.443   2.575  15.512  0.0091  0.4980 -0.1396
  691TMC3    H210224   2.042   2.445  15.521  0.7520 -2.4754  2.8415
  691TMC3    C710225   2.300   2.379  15.481 -0.4634 -0.5657 -0.4978
  691TMC3    C810226   1.966   2.596  15.704 -0.3173 -0.5436  0.0212
  691TMC3    O110227   2.398   2.359  15.407  0.3505  0.2221 -0.3492
  691TMC3    O210228   1.915   2.483  15.700  0.1586 -0.1623 -0.3225
  692TMC3    C110229   4.382   4.044  15.940 -0.4748  0.7640 -0.2345
  692TMC3    C210230   4.503   4.088  15.987 -0.1651  0.3345  0.5252
  692TMC3    C310231   4.617   4.007  15.987  0.4467  1.0268  0.3534
  692TMC3    C410232   4.371   3.911  15.915 -0.3824 -0.1447 -0.4410
  692TMC3    C510233   4.476   3.823  15.934 -0.3574 -0.3475 -0.0157
  692TMC3    C610234   4.598   3.874  15.966  0.3901  0.3818 -0.7288
  692TMC3     C10235   4.270   4.106  16.009 -0.0699  0.0089 -0.6547
  692TMC3     O10236   4.288   4.160  16.116  0.4048 -0.1985  0.1378
  692TMC3     H10237   4.517   4.191  16.020 -1.7874  0.5539  0.5144
  692TMC3    H110238   4.279   3.877  15.870 -0.3573  0.0165 -0.6117
  692TMC3    H210239   4.669   3.818  16.026  1.5118  1.2497 -1.2389
  692TMC3    C710240   4.472   3.698  15.848 -0.1888  0.9047  0.2581
  692TMC3    C810241   4.693   4.038  16.107 -0.1450  0.1151  0.2204
  692TMC3    O110242   4.370   3.693  15.772 -0.0496 -0.3869  0.0020
  692TMC3    O210243   0.041   4.132  16.097  0.0864  0.0630 -0.2907
  693MPD2     C10244   3.833   1.603  10.455  1.0331  0.6240 -0.3155
  693MPD2    C110245   3.815   1.465  10.459 -0.1667 -0.5757  1.1327
  693MPD2    C210246   3.925   1.388  10.484 -0.2967  0.2958 -0.0272
  693MPD2    C310247   4.048   1.442  10.522  0.1274  0.6168 -0.3991
  693MPD2    C410248   4.064   1.576  10.530 -0.1277 -1.2810  0.1777
  693MPD2    C510249   3.956   1.655  10.503  0.0017 -0.0620  0.5329
  693MPD2     H10250   3.916   1.280  10.487  1.9541  0.0996  0.2748
  693MPD2    H110251   4.156   1.625  10.559 -1.0640  0.6509 -0.0981
  693MPD2    H210252   3.752   1.674  10.467 -0.5508 -0.9702 -1.4011
  693MPD2    H310253   3.956   1.761  10.527  2.3565 -0.4027  2.0044
  693MPD2     N10254   4.156   1.359  10.552  0.5571  0.3025  0.6111
  693MPD2    H510255   4.233   1.401  10.603  0.5808 -1.3195  1.9024
  693MPD2    N110256   3.679   1.418  10.466  0.0460 -0.0867 -0.3099
  693MPD2    H710257   3.612   1.493  10.477  0.9124  0.6886 -0.2682
  694TMC3    C110258   3.508   1.289  10.544  0.1136 -0.1176 -0.7867
  694TMC3    C210259   3.435   1.176  10.523 -0.3434  0.3289  0.4125
  694TMC3    C310260   3.335   1.143  10.608 -0.5675 -0.2684 -0.7211
  694TMC3    C410261   3.487   1.360  10.658  1.4598  0.3959 -0.4021
  694TMC3    C510262   3.389   1.320  10.744  0.1982  0.0259  0.0420
  694TMC3    C610263   3.301   1.219  10.714 -0.2232 -0.4853  0.8265
  694TMC3     C10264   3.643   1.296  10.494  0.0200 -0.5981 -0.3299
  694TMC3     O10265   3.702   1.191  10.488  0.0239 -0.6059  0.1643
  694TMC3     H10266   3.461   1.105  10.445  1.5638  4.2755 -2.5126
  694TMC3    H110267   3.558   1.436  10.691  1.8158 -0.4134  0.6756
  694TMC3    H210268   3.204   1.200  10.758 -0.1133  0.9603  1.6773
  694TMC3    C710269   3.408   1.366  10.881 -0.6370  0.3648  0.3571
  694TMC3    C810270   3.251   1.021  10.580  0.3785  0.4161  0.0122
  694TMC3    O110271   3.488   1.455  10.898 -0.1835  0.3693 -0.7355
  694TMC3    O210272   3.182   0.980  10.674 -0.0525 -0.3477 -0.2652
  695MPD2     C10273   0.070   3.576  13.560 -0.0850 -0.1457  0.0640
  695MPD2    C110274   0.014   3.539  13.683  0.4056 -0.0357 -0.4336
  695MPD2    C210275   4.602   3.538  13.706  0.2010 -0.2468 -0.0321
  695MPD2    C310276   4.514   3.576  13.607 -0.2593 -0.4579  0.2992
  695MPD2    C410277   4.568   3.614  13.488 -0.3477 -0.1943 -0.2033
  695MPD2    C510278   4.701   3.613  13.463  0.4391 -0.6049 -1.0226
  695MPD2     H10279   4.566   3.502  13.801  0.3635 -2.9087 -0.9888
  695MPD2    H110280   4.500   3.633  13.405 -0.0293 -0.8595 -0.6171
  695MPD2    H210281   0.174   3.578  13.532  0.0067  0.7859  0.4794
  695MPD2    H310282   0.014   3.637  13.365  2.6740  2.5782  0.7388
  695MPD2     N10283   4.379   3.566  13.632 -0.3533 -0.0514  0.1517
  695MPD2    H510284   4.361   3.563  13.731  0.8671  0.3010  0.3900
  695MPD2    N110285   0.095   3.519  13.801 -0.4902  0.0218  0.3808
  695MPD2    H710286   0.046   3.502  13.888 -0.2953  0.2121  0.5266
  696TMC3    C110287   4.142   3.594  13.603  0.2193  0.0815 -0.3600
  696TMC3    C210288   4.116   3.538  13.728 -0.8713 -0.1632  0.5872
  696TMC3    C310289   4.000   3.555  13.796  0.2250  0.4240 -0.0642
  696TMC3    C410290   4.045   3.659  13.531  0.3192  0.0233 -0.5849
  696TMC3    C510291   3.928   3.684  13.600  0.4424  0.4210 -0.2733
  696TMC3    C610292   3.910   3.637  13.725 -0.1331  0.1293  0.1378
  696TMC3     C10293   4.275   3.599  13.542 -1.2897  0.0182  0.1596
  696TMC3     O10294   4.269   3.638  13.426  0.4158  0.0761 -0.3549
  696TMC3     H10295   4.195   3.474  13.765 -0.8015  0.2084  1.0875
  696TMC3    H110296   4.046   3.704  13.432  2.5087  0.1513 -0.5185
  696TMC3    H210297   3.823   3.677  13.777  0.2974  0.3306  0.7072
  696TMC3    C710298   3.890   3.819  13.576 -0.5514 -0.5396 -0.8599
  696TMC3    C810299   4.009   3.581  13.935  0.2094  0.2868 -0.4668
  696TMC3    O110300   3.900   3.858  13.461  0.1717 -0.0771  0.1397
  696TMC3    O210301   3.955   3.684  13.970  0.4582  0.6740  0.3309
  697MPD2     C10302   3.896   0.728  15.738  0.3513  0.6225  0.1700
  697MPD2    C110303   3.947   0.679  15.620  0.2880  0.3224  0.8970
  697MPD2    C210304   4.011   0.759  15.533 -0.2436 -0.4332  0.1511
  697MPD2    C310305   4.024   0.891  15.553  0.4890  0.2459  0.2066
  697MPD2    C410306   3.969   0.941  15.668 -0.3492  0.1880  0.2588
  697MPD2    C510307   3.911   0.860  15.762 -0.1523  0.6354 -0.4064
  697MPD2     H10308   4.059   0.712  15.448  0.3769 -0.2547  0.4054
  697MPD2    H110309   3.974   1.048  15.685 -1.5185  0.2466  0.2228
  697MPD2    H210310   3.849   0.665  15.813  0.7097 -1.1080 -1.0400
  697MPD2    H310311   3.885   0.904  15.858  0.9255  2.0276 -0.7479
  697MPD2     N10312   4.089   0.968  15.453  0.2797 -0.4116  0.4448
  697MPD2    H510313   4.129   0.919  15.373  0.1272 -1.5516  1.0628
  697MPD2    N110314   3.934   0.542  15.581 -0.0074 -0.1632 -0.2698
  697MPD2    H710315   3.989   0.512  15.502  0.0608  0.2343 -0.3758
  698TMC3    C110316   4.177   1.150  15.351 -0.1344  0.2264 -0.0462
  698TMC3    C210317   4.239   1.275  15.362  0.2626 -0.2910  0.0992
  698TMC3    C310318   4.310   1.327  15.257  0.5699  0.3486 -0.3378
  698TMC3    C410319   4.181   1.079  15.231 -0.1995  0.1019  0.1052
  698TMC3    C510320   4.243   1.135  15.120 -0.0978 -0.2540  0.9065
  698TMC3    C610321   4.305   1.261  15.134  0.3745 -0.3127 -0.3362
  698TMC3     C10322   4.107   1.101  15.466  0.3765 -0.1556 -0.1834
  698TMC3     O10323   4.111   1.175  15.566 -0.1816  0.0252  0.9497
  698TMC3     H10324   4.250   1.326  15.457 -0.1659  0.0555 -0.0386
  698TMC3    H110325   4.109   1.000  15.214 -0.9143  0.6004  0.8336
  698TMC3    H210326   4.352   1.310  15.049 -0.1560  1.1073  0.1962
  698TMC3    C710327   4.254   1.065  14.997 -0.1208 -0.6924  0.0837
  698TMC3    C810328   4.359   1.461  15.255 -0.1973 -0.0363 -0.0804
  698TMC3    O110329   4.176   0.976  14.985  0.6453 -0.1221  0.0847
  698TMC3    O210330   4.347   1.514  15.149 -0.0860 -0.3021  0.1922
  699TMC3    C110331   4.160   3.461  13.093 -0.1596  0.5480  0.4098
  699TMC3    C210332   4.199   3.393  13.209  0.4948  0.6461 -0.2590
  699TMC3    C310333   4.159   3.264  13.229 -0.2736  0.3972 -0.6866
  699TMC3    C410334   4.081   3.396  13.007 -0.4470  0.1361 -0.1168
  699TMC3    C510335   4.046   3.266  13.024 -0.4596 -0.3942 -0.5870
  699TMC3    C610336   4.086   3.201  13.132 -0.2568  0.1456  0.2564
  699TMC3     C10337   4.187   3.599  13.070  0.2773  0.1664 -0.0105
  699TMC3     O10338   4.092   3.666  13.032  0.1279  0.2588  0.2040
  699TMC3     H10339   4.257   3.434  13.291 -0.5130  2.4394 -0.4583
  699TMC3    H110340   4.054   3.456  12.920  0.5196  0.9179  0.1184
  699TMC3    H210341   4.056   3.099  13.154 -1.2579  0.5075  0.5569
  699TMC3    C710342   3.905   3.238  12.991 -0.4394  0.1576  0.7567
  699TMC3    C810343   4.118   3.233  13.367  0.0576  0.6406 -0.0827
  699TMC3    O110344   3.866   3.247  12.878  0.3785 -1.0195  0.8218
  699TMC3    O210345   4.013   3.172  13.380  0.1135 -0.1720 -0.1916
  700TMC3    C110346   3.279   1.201  17.415 -0.1287 -0.1820 -0.0851
  700TMC3    C210347   3.352   1.093  17.388  1.1282  0.7899 -0.7537
  700TMC3    C310348   3.453   1.072  17.477 -0.2378 -0.3159  0.4106
  700TMC3    C410349   3.310   1.283  17.513  0.7346 -0.7371  0.1088
  700TMC3    C510350   3.404   1.263  17.607  0.4252 -0.3663  0.5847
  700TMC3    C610351   3.475   1.150  17.592  0.0084 -0.0821 -0.5906
  700TMC3     C10352   3.225   1.264  17.300  0.0076 -0.6095  0.5499
  700TMC3     O10353   3.245   1.385  17.289 -0.0313 -0.2507  0.3444
  700TMC3     H10354   3.355   1.037  17.294 -0.4438 -1.5447  0.5900
  700TMC3    H110355   3.250   1.372  17.525  0.5413 -1.0414  1.3582
  700TMC3    H210356   3.549   1.128  17.668 -0.7655 -3.5127 -0.8115
  700TMC3    C710357   3.486   1.379  17.624  0.1996 -0.0644  0.0181
  700TMC3    C810358   3.560   0.980  17.429  0.7919  0.6243 -0.5400
  700TMC3    O110359   3.560   1.384   0.006 -0.3078 -0.1665  0.8898
  700TMC3    O210360   3.523   0.891  17.357  0.0878  0.2841 -0.0702
  701TMC3    C110361   3.443   4.647  15.761  0.3575 -0.5708 -0.3239
  701TMC3    C210362   3.514   4.616  15.645  0.4965  0.1173 -0.5191
  701TMC3    C310363   3.554   4.721  15.568  0.2619 -0.0528  0.2384
  701TMC3    C410364   3.403   0.046  15.790 -0.2995  0.7103  0.2342
  701TMC3    C510365   3.446   0.148  15.709 -0.4636  0.2879  0.2689
  701TMC3    C610366   3.517   0.120  15.595  0.7655 -0.4352  1.1402
  701TMC3     C10367   3.365   4.533  15.811 -0.0820 -0.4324  0.6226
  701TMC3     O10368   3.322   4.552  15.926  0.0468 -0.0303  0.0501
  701TMC3     H10369   3.546   4.517  15.616  1.4140  0.5523 -0.9932
  701TMC3    H110370   3.355   0.053  15.888 -0.3218  1.3106  0.1783
  701TMC3    H210371   3.557   0.202  15.537  0.3943 -1.8193 -1.0680
  701TMC3    C710372   3.405   0.288  15.725  0.3393  0.1705 -0.1317
  701TMC3    C810373   3.635   4.698  15.445  0.0937 -0.2599  0.3812
  701TMC3    O110374   3.480   0.378  15.698 -0.5061  0.0732 -0.1799
  701TMC3    O210375   3.711   0.057  15.416  0.3385 -0.5882 -0.2000
  702MPD2     C10376   3.059   1.838  10.396 -0.4724 -0.1042 -0.2212
  702MPD2    C110377   2.976   1.938  10.453 -0.3507 -0.0207 -0.6848
  702MPD2    C210378   3.007   2.067  10.432 -0.3563  0.0447 -0.4812
  702MPD2    C310379   3.114   2.110  10.355 -1.0262 -0.0631 -0.6942
  702MPD2    C410380   3.199   2.015  10.308 -0.3583 -0.0281 -0.1937
  702MPD2    C510381   3.169   1.883  10.330 -0.2029  0.2521 -0.2538
  702MPD2     H10382   2.942   2.142  10.476  0.5221 -0.0795  1.0035
  702MPD2    H110383   3.291   2.035  10.254  0.0021 -0.8177  0.1295
  702MPD2    H210384   3.039   1.733  10.417  0.7069 -0.4510 -0.7818
  702MPD2    H310385   3.234   1.806  10.288  0.2066 -1.0716  2.7467
  702MPD2     N10386   3.151   2.246  10.326  0.2115 -0.3169 -0.6041
  702MPD2    H510387   3.249   2.263  10.310  0.1830 -0.3642 -0.8240
  702MPD2    N110388   2.878   1.908  10.550 -0.6911 -0.3793  0.2970
  702MPD2    H710389   2.839   1.990  10.597  0.2498  1.0815 -1.4718
  703TMC3    C110390   3.105   2.483  10.345 -0.3547 -0.1220  0.2658
  703TMC3    C210391   3.009   2.568  10.390 -0.3191  0.0150  0.5504
  703TMC3    C310392   3.036   2.700  10.389 -0.1981 -0.0573 -0.4390
  703TMC3    C410393   3.215   2.519  10.267  0.3104 -0.0805 -0.4060
  703TMC3    C510394   3.230   2.655  10.260  0.0262 -0.1864 -0.0255
  703TMC3    C610395   3.145   2.743  10.320 -0.5857 -0.3260  0.0348
  703TMC3     C10396   3.057   2.347  10.340  0.1361  0.0782  0.4132
  703TMC3     O10397   2.936   2.331  10.347  0.5867  0.3520 -0.1182
  703TMC3     H10398   2.925   2.529  10.447 -0.4208 -2.2974 -1.1965
  703TMC3    H110399   3.293   2.453  10.231 -0.7112  1.6109 -5.7594
  703TMC3    H210400   3.175   2.847  10.329 -0.7513 -0.3116  0.4022
  703TMC3    C710401   3.347   2.702  10.199  0.7161 -0.5893  0.0441
  703TMC3    C810402   2.995   2.778  10.496 -0.3814  0.0248  0.4307
  703TMC3    O110403   3.431   2.617  10.168 -0.1470 -0.2005 -0.4738
  703TMC3    O210404   3.061   2.875  10.515 -0.1953  0.0614 -0.2268
  704TMC3    C110405   0.584   0.375  11.875 -0.3330 -0.3348  0.3609
  704TMC3    C210406   0.711   0.419  11.875 -0.5230 -0.5231 -0.0910
  704TMC3    C310407   0.779   0.416  11.994  0.2739 -0.2477  0.2618
  704TMC3    C410408   0.529   0.326  11.988  1.0179  0.0330 -0.8238
  704TMC3    C510409   0.604   0.312  12.105 -0.1503 -0.1582  0.7553
  704TMC3    C610410   0.733   0.354  12.108  0.2848 -0.3100  0.6490
  704TMC3     C10411   0.569   0.270  11.773 -1.0653 -0.4516 -0.3063
  704TMC3     O10412   0.470   0.199  11.786  0.2361 -0.0752  0.0938
  704TMC3     H10413   0.742   0.488  11.797  2.3838 -0.1889  1.3477
  704TMC3    H110414   0.427   0.289  11.985  0.6029  1.1462 -0.2470
  704TMC3    H210415   0.789   0.346  12.200  0.7240  1.2579  0.5245
  704TMC3    C710416   0.594   0.185  12.166  1.0548 -0.3306 -1.0383
  704TMC3    C810417   0.911   0.378  11.967 -0.2953 -0.4502 -0.4630
  704TMC3    O110418   0.691   0.122  12.200 -0.5842  0.3172 -0.1384
  704TMC3    O210419   0.918   0.311  11.863  0.2022  0.1994  0.4122
  705MPD2     C10420   0.117   3.315  16.928  0.1875  0.2042 -0.7272
  705MPD2    C110421   0.045   3.360  16.825 -0.0027 -0.2781  0.3934
  705MPD2    C210422   4.638   3.395  16.851  0.0973 -0.7416 -0.4243
  705MPD2    C310423   4.580   3.393  16.975 -0.2891 -0.3760 -0.0940
  705MPD2    C410424   4.660   3.354  17.080  0.3478  0.2059 -0.2194
  705MPD2    C510425   0.066   3.317  17.057 -0.0820  0.0823 -0.0165
  705MPD2     H10426   4.581   3.436  16.769 -2.6354 -1.5654  1.0479
  705MPD2    H110427   4.614   3.346  17.178 -0.4771 -0.5759 -0.6683
  705MPD2    H210428   0.217   3.280  16.909 -0.8351 -3.3466  0.3975
  705MPD2    H310429   0.119   3.277  17.143  3.0547 -1.1772 -2.5295
  705MPD2     N10430   4.446   3.426  16.995 -0.5029 -1.1130 -0.2913
  705MPD2    H510431   4.423   3.433  17.094  0.0363  0.4906 -0.2655
  705MPD2    N110432   0.104   3.375  16.703 -0.5333 -0.3114  0.4449
  705MPD2    H710433   0.063   3.435  16.632  1.0705 -2.1881 -2.0499
  706TMC3    C110434   0.398   3.381  16.343 -0.9180  0.0954 -0.4370
  706TMC3    C210435   0.348   3.503  16.300 -0.1973 -0.3672 -0.1188
  706TMC3    C310436   0.261   3.566  16.381  0.1553  0.0534  0.0024
  706TMC3    C410437   0.358   3.325  16.459 -0.4041  0.2452 -0.1036
  706TMC3    C510438   0.270   3.393  16.537 -0.0344 -0.2896 -0.1013
  706TMC3    C610439   0.222   3.512  16.502 -0.1919 -0.1071 -0.1657
  706TMC3     C10440   0.517   3.324  16.278  0.1924 -0.4575  0.1852
  706TMC3     O10441   0.584   3.248  16.344 -0.4712  0.6628 -0.0497
  706TMC3     H10442   0.387   3.562  16.217  1.7207 -0.7540  0.5117
  706TMC3    H110443   0.416   3.244  16.501 -0.6577 -1.0018 -2.1690
  706TMC3    H210444   0.163   3.572  16.570 -0.9183 -0.5845 -0.3801
  706TMC3    C710445   0.231   3.341  16.667  0.3666 -0.4316  0.4818
  706TMC3    C810446   0.232   3.709  16.358  0.1912  0.0318 -0.7622
  706TMC3    O110447   0.310   3.258  16.721 -0.0662 -0.6082  0.7839
  706TMC3    O210448   0.208   3.753  16.246 -0.4635 -0.1183 -0.1103
  707TMC3    C110449   1.378   1.322   0.522  0.4608  0.0501  0.4737
  707TMC3    C210450   1.371   1.442   0.459  0.7847  0.0840  0.3269
  707TMC3    C310451   1.256   1.508   0.445 -0.6659  0.4349 -0.6803
  707TMC3    C410452   1.266   1.262   0.567  0.5172 -0.2609  0.3897
  707TMC3    C510453   1.149   1.330   0.538  0.5491 -0.3748 -0.1160
  707TMC3    C610454   1.140   1.453   0.492 -0.7286 -0.2685  0.0379
  707TMC3     C10455   1.508   1.277   0.559  0.0638  0.3596  0.0485
  707TMC3     O10456   1.601   1.332   0.501 -0.0586 -0.1432  0.4065
  707TMC3     H10457   1.458   1.487   0.411  0.4551  0.6871  0.3003
  707TMC3    H110458   1.263   1.164   0.615 -1.5753 -0.1871  0.4217
  707TMC3    H210459   1.044   1.505   0.492 -0.3118  0.5075 -0.3812
  707TMC3    C710460   1.018   1.270   0.575  0.5092  0.3403  0.6379
  707TMC3    C810461   1.254   1.633   0.379 -0.3859 -0.5714  0.0082
  707TMC3    O110462   0.927   1.342   0.614  0.0497 -0.6898 -0.1639
  707TMC3    O210463   1.146   1.675   0.344  0.0195  0.2566  0.0887
  708MPD2     C10464   3.273   2.013  14.021 -0.1526  0.2679  0.3503
  708MPD2    C110465   3.133   2.011  14.016 -1.4230  0.3854  0.0333
  708MPD2    C210466   3.072   1.911  14.086  0.3245 -0.2127 -0.5942
  708MPD2    C310467   3.140   1.799  14.139  0.4385  0.6024 -0.1231
  708MPD2    C410468   3.279   1.800  14.125 -0.5807 -0.3221  0.8655
  708MPD2    C510469   3.345   1.904  14.068 -0.0053  0.0604 -0.1927
  708MPD2     H10470   2.965   1.926  14.099  0.1414 -1.9084 -0.0754
  708MPD2    H110471   3.325   1.708  14.158 -1.3622 -1.1813 -0.4709
  708MPD2    H210472   3.325   2.083  13.957 -1.2148  2.3440  1.7602
  708MPD2    H310473   3.453   1.901  14.062  0.1510  1.8435  1.8465
  708MPD2     N10474   3.084   1.701  14.214 -0.1279  0.0706 -0.6764
  708MPD2    H510475   3.149   1.640  14.261 -0.9573 -0.2650  0.0445
  708MPD2    N110476   3.053   2.111  13.953 -0.0313  0.2704  0.9790
  708MPD2    H710477   2.953   2.104  13.964 -0.0337  0.1186  0.8633
  709TMC3    C110478   2.976   2.297  13.834  0.3674  0.1247  0.4913
  709TMC3    C210479   2.964   2.361  13.713  0.2609  0.1282  0.5786
  709TMC3    C310480   2.855   2.442  13.700  0.4107  0.0678 -0.2483
  709TMC3    C410481   2.872   2.284  13.928  0.3219  0.1007  0.4468
  709TMC3    C510482   2.757   2.353  13.904  0.3460  0.0385 -0.7655
  709TMC3    C610483   2.753   2.438  13.793  0.2036 -0.3918  0.2122
  709TMC3     C10484   3.094   2.217  13.877 -0.2213 -0.1425  0.4137
  709TMC3     O10485   3.207   2.250  13.846 -0.0782 -0.1530 -0.0252
  709TMC3     H10486   3.062   2.371  13.666  1.6573 -0.3127  3.3915
  709TMC3    H110487   2.884   2.245  14.029  0.6484  0.1132  0.4109
  709TMC3    H210488   2.659   2.489  13.776  0.2498  0.0679  1.3229
  709TMC3    C710489   2.630   2.316  13.969 -0.0624  0.0962 -0.8424
  709TMC3    C810490   2.850   2.530  13.591  0.2675  0.5954 -0.7453
  709TMC3    O110491   2.533   2.390  13.975  0.3412  0.1957 -0.4894
  709TMC3    O210492   2.788   2.639  13.609  0.1165 -0.3117 -0.5451
  710TMC3    C110493   3.886   3.130   0.678  0.4970  0.1278 -0.3336
  710TMC3    C210494   3.932   3.092   0.550 -0.1568 -0.0611 -0.4918
  710TMC3    C310495   4.041   3.012   0.543 -0.8584 -0.7384  0.3909
  710TMC3    C410496   3.942   3.085   0.800 -0.0073 -0.0518  0.5610
  710TMC3    C510497   4.046   3.006   0.787 -0.4706 -0.3113 -0.3347
  710TMC3    C610498   4.093   2.964   0.659  0.2042 -0.3762 -0.5886
  710TMC3     C10499   3.775   3.219   0.680  1.3198 -0.2939  0.3828
  710TMC3     O10500   3.706   3.226   0.578  0.1959 -0.9707  0.4800
  710TMC3     H10501   3.881   3.131   0.463 -1.9662  1.0590  1.0664
  710TMC3    H110502   3.887   3.088   0.894 -2.1417  0.2356 -0.6797
  710TMC3    H210503   4.174   2.892   0.658  3.2798  3.0873 -1.1626
  710TMC3    C710504   4.105   2.953   0.905  0.1530 -0.4023  0.4371
  710TMC3    C810505   4.092   2.987   0.407 -0.5957  0.4779 -0.0988
  710TMC3    O110506   4.043   2.978   1.009  0.3048  0.4311  0.2053
  710TMC3    O210507   4.070   3.066   0.318  0.2818  0.0243  0.3159
  711TMC3    C110508   4.060   4.421  15.093 -0.2301  0.1153 -0.6907
  711TMC3    C210509   4.061   4.468  15.224 -0.5182 -0.2010 -0.6847
  711TMC3    C310510   4.176   4.470  15.300 -0.2583  0.6609  0.0940
  711TMC3    C410511   4.178   4.372  15.047  0.0917  0.0286  0.2041
  711TMC3    C510512   4.292   4.366  15.126 -0.0329 -0.5788 -0.4624
  711TMC3    C610513   4.292   4.419  15.250 -0.0666 -1.3283  0.3524
  711TMC3     C10514   3.958   4.321  15.074  0.0398  0.1625 -0.1020
  711TMC3     O10515   3.965   4.238  14.984  0.1540 -0.2284  0.5683
  711TMC3     H10516   3.980   4.520  15.275 -0.5865 -0.3781 -0.6114
  711TMC3    H110517   4.167   4.313  14.957  0.7966  0.5333 -0.2120
  711TMC3    H210518   4.383   4.426  15.308  0.4715  1.7111 -0.8794
  711TMC3    C710519   4.333   4.230  15.148  0.1234  0.8540 -0.0545
  711TMC3    C810520   4.145   4.463  15.441  0.7163  0.0190 -0.5428
  711TMC3    O110521   4.435   4.223  15.213 -0.0646 -0.0779 -0.4622
  711TMC3    O210522   4.029   4.454  15.481 -0.1553  0.5715 -0.2427
  712MPD2     C10523   0.990   0.451  13.949  0.4847 -0.3006 -0.7881
  712MPD2    C110524   0.872   0.473  13.874 -0.5483  0.1278 -0.3413
  712MPD2    C210525   0.896   0.529  13.752  0.5659  0.1959 -0.0264
  712MPD2    C310526   1.024   0.565  13.707 -0.7465 -0.1816  0.7313
  712MPD2    C410527   1.131   0.546  13.786 -0.0076 -0.6980 -0.2146
  712MPD2    C510528   1.113   0.497  13.910 -0.0435  0.2606 -0.2915
  712MPD2     H10529   0.811   0.555  13.689 -0.3473 -1.3074  0.5920
  712MPD2    H110530   1.230   0.570  13.749  0.1032 -1.7028 -0.5601
  712MPD2    H210531   0.981   0.409  14.049 -2.9559 -1.6973 -1.6897
  712MPD2    H310532   1.197   0.487  13.978 -0.6649  1.2825  0.6033
  712MPD2     N10533   1.054   0.616  13.580  0.4101 -0.0700  0.5715
  712MPD2    H510534   1.148   0.652  13.567 -0.4843  0.9189 -3.1708
  712MPD2    N110535   0.745   0.433  13.899  0.1460 -0.3203 -0.6508
  712MPD2    H710536   0.671   0.434  13.829 -0.7007  0.6832  0.2628
  713TMC3    C110537   1.008   0.705  13.361 -0.2736 -0.1380 -0.9402
  713TMC3    C210538   1.138   0.682  13.329  0.3602  0.2610 -0.3059
  713TMC3    C310539   1.187   0.742  13.217  0.3362 -0.1697 -0.0590
  713TMC3    C410540   0.923   0.776  13.281 -0.3164  0.3454  0.2633
  713TMC3    C510541   0.981   0.836  13.173 -0.5913 -0.1008 -0.9109
  713TMC3    C610542   1.109   0.831  13.153  0.1821 -0.1178  0.5162
  713TMC3     C10543   0.958   0.657  13.490  0.7942 -0.2264 -0.2277
  713TMC3     O10544   0.834   0.640  13.489 -0.2731 -0.0930 -0.0876
  713TMC3     H10545   1.199   0.615  13.388  1.9091  1.4257 -0.5861
  713TMC3    H110546   0.817   0.767  13.300 -0.6526 -0.2680 -1.8061
  713TMC3    H210547   1.148   0.884  13.068 -1.0186  2.6648  1.7041
  713TMC3    C710548   0.927   0.973  13.145  0.5490  0.2839 -0.0759
  713TMC3    C810549   1.328   0.760  13.201 -1.1758 -0.1242 -0.6263
  713TMC3    O110550   1.006   1.052  13.101  0.0479 -0.4311 -0.2892
  713TMC3    O210551   1.367   0.839  13.112  0.1776  0.1048 -0.2356
  714MPD2     C10552   2.534   4.433   1.643 -0.7069 -0.3201 -1.1650
  714MPD2    C110553   2.581   4.385   1.523  0.3012 -0.2116  0.2405
  714MPD2    C210554   2.553   4.443   1.402 -0.1925  0.5476 -0.0369
  714MPD2    C310555   2.480   4.560   1.402 -0.4892 -0.7292  0.5488
  714MPD2    C410556   2.437   4.614   1.523 -0.1054 -0.3753 -0.6473
  714MPD2    C510557   2.465   4.548   1.645 -1.3422  0.5080 -0.4774
  714MPD2     H10558   2.595   4.401   1.311  2.2572  0.7334  1.0089
  714MPD2    H110559   2.386   4.710   1.518  1.2836  0.3852 -0.1880
  714MPD2    H210560   2.547   4.376   1.735  3.4523  0.7271 -1.1120
  714MPD2    H310561   2.446   4.603   1.736  0.4668 -1.2836  0.9699
  714MPD2     N10562   2.433   4.614   1.277 -0.6320  0.1877  0.2065
  714MPD2    H510563   2.451   4.565   1.190  1.7428  1.3297  0.0433
  714MPD2    N110564   2.648   4.263   1.537  0.4403  0.0607 -0.7560
  714MPD2    H710565   2.655   4.236   1.635 -1.5087 -0.3895 -0.7323
  715TMC3    C110566   2.793   4.077   1.505 -0.5718 -0.6912 -0.0314
  715TMC3    C210567   2.846   3.982   1.420 -0.5752 -0.2399 -0.2999
  715TMC3    C310568   2.951   3.908   1.465  0.1725  0.0774  0.0026
  715TMC3    C410569   2.863   4.110   1.626 -0.1692 -0.4247  0.5019
  715TMC3    C510570   2.965   4.027   1.667 -0.4530  0.6149  0.7472
  715TMC3    C610571   3.004   3.915   1.592  0.0401  0.2268 -0.7172
  715TMC3     C10572   2.715   4.187   1.448  0.6879 -0.1233  0.0722
  715TMC3     O10573   2.710   4.195   1.325 -0.3344 -0.1529 -0.5031
  715TMC3     H10574   2.786   3.938   1.341  0.8068 -1.2192 -0.7904
  715TMC3    H110575   2.841   4.199   1.684  1.5635  0.8655 -0.8003
  715TMC3    H210576   3.043   3.830   1.646 -0.0764  1.0689  0.6801
  715TMC3    C710577   3.012   4.038   1.799 -0.0482 -0.2894 -0.8590
  715TMC3    C810578   3.022   3.825   1.368 -0.8077  0.4420  0.8171
  715TMC3    O110579   3.126   3.994   1.815  0.2906  0.2031 -0.2820
  715TMC3    O210580   2.985   3.807   1.254 -0.3665 -0.2130  0.3573
  716MPD2     C10581   2.759   1.562   9.876  0.4101  0.7841  0.4337
  716MPD2    C110582   2.654   1.497   9.814  1.0553  1.0964  0.3138
  716MPD2    C210583   2.674   1.361   9.792  0.2979 -0.0987 -1.1121
  716MPD2    C310584   2.785   1.296   9.831  0.6561 -0.3029 -0.2656
  716MPD2    C410585   2.887   1.358   9.902  0.8353  0.6229 -1.0918
  716MPD2    C510586   2.871   1.495   9.925 -0.3647  0.4322  0.0834
  716MPD2     H10587   2.600   1.303   9.736  0.8841 -0.2809 -1.6909
  716MPD2    H110588   2.972   1.303   9.940 -0.1869 -0.9826 -1.1212
  716MPD2    H210589   2.751   1.670   9.885 -2.4036  0.5514  0.7640
  716MPD2    H310590   2.943   1.559   9.976  1.2034 -1.0798 -0.2570
  716MPD2     N10591   2.786   1.163   9.786  0.6284  0.2459  0.8084
  716MPD2    H510592   2.707   1.129   9.732 -0.2599  2.3974  0.7714
  716MPD2    N110593   2.545   1.575   9.775 -0.5600 -0.6030 -0.5205
  716MPD2    H710594   2.545   1.673   9.804  1.6647 -1.2980  1.8068
  717TMC3    C110595   2.887   0.959   9.722  0.1559  0.6205  0.1251
  717TMC3    C210596   2.795   0.956   9.620  0.2530 -0.2126 -0.3406
  717TMC3    C310597   2.799   0.835   9.549 -0.1656 -0.4450 -0.2579
  717TMC3    C410598   2.955   0.851   9.754 -1.2376 -0.8194 -0.4793
  717TMC3    C510599   2.932   0.733   9.693  0.6422  0.2291  0.4801
  717TMC3    C610600   2.855   0.717   9.586 -0.2169 -0.0139 -0.2236
  717TMC3     C10601   2.888   1.069   9.812  0.0909 -0.0230 -0.1741
  717TMC3     O10602   2.985   1.072   9.892 -0.4670 -0.7018 -0.2971
  717TMC3     H10603   2.759   1.046   9.573 -2.2976 -0.9531  0.1983
  717TMC3    H110604   3.040   0.850   9.821 -2.2444 -0.0802  0.8105
  717TMC3    H210605   2.845   0.624   9.532  2.7426  0.4425 -1.5553
  717TMC3    C710606   2.990   0.607   9.748 -0.3523  0.0456  0.1244
  717TMC3    C810607   2.698   0.836   9.440  0.1955 -0.4848  0.2996
  717TMC3    O110608   3.058   0.630   9.849  0.1801  0.3707  0.0731
  717TMC3    O210609   2.643   0.944   9.421  0.0393 -0.1154 -0.0101
  718MPD2     C10610   2.387   0.468  13.099 -0.2288  0.3128 -0.2193
  718MPD2    C110611   2.295   0.517  13.008  0.4897 -0.1971 -0.1266
  718MPD2    C210612   2.188   0.440  12.971  0.3243  0.1224 -0.6169
  718MPD2    C310613   2.165   0.313  13.021  0.1059 -0.4711 -0.7020
  718MPD2    C410614   2.265   0.261  13.101 -0.3136  0.4714  0.7642
  718MPD2    C510615   2.374   0.341  13.142 -0.7639 -0.3598  0.2591
  718MPD2     H10616   2.118   0.486  12.903 -0.0678  2.2273  1.2012
  718MPD2    H110617   2.250   0.159  13.135  0.2599  0.5409  1.2170
  718MPD2    H210618   2.478   0.512  13.139  0.0541 -0.6290  0.1752
  718MPD2    H310619   2.449   0.289  13.200 -1.8882 -0.1794  1.8702
  718MPD2     N10620   2.056   0.237  12.972 -0.0475  0.0586  0.1264
  718MPD2    H510621   1.990   0.281  12.908 -0.2209  0.1605  0.3787
  718MPD2    N110622   2.300   0.651  12.949 -0.0588  0.1985 -0.3659
  718MPD2    H710623   2.217   0.677  12.897  0.8440  0.0887 -1.8455
  719TMC3    C110624   2.397   0.846  12.859 -0.0799 -0.6344 -0.2676
  719TMC3    C210625   2.265   0.872  12.826  0.1753  0.3064 -0.0261
  719TMC3    C310626   2.222   0.887  12.695 -0.1652 -0.1276  0.8247
  719TMC3    C410627   2.491   0.844  12.762 -1.0047  0.1747 -0.6718
  719TMC3    C510628   2.453   0.893  12.640  0.1685  0.8186 -0.8933
  719TMC3    C610629   2.323   0.911  12.602 -0.7649 -0.6376  0.1630
  719TMC3     C10630   2.412   0.730  12.941 -0.2934  0.2435 -0.4865
  719TMC3     O10631   2.525   0.705  12.975  0.0640 -0.3400 -0.5052
  719TMC3     H10632   2.194   0.870  12.907  1.7119  0.1680  1.3268
  719TMC3    H110633   2.597   0.844  12.783 -1.2369 -2.4533  0.4270
  719TMC3    H210634   2.288   0.937  12.503  0.8688  0.6621 -0.0695
  719TMC3    C710635   2.553   0.943  12.557  0.4652  0.0170 -0.4033
  719TMC3    C810636   2.142   0.765  12.664  0.2023  0.0446 -0.1073
  719TMC3    O110637   2.517   1.026  12.476 -0.2921  0.4514  0.1712
  719TMC3    O210638   2.095   0.713  12.768 -0.0548  0.0891  0.4516
  720MPD2     C10639   0.207   2.878  14.376 -0.7455  0.4023  0.4766
  720MPD2    C110640   0.273   2.873  14.256  0.0150  0.7386  0.0051
  720MPD2    C210641   0.391   2.801  14.247  0.1029 -0.4523 -0.2380
  720MPD2    C310642   0.442   2.730  14.356  0.5460 -0.5017  0.2031
  720MPD2    C410643   0.374   2.741  14.478  0.9432  0.3193  0.4741
  720MPD2    C510644   0.251   2.808  14.482 -0.5330 -0.1350 -0.0777
  720MPD2     H10645   0.450   2.803  14.156 -1.7039  0.8196 -1.3760
  720MPD2    H110646   0.403   2.697  14.573 -0.7506  0.8191  1.2221
  720MPD2    H210647   0.123   2.946  14.389  0.1672  2.0493 -2.1290
  720MPD2    H310648   0.197   2.816  14.575 -1.3788 -0.0486 -0.5809
  720MPD2     N10649   0.573   2.676  14.341 -0.1626  0.4391 -0.2021
  720MPD2    H510650   0.614   2.690  14.249  0.6110  0.4889  0.1531
  720MPD2    N110651   0.227   2.953  14.150 -0.6093  0.2512 -0.6889
  720MPD2    H710652   0.273   2.924  14.064 -0.3779 -1.1001 -0.0985
  721TMC3    C110653   0.768   2.564  14.429  0.2639  0.2268  0.5701
  721TMC3    C210654   0.840   2.508  14.533 -0.5466 -0.7633  0.0198
  721TMC3    C310655   0.957   2.446  14.505  0.1320  0.0550  0.3558
  721TMC3    C410656   0.816   2.566  14.304  0.6587  0.2363 -0.7926
  721TMC3    C510657   0.936   2.505  14.278 -0.4706  0.2119 -0.1852
  721TMC3    C610658   1.002   2.440  14.374  0.0342  0.1871 -0.5073
  721TMC3     C10659   0.635   2.604  14.447  0.4566 -0.1964 -0.0437
  721TMC3     O10660   0.585   2.584  14.558  0.1528 -0.4317  0.1115
  721TMC3     H10661   0.803   2.516  14.635 -1.5849 -1.8816 -0.2813
  721TMC3    H110662   0.765   2.607  14.217  0.9555  0.7356 -0.7290
  721TMC3    H210663   1.096   2.386  14.362  1.0282  2.0080 -0.8568
  721TMC3    C710664   1.019   2.540  14.167  0.1438 -0.4045  0.9119
  721TMC3    C810665   1.060   2.422  14.610  0.4710 -0.3837 -0.1900
  721TMC3    O110666   1.096   2.458  14.127  0.2424  0.7352  0.0173
  721TMC3    O210667   1.164   2.378  14.568  0.8890  0.4503  0.2794
  722MPD2     C10668   4.601   0.804  13.494  0.3837  0.6103 -0.3214
  722MPD2    C110669   4.574   0.920  13.566  0.3510  0.8664 -1.1977
  722MPD2    C210670   4.447   0.932  13.627  0.6253 -0.0598 -0.5161
  722MPD2    C310671   4.349   0.840  13.598 -0.2752  0.4743  0.1739
  722MPD2    C410672   4.385   0.732  13.526  0.1441 -0.1394  0.4175
  722MPD2    C510673   4.510   0.706  13.479  0.5544  0.2230 -0.4635
  722MPD2     H10674   4.418   1.027  13.670  1.3837 -1.6356  3.4431
  722MPD2    H110675   4.317   0.652  13.498  0.8119 -1.2461  1.9621
  722MPD2    H210676   4.695   0.779  13.448  1.4755  2.7176  0.7554
  722MPD2    H310677   4.530   0.612  13.430 -1.7530 -0.9888  0.8986
  722MPD2     N10678   4.217   0.871  13.638  0.1767  0.2634  0.4527
  722MPD2    H510679   4.206   0.950  13.700 -0.4727  0.3307  0.2527
  722MPD2    N110680   4.658   1.036  13.564 -0.0091  0.1357 -0.6020
  722MPD2    H710681   4.613   1.118  13.604 -2.4060 -2.6713  2.4891
  723TMC3    C110682   3.988   0.888  13.647 -0.4520 -0.0822 -0.3276
  723TMC3    C210683   3.868   0.834  13.604 -0.1181 -0.0054 -0.7380
  723TMC3    C310684   3.767   0.921  13.575 -0.2045 -0.9778 -0.5409
  723TMC3    C410685   4.005   1.022  13.660 -0.3143  0.6247  0.2956
  723TMC3    C510686   3.898   1.103  13.638 -0.2035 -0.3325 -0.4560
  723TMC3    C610687   3.776   1.055  13.597 -0.1347  0.7523  0.4417
  723TMC3     C10688   4.107   0.814  13.596  0.0868 -0.3007 -0.2545
  723TMC3     O10689   4.087   0.727  13.513 -0.0712  0.0591  0.2749
  723TMC3     H10690   3.862   0.727  13.589  2.4700  0.0725 -2.3875
  723TMC3    H110691   4.097   1.070  13.692 -1.3841  2.9987 -0.1927
  723TMC3    H210692   3.707   1.121  13.544 -0.0315 -1.8915 -2.9895
  723TMC3    C710693   3.939   1.230  13.571 -0.7502  0.1554  0.1998
  723TMC3    C810694   3.647   0.877  13.504  0.3958 -0.2642 -0.5415
  723TMC3    O110695   4.046   1.233  13.507  0.2038  0.4388  0.7105
  723TMC3    O210696   3.547   0.948  13.503 -0.5805  0.2065  0.5140
  724TMC3    C110697   4.025   4.067   9.098  0.5077 -0.5815 -0.2592
  724TMC3    C210698   4.031   4.170   9.192  0.6104 -0.3725 -0.3395
  724TMC3    C310699   4.153   4.182   9.255  0.0656 -0.1797 -0.3534
  724TMC3    C410700   4.146   4.011   9.048  0.2380  0.2637  1.2142
  724TMC3    C510701   4.261   4.046   9.106 -0.0077  0.1784  0.4731
  724TMC3    C610702   4.266   4.122   9.219 -0.1813 -0.5393  0.3928
  724TMC3     C10703   3.907   4.049   9.013  0.5870 -0.6355 -0.2949
  724TMC3     O10704   3.907   3.975   8.914  0.0210  0.3330  0.3713
  724TMC3     H10705   3.941   4.187   9.249  1.3702  3.5003 -0.3382
  724TMC3    H110706   4.141   3.948   8.960  0.0215  0.8147  0.8351
  724TMC3    H210707   4.357   4.118   9.277  0.7427  2.1856 -0.8588
  724TMC3    C710708   4.382   3.962   9.074 -0.9856 -0.4241  0.0015
  724TMC3    C810709   4.150   4.278   9.358  0.0542 -0.1161  0.3312
  724TMC3    O110710   4.464   3.935   9.166  0.2488  0.0210  0.1271
  724TMC3    O210711   4.041   4.305   9.404  0.3626 -0.2371  0.2211
  725TMC3    C110712   1.072   2.776  13.190 -0.3032  0.1218 -0.1259
  725TMC3    C210713   0.971   2.816  13.105 -1.1591  0.8223 -0.1172
  725TMC3    C310714   0.854   2.744  13.090 -0.2393  0.1446  0.0240
  725TMC3    C410715   1.053   2.664  13.262  0.0005 -0.3080  0.0434
  725TMC3    C510716   0.943   2.588  13.237  0.3101  0.0590  0.4582
  725TMC3    C610717   0.834   2.632  13.156 -0.3489 -0.4000 -0.5382
  725TMC3     C10718   1.200   2.823  13.152 -0.5694 -0.7247 -0.1849
  725TMC3     O10719   1.220   2.866  13.041  0.1405 -0.1548 -0.4745
  725TMC3     H10720   0.976   2.910  13.052 -3.4766  0.5334 -0.8557
  725TMC3    H110721   1.133   2.616  13.317 -0.3361 -0.6980  0.1877
  725TMC3    H210722   0.738   2.583  13.144 -1.2537  1.1864  0.3604
  725TMC3    C710723   0.983   2.448  13.220  0.3386 -0.1502 -0.2169
  725TMC3    C810724   0.759   2.782  12.988 -0.3946 -0.0162  0.3941
  725TMC3    O110725   1.093   2.416  13.264  0.2824  0.2087  0.1068
  725TMC3    O210726   0.638   2.770  13.015  0.3099  0.3740 -0.1511
  726MPD2     C10727   4.441   4.156  11.163 -0.1084  0.0143 -0.7175
  726MPD2    C110728   4.340   4.121  11.076 -0.9834 -0.1959 -0.2351
  726MPD2    C210729   4.275   4.001  11.098 -0.8025 -0.0597  0.3837
  726MPD2    C310730   4.296   3.920  11.210  0.1365  0.2915  0.4285
  726MPD2    C410731   4.379   3.963  11.310 -0.1248 -0.2557  0.1165
  726MPD2    C510732   4.453   4.080  11.279  0.4659  0.5099  0.2789
  726MPD2     H10733   4.196   3.974  11.029 -0.7859 -0.5988  0.5702
  726MPD2    H110734   4.401   3.898  11.394 -0.5928  2.0796  2.0600
  726MPD2    H210735   4.507   4.241  11.150  0.1301  0.1737  1.5569
  726MPD2    H310736   4.525   4.115  11.352  0.7021 -3.6689  2.0682
  726MPD2     N10737   4.230   3.799  11.227  0.1244 -0.0201  0.5373
  726MPD2    H510738   4.242   3.752  11.316 -0.3407  0.1573  0.6945
  726MPD2    N110739   4.283   4.202  10.969 -0.3791 -0.2264  0.5782
  726MPD2    H710740   4.216   4.158  10.907 -0.2649 -2.9412  2.4008
  727TMC3    C110741   4.264   4.395  10.838  0.3581  0.4524  0.4177
  727TMC3    C210742   4.333   4.501  10.794 -0.1827 -0.7309 -0.6578
  727TMC3    C310743   4.280   4.563  10.687 -0.5800  0.0048  0.3606
  727TMC3    C410744   4.143   4.354  10.791 -0.7571 -0.1420 -0.7156
  727TMC3    C510745   4.088   4.434  10.689  0.0214  0.6182  0.4035
  727TMC3    C610746   4.155   4.539  10.632  0.2627 -0.5086 -0.1511
  727TMC3     C10747   4.322   4.330  10.950 -0.1572  0.2759  0.2223
  727TMC3     O10748   4.407   4.394  11.005  0.1422  0.4243 -0.7149
  727TMC3     H10749   4.420   4.537  10.847 -0.8685 -0.1192  0.0517
  727TMC3    H110750   4.088   4.267  10.824 -0.0894 -0.4025 -0.3071
  727TMC3    H210751   4.114   4.579  10.539  0.1015 -1.7537 -0.6175
  727TMC3    C710752   3.976   4.367  10.621 -0.3343 -0.4859 -0.6864
  727TMC3    C810753   4.362   4.662  10.623 -0.6861 -0.0211 -0.8132
  727TMC3    O110754   3.963   4.243  10.640  0.6383  0.0601  0.2077
  727TMC3    O210755   4.483   4.654  10.643 -0.4297  0.4009  0.1312
  728TMC3    C110756   3.230   2.768  15.594  0.3391  0.9771  0.4000
  728TMC3    C210757   3.349   2.795  15.658  0.0525  0.7197 -0.3481
  728TMC3    C310758   3.457   2.802  15.571  0.0081 -0.1060  0.2445
  728TMC3    C410759   3.215   2.729  15.465 -0.2653 -0.4771 -0.2485
  728TMC3    C510760   3.325   2.746  15.386  0.1307  0.4299  0.4334
  728TMC3    C610761   3.446   2.777  15.441  0.2662 -0.7168  0.0816
  728TMC3     C10762   3.114   2.755  15.687  0.1034  0.3930 -0.5662
  728TMC3     O10763   3.149   2.742  15.802 -0.2075 -0.2476 -0.8890
  728TMC3     H10764   3.353   2.806  15.766 -3.7138 -1.1580 -0.0252
  728TMC3    H110765   3.121   2.702  15.419 -1.3358  2.5108  0.1484
  728TMC3    H210766   3.536   2.770  15.382  0.5114 -2.1759  0.6349
  728TMC3    C710767   3.327   2.754  15.241 -0.3634  0.0884 -0.1955
  728TMC3    C810768   3.591   2.830  15.620 -0.4479  0.1540 -0.6600
  728TMC3    O110769   3.254   2.672  15.183  0.0802  0.1079 -0.3152
  728TMC3    O210770   3.688   2.791  15.552 -0.1877  0.1288  0.1941
  729MPD2     C10771   0.535   4.420  16.662 -0.2884  0.0003  0.7248
  729MPD2    C110772   0.618   4.323  16.606 -0.7755 -0.3980  1.1985
  729MPD2    C210773   0.688   4.233  16.687  0.5472 -0.3499  0.6697
  729MPD2    C310774   0.687   4.247  16.825  0.4313  0.0905  0.7626
  729MPD2    C410775   0.599   4.338  16.873  0.2921  0.0276 -0.1799
  729MPD2    C510776   0.521   4.427  16.797 -0.2553 -1.0480 -0.0259
  729MPD2     H10777   0.756   4.155  16.655 -0.7520  0.1714 -3.3425
  729MPD2    H110778   0.582   4.351  16.979  0.6751  0.1712 -0.1335
  729MPD2    H210779   0.471   4.476  16.595 -0.4872 -0.3413  0.6290
  729MPD2    H310780   0.446   4.494  16.837  0.2080  0.2808 -1.3458
  729MPD2     N10781   0.775   4.189  16.920  0.0512 -0.1534 -0.3033
  729MPD2    H510782   0.769   4.216  17.017 -1.5705  0.8089 -0.6684
  729MPD2    N110783   0.615   4.317  16.466  0.5624 -0.4456  0.3318
  729MPD2    H710784   0.539   4.368  16.423  0.8705  0.3208  0.7110
  730TMC3    C110785   0.947   4.061  17.008  0.4972 -0.0610  0.1314
  730TMC3    C210786   1.072   4.020  16.961  0.0997 -0.5434 -0.4725
  730TMC3    C310787   1.179   4.101  16.992 -0.5600 -0.0062 -0.0669
  730TMC3    C410788   0.947   4.149  17.108  0.3837 -0.3481 -0.8165
  730TMC3    C510789   1.052   4.237  17.132  0.1902  0.0028  0.3490
  730TMC3    C610790   1.168   4.215  17.069  0.3688 -0.5338  0.1552
  730TMC3     C10791   0.869   4.095  16.890  0.0960 -0.6636  0.2094
  730TMC3     O10792   0.913   4.060  16.783  0.2577 -0.5133 -0.0173
  730TMC3     H10793   1.095   3.931  16.904 -1.9562 -0.8458 -0.8364
  730TMC3    H110794   0.852   4.168  17.157  0.3663  1.6362 -1.6230
  730TMC3    H210795   1.254   4.278  17.091 -0.4616  1.4747 -2.4183
  730TMC3    C710796   1.028   4.381  17.155 -0.8158  0.0873 -0.4336
  730TMC3    C810797   1.276   4.108  16.878  0.1357  0.1981 -0.7853
  730TMC3    O110798   1.112   4.460  17.114 -0.1395  0.1854  0.2989
  730TMC3    O210799   1.263   4.023  16.787  0.0268  0.4298  0.2368
  731MPD2     C10800   0.412   2.148  12.180  0.1312 -0.2025  0.0159
  731MPD2    C110801   0.534   2.117  12.236 -0.5272 -0.5036 -0.9633
  731MPD2    C210802   0.532   2.075  12.371 -0.2166  0.6770  0.1200
  731MPD2    C310803   0.415   2.084  12.449  0.0880  0.1982  0.4740
  731MPD2    C410804   0.299   2.117  12.385 -0.7472 -0.0903  0.3446
  731MPD2    C510805   0.291   2.139  12.252  0.5553  0.7624 -0.2658
  731MPD2     H10806   0.622   2.044  12.424 -0.9849 -0.3362  0.8413
  731MPD2    H110807   0.209   2.101  12.442 -1.2065  0.5337 -0.2116
  731MPD2    H210808   0.400   2.179  12.077 -0.8520 -0.1549  0.1444
  731MPD2    H310809   0.194   2.164  12.211  0.2351 -0.9633 -0.5295
  731MPD2     N10810   0.423   2.047  12.581  0.1167  0.3311  0.0330
  731MPD2    H510811   0.510   2.015  12.621  0.4755  0.2415 -0.8344
  731MPD2    N110812   0.645   2.125  12.149 -0.3770  0.7471  0.5888
  731MPD2    H710813   0.634   2.140  12.049  1.2651 -0.9542  0.1480
  732TMC3    C110814   0.856   2.067  12.065 -0.9552  0.6833  0.1406
  732TMC3    C210815   0.784   2.020  11.956 -0.0020  0.9351 -0.5889
  732TMC3    C310816   0.862   1.991  11.845 -0.4561 -0.3503 -0.0263
  732TMC3    C410817   0.989   2.085  12.067 -0.4841 -0.5232  0.0836
  732TMC3    C510818   1.054   2.066  11.947  0.3452 -0.3796  0.1949
  732TMC3    C610819   0.989   2.014  11.834 -0.6019  0.5318 -0.7980
  732TMC3     C10820   0.776   2.099  12.183 -0.3849 -0.4604  0.2250
  732TMC3     O10821   0.818   2.087  12.300  0.2891 -0.0899 -0.0255
  732TMC3     H10822   0.681   1.986  11.956  0.3898 -0.2265  0.9257
  732TMC3    H110823   1.019   2.146  12.151 -0.2592 -0.0582 -0.3313
  732TMC3    H210824   1.046   2.001  11.742  0.7102  2.1141 -0.2146
  732TMC3    C710825   1.192   2.078  11.936 -0.9824  0.3642 -0.3089
  732TMC3    C810826   0.791   1.967  11.716  0.3173 -0.0440  0.2973
  732TMC3    O110827   1.252   2.056  11.831 -0.2588  0.5691 -0.6553
  732TMC3    O210828   0.854   1.980  11.613  0.2236 -0.4077  0.9330
  733TMC3    C110829   1.694   0.027  12.888 -0.0675 -0.1912 -1.3382
  733TMC3    C210830   1.804   0.017  12.971 -0.3111 -0.7794 -0.4452
  733TMC3    C310831   1.923   0.063  12.931 -0.7834  1.1888  0.0000
  733TMC3    C410832   1.706   0.080  12.757 -0.4535 -0.4381  0.0642
  733TMC3    C510833   1.830   0.115  12.716  0.6526 -0.1341  0.2462
  733TMC3    C610834   1.939   0.103  12.799 -0.7159 -0.0544  0.5218
  733TMC3     C10835   1.557   0.035  12.949 -0.2348 -0.0003 -0.0538
  733TMC3     O10836   1.473   0.052  12.865  0.0934 -0.4709  0.3821
  733TMC3     H10837   1.791   0.001  13.078 -0.2782  3.7867  0.2034
  733TMC3    H110838   1.618   0.101  12.698 -0.6037  0.7679  0.7273
  733TMC3    H210839   2.036   0.133  12.762 -0.6321  0.5533  1.2376
  733TMC3    C710840   1.840   0.196  12.596  0.1135  0.6515  0.0020
  733TMC3    C810841   2.018   0.114  13.023 -0.5483  0.7663  0.2198
  733TMC3    O110842   1.759   0.172  12.507  0.5172 -0.3082 -0.3376
  733TMC3    O210843   2.028   0.061  13.133  0.1074 -0.2321 -0.0084
  734MPD2     C10844   3.939   3.242  12.200 -0.0790 -0.1444 -0.0312
  734MPD2    C110845   3.878   3.127  12.157 -0.3152 -0.2348 -0.0675
  734MPD2    C210846   3.921   3.079  12.041 -0.1265 -0.1517  0.0188
  734MPD2    C310847   4.018   3.140  11.968 -0.0274  0.0007 -0.4769
  734MPD2    C410848   4.082   3.256  12.010  0.4981  0.3168  0.5713
  734MPD2    C510849   4.036   3.301  12.130 -0.0980 -0.2101  0.2029
  734MPD2     H10850   3.888   2.983  12.002  0.0975  0.2480 -1.1526
  734MPD2    H110851   4.168   3.305  11.965  0.4267 -3.0689 -3.2664
  734MPD2    H210852   3.928   3.281  12.301  1.4432 -0.4757  0.2687
  734MPD2    H310853   4.068   3.392  12.180  0.0906  1.0357 -2.1540
  734MPD2     N10854   4.056   3.076  11.852  0.0008 -0.1071 -0.8410
  734MPD2    H510855   4.004   2.992  11.832 -1.7287  1.5818 -3.4194
  734MPD2    N110856   3.790   3.051  12.235 -0.2281 -0.0640 -0.4506
  734MPD2    H710857   3.782   3.069  12.334  2.0578  1.1728 -0.4987
  735TMC3    C110858   3.638   2.876  12.267  0.2829 -0.3362 -0.2963
  735TMC3    C210859   3.536   2.814  12.200 -0.2791 -0.4972 -0.0320
  735TMC3    C310860   3.521   2.677  12.214  0.0333  0.2704 -0.3563
  735TMC3    C410861   3.721   2.802  12.346  0.6905 -0.2782  0.9078
  735TMC3    C510862   3.693   2.668  12.365 -0.5667 -0.0068  0.3391
  735TMC3    C610863   3.591   2.604  12.308  0.2396  0.3561  0.0362
  735TMC3     C10864   3.713   2.959  12.178  0.4057  0.1938 -0.1505
  735TMC3     O10865   3.668   2.944  12.064  0.2307  0.2004 -0.3829
  735TMC3     H10866   3.474   2.879  12.139 -0.9293 -2.0074 -0.9934
  735TMC3    H110867   3.796   2.847  12.410 -1.0039  0.1341  2.6023
  735TMC3    H210868   3.587   2.496  12.297 -0.7048  0.6813 -2.7179
  735TMC3    C710869   3.806   2.585  12.401  0.0401 -0.0603 -0.5638
  735TMC3    C810870   3.510   2.614  12.086 -0.0785  0.0299 -0.0952
  735TMC3    O110871   3.922   2.631  12.399  0.2933 -0.2073 -0.7192
  735TMC3    O210872   3.479   2.496  12.087 -0.1573  0.5721 -0.5854
  736MPD2     C10873   3.786   2.236  12.497  0.4766 -0.1397  0.4228
  736MPD2    C110874   3.835   2.346  12.441 -0.0305  0.3479  1.0051
  736MPD2    C210875   3.961   2.338  12.381 -0.1816  0.0619  0.0409
  736MPD2    C310876   4.031   2.220  12.380 -1.3034  0.2227  1.0510
  736MPD2    C410877   3.968   2.107  12.422  0.1650 -0.3193  0.4947
  736MPD2    C510878   3.844   2.115  12.482 -0.0902  0.3115  0.0434
  736MPD2     H10879   3.999   2.417  12.318  1.0387  0.8361  1.7471
  736MPD2    H110880   4.011   2.008  12.408 -2.9695 -1.5848 -0.3392
  736MPD2    H210881   3.694   2.236  12.555  0.2401  0.9240  0.0608
  736MPD2    H310882   3.794   2.026  12.517  0.3122 -0.0844 -0.3759
  736MPD2     N10883   4.154   2.200  12.311 -0.2731 -0.0913 -0.2141
  736MPD2    H510884   4.190   2.105  12.303  1.2550  0.5068 -0.2434
  736MPD2    N110885   3.766   2.468  12.452 -0.0250 -0.5751 -0.2813
  736MPD2    H710886   3.679   2.470  12.504  0.0872  2.2979 -0.1987
  737TMC3    C110887   4.330   2.248  12.162  0.5343 -0.7971  0.0294
  737TMC3    C210888   4.431   2.333  12.123 -1.0544 -0.5686  0.4415
  737TMC3    C310889   4.479   2.319  11.993 -0.1063  0.5494  0.2728
  737TMC3    C410890   4.290   2.141  12.081  0.9053 -0.1966  1.0007
  737TMC3    C510891   4.356   2.128  11.959 -0.7904 -0.1000  0.1288
  737TMC3    C610892   4.449   2.217  11.908  0.3042  0.0502  0.0078
  737TMC3     C10893   4.230   2.298  12.245  0.3226  0.6183  0.0884
  737TMC3     O10894   4.221   2.422  12.247 -0.1341 -0.0620  0.0067
  737TMC3     H10895   4.471   2.419  12.175  0.2596  0.3872 -2.1548
  737TMC3    H110896   4.213   2.076  12.120 -0.9801  1.4710  0.0609
  737TMC3    H210897   4.500   2.217  11.812 -0.6371 -0.9534 -0.4800
  737TMC3    C710898   4.326   2.012  11.881  0.2684 -0.5230  0.1177
  737TMC3    C810899   4.535   2.438  11.930 -0.4466  0.1714  0.3012
  737TMC3    O110900   4.298   1.912  11.948 -0.5941 -0.1508 -0.6219
  737TMC3    O210901   4.594   2.522  11.995  0.3239 -0.7087  0.0663
  738MPD2     C10902   4.531   1.662  15.505  0.7427  0.6424 -0.3954
  738MPD2    C110903   4.480   1.630  15.378 -0.1400 -0.0211  0.5450
  738MPD2    C210904   4.514   1.715  15.277  0.0994  1.0915 -0.3464
  738MPD2    C310905   4.594   1.820  15.291 -0.6150  0.0612 -0.5487
  738MPD2    C410906   4.662   1.841  15.412  0.2740  0.4005  0.6078
  738MPD2    C510907   4.630   1.758  15.511 -0.9574 -0.3178 -0.2781
  738MPD2     H10908   4.484   1.687  15.176  0.2215 -0.8342  0.1446
  738MPD2    H110909   0.015   1.911  15.430  1.4701 -0.8473  0.0531
  738MPD2    H210910   4.510   1.598  15.589 -0.7773  0.9527 -0.5404
  738MPD2    H310911   4.689   1.766  15.601 -2.2704 -1.2574  0.6663
  738MPD2     N10912   4.628   1.914  15.193  0.2930 -0.1368  0.3573
  738MPD2    H510913   4.694   1.983  15.228 -1.1009  1.8416 -0.8975
  738MPD2    N110914   4.410   1.504  15.369  1.1362 -0.0163 -0.6129
  738MPD2    H710915   4.408   1.443  15.450  0.7474  0.2475 -0.4215
  739TMC3    C110916   4.623   2.018  14.977  0.3785  0.0204  0.3881
  739TMC3    C210917   4.660   2.004  14.843  0.5050 -0.8095 -0.0618
  739TMC3    C310918   4.718   2.109  14.786 -0.1951  0.1137 -0.1087
  739TMC3    C410919   4.619   2.136  15.042  0.6260  0.8087 -0.0348
  739TMC3    C510920   4.683   2.241  14.982 -0.5275 -0.3741 -0.5747
  739TMC3    C610921   0.005   2.226  14.854  0.2891 -0.1433  1.0423
  739TMC3     C10922   4.593   1.905  15.059  0.5108 -0.3581  0.4365
  739TMC3     O10923   4.512   1.822  15.010 -0.0097  0.0537 -0.1573
  739TMC3     H10924   4.660   1.908  14.794  2.3549 -0.6991 -0.2632
  739TMC3    H110925   4.575   2.140  15.141 -2.6146  0.7960 -1.4607
  739TMC3    H210926   0.046   2.313  14.804 -1.3405  0.2467  0.3858
  739TMC3    C710927   4.717   2.351  15.067 -0.8815 -0.2769 -0.5943
  739TMC3    C810928   0.031   2.104  14.651 -0.3672 -0.0030  0.4567
  739TMC3    O110929   4.660   2.358  15.176  0.4674  0.6216 -0.1856
  739TMC3    O210930   4.728   2.004  14.588  0.0340  0.0400  0.5369
  740TMC3    C110931   0.535   3.159  14.336  0.6069  0.2926 -0.5350
  740TMC3    C210932   0.585   3.131  14.451 -0.8639  0.4035  0.2134
  740TMC3    C310933   0.689   3.040  14.447 -0.1688 -0.1139 -0.0341
  740TMC3    C410934   0.573   3.110  14.213 -0.1461  0.1343  0.5263
  740TMC3    C510935   0.672   3.011  14.214 -0.2131 -0.1428  0.1449
  740TMC3    C610936   0.733   2.985  14.332 -0.6041 -0.3575  0.3533
  740TMC3     C10937   0.402   3.225  14.333 -0.7338 -0.1107 -0.8011
  740TMC3     O10938   0.354   3.258  14.227  0.4096  0.1360 -0.0718
  740TMC3     H10939   0.540   3.170  14.541  1.0533 -0.7433  1.6852
  740TMC3    H110940   0.525   3.150  14.124  1.0028 -0.4436 -0.3506
  740TMC3    H210941   0.816   2.915  14.332  0.8002  1.3081  1.0244
  740TMC3    C710942   0.684   2.909  14.110  0.3597  0.2701  0.7364
  740TMC3    C810943   0.733   3.002  14.582  0.6887  0.3790  0.1031
  740TMC3    O110944   0.732   2.802  14.140  0.2997  0.1098 -0.1225
  740TMC3    O210945   0.685   3.062  14.674 -0.3037  0.6837 -0.1174
  741TMC3    C110946   4.340   2.109  13.636  0.1766 -0.5790 -0.3395
  741TMC3    C210947   4.278   2.009  13.716  0.4843  0.0140  0.1254
  741TMC3    C310948   4.321   1.991  13.845  1.1484  1.0979  0.3200
  741TMC3    C410949   4.446   2.185  13.693  0.0507 -0.0713 -0.7122
  741TMC3    C510950   4.482   2.163  13.826 -0.7445  0.2792 -0.5924
  741TMC3    C610951   4.421   2.063  13.900  0.2210 -0.3803  0.1250
  741TMC3     C10952   4.311   2.116  13.496 -0.1021 -0.0363  0.0035
  741TMC3     O10953   4.394   2.175  13.428 -0.8110 -0.1231 -0.6815
  741TMC3     H10954   4.199   1.947  13.675 -1.5527  1.4212  1.8874
  741TMC3    H110955   4.489   2.267  13.637  1.4273  1.0073  1.9132
  741TMC3    H210956   4.440   2.053  14.006 -1.5989  0.5218  0.5385
  741TMC3    C710957   4.565   2.258  13.891  0.7689  0.3546  0.0273
  741TMC3    C810958   4.224   1.936  13.944 -0.1131  0.0063  0.4677
  741TMC3    O110959   4.631   2.330  13.816 -0.1863 -0.0101 -0.6302
  741TMC3    O210960   4.109   1.917  13.905  0.3098 -0.3089 -0.5245
  742TMC3    C110961   4.626   0.853  15.140 -0.4882  0.5717 -0.1226
  742TMC3    C210962   4.531   0.792  15.067  0.1680 -0.5157 -0.5314
  742TMC3    C310963   4.577   0.701  14.970  0.3474  0.1940  0.5670
  742TMC3    C410964   0.031   0.818  15.142  0.1768  0.0913 -0.2661
  742TMC3    C510965   0.074   0.729  15.046 -0.3705 -0.7011 -0.5176
  742TMC3    C610966   4.709   0.664  14.967  0.2682  0.2454 -0.7316
  742TMC3     C10967   4.577   0.942  15.244  0.4280  0.4016  0.1426
  742TMC3     O10968   4.456   0.936  15.281  0.1881  0.0942  0.2080
  742TMC3     H10969   4.432   0.837  15.068  0.8715  1.0832 -2.9978
  742TMC3    H110970   0.103   0.870  15.204 -1.0982  3.3601 -1.5540
  742TMC3    H210971   0.023   0.597  14.893  0.0019  0.4740 -1.0859
  742TMC3    C710972   0.212   0.685  15.036  0.1728  0.6114 -0.1401
  742TMC3    C810973   4.485   0.629  14.887  0.1400  0.0480  0.1230
  742TMC3    O110974   0.223   0.568  15.009  0.2312  0.4117  0.0598
  742TMC3    O210975   4.542   0.533  14.833  0.6841  0.3513 -0.0895
  743MPD2     C10976   1.642   2.612   0.614 -0.2108  0.5354  0.3227
  743MPD2    C110977   1.769   2.558   0.628 -0.1760 -0.1491 -0.3873
  743MPD2    C210978   1.844   2.576   0.742  0.1240  0.4345 -0.5962
  743MPD2    C310979   1.787   2.659   0.841  0.7662 -0.5052  0.0603
  743MPD2    C410980   1.665   2.726   0.826  0.3709 -0.4020  0.1086
  743MPD2    C510981   1.599   2.698   0.712  0.2831  0.8742  0.2727
  743MPD2     H10982   1.936   2.523   0.762  0.1939  0.1381 -1.6914
  743MPD2    H110983   1.617   2.784   0.903  0.3693 -0.9775  0.5415
  743MPD2    H210984   1.576   2.588   0.532  0.9367 -2.4236  0.2800
  743MPD2    H310985   1.506   2.754   0.710  0.1383  0.6563  0.9462
  743MPD2     N10986   1.871   2.670   0.955 -0.3875 -1.1158 -0.5058
  743MPD2    H510987   1.951   2.610   0.942  0.0130 -0.4670 -1.0367
  743MPD2    N110988   1.824   2.483   0.522  0.6309  0.5800 -0.0323
  743MPD2    H710989   1.767   2.466   0.439  1.4294 -2.4056  0.0498
  744TMC3    C110990   1.968   2.316   0.415  0.7281 -0.0594  0.4747
  744TMC3    C210991   1.869   2.230   0.391 -0.5505 -0.0696 -0.0521
  744TMC3    C310992   1.906   2.109   0.336 -0.3666  0.9358  0.1999
  744TMC3    C410993   2.097   2.286   0.405 -0.3712 -0.0721  0.0596
  744TMC3    C510994   2.129   2.161   0.367 -0.3441 -0.0366  0.1805
  744TMC3    C610995   2.029   2.073   0.339  0.2443  0.6279  0.2424
  744TMC3     C10996   1.945   2.430   0.508  0.2376 -0.7881  0.5495
  744TMC3     O10997   2.047   2.480   0.564  0.0904 -0.1156  0.3516
  744TMC3     H10998   1.769   2.246   0.431  0.0902 -0.9677  1.9146
  744TMC3    H110999   2.173   2.358   0.432  0.8285 -0.7287 -1.6231
  744TMC3    H211000   2.051   1.974   0.301 -1.7232  0.3517 -0.1935
  744TMC3    C711001   2.252   2.103   0.417 -0.1588  0.1863 -0.3046
  744TMC3    C811002   1.793   2.010   0.303  0.7003  0.2717  0.4816
  744TMC3    O111003   2.351   2.177   0.424  0.8862  0.3422 -0.4898
  744TMC3    O211004   1.826   1.896   0.316  0.5558  0.0126 -0.2130
  745TMC3    C111005   0.568   0.372  14.031 -0.2703  0.1507 -0.2770
  745TMC3    C211006   0.484   0.459  14.096 -0.0807 -0.7947 -0.0948
  745TMC3    C311007   0.348   0.455  14.067 -0.5169  0.1306  0.2100
  745TMC3    C411008   0.522   0.302  13.922  0.1466  0.6921  0.0954
  745TMC3    C511009   0.385   0.289  13.915 -0.5097  1.1281 -0.4849
  745TMC3    C611010   0.297   0.362  13.987 -0.1263  0.3273  0.3251
  745TMC3     C11011   0.704   0.412  14.030  0.1841  0.1478  0.0287
  745TMC3     O11012   0.751   0.451  14.134  0.2455 -0.3165  0.0468
  745TMC3     H11013   0.524   0.542  14.153 -1.2608  0.2713 -0.8286
  745TMC3    H111014   0.598   0.236  13.882  0.0794  0.3832  0.4663
  745TMC3    H211015   0.192   0.354  13.961 -0.3070  0.2922  1.0725
  745TMC3    C711016   0.334   0.208  13.809 -0.0319  0.8591  0.1835
  745TMC3    C811017   0.269   0.579  14.081 -0.0578 -0.7547 -0.1775
  745TMC3    O111018   0.229   0.148  13.830  0.3602  0.4617 -0.5460
  745TMC3    O211019   0.148   0.578  14.062 -0.0960 -0.0116 -0.2543
  746TMC3    C111020   2.728   1.951  10.872 -0.2550 -0.0753 -0.0123
  746TMC3    C211021   2.815   1.884  10.782 -0.6353  0.8372  0.2333
  746TMC3    C311022   2.764   1.788  10.708  0.0126  0.2988  0.8949
  746TMC3    C411023   2.595   1.913  10.882 -0.3428 -0.2848  0.1828
  746TMC3    C511024   2.547   1.828  10.787  0.2781  0.9994 -0.6139
  746TMC3    C611025   2.633   1.760  10.706  0.2229 -0.0667 -0.2418
  746TMC3     C11026   2.766   2.082  10.927  0.5152 -1.2604 -0.5339
  746TMC3     O11027   2.672   2.138  10.985 -0.3589 -0.2400 -0.4120
  746TMC3     H11028   2.920   1.907  10.792 -0.2814 -1.2100  1.1857
  746TMC3    H111029   2.528   1.981  10.935  2.3620  2.0937  0.5631
  746TMC3    H211030   2.596   1.685  10.637 -3.3929  0.4519  1.1425
  746TMC3    C711031   2.413   1.767  10.810 -0.2949 -0.3502 -0.3724
  746TMC3    C811032   2.829   1.788  10.580 -0.0586 -0.5516  0.4941
  746TMC3    O111033   2.408   1.655  10.766  0.0679  0.4702 -0.2054
  746TMC3    O211034   2.846   1.681  10.529  0.0307 -0.0350  0.8344
  747TMC3    C111035   0.016   1.820  10.925 -0.7650 -0.0196 -0.4400
  747TMC3    C211036   4.661   1.770  11.021 -0.4199 -0.3832  0.5686
  747TMC3    C311037   4.667   1.823  11.148  0.5315  0.0179  0.5256
  747TMC3    C411038   0.120   1.909  10.959 -0.0342 -0.2898 -0.9565
  747TMC3    C511039   0.140   1.938  11.090  0.3942 -0.0563  0.2008
  747TMC3    C611040   0.046   1.898  11.187 -0.3129 -0.1106  0.0661
  747TMC3     C11041   4.711   1.803  10.783  0.6468  0.6499  0.0738
  747TMC3     O11042   4.599   1.827  10.743 -0.0630 -0.4721  0.0409
  747TMC3     H11043   4.574   1.707  11.001 -0.9839 -0.1366  2.2863
  747TMC3    H111044   0.161   1.965  10.876 -1.1699  1.5553 -0.2887
  747TMC3    H211045   0.070   1.919  11.290  2.7151 -1.0280 -0.4468
  747TMC3    C711046   0.255   2.021  11.129 -0.4272 -0.1595  0.4530
  747TMC3    C811047   4.592   1.762  11.253 -0.8163  0.6195 -0.5866
  747TMC3    O111048   0.257   2.046  11.251 -0.4336 -0.1789 -0.3055
  747TMC3    O211049   4.552   1.650  11.231  0.1913 -0.0535  0.1421
  748MPD2     C11050   1.056   3.047   0.848 -0.3828  0.1527  0.0223
  748MPD2    C111051   1.148   3.003   0.935 -0.2938  0.3159 -0.7491
  748MPD2    C211052   1.278   3.017   0.902  0.6892  0.4714  0.3806
  748MPD2    C311053   1.323   3.092   0.793  0.6151 -0.6576  0.0531
  748MPD2    C411054   1.217   3.136   0.700  0.1011  0.0315 -0.9750
  748MPD2    C511055   1.085   3.113   0.727  0.0206 -0.4720 -0.3492
  748MPD2     H11056   1.357   2.966   0.956  0.2580 -1.0476 -0.4198
  748MPD2    H111057   1.239   3.190   0.609 -1.0160 -0.4287 -1.5146
  748MPD2    H211058   0.950   3.033   0.864 -0.5126  1.1801  0.0641
  748MPD2    H311059   1.009   3.149   0.659  0.8006 -0.9418 -1.4683
  748MPD2     N11060   1.458   3.119   0.773 -0.3260 -0.1419  0.4416
  748MPD2    H511061   1.524   3.073   0.834  1.0887  0.5967 -0.5397
  748MPD2    N111062   1.096   2.946   1.048  0.1224 -0.0405 -0.4006
  748MPD2    H711063   0.997   2.930   1.061  0.1028  0.1505 -0.3087
  749TMC3    C111064   1.633   3.247   0.701  0.1325  0.2300 -0.0744
  749TMC3    C211065   1.704   3.127   0.670  0.1488 -0.0269  0.1346
  749TMC3    C311066   1.838   3.130   0.681 -0.3349  0.0921  0.1817
  749TMC3    C411067   1.699   3.365   0.735  0.5156 -0.7159  0.3200
  749TMC3    C511068   1.835   3.357   0.733  0.1030  0.2872  0.6117
  749TMC3    C611069   1.910   3.244   0.712  0.5907 -0.6177 -0.2234
  749TMC3     C11070   1.492   3.241   0.708 -0.8611  0.1948 -0.1117
  749TMC3     O11071   1.424   3.329   0.651  0.0259  0.2838  0.1045
  749TMC3     H11072   1.651   3.039   0.635 -1.3423  2.1094 -2.9170
  749TMC3    H111073   1.636   3.449   0.759  1.4917 -0.0401  0.5045
  749TMC3    H211074   2.018   3.237   0.705  0.5426 -1.1462 -0.4676
  749TMC3    C711075   1.910   3.484   0.760  0.3615  0.6994 -0.0106
  749TMC3    C811076   1.915   3.009   0.683 -0.0691  0.0131 -0.2215
  749TMC3    O111077   1.856   3.590   0.756  0.0314 -0.1753  0.3373
  749TMC3    O211078   1.889   2.926   0.592 -0.0111  0.2780 -0.0914
  750MPD2     C11079   3.307   3.929  11.555 -0.0273  0.0217 -0.2914
  750MPD2    C111080   3.174   3.896  11.554  0.4507  0.6104 -0.0549
  750MPD2    C211081   3.146   3.763  11.537 -0.1551  0.4008 -0.1652
  750MPD2    C311082   3.243   3.667  11.504 -0.0828  0.4213  0.3578
  750MPD2    C411083   3.369   3.713  11.490 -0.2873  0.8118 -0.4910
  750MPD2    C511084   3.400   3.841  11.517 -0.0289 -0.1805  0.6993
  750MPD2     H11085   3.044   3.729  11.534  0.2724 -0.9817  0.9040
  750MPD2    H111086   3.456   3.652  11.466 -0.9372 -1.0369  1.8739
  750MPD2    H211087   3.345   4.028  11.578  0.1746 -0.4345  1.2775
  750MPD2    H311088   3.500   3.879  11.503 -0.8394  1.2772 -1.2626
  750MPD2     N11089   3.219   3.531  11.475  0.0291 -0.4886  0.0123
  750MPD2    H511090   3.292   3.467  11.446  0.4978  0.0004  0.1189
  750MPD2    N111091   3.074   4.002  11.574 -0.5457 -0.3689 -0.1267
  750MPD2    H711092   3.121   4.091  11.588 -1.0411  0.0484 -1.1494
  751TMC3    C111093   3.076   3.345  11.415  0.1624  0.2423 -0.3123
  751TMC3    C211094   2.952   3.289  11.436  0.3294 -0.2941 -0.4219
  751TMC3    C311095   2.930   3.173  11.365 -0.4078  0.3736 -0.2353
  751TMC3    C411096   3.164   3.305  11.322  0.2196 -0.2732 -0.2600
  751TMC3    C511097   3.138   3.188  11.256 -0.0323 -0.2825 -0.2333
  751TMC3    C611098   3.015   3.125  11.273  0.3738 -0.5209 -0.9089
  751TMC3     C11099   3.092   3.471  11.483  0.7594  0.4501 -0.1862
  751TMC3     O11100   2.995   3.519  11.538 -0.3743 -0.1981 -0.4418
  751TMC3     H11101   2.877   3.318  11.510  0.4094  0.0402 -0.4721
  751TMC3    H111102   3.249   3.362  11.285 -0.0461  0.9124  0.9895
  751TMC3    H211103   2.992   3.033  11.221 -0.4872 -0.6360 -0.3169
  751TMC3    C711104   3.213   3.164  11.130 -0.4601 -0.2852  0.5781
  751TMC3    C811105   2.794   3.124  11.347  0.6217  0.4572  0.3422
  751TMC3    O111106   3.279   3.256  11.082 -0.2906  0.0062  0.6005
  751TMC3    O211107   2.772   3.066  11.241  0.3537 -0.3794 -0.0282
  752TMC3    C111108   1.357   3.566  16.478  0.1107 -0.4543 -0.3183
  752TMC3    C211109   1.259   3.579  16.569  0.2480  1.2116 -0.3089
  752TMC3    C311110   1.279   3.534  16.695 -0.0149  0.2628 -0.5696
  752TMC3    C411111   1.478   3.508  16.510  0.4576 -0.0731 -0.2553
  752TMC3    C511112   1.496   3.460  16.637 -0.1427 -0.6210 -0.0158
  752TMC3    C611113   1.401   3.475  16.733  0.0413 -0.5453 -0.3133
  752TMC3     C11114   1.356   3.631  16.345  0.0930  0.5983  1.1133
  752TMC3     O11115   1.463   3.632  16.281  0.1726 -0.1596 -0.4411
  752TMC3     H11116   1.159   3.609  16.538 -0.3826  1.7676  2.2323
  752TMC3    H111117   1.554   3.494  16.434  1.7167  0.4611  0.9011
  752TMC3    H211118   1.412   3.452  16.839 -1.4708  2.6834  0.5550
  752TMC3    C711119   1.624   3.396  16.668  0.3942 -0.3289  0.2123
  752TMC3    C811120   1.167   3.535  16.787 -0.3316  0.1358  0.8424
  752TMC3    O111121   1.703   3.395  16.574 -0.5178  0.3763 -0.0063
  752TMC3    O211122   1.173   3.475  16.891 -0.4828  0.4829  0.4186
  753TMC3    C111123   3.363   0.385  13.545  0.0453  0.0823  0.0606
  753TMC3    C211124   3.494   0.415  13.560  0.0554  0.3771  0.4327
  753TMC3    C311125   3.573   0.327  13.494 -0.4844 -0.1374 -0.1137
  753TMC3    C411126   3.311   0.279  13.478  0.1080 -0.0304 -0.1861
  753TMC3    C511127   3.398   0.199  13.402 -0.5659 -0.6249 -0.2573
  753TMC3    C611128   3.531   0.229  13.410 -0.1492  0.7236  0.1640
  753TMC3     C11129   3.262   0.478  13.594 -0.5796  0.2771  0.2208
  753TMC3     O11130   3.173   0.511  13.524  0.3568  0.1691 -0.5729
  753TMC3     H11131   3.520   0.515  13.591 -0.1541  0.5125  0.1657
  753TMC3    H111132   3.203   0.284  13.467  0.0344  1.8560  1.3430
  753TMC3    H211133   3.598   0.169  13.349 -0.6055  0.3111  0.0753
  753TMC3    C711134   3.351   0.151  13.276  0.5849  0.9051  0.3721
  753TMC3    C811135   3.718   0.336  13.515 -0.1611  0.1990 -0.0522
  753TMC3    O111136   3.416   0.185  13.180  0.0415  0.0694  0.5848
  753TMC3    O211137   3.797   0.273  13.446  0.1219 -0.0180  0.2316
  754MPD2     C11138   2.413   3.717  13.096  0.3662  0.2342 -0.1428
  754MPD2    C111139   2.407   3.580  13.098 -0.1336 -0.2127  0.4997
  754MPD2    C211140   2.294   3.516  13.056  0.2766 -0.4334 -0.0665
  754MPD2    C311141   2.181   3.582  13.011 -0.1630 -0.2475  0.0829
  754MPD2    C411142   2.190   3.718  13.005 -0.5953  0.3645  0.2593
  754MPD2    C511143   2.303   3.787  13.046  0.1778  0.1254 -0.8039
  754MPD2     H11144   2.298   3.408  13.064  1.3338 -0.4221 -0.4487
  754MPD2    H111145   2.103   3.772  12.969 -0.1656  0.5918 -0.4314
  754MPD2    H211146   2.503   3.768  13.128  0.2029  2.2212 -2.8511
  754MPD2    H311147   2.298   3.895  13.043 -1.9643  0.0528  0.2943
  754MPD2     N11148   2.064   3.520  12.961 -0.0568 -0.0671  0.2793
  754MPD2    H511149   1.992   3.574  12.915 -2.0617 -2.4281  0.6287
  754MPD2    N111150   2.510   3.505  13.158  0.0281 -0.4022  0.0627
  754MPD2    H711151   2.580   3.555  13.210 -0.2381 -2.9380  2.8635
  755MPD2     C11152   1.093   3.631  13.002  0.6363 -0.3578 -0.5550
  755MPD2    C111153   1.206   3.665  13.075  0.6122 -0.3590  0.4747
  755MPD2    C211154   1.328   3.614  13.043  0.3580  0.1819 -0.5335
  755MPD2    C311155   1.334   3.522  12.937 -0.4737  0.0080  0.0247
  755MPD2    C411156   1.220   3.487  12.876  0.0718  0.7506 -0.4178
  755MPD2    C511157   1.096   3.536  12.903 -0.3697 -0.0504  0.4022
  755MPD2     H11158   1.412   3.647  13.103 -0.6619  0.2559  0.8407
  755MPD2    H111159   1.220   3.411  12.799 -0.5497 -0.1572  0.4828
  755MPD2    H211160   1.000   3.685  13.017 -0.1296 -1.5068 -1.2113
  755MPD2    H311161   1.009   3.502  12.847  0.4850 -2.3981  0.5115
  755MPD2     N11162   1.452   3.465  12.887 -0.7377 -0.5780  0.8163
  755MPD2    H511163   1.454   3.416  12.798 -2.5724 -0.2184  0.5824
  755MPD2    N111164   1.203   3.753  13.177 -0.1852  0.2722 -0.1153
  755MPD2    H711165   1.290   3.793  13.211  0.0033 -0.5184  0.3340
  756MPD2     C11166   2.747   3.153   9.953 -0.7434  0.0432 -0.0389
  756MPD2    C111167   2.726   3.281   9.901  0.1597 -0.5168 -0.0811
  756MPD2    C211168   2.710   3.287   9.769 -0.4348  0.7406 -0.1925
  756MPD2    C311169   2.679   3.179   9.689 -0.5156  0.1528  0.6072
  756MPD2    C411170   2.692   3.051   9.746 -0.5119  0.5522  0.0533
  756MPD2    C511171   2.723   3.038   9.881 -0.6049 -0.3930  0.5321
  756MPD2     H11172   2.695   3.384   9.722 -2.8174  0.2970 -0.3677
  756MPD2    H111173   2.690   2.958   9.690  0.9462 -0.9864  2.5528
  756MPD2    H211174   2.764   3.133  10.058 -0.4081 -0.1069 -0.1224
  756MPD2    H311175   2.742   2.940   9.922 -2.6831 -0.2483  1.8434
  756MPD2     N11176   2.661   3.201   9.548  0.1057 -0.0139 -0.2105
  756MPD2    H511177   2.661   3.295   9.509 -3.7781 -0.7551 -1.9846
  756MPD2    N111178   2.724   3.384  10.000 -0.4311 -0.0056  0.4100
  756MPD2    H711179   2.721   3.359  10.098 -2.0149  0.1429  0.4108
  757MPD2     C11180   1.962   2.876   8.963  0.5688 -0.4929 -0.2695
  757MPD2    C111181   1.974   2.910   9.096 -0.3159  0.2867 -0.2470
  757MPD2    C211182   2.092   2.976   9.133 -0.3874  0.7711 -0.2772
  757MPD2    C311183   2.196   3.001   9.057 -0.3505 -0.0425  0.3328
  757MPD2    C411184   2.182   2.964   8.922 -0.0681 -0.4237 -0.0403
  757MPD2    C511185   2.061   2.907   8.875  0.7173 -0.0379  0.0195
  757MPD2     H11186   2.109   2.999   9.238 -0.3577 -1.4319  0.2097
  757MPD2    H111187   2.255   2.991   8.846 -1.4965  1.5290 -0.6969
  757MPD2    H211188   1.875   2.833   8.913 -0.1193  1.8368 -1.0946
  757MPD2    H311189   2.055   2.891   8.767 -0.1536 -1.6423  0.2915
  757MPD2     N11190   2.316   3.053   9.107  0.1916 -0.4921  0.6461
  757MPD2    H511191   2.325   3.073   9.207  1.4202  1.0946  0.2258
  757MPD2    N111192   1.865   2.885   9.194 -0.1131  0.1984  0.7524
  757MPD2    H711193   1.777   2.847   9.161 -0.6325  1.7098  0.4045
  758MPD2     C11194   2.356   3.676  15.902 -0.9854 -0.6054 -0.0138
  758MPD2    C111195   2.352   3.558  15.965  0.5062  0.7965 -0.5839
  758MPD2    C211196   2.286   3.548  16.084  0.4100 -0.1517 -1.1708
  758MPD2    C311197   2.229   3.659  16.140 -0.2968  0.2080  0.0700
  758MPD2    C411198   2.230   3.781  16.071 -0.6371  0.1799  0.1417
  758MPD2    C511199   2.290   3.785  15.950  0.8413  0.2343  0.0861
  758MPD2     H11200   2.290   3.455  16.139  0.8790  0.2599 -0.5213
  758MPD2    H111201   2.179   3.871  16.104  0.0853  1.5216 -2.4745
  758MPD2    H211202   2.412   3.685  15.810 -0.4587 -0.8304  0.2888
  758MPD2    H311203   2.291   3.881  15.899 -1.4894 -1.4845 -3.2780
  758MPD2     N11204   2.175   3.668  16.270 -0.6266  0.4210  0.2519
  758MPD2    H511205   2.143   3.757  16.306  0.8978 -0.2520  3.2900
  758MPD2    N111206   2.421   3.450  15.898  0.0231 -0.0751 -0.2598
  758MPD2    H711207   2.491   3.466  15.825  1.2321 -2.3292  0.4038
  759MPD2     C11208   0.964   1.625  10.577  0.0367 -0.2846 -0.3985
  759MPD2    C111209   1.015   1.496  10.576 -0.4092 -0.3189 -0.1092
  759MPD2    C211210   1.097   1.458  10.473  0.3559 -0.6187 -0.4382
  759MPD2    C311211   1.124   1.540  10.362 -0.2237 -0.1083 -0.3960
  759MPD2    C411212   1.079   1.671  10.362 -0.1531  1.0867 -0.2127
  759MPD2    C511213   0.995   1.703  10.469 -0.2039 -0.6290  0.2897
  759MPD2     H11214   1.127   1.354  10.475 -1.6508 -1.1864 -0.3365
  759MPD2    H111215   1.097   1.739  10.280 -0.6111 -0.4395 -1.5847
  759MPD2    H211216   0.907   1.675  10.653  0.1089 -1.2926  0.3135
  759MPD2    H311217   0.952   1.803  10.468 -1.2946 -1.1135 -1.5625
  759MPD2     N11218   1.194   1.481  10.257 -0.3457 -0.2790  0.4912
  759MPD2    H511219   1.229   1.386  10.271  3.8264  0.8979 -1.9390
  759MPD2    N111220   1.000   1.416  10.693 -0.1399  0.0427  0.4970
  759MPD2    H711221   1.053   1.331  10.712  0.6635  0.2750 -0.6999
  760MPD2     C11222   0.726   3.714  11.920  0.3640 -0.3700  0.2665
  760MPD2    C111223   0.853   3.747  11.961 -0.0155  0.6051 -0.4433
  760MPD2    C211224   0.916   3.671  12.060 -0.0722 -0.5364 -0.1801
  760MPD2    C311225   0.851   3.555  12.106  0.4890 -0.5824  0.1537
  760MPD2    C411226   0.725   3.527  12.062  0.5081 -0.1874 -0.0041
  760MPD2    C511227   0.661   3.611  11.981  0.4814  0.2263 -0.5427
  760MPD2     H11228   1.023   3.684  12.067 -0.4061  2.1105 -0.0872
  760MPD2    H111229   0.673   3.439  12.100 -0.2911  0.6743  0.8851
  760MPD2    H211230   0.660   3.772  11.857  1.1037 -1.0376 -1.1167
  760MPD2    H311231   0.558   3.594  11.952  0.8097  0.7406 -2.0198
  760MPD2     N11232   0.911   3.454  12.178 -0.0875 -0.1068  0.2276
  760MPD2    H511233   0.859   3.368  12.193 -1.0400  0.1822 -1.4393
  760MPD2    N111234   0.930   3.847  11.897 -0.1312 -0.4486  0.0012
  760MPD2    H711235   1.028   3.840  11.923 -0.2116 -0.7215  0.2321
  761MPD2     C11236   2.332   3.019  11.512 -0.8475  0.0700 -0.7382
  761MPD2    C111237   2.380   3.003  11.388 -0.0699  0.0987  0.1603
  761MPD2    C211238   2.507   3.051  11.371  0.4286  0.1867 -0.4654
  761MPD2    C311239   2.577   3.117  11.471  0.0033 -0.1497  0.0270
  761MPD2    C411240   2.513   3.126  11.594 -1.3454  0.2038  0.2107
  761MPD2    C511241   2.396   3.075  11.615 -0.3736 -0.2518 -0.6492
  761MPD2     H11242   2.553   3.025  11.276 -0.2787  1.3742 -1.1335
  761MPD2    H111243   2.567   3.170  11.677 -0.5872  2.9623 -1.7211
  761MPD2    H211244   2.234   2.983  11.541 -0.0829 -3.1867 -2.1156
  761MPD2    H311245   2.348   3.088  11.712  1.4566 -1.0166  0.3581
  761MPD2     N11246   2.708   3.159  11.461 -0.6207 -0.8065  0.2892
  761MPD2    H511247   2.743   3.216  11.537  2.5039  0.1352 -1.8518
  761MPD2    N111248   2.290   2.939  11.296 -0.6530 -0.4522 -0.5000
  761MPD2    H711249   2.194   2.931  11.327 -0.0526 -0.9107  1.2445
  762MPD2     C11250   2.690   2.916  10.883 -0.3199 -0.5325  0.7102
  762MPD2    C111251   2.615   2.833  10.793 -0.6488 -0.0733 -0.4625
  762MPD2    C211252   2.675   2.779  10.681  0.1514 -0.2762  0.5728
  762MPD2    C311253   2.811   2.805  10.659  0.4708 -0.1662  0.1248
  762MPD2    C411254   2.884   2.893  10.740 -0.3496  0.2054 -0.1319
  762MPD2    C511255   2.819   2.947  10.852  0.4089  0.2082  0.7584
  762MPD2     H11256   2.614   2.710  10.624  0.1923  1.2674 -1.3226
  762MPD2    H111257   2.986   2.922  10.719 -0.6832  0.4684 -1.3708
  762MPD2    H211258   2.642   2.956  10.972  1.1006 -0.0817  1.2737
  762MPD2    H311259   2.878   3.012  10.915  3.9324 -1.2109 -1.0020
  762MPD2     N11260   2.877   2.741  10.552  0.4273 -0.5736  0.5565
  762MPD2    H511261   2.824   2.668  10.506  0.3090  0.8831 -1.6156
  762MPD2    N111262   2.479   2.810  10.835  0.0567  0.7182 -0.2556
  762MPD2    H711263   2.457   2.852  10.925  0.4267 -2.6463  1.3872
  763MPD2     C11264   3.951   3.529  16.243 -0.1079 -0.1925 -0.0920
  763MPD2    C111265   4.090   3.500  16.237 -0.1085 -0.1349 -0.1848
  763MPD2    C211266   4.170   3.516  16.349  0.3668  0.5810  0.6817
  763MPD2    C311267   4.126   3.571  16.463 -0.4561  0.2822 -0.0155
  763MPD2    C411268   3.996   3.613  16.465  0.7988 -0.1491 -0.1947
  763MPD2    C511269   3.905   3.587  16.361 -0.7700 -0.3882  0.6078
  763MPD2     H11270   4.278   3.501  16.346 -0.0762 -2.6151  0.9797
  763MPD2    H111271   3.951   3.657  16.554  1.3974  2.8004 -1.3511
  763MPD2    H211272   3.876   3.507  16.168  2.0088 -2.7217 -1.4419
  763MPD2    H311273   3.799   3.595  16.384 -0.8979  0.5082 -0.3116
  763MPD2     N11274   4.220   3.623  16.559 -0.2971 -0.0532 -0.5533
  763MPD2    H511275   4.316   3.592  16.547 -0.6080 -0.5144 -1.8466
  763MPD2    N111276   4.139   3.456  16.111  0.1696  0.4598 -0.0511
  763MPD2    H711277   4.078   3.468  16.030  1.1196 -0.8171 -0.9597
  764MPD2     C11278   2.471   1.037  17.220 -0.1563  0.0377  0.0883
  764MPD2    C111279   2.454   0.910  17.171 -0.0859  0.5659  0.2728
  764MPD2    C211280   2.433   0.814  17.264 -0.7749 -0.2410 -0.3038
  764MPD2    C311281   2.402   0.836  17.394 -0.2282 -0.0046 -0.4123
  764MPD2    C411282   2.413   0.964  17.445 -0.2297  0.2601 -0.2793
  764MPD2    C511283   2.451   1.063  17.359 -0.6062 -0.0492  0.5998
  764MPD2     H11284   2.421   0.716  17.218 -0.4998 -0.9670  1.1760
  764MPD2    H111285   2.405   0.975  17.553  0.8947  0.1730 -0.1863
  764MPD2    H211286   2.485   1.125  17.159  0.9674 -0.5031 -0.4435
  764MPD2    H311287   2.457   1.163  17.402  1.8982  0.3112 -0.5450
  764MPD2     N11288   2.372   0.722  17.472  0.5540  0.6742  0.2655
  764MPD2    H511289   2.371   0.633  17.423  0.2725 -0.5396  2.4880
  764MPD2    N111290   2.450   0.876  17.035  0.4372 -0.3626 -0.0847
  764MPD2    H711291   2.452   0.778  17.011 -0.7329 -0.0095 -1.7048
  765MPD2     C11292   1.692   2.731  16.132  0.3548  0.3263 -0.3322
  765MPD2    C111293   1.777   2.839  16.093  0.9126  0.2072  0.3812
  765MPD2    C211294   1.867   2.822  15.988  0.0147 -0.4234 -0.5081
  765MPD2    C311295   1.871   2.702  15.919  0.4523 -0.3849  0.7298
  765MPD2    C411296   1.794   2.599  15.963 -0.8132 -0.2679 -0.0384
  765MPD2    C511297   1.714   2.610  16.077 -0.3645 -0.1500  0.5311
  765MPD2     H11298   1.926   2.905  15.952 -1.4236  0.9087  0.1939
  765MPD2    H111299   1.799   2.500  15.918 -2.0236 -0.0721 -0.6173
  765MPD2    H211300   1.621   2.743  16.213 -0.0326  0.9877 -0.7802
  765MPD2    H311301   1.662   2.521  16.110  2.3839 -1.5203  1.1933
  765MPD2     N11302   1.955   2.699  15.804 -0.4326  0.1898 -0.6853
  765MPD2    H511303   2.008   2.783  15.782  0.1464 -0.0779 -0.3259
  765MPD2    N111304   1.739   2.972  16.140  0.0979 -0.5060  0.4723
  765MPD2    H711305   1.652   2.980  16.191 -0.1249  1.0376 -0.1409
  766MPD2     C11306   1.327   3.261  15.706  0.5560 -0.9189 -0.6436
  766MPD2    C111307   1.447   3.218  15.751 -0.1980 -0.5448 -0.6031
  766MPD2    C211308   1.517   3.137  15.662  0.0501  0.0887 -0.0310
  766MPD2    C311309   1.477   3.114  15.533  0.2534  0.7773 -0.2170
  766MPD2    C411310   1.358   3.162  15.490  0.1034 -0.8650 -0.0339
  766MPD2    C511311   1.284   3.234  15.579 -0.3264  0.1466  0.9205
  766MPD2     H11312   1.611   3.102  15.703  0.4318 -1.4360 -2.1902
  766MPD2    H111313   1.318   3.136  15.393 -1.0600  0.4887  0.0768
  766MPD2    H211314   1.251   3.315  15.762  1.4176 -0.8674  0.4812
  766MPD2    H311315   1.188   3.269  15.544  0.2119  1.3895  0.6861
  766MPD2     N11316   1.556   3.051  15.435 -1.2277 -0.2409  0.0711
  766MPD2    H511317   1.524   3.068  15.340  0.2081 -0.7783 -0.5036
  766MPD2    N111318   1.510   3.243  15.873 -0.0072  0.3654  0.0235
  766MPD2    H711319   1.607   3.214  15.885 -0.2066 -0.5474 -0.5569
  767MPD2     C11320   1.037   3.503  15.261 -0.3454 -0.1541 -0.1782
  767MPD2    C111321   1.160   3.448  15.230 -0.3623  0.7641 -0.3787
  767MPD2    C211322   1.168   3.359  15.126 -0.5430  0.9357 -0.4372
  767MPD2    C311323   1.068   3.337  15.040 -0.0348  0.1532 -0.4789
  767MPD2    C411324   0.951   3.404  15.065  1.0640  0.7625  0.1789
  767MPD2    C511325   0.932   3.480  15.182 -0.6141  0.4264 -0.3888
  767MPD2     H11326   1.260   3.306  15.102 -0.6540  0.0473  1.0619
  767MPD2    H111327   0.871   3.391  14.994  1.4412 -1.6740  0.2035
  767MPD2    H211328   1.025   3.571  15.344  0.6184 -1.3484  0.9417
  767MPD2    H311329   0.840   3.537  15.190 -0.1328  0.9553  1.2194
  767MPD2     N11330   1.097   3.260  14.921 -0.1404  0.5749  0.0287
  767MPD2    H511331   1.187   3.215  14.938 -0.7727 -0.3346  0.9986
  767MPD2    N111332   1.273   3.489  15.302 -0.0339  0.2388 -0.3451
  767MPD2    H711333   1.254   3.566  15.366  0.6094  0.1148 -0.0140
  768MPD2     C11334   2.396   1.298  10.423 -0.3997  0.8074 -0.4041
  768MPD2    C111335   2.339   1.337  10.543 -0.6664  0.2216  0.3764
  768MPD2    C211336   2.422   1.375  10.651  0.4264  0.2305  0.4463
  768MPD2    C311337   2.559   1.367  10.640 -0.3046 -0.0699 -0.4062
  768MPD2    C411338   2.610   1.321  10.526 -0.5494 -1.0043  0.2468
  768MPD2    C511339   2.529   1.286  10.419  0.4551 -0.4846  0.0509
  768MPD2     H11340   2.367   1.416  10.735  3.9198  2.3757  1.6504
  768MPD2    H111341   2.717   1.303  10.517  0.1444  2.9959  0.7785
  768MPD2    H211342   2.338   1.263  10.338 -1.2174 -2.6082  1.5566
  768MPD2    H311343   2.586   1.259  10.331 -1.4385  0.1485 -1.3645
  768MPD2     N11344   2.647   1.388  10.751  1.2336  0.5375  0.2308
  768MPD2    H511345   2.745   1.364  10.738  0.7929 -0.2951 -1.5042
  768MPD2    N111346   2.203   1.329  10.561  0.6988  1.0469  0.5264
  768MPD2    H711347   2.167   1.348  10.655  0.5075 -2.4328  1.1448
  769MPD2     C11348   3.677   4.481  14.986 -0.3310 -0.0907 -0.0128
  769MPD2    C111349   3.571   4.418  15.046  0.0383  1.1199 -0.9406
  769MPD2    C211350   3.543   4.469  15.173  0.0128  0.5276 -0.1388
  769MPD2    C311351   3.623   4.560  15.236 -0.3555  0.1135  0.1374
  769MPD2    C411352   3.733   4.613  15.180  0.3852 -0.4130 -0.0215
  769MPD2    C511353   3.759   4.577  15.049  0.0939  0.0192  0.4028
  769MPD2     H11354   3.457   4.431  15.226  1.0614 -1.6130  0.0427
  769MPD2    H111355   3.796   4.694  15.216  0.1765 -1.0961  1.8913
  769MPD2    H211356   3.699   4.456  14.883  0.7708  0.9812 -0.0383
  769MPD2    H311357   3.840   4.622  14.993  0.6264 -1.2977  0.1438
  769MPD2     N11358   3.580   4.597  15.370 -0.5696 -0.0408 -0.1218
  769MPD2    H511359   3.494   4.558  15.406 -2.0503  1.9993 -1.4644
  769MPD2    N111360   3.496   4.318  14.979 -0.7337 -0.3362  0.4651
  769MPD2    H711361   3.522   4.278  14.889  2.4618 -0.9896  1.6605
  770MPD2     C11362   3.108   3.306  15.026  0.5314 -0.2855  0.4159
  770MPD2    C111363   2.995   3.383  14.995 -0.6493 -0.1910  0.1115
  770MPD2    C211364   3.001   3.527  15.008  0.4412 -0.2383 -0.2808
  770MPD2    C311365   3.123   3.583  15.043  0.3363 -0.2969  0.5298
  770MPD2    C411366   3.229   3.505  15.069 -0.9462  0.2895  0.3793
  770MPD2    C511367   3.224   3.374  15.064  0.5031  0.3452 -0.3825
  770MPD2     H11368   2.922   3.591  14.971 -1.1620 -1.2668  1.3823
  770MPD2    H111369   3.328   3.548  15.066 -0.9337  0.0501 -2.6045
  770MPD2    H211370   3.106   3.199  15.039 -0.4693 -0.3332 -0.1071
  770MPD2    H311371   3.314   3.316  15.080  1.2989  2.0195  1.2622
  770MPD2     N11372   3.143   3.720  15.019  0.2194  0.2356  0.1069
  770MPD2    H511373   3.069   3.775  14.977 -0.5544 -1.5309 -0.8104
  770MPD2    N111374   2.870   3.323  14.960 -0.1652  0.0006  0.5324
  770MPD2    H711375   2.863   3.223  14.943  0.2417  0.2745 -1.2857
  771MPD2     C11376   3.717   2.426  14.211  0.5039 -0.1407 -0.0742
  771MPD2    C111377   3.673   2.508  14.103 -0.3143  0.0447 -0.6221
  771MPD2    C211378   3.612   2.453  13.994  0.8524  0.1099  0.2580
  771MPD2    C311379   3.604   2.314  13.997 -0.2850 -0.4095 -0.7383
  771MPD2    C411380   3.648   2.237  14.100 -0.5265 -0.4771 -0.6438
  771MPD2    C511381   3.702   2.293  14.209  0.1535 -0.5041  0.2014
  771MPD2     H11382   3.578   2.511  13.908 -0.2952 -1.1592 -0.1536
  771MPD2    H111383   3.635   2.129  14.110 -0.5171 -0.2608  1.8598
  771MPD2    H211384   3.764   2.460  14.303  0.1764  2.8510 -1.0115
  771MPD2    H311385   3.740   2.230  14.289 -1.2142 -0.2120  1.0789
  771MPD2     N11386   3.567   2.247  13.879 -0.2312  0.0037  0.3882
  771MPD2    H511387   3.545   2.303  13.798  0.1834  0.5248  0.6335
  771MPD2    N111388   3.676   2.651  14.106 -0.0306  0.3387  0.6364
  771MPD2    H711389   3.625   2.696  14.031  0.3352  0.2712  0.3494
  772MPD2     C11390   3.254   3.062  13.827  0.1367  0.5948 -0.4843
  772MPD2    C111391   3.276   3.023  13.960 -0.4874  0.4740 -0.2065
  772MPD2    C211392   3.164   3.007  14.044  0.2842 -0.5810 -0.3114
  772MPD2    C311393   3.039   3.006  13.988 -0.3320  0.4907 -0.2889
  772MPD2    C411394   3.029   3.020  13.854 -0.5235  0.3663  0.8362
  772MPD2    C511395   3.134   3.042  13.772  0.3456  0.0688 -0.4098
  772MPD2     H11396   3.181   2.995  14.150 -1.0398 -0.6122 -0.1005
  772MPD2    H111397   2.934   3.017  13.802  0.6953 -0.7125 -1.3011
  772MPD2    H211398   3.332   3.063  13.752 -0.7145 -0.6159 -1.4013
  772MPD2    H311399   3.113   3.066  13.669 -1.3580 -1.6437 -0.4694
  772MPD2     N11400   2.925   2.982  14.063 -1.0643 -0.3526  0.3853
  772MPD2    H511401   2.832   2.989  14.022 -1.6830 -1.0036  1.6889
  772MPD2    N111402   3.403   3.024  14.018 -0.0339  0.4924  0.0062
  772MPD2    H711403   3.412   3.011  14.119  0.9734 -0.3456 -0.1945
  773MPD2     C11404   2.660   3.774   0.624 -0.0901  0.3862 -0.4630
  773MPD2    C111405   2.656   3.703   0.505  0.4357  0.5302 -0.4034
  773MPD2    C211406   2.691   3.573   0.506 -0.2345  0.1902  0.3382
  773MPD2    C311407   2.734   3.509   0.621  0.7164  0.2183  0.5099
  773MPD2    C411408   2.722   3.573   0.742  0.1902 -0.1490  0.2746
  773MPD2    C511409   2.684   3.700   0.742  0.5931  0.0045 -0.0758
  773MPD2     H11410   2.688   3.511   0.418  1.4065  0.8080 -0.1659
  773MPD2    H111411   2.729   3.516   0.833 -0.6747  1.5563  1.4207
  773MPD2    H211412   2.637   3.878   0.639  0.6750  0.2389  1.6821
  773MPD2    H311413   2.675   3.744   0.841 -3.6877 -1.6399  0.2636
  773MPD2     N11414   2.792   3.383   0.605 -0.0638  0.7797  0.4329
  773MPD2    H511415   2.803   3.334   0.517 -0.7339 -0.0886  0.8330
  773MPD2    N111416   2.619   3.761   0.383  0.2637  0.1121  0.9007
  773MPD2    H711417   2.628   3.698   0.304 -0.0776  0.9202  0.2111
  774MPD2     C11418   2.002   2.650  13.307  0.2488  0.7646  0.6720
  774MPD2    C111419   2.005   2.725  13.426 -0.3098 -0.3363  0.1087
  774MPD2    C211420   2.091   2.833  13.435 -0.1896  0.5456  0.1192
  774MPD2    C311421   2.189   2.863  13.337  0.9130  0.3666  0.1504
  774MPD2    C411422   2.184   2.780  13.229 -0.0823 -0.3299 -0.0752
  774MPD2    C511423   2.094   2.684  13.211  0.4603  0.5113 -0.3447
  774MPD2     H11424   2.079   2.901  13.519  0.0431 -1.6264  1.9233
  774MPD2    H111425   2.254   2.802  13.150 -1.4028  1.0453 -0.8523
  774MPD2    H211426   1.928   2.572  13.291  1.2126 -0.0837  0.3530
  774MPD2    H311427   2.085   2.625  13.121  1.3996 -0.5560  0.2572
  774MPD2     N11428   2.275   2.979  13.365  0.1724  0.5650  1.1627
  774MPD2    H511429   2.239   3.037  13.440 -1.0386 -2.5837  3.0290
  774MPD2    N111430   1.925   2.675  13.528 -0.3239 -0.1426 -0.2181
  774MPD2    H711431   1.858   2.600  13.518 -2.6252  1.6311  1.7541
  775MPD2     C11432   3.664   4.258  15.878  0.2403 -0.3819 -0.2224
  775MPD2    C111433   3.642   4.381  15.942  0.9465  0.6420  0.2247
  775MPD2    C211434   3.706   4.491  15.894 -1.3498 -1.0528  0.1099
  775MPD2    C311435   3.785   4.481  15.783 -0.1085  0.0183 -0.2541
  775MPD2    C411436   3.816   4.356  15.733 -0.4494  0.0568 -0.3843
  775MPD2    C511437   3.751   4.245  15.776  0.2644 -0.2128  0.4617
  775MPD2     H11438   3.672   4.587  15.932 -0.9893 -0.9004  0.0389
  775MPD2    H111439   3.885   4.343  15.651  0.4358 -2.0537  0.6919
  775MPD2    H211440   3.607   4.172  15.912  0.5104 -0.8769 -1.0040
  775MPD2    H311441   3.773   4.151  15.727  3.0633  0.4469  0.4892
  775MPD2     N11442   3.857   4.593  15.726  0.3065  0.7087 -0.0740
  775MPD2    H511443   3.909   4.578  15.641 -0.9963 -0.1764 -0.7213
  775MPD2    N111444   3.545   4.379  16.050 -0.3696  0.0980  0.1380
  775MPD2    H711445   3.492   4.293  16.058 -0.2500 -0.2150 -2.3324
  776MPD2     C11446   3.215   4.580  11.653 -0.9066  0.7344  0.6255
  776MPD2    C111447   3.078   4.588  11.618 -0.2149  0.1839  0.5502
  776MPD2    C211448   3.015   4.711  11.604  0.0621 -0.4699 -0.9509
  776MPD2    C311449   3.099   0.097  11.613  0.0407 -0.3753 -0.0754
  776MPD2    C411450   3.237   0.082  11.637 -0.3380 -0.2121  0.0503
  776MPD2    C511451   3.287   4.689  11.662  0.1399  0.4972  1.1554
  776MPD2     H11452   2.908   4.716  11.588  0.0479 -1.8759 -1.3009
  776MPD2    H111453   3.300   0.169  11.647 -2.6978  1.7255 -2.1539
  776MPD2    H211454   3.268   4.487  11.670  0.7731  1.3877 -1.0367
  776MPD2    H311455   3.388   4.680  11.701  1.0415  0.8069 -1.0976
  776MPD2     N11456   3.055   0.228  11.580  0.0432 -0.1660  0.1540
  776MPD2    H511457   3.128   0.292  11.550  0.0160  1.7340  4.1004
  776MPD2    N111458   3.011   4.466  11.601 -0.3393  0.1544  0.5671
  776MPD2    H711459   3.060   4.390  11.647 -0.5865 -0.4620 -0.1921
  777MPD2     C11460   3.163   2.571   1.194  0.4281  0.0254  0.1228
  777MPD2    C111461   3.038   2.573   1.140  0.4010  0.2204  0.0409
  777MPD2    C211462   3.004   2.484   1.044 -0.0663 -0.1028 -0.4440
  777MPD2    C311463   3.095   2.383   1.006  0.3560 -0.0158  0.2307
  777MPD2    C411464   3.214   2.369   1.070 -0.0614  0.2946 -0.0347
  777MPD2    C511465   3.246   2.472   1.162  0.2962 -0.8788  0.5052
  777MPD2     H11466   2.902   2.469   1.011 -0.6737 -2.7328  2.5458
  777MPD2    H111467   3.287   2.293   1.045 -0.9760 -0.3044 -0.8588
  777MPD2    H211468   3.182   2.641   1.275  0.7056 -1.9378  1.7485
  777MPD2    H311469   3.344   2.466   1.207  0.7606  3.1828  0.0638
  777MPD2     N11470   3.051   2.288   0.910  0.1415 -1.4023 -0.2962
  777MPD2    H511471   2.963   2.314   0.867 -0.0116 -0.8859  0.3222
  777MPD2    N111472   2.942   2.672   1.183  0.6882  0.7275  0.2653
  777MPD2    H711473   2.970   2.740   1.253  0.7360  0.1924  0.7670
  778MPD2     C11474   3.712   1.869  15.329  0.3578  1.1512 -0.5569
  778MPD2    C111475   3.642   1.884  15.213  0.0673 -0.6379 -0.3393
  778MPD2    C211476   3.697   1.966  15.116  0.1585  0.3631 -0.0569
  778MPD2    C311477   3.815   2.040  15.130  0.2748 -0.3942  0.0117
  778MPD2    C411478   3.880   2.024  15.247 -0.7817  0.7222  0.0535
  778MPD2    C511479   3.826   1.942  15.345  0.0317  1.1179  0.1726
  778MPD2     H11480   3.642   1.974  15.023  0.8051  0.7322 -0.4103
  778MPD2    H111481   3.972   2.075  15.270 -0.8327  0.7301  0.2456
  778MPD2    H211482   3.682   1.797  15.405 -2.5204  2.3701 -0.5329
  778MPD2    H311483   3.884   1.918  15.433 -0.5274  1.5000  0.6447
  778MPD2     N11484   3.859   2.124  15.027 -0.4879  0.0868  0.5096
  778MPD2    H511485   3.806   2.125  14.940 -1.3654 -1.1846  1.0167
  778MPD2    N111486   3.513   1.827  15.195 -0.2449  0.7341 -0.4224
  778MPD2    H711487   3.467   1.842  15.106  2.4524 -0.9329 -2.0951
  779MPD2     C11488   3.568   1.118  14.606 -0.6219  0.3387  0.9016
  779MPD2    C111489   3.632   1.148  14.485 -0.2411 -0.4985 -0.0308
  779MPD2    C211490   3.621   1.271  14.427  0.3721  0.2560 -0.2765
  779MPD2    C311491   3.524   1.358  14.466  0.3077  0.3868 -0.4587
  779MPD2    C411492   3.453   1.327  14.582  0.1795  0.2137 -0.5776
  779MPD2    C511493   3.472   1.203  14.643 -0.0556 -0.2917 -0.2676
  779MPD2     H11494   3.676   1.294  14.337  0.4386  1.7744  0.1545
  779MPD2    H111495   3.385   1.398  14.628  0.4107 -0.1560  0.3467
  779MPD2    H211496   3.577   1.020  14.652  1.4025 -1.3029 -2.9261
  779MPD2    H311497   3.416   1.183  14.734  0.0974 -1.8195 -0.5030
  779MPD2     N11498   3.528   1.485  14.404 -0.3243 -0.3817  0.2085
  779MPD2    H511499   3.600   1.507  14.336  1.5546 -1.2018  1.9219
  779MPD2    N111500   3.727   1.060  14.431  0.4667  0.4005  0.6101
  779MPD2    H711501   3.750   0.979  14.488 -1.1188 -0.0117  0.6558
  780MPD2     C11502   3.257   1.409   1.305 -0.4061 -0.4486 -0.6682
  780MPD2    C111503   3.227   1.404   1.170 -0.4871 -0.1209  0.1769
  780MPD2    C211504   3.321   1.392   1.069 -0.1358  0.5343  0.6121
  780MPD2    C311505   3.462   1.396   1.096  0.1479 -0.1848 -0.0976
  780MPD2    C411506   3.495   1.394   1.229  0.4577  0.3514  0.3591
  780MPD2    C511507   3.392   1.405   1.326  0.3570  0.2519 -0.2280
  780MPD2     H11508   3.287   1.399   0.967  0.3654 -0.2033  0.3985
  780MPD2    H111509   3.594   1.382   1.271 -0.1555 -0.5099  1.5483
  780MPD2    H211510   3.193   1.410   1.393  2.0554  1.3570  1.0688
  780MPD2    H311511   3.420   1.401   1.431  1.5364 -3.2077 -0.6940
  780MPD2     N11512   3.561   1.390   0.995  0.1351 -0.3628  0.6355
  780MPD2    H511513   3.525   1.380   0.900  0.6391 -1.1733  0.5307
  780MPD2    N111514   3.091   1.400   1.145 -0.1765  0.7293  0.4110
  780MPD2    H711515   3.027   1.400   1.224 -0.1920  1.4840  0.3966
  781MPD2     C11516   0.220   2.629  11.858 -0.8434  0.3696 -0.0919
  781MPD2    C111517   0.283   2.557  11.957 -0.4879 -0.0546  0.2888
  781MPD2    C211518   0.376   2.464  11.915 -0.3486  0.1898 -0.2562
  781MPD2    C311519   0.415   2.452  11.782  0.2735 -0.3367 -0.2095
  781MPD2    C411520   0.352   2.533  11.689 -0.0929 -0.1350 -0.8108
  781MPD2    C511521   0.254   2.619  11.719  0.0130  0.4193 -0.2244
  781MPD2     H11522   0.427   2.401  11.988 -0.0213  0.3075 -0.3844
  781MPD2    H111523   0.383   2.528  11.585 -0.7869  0.9095 -1.0697
  781MPD2    H211524   0.136   2.695  11.877 -0.0969  0.4648  2.9244
  781MPD2    H311525   0.211   2.674  11.636  0.1534  0.0210 -0.5621
  781MPD2     N11526   0.527   2.382  11.729  0.3673 -0.0521  1.0842
  781MPD2    H511527   0.549   2.410  11.634 -0.4176 -0.4281  0.7865
  781MPD2    N111528   0.234   2.560  12.092  0.4756  0.0263 -0.0315
  781MPD2    H711529   0.259   2.482  12.152 -0.0646  0.2756  0.5111
  782MPD2     C11530   3.793   3.728  10.499 -0.2537  0.1275 -0.2850
  782MPD2    C111531   3.732   3.615  10.544  0.1606 -0.6700 -0.7783
  782MPD2    C211532   3.785   3.556  10.659  0.0343 -0.4522 -0.0498
  782MPD2    C311533   3.887   3.618  10.735  0.6377 -0.3209 -0.9243
  782MPD2    C411534   3.950   3.728  10.678  0.4131 -0.2907 -0.5367
  782MPD2    C511535   3.908   3.783  10.555  0.2967  0.1433 -0.4133
  782MPD2     H11536   3.750   3.459  10.692  1.0336 -1.5290 -2.1404
  782MPD2    H111537   4.034   3.778  10.724  0.2311 -0.9134  0.4550
  782MPD2    H211538   3.759   3.783  10.412 -0.0711  0.5380 -0.0938
  782MPD2    H311539   3.946   3.876  10.512 -1.4867  1.1164  0.1089
  782MPD2     N11540   3.938   3.569  10.863  0.4225  0.7191  0.2862
  782MPD2    H511541   4.018   3.618  10.902  1.2895  0.1881 -0.8194
  782MPD2    N111542   3.637   3.553  10.462  0.0932 -0.0335 -0.3021
  782MPD2    H711543   3.624   3.587  10.367 -0.1910 -0.1341 -0.3002
  783MPD2     C11544   3.231   2.857  10.949  1.0254  0.1838  0.5031
  783MPD2    C111545   3.244   2.989  10.958  0.8038 -0.6022 -0.0651
  783MPD2    C211546   3.297   3.065  10.857  0.2716  1.0283  0.1308
  783MPD2    C311547   3.324   3.001  10.734 -0.0765  0.2911  0.1019
  783MPD2    C411548   3.309   2.863  10.731  0.1535  0.8385 -0.3537
  783MPD2    C511549   3.260   2.788  10.835  0.5045  0.1787 -0.4438
  783MPD2     H11550   3.310   3.173  10.859  0.0920  1.0624 -1.0974
  783MPD2    H111551   3.339   2.803  10.646 -0.5117  1.8798 -1.3271
  783MPD2    H211552   3.198   2.805  11.038 -1.4997 -0.2499 -0.6979
  783MPD2    H311553   3.257   2.680  10.832  0.0876  0.1916 -0.4936
  783MPD2     N11554   3.347   3.078  10.620  0.1661 -0.4171  0.3019
  783MPD2    H511555   3.342   3.177  10.643  1.1312 -1.2879  4.1762
  783MPD2    N111556   3.190   3.040  11.076  0.2344  0.3976 -0.0140
  783MPD2    H711557   3.144   2.969  11.132 -0.8503  0.9553 -0.1942
  784MPD2     C11558   0.564   3.297   0.880 -0.2601  0.1342  0.0898
  784MPD2    C111559   0.600   3.372   0.769  0.9130  0.2276  0.8045
  784MPD2    C211560   0.504   3.406   0.689 -0.6477 -0.1999  0.2776
  784MPD2    C311561   0.371   3.382   0.721 -0.9087 -0.0698 -0.2878
  784MPD2    C411562   0.333   3.306   0.832  0.2868  0.6352  0.0201
  784MPD2    C511563   0.429   3.269   0.917 -0.4246 -0.1353 -0.0601
  784MPD2     H11564   0.534   3.465   0.603  0.6895 -1.0689  0.1396
  784MPD2    H111565   0.232   3.282   0.864  0.0077 -1.9194 -2.8484
  784MPD2    H211566   0.633   3.267   0.958 -0.5101  1.0377  0.6528
  784MPD2    H311567   0.416   3.221   1.012 -3.1840 -0.4747 -0.6227
  784MPD2     N11568   0.284   3.448   0.632 -0.2072  0.4284 -0.3041
  784MPD2    H511569   0.336   3.517   0.580 -0.3107  0.5742 -0.2182
  784MPD2    N111570   0.737   3.402   0.743  0.4950  0.5074  0.0784
  784MPD2    H711571   0.759   3.445   0.653  1.3660 -0.3071 -0.0960
  785MPD2     C11572   0.830   1.898  10.232  0.0030  0.4078 -0.1891
  785MPD2    C111573   0.755   1.953  10.331  0.1741 -0.5260  0.0480
  785MPD2    C211574   0.616   1.932  10.327 -0.0688  0.0751 -0.6393
  785MPD2    C311575   0.561   1.850  10.231  0.2703 -0.3317 -0.1762
  785MPD2    C411576   0.640   1.785  10.141  0.6499  0.4525 -0.0020
  785MPD2    C511577   0.772   1.814  10.139  0.2385 -0.2985 -0.4470
  785MPD2     H11578   0.540   1.966  10.396  2.2693 -1.5630  2.7457
  785MPD2    H111579   0.603   1.714  10.067  0.7503 -0.6590  1.0257
  785MPD2    H211580   0.938   1.902  10.225  0.2608 -2.8119  1.7207
  785MPD2    H311581   0.833   1.754  10.072  1.8535 -2.8537  3.2976
  785MPD2     N11582   0.419   1.859  10.222  0.1383 -0.3917 -0.1389
  785MPD2    H511583   0.379   1.919  10.294 -1.8234  0.4318 -1.9444
  785MPD2    N111584   0.817   2.055  10.415 -0.3033 -0.3140 -0.0880
  785MPD2    H711585   0.914   2.080  10.402 -0.0115 -1.7165 -0.6869
  786MPD2     C11586   4.079   0.567  14.570  0.1164 -0.3206 -0.2616
  786MPD2    C111587   4.205   0.517  14.555  0.1881 -0.3139  0.1853
  786MPD2    C211588   4.291   0.551  14.663 -0.5846 -0.7176  0.2203
  786MPD2    C311589   4.262   0.637  14.769  0.7340  0.6958 -0.0324
  786MPD2    C411590   4.131   0.685  14.770 -0.4259  0.4366 -0.2199
  786MPD2    C511591   4.042   0.647  14.676  0.6777 -0.4912  0.4058
  786MPD2     H11592   4.390   0.506  14.667 -0.4216 -0.5962 -2.2530
  786MPD2    H111593   4.101   0.744  14.856 -1.6348 -0.4315 -0.0499
  786MPD2    H211594   4.001   0.546  14.497 -1.0807  1.5980  0.4623
  786MPD2    H311595   3.942   0.689  14.677  0.3247 -1.3171 -0.3515
  786MPD2     N11596   4.358   0.680  14.865  0.2729 -0.1936 -0.2123
  786MPD2    H511597   4.334   0.763  14.918 -2.4056 -1.1646  0.1167
  786MPD2    N111598   4.253   0.433  14.453  0.2280 -0.3323 -0.0945
  786MPD2    H711599   4.349   0.400  14.456  0.2714 -0.2549 -0.7629
  787MPD2     C11600   4.691   0.259  14.662  0.5139  0.9249  0.4409
  787MPD2    C111601   4.659   0.142  14.602 -0.3141  0.4005 -0.0452
  787MPD2    C211602   4.717   0.020  14.648  0.7113  0.0546 -0.7541
  787MPD2    C311603   0.070   0.021  14.757  0.0456 -1.0595  0.1147
  787MPD2    C411604   0.119   0.144  14.802 -0.1958  0.0988  0.3205
  787MPD2    C511605   0.055   0.262  14.762  0.0917 -0.7650  0.0481
  787MPD2     H11606   4.683   4.657  14.602  0.4052  0.7242 -1.8634
  787MPD2    H111607   0.181   0.151  14.890  1.0165 -1.3889 -0.4235
  787MPD2    H211608   4.640   0.351  14.635 -1.7247  0.2326  2.3433
  787MPD2    H311609   0.074   0.351  14.819  0.6980 -0.3452 -0.8051
  787MPD2     N11610   0.120   4.624  14.806 -0.0042 -0.1703  0.0240
  787MPD2    H511611   0.094   4.541  14.753  0.1293 -1.2811  1.6997
  787MPD2    N111612   4.557   0.153  14.503 -0.0853 -0.1847 -0.3003
  787MPD2    H711613   4.531   0.247  14.474  0.2529  0.3880  1.2264
  788MPD2     C11614   1.908   3.442   0.403  0.2642  0.3833 -0.2118
  788MPD2    C111615   1.782   3.386   0.382  0.0754  0.5794  0.2787
  788MPD2    C211616   1.674   3.469   0.362 -0.0177  0.2636 -0.6596
  788MPD2    C311617   1.697   3.610   0.355 -0.5427 -0.5858 -0.1403
  788MPD2    C411618   1.822   3.661   0.381  0.0041  0.2794 -0.3590
  788MPD2    C511619   1.925   3.574   0.402 -0.2247 -0.5266  0.1931
  788MPD2     H11620   1.576   3.435   0.332 -0.7014  0.5222  1.3384
  788MPD2    H111621   1.848   3.765   0.398  1.2257  0.0356 -0.7159
  788MPD2    H211622   2.001   3.391   0.381 -0.8678 -0.3066 -3.3801
  788MPD2    H311623   2.026   3.608   0.419 -0.4431 -0.2241  0.8858
  788MPD2     N11624   1.600   3.709   0.325 -0.0547  0.8658 -0.0405
  788MPD2    H511625   1.635   3.801   0.303  1.3087  0.9312  2.4349
  788MPD2    N111626   1.774   3.246   0.356  0.1585  0.1660  0.3640
  788MPD2    H711627   1.861   3.198   0.337  0.4638  1.0772 -0.5734
  789MPD2     C11628   2.055   2.905  16.473  0.4744 -0.2528 -0.0511
  789MPD2    C111629   2.017   2.834  16.588 -0.0293 -0.2904 -0.7251
  789MPD2    C211630   1.896   2.861  16.656  0.3419 -0.0850  0.9100
  789MPD2    C311631   1.811   2.966  16.607  0.0894  0.1034  0.1820
  789MPD2    C411632   1.852   3.032  16.491 -0.3155 -0.4033  0.0777
  789MPD2    C511633   1.970   2.999  16.427 -0.1445  0.6826  0.2519
  789MPD2     H11634   1.882   2.800  16.744 -1.0546 -1.0897 -0.0186
  789MPD2    H111635   1.791   3.114  16.455  0.5074  0.7191  1.2270
  789MPD2    H211636   2.141   2.891  16.408 -1.2791 -1.7268 -2.0594
  789MPD2    H311637   2.000   3.052  16.337  1.3394 -0.8253 -0.1454
  789MPD2     N11638   1.689   3.003  16.671  0.4824 -0.9787  0.4007
  789MPD2    H511639   1.630   3.066  16.618  1.4193  0.0597  0.5810
  789MPD2    N111640   2.090   2.733  16.656 -0.0217 -0.0647  0.1142
  789MPD2    H711641   2.047   2.687  16.735  0.5771 -1.4111 -0.3423
  790MPD2     C11642   2.514   4.501  13.582 -0.7439 -0.4509  0.0969
  790MPD2    C111643   2.620   4.588  13.577 -0.5549  0.1200 -0.0586
  790MPD2    C211644   2.651   4.641  13.451 -0.1107  0.7987 -0.5006
  790MPD2    C311645   2.581   4.611  13.343 -0.1074 -0.9117  0.0159
  790MPD2    C411646   2.491   4.513  13.347 -0.3156 -0.8648 -0.5695
  790MPD2    C511647   2.457   4.458  13.462 -0.3491  0.0956 -0.1197
  790MPD2     H11648   2.721   4.724  13.443 -0.0497  0.6014 -1.8673
  790MPD2    H111649   2.424   4.484  13.268 -2.0310  0.1447  0.5127
  790MPD2    H211650   2.475   4.455  13.672 -1.2301 -2.6102 -1.2300
  790MPD2    H311651   2.380   4.383  13.474 -0.8985  0.8075  0.8334
  790MPD2     N11652   2.592   4.670  13.214  0.7954 -0.4227 -0.8459
  790MPD2    H511653   2.526   4.638  13.143  1.6504  0.0639 -1.8509
  790MPD2    N111654   2.685   4.633  13.700 -0.3185 -0.1391 -0.2644
  790MPD2    H711655   2.658   4.606  13.793  1.5060  0.6051  0.4868
  791MPD2     C11656   2.180   0.029  12.515 -0.0246 -0.2710 -0.4103
  791MPD2    C111657   2.210   4.694  12.639 -0.1278  0.2490  0.3090
  791MPD2    C211658   2.141   4.580  12.680  0.2377 -0.0441 -0.4244
  791MPD2    C311659   2.042   4.523  12.610 -0.1050 -0.1141  0.0036
  791MPD2    C411660   2.008   4.592  12.491  0.3243  0.9033  0.0406
  791MPD2    C511661   2.076   4.699  12.446 -0.0028 -0.6304 -0.0095
  791MPD2     H11662   2.171   4.541  12.777 -1.1321  0.8432  0.3533
  791MPD2    H111663   1.930   4.561  12.423  2.7437 -1.9826 -1.4405
  791MPD2    H211664   2.229   0.118  12.477 -0.1251 -0.4225 -0.8995
  791MPD2    H311665   2.051   0.014  12.350  1.2669 -3.2954 -1.5374
  791MPD2     N11666   1.982   4.406  12.659  0.1212  0.4210  0.2457
  791MPD2    H511667   2.010   4.358  12.744  0.0842 -1.2252 -0.6607
  791MPD2    N111668   2.322   0.023  12.704  0.0132 -0.3912 -0.9561
  791MPD2    H711669   2.379   0.091  12.654 -0.6096  0.1823 -0.8810
  792MPD2     C11670   3.357   4.491  11.354 -0.0934 -0.3231  0.6653
  792MPD2    C111671   3.236   4.502  11.293 -1.0625 -0.9509  0.1291
  792MPD2    C211672   3.161   4.392  11.253 -0.0204  0.1283 -0.0114
  792MPD2    C311673   3.205   4.265  11.295 -0.3967  0.2550  0.4915
  792MPD2    C411674   3.326   4.257  11.363  0.4865 -0.0031 -0.0493
  792MPD2    C511675   3.402   4.365  11.385  0.0969  0.2352  0.0833
  792MPD2     H11676   3.068   4.407  11.199  2.2116  3.1357 -3.0282
  792MPD2    H111677   3.368   4.159  11.385  2.5200  1.0858  1.0111
  792MPD2    H211678   3.413   4.580  11.379 -0.3966 -0.0067  0.2000
  792MPD2    H311679   3.498   4.351  11.433  0.7325  1.2795 -0.8816
  792MPD2     N11680   3.135   4.142  11.267  0.1165 -0.4193  0.3655
  792MPD2    H511681   3.177   4.052  11.287  1.0056 -0.2332 -0.6520
  792MPD2    N111682   3.184   4.633  11.266  0.4651  0.5509 -0.5423
  792MPD2    H711683   3.239   4.715  11.290  0.6398  1.4093 -3.8516
  793MPD2     C11684   2.489   3.556  10.707 -0.0407 -0.3560 -0.1354
  793MPD2    C111685   2.620   3.581  10.681  0.3840 -0.5877  0.1110
  793MPD2    C211686   2.697   3.640  10.785  0.9290  0.8772 -0.7789
  793MPD2    C311687   2.639   3.675  10.906 -0.2192  0.1564  0.6829
  793MPD2    C411688   2.504   3.649  10.926  0.7917 -0.2136 -0.0439
  793MPD2    C511689   2.433   3.576  10.839 -0.0061 -0.0473  0.4707
  793MPD2     H11690   2.804   3.648  10.773  0.7694  1.3982 -1.8018
  793MPD2    H111691   2.464   3.687  11.019 -0.3322  0.4822 -0.8222
  793MPD2    H211692   2.425   3.521  10.627 -1.7673  0.8288  0.7348
  793MPD2    H311693   2.330   3.549  10.858  1.0773 -2.8434  2.3575
  793MPD2     N11694   2.721   3.737  11.001 -0.1944 -0.3151 -0.0284
  793MPD2    H511695   2.819   3.749  10.979 -0.0441 -0.8649  0.3499
  793MPD2    N111696   2.678   3.585  10.553  0.4977 -0.1146 -0.2922
  793MPD2    H711697   2.768   3.630  10.558  0.2380  0.4892 -1.0552
  794MPD2     C11698   2.574   4.464  17.573 -0.4222  0.7689  0.0937
  794MPD2    C111699   2.551   4.347  17.508 -0.7461  0.0988 -0.7111
  794MPD2    C211700   2.549   4.339  17.369 -0.5186 -0.5705 -0.2666
  794MPD2    C311701   2.582   4.453  17.301  0.0510  0.0809 -0.6111
  794MPD2    C411702   2.603   4.574  17.367 -0.0018  0.4376  0.5942
  794MPD2    C511703   2.600   4.575  17.500  0.0208 -0.4083 -0.0933
  794MPD2     H11704   2.526   4.250  17.312  3.0894 -1.2132 -0.7480
  794MPD2    H111705   2.621   4.666  17.312 -0.3925 -0.7616 -1.5677
  794MPD2    H211706   2.578   4.468  17.681 -1.1978 -0.9287  0.1769
  794MPD2    H311707   2.618   4.664  17.559  0.7306 -0.4673 -0.2263
  794MPD2     N11708   2.592   4.468  17.158  0.3072  0.1931 -0.6155
  794MPD2    H511709   2.614   4.560  17.121  0.4072  0.2171 -0.4984
  794MPD2    N111710   2.520   4.229  17.586  1.0962 -0.4096  0.0606
  794MPD2    H711711   2.508   4.145  17.530 -2.5087  0.3649 -0.3578
  795MPD2     C11712   0.660   1.374  13.309 -0.0043  0.2851 -0.0839
  795MPD2    C111713   0.578   1.261  13.317 -0.1548  0.6699 -0.4590
  795MPD2    C211714   0.631   1.134  13.281 -0.0906 -0.6343  0.1745
  795MPD2    C311715   0.758   1.126  13.219 -0.4342  1.1596  0.3645
  795MPD2    C411716   0.829   1.240  13.202 -0.1793  0.2276 -0.1246
  795MPD2    C511717   0.773   1.361  13.239  0.2490  0.3645 -0.6269
  795MPD2     H11718   0.566   1.049  13.296 -0.9973 -0.5985 -3.5265
  795MPD2    H111719   0.929   1.240  13.161  0.0703 -0.1700  0.4810
  795MPD2    H211720   0.631   1.474  13.337  0.8297  0.2433  0.9074
  795MPD2    H311721   0.830   1.450  13.211  0.4791  0.2173 -0.6274
  795MPD2     N11722   0.804   0.994  13.201  0.1783  0.6231  0.0733
  795MPD2    H511723   0.739   0.917  13.214  0.0840  1.0731  2.2468
  795MPD2    N111724   0.446   1.266  13.376  0.1552  0.0501  0.3972
  795MPD2    H711725   0.400   1.175  13.380  0.6888 -0.2738 -0.7822
  796MPD2     C11726   4.650   3.242  15.703  0.6345  0.3312  0.5715
  796MPD2    C111727   4.711   3.270  15.819  0.0928 -0.5247  0.2954
  796MPD2    C211728   4.686   3.392  15.879  0.1017 -0.3515 -0.1581
  796MPD2    C311729   4.600   3.484  15.816  0.4848  0.5131 -0.8291
  796MPD2    C411730   4.540   3.456  15.695 -0.4267 -0.0461  0.9434
  796MPD2    C511731   4.569   3.336  15.642  0.9873 -0.2897 -0.2768
  796MPD2     H11732   0.009   3.422  15.970 -0.7796  0.4053  0.0870
  796MPD2    H111733   4.479   3.523  15.636  0.0060 -1.4576 -1.0818
  796MPD2    H211734   4.662   3.145  15.657  0.9140  1.0221 -0.8497
  796MPD2    H311735   4.521   3.311  15.548 -2.2824 -0.1785  1.3454
  796MPD2     N11736   4.577   3.612  15.882  0.3338 -0.4003 -0.2603
  796MPD2    H511737   4.629   3.637  15.966  2.3328  0.0846 -1.6303
  796MPD2    N111738   0.070   3.171  15.866 -0.2020 -0.1884  0.3315
  796MPD2    H711739   0.077   3.086  15.811 -0.1094 -0.1037  0.2142
  797MPD2     C11740   0.075   2.230  17.306 -0.5281 -0.8035  0.4590
  797MPD2    C111741   4.723   2.334  17.362  0.1020  0.0478 -0.2278
  797MPD2    C211742   4.724   2.461  17.292 -0.3465  0.7935 -0.7827
  797MPD2    C311743   0.078   2.477  17.177 -0.5187  0.2005  0.1697
  797MPD2    C411744   0.158   2.372  17.136 -0.1056 -0.6672 -0.9495
  797MPD2    C511745   0.151   2.248  17.195  0.4752 -0.1853 -0.6249
  797MPD2     H11746   4.660   2.541  17.327 -1.2667 -0.0017 -0.6503
  797MPD2    H111747   0.234   2.393  17.062  0.7767  1.5523  0.6100
  797MPD2    H211748   0.061   2.138  17.363 -0.5652 -0.0156  1.7225
  797MPD2    H311749   0.222   2.171  17.167  1.7623  1.1440 -1.0441
  797MPD2     N11750   0.074   2.593  17.092 -0.5889 -0.5674  0.5942
  797MPD2    H511751   0.130   2.584  17.007  0.5777 -2.1587  1.5401
  797MPD2    N111752   4.670   2.335  17.494  1.0845  0.1018  0.1595
  797MPD2    H711753   4.611   2.412  17.522 -2.1805 -2.3469 -0.0323
  798MPD2     C11754   4.710   3.067  17.581 -0.3756  0.8448  0.2711
  798MPD2    C111755   4.672   2.965  17.492 -0.1151  1.4447  0.0804
  798MPD2    C211756   4.620   2.849  17.548 -0.0885  0.2314  0.3933
  798MPD2    C311757   4.613   2.831  17.682 -0.4535  0.3039  0.0765
  798MPD2    C411758   4.634   2.934   0.055  0.4357  0.5516 -0.1916
  798MPD2    C511759   4.682   3.050   0.002 -0.0502 -1.0528 -0.3147
  798MPD2     H11760   4.598   2.770  17.477 -1.7694 -0.6148  1.8298
  798MPD2    H111761   4.638   2.912   0.161  1.6150 -0.0183 -0.3617
  798MPD2    H211762   4.724   3.168  17.546 -2.2853  1.2678  0.7185
  798MPD2    H311763   4.701   3.134   0.068 -0.0121  0.0858 -1.7741
  798MPD2     N11764   4.591   2.699   0.003 -0.2258  0.5075  0.2420
  798MPD2    H511765   4.568   2.638  17.639 -0.7915  0.7888  0.1890
  798MPD2    N111766   4.688   2.969  17.353  0.5542 -0.2032  0.0345
  798MPD2    H711767   4.653   2.890  17.300 -1.1093  0.8567 -0.4742
  799MPD2     C11768   4.421   4.275  14.832  0.8411  0.8860  0.3477
  799MPD2    C111769   4.330   4.177  14.789  0.1603  0.0315 -0.1926
  799MPD2    C211770   4.228   4.214  14.704  0.3457  0.0295 -0.0259
  799MPD2    C311771   4.228   4.343  14.643 -0.7921  0.1156  0.6886
  799MPD2    C411772   4.326   4.430  14.689  0.0856  0.2930  0.3288
  799MPD2    C511773   4.420   4.400  14.780  1.0278 -0.0979 -0.2148
  799MPD2     H11774   4.154   4.141  14.671 -0.5931 -0.0502  2.2868
  799MPD2    H111775   4.328   4.528  14.642 -1.2109 -0.1302 -0.6189
  799MPD2    H211776   4.501   4.254  14.902  0.7090  0.8864  0.4975
  799MPD2    H311777   4.500   4.466  14.812  0.3310  0.4370  0.4256
  799MPD2     N11778   4.150   4.389  14.539 -0.4165 -0.0042 -0.1017
  799MPD2    H511779   4.168   4.481  14.499 -1.3901 -0.3416 -1.2868
  799MPD2    N111780   4.337   4.048  14.836  0.6234  0.1905  0.1485
  799MPD2    H711781   4.248   3.999  14.835  1.2382 -0.9485  0.9486
  800MPD2     C11782   0.266   1.075  14.194 -0.2229  0.6827  0.4614
  800MPD2    C111783   0.386   1.045  14.131  0.3964  0.2051 -0.7241
  800MPD2    C211784   0.399   0.916  14.090 -0.1689  0.4820  0.2043
  800MPD2    C311785   0.300   0.820  14.107 -0.4315 -0.3667 -0.1794
  800MPD2    C411786   0.186   0.860  14.173 -0.3273 -0.0045  0.1365
  800MPD2    C511787   0.164   0.991  14.206 -0.1886 -0.3459  0.1256
  800MPD2     H11788   0.491   0.891  14.038 -0.3425 -0.0137  0.1295
  800MPD2    H111789   0.109   0.790  14.201  2.0997 -2.2467  1.2128
  800MPD2    H211790   0.245   1.173  14.236  2.0157  0.5002  2.0094
  800MPD2    H311791   0.076   1.015  14.265 -2.0912  0.2670 -2.9141
  800MPD2     N11792   0.346   0.687  14.083  0.8066 -0.7614  0.5017
  800MPD2    H511793   0.445   0.679  14.066  0.3598 -1.4962 -1.6533
  800MPD2    N111794   0.489   1.142  14.127  0.1402 -0.4121  0.8193
  800MPD2    H711795   0.467   1.235  14.160 -1.6387  0.6761 -3.4081
  801MPD2     C11796   0.576   1.815  14.293  0.4518 -0.2854  0.2765
  801MPD2    C111797   0.508   1.708  14.247 -0.1785 -0.4525  0.2112
  801MPD2    C211798   0.378   1.688  14.271 -0.2689 -0.1606  0.1166
  801MPD2    C311799   0.311   1.789  14.345  0.6807  0.5989 -0.4871
  801MPD2    C411800   0.379   1.896  14.397 -0.1940 -0.0071 -0.3824
  801MPD2    C511801   0.509   1.910  14.370 -0.1190 -0.4829 -0.3664
  801MPD2     H11802   0.328   1.599  14.234 -2.6483  0.6408  1.3521
  801MPD2    H111803   0.333   1.974  14.457 -2.4352 -3.7172  2.7502
  801MPD2    H211804   0.681   1.825  14.267  0.6733 -0.1148  1.2245
  801MPD2    H311805   0.558   1.998  14.409 -2.0589 -0.0375  1.0533
  801MPD2     N11806   0.176   1.780  14.377 -0.1140 -0.7704 -0.3297
  801MPD2    H511807   0.140   1.846  14.445  1.1236  1.1025 -1.4986
  801MPD2    N111808   0.571   1.600  14.184 -0.0903  0.1310 -0.1518
  801MPD2    H711809   0.508   1.520  14.180 -0.3585  0.3775 -0.9299
  802MPD2     C11810   3.797   1.258  17.191  0.3628  0.5024 -0.2534
  802MPD2    C111811   3.901   1.267  17.283  0.4262  0.3284  0.3784
  802MPD2    C211812   3.998   1.172  17.281  0.1050 -0.2283  0.1642
  802MPD2    C311813   4.006   1.086  17.177  0.1513 -0.1553 -0.4931
  802MPD2    C411814   3.908   1.073  17.086  0.0726  0.5720 -0.0702
  802MPD2    C511815   3.801   1.154  17.101 -0.5913  0.3548  0.2479
  802MPD2     H11816   4.075   1.172  17.357  0.1487  0.9253  0.1122
  802MPD2    H111817   3.900   0.998  17.008  2.1155  0.4842 -0.1781
  802MPD2    H211818   3.707   1.318  17.199 -0.2903 -0.4705 -0.2722
  802MPD2    H311819   3.722   1.150  17.028  0.0978  3.3880 -0.6449
  802MPD2     N11820   4.124   1.006  17.175 -0.7637 -0.4723 -0.2204
  802MPD2    H511821   4.199   1.012  17.244 -0.5269  0.9348 -0.5877
  802MPD2    N111822   3.916   1.379  17.369 -0.4732 -0.5764  0.3109
  802MPD2    H711823   3.999   1.381  17.428  0.4467  0.7127 -1.0563
  803MPD2     C11824   0.976   4.401  11.634  0.7249 -0.4850  0.0758
  803MPD2    C111825   1.045   4.385  11.749  0.6745  0.2234 -0.3907
  803MPD2    C211826   0.984   4.357  11.871 -0.4034 -0.0918  0.2189
  803MPD2    C311827   0.855   4.304  11.869  0.4493  0.2603  0.5447
  803MPD2    C411828   0.786   4.306  11.750 -0.2013 -0.4344 -0.5195
  803MPD2    C511829   0.845   4.357  11.632  0.8706 -0.1641  0.1164
  803MPD2     H11830   1.050   4.361  11.957  1.0766 -0.3981 -0.8903
  803MPD2    H111831   0.681   4.279  11.760 -1.1149  3.3400 -0.0626
  803MPD2    H211832   1.009   4.444  11.540  0.6599  1.0030  0.7382
  803MPD2    H311833   0.791   4.354  11.538  1.4894 -3.4527 -0.1312
  803MPD2     N11834   0.802   4.233  11.980 -0.4154  0.3807  0.6220
  803MPD2    H511835   0.701   4.230  11.981 -0.3926 -0.5610 -0.6145
  803MPD2    N111836   1.176   4.421  11.748 -0.1169 -0.0284  0.1061
  803MPD2    H711837   1.226   4.438  11.834 -1.6897 -1.0716  1.2331
  804MPD2     C11838   0.153   0.955  16.902  0.0491 -0.3249 -0.3120
  804MPD2    C111839   0.084   0.901  17.012  0.1447  0.5876 -0.1712
  804MPD2    C211840   0.040   0.987  17.113 -0.4818  0.2875  0.4339
  804MPD2    C311841   0.076   1.118  17.107 -0.3459 -0.3229 -0.1923
  804MPD2    C411842   0.147   1.161  17.006  0.4409 -0.2828  1.1561
  804MPD2    C511843   0.181   1.084  16.899 -0.3369 -0.8115  0.1994
  804MPD2     H11844   4.715   0.948  17.199 -1.7845  0.9778 -0.0624
  804MPD2    H111845   0.182   1.264  17.014  0.5724 -0.2187 -0.3825
  804MPD2    H211846   0.178   0.889  16.821  1.5572 -0.9211  0.6322
  804MPD2    H311847   0.245   1.115  16.817  0.5709 -0.9617  0.8440
  804MPD2     N11848   0.061   1.215  17.212 -0.1924  0.0757  0.5484
  804MPD2    H511849   0.126   1.291  17.202 -0.7328  0.2499 -1.5787
  804MPD2    N111850   0.057   0.762  17.035 -0.0213 -0.3776 -0.2361
  804MPD2    H711851   4.720   0.738  17.108 -1.2983  1.1967 -0.8561
  805MPD2     C11852   4.178   4.444  15.740  0.2890  0.4639  0.3817
  805MPD2    C111853   4.279   4.478  15.655  0.3631  0.2679  0.2164
  805MPD2    C211854   4.403   4.495  15.708 -0.4857 -0.2908  0.4864
  805MPD2    C311855   4.431   4.493  15.850 -1.0220  0.2010 -0.0896
  805MPD2    C411856   4.322   4.457  15.922  0.1866  0.1375  0.0490
  805MPD2    C511857   4.203   4.424  15.869  0.2342 -0.6528 -0.3280
  805MPD2     H11858   4.484   4.501  15.636 -0.5398  2.0047  0.6138
  805MPD2    H111859   4.338   4.454  16.029 -0.1101  2.2263  0.1525
  805MPD2    H211860   4.075   4.432  15.708  1.2804 -2.9621 -1.5822
  805MPD2    H311861   4.121   4.400  15.936  1.0968 -0.5652  0.7727
  805MPD2     N11862   4.558   4.518  15.912 -0.1075  0.3582  0.6646
  805MPD2    H511863   4.628   4.548  15.846 -1.2822 -0.2897 -0.8917
  805MPD2    N111864   4.264   4.488  15.518  0.8148 -0.0167 -0.1883
  805MPD2    H711865   4.350   4.509  15.468  1.5673 -0.9992  0.6934
  806MPD2     C11866   4.445   3.230   0.379  0.0560 -0.2410 -0.5909
  806MPD2    C111867   4.480   3.342   0.450 -0.1521 -0.0431 -0.0763
  806MPD2    C211868   4.539   3.449   0.385 -0.0883 -0.3057  0.2005
  806MPD2    C311869   4.561   3.451   0.246  0.6318 -0.2280 -0.0362
  806MPD2    C411870   4.521   3.336   0.180  0.1620  0.2103 -0.1394
  806MPD2    C511871   4.470   3.225   0.245 -0.3387 -0.0169 -0.3142
  806MPD2     H11872   4.565   3.535   0.445 -2.8967  0.2866  0.6007
  806MPD2    H111873   4.546   3.316   0.077 -3.6026 -2.7583 -0.4633
  806MPD2    H211874   4.398   3.144   0.425 -0.2963 -0.0050 -0.5122
  806MPD2    H311875   4.447   3.140   0.182  1.5067 -1.2043  0.6125
  806MPD2     N11876   4.627   3.555   0.178 -0.7547  0.8551 -0.4346
  806MPD2    H511877   4.661   3.633   0.233  1.4164 -1.0183  0.8782
  806MPD2    N111878   4.447   3.343   0.586  0.3498 -0.1802  0.0260
  806MPD2    H711879   4.476   3.421   0.643  1.6566 -1.8562  1.6394
  807MPD2     C11880   3.859   3.325   1.221  0.0947 -0.4001 -0.7328
  807MPD2    C111881   3.986   3.362   1.264 -0.4092 -0.0489  0.1850
  807MPD2    C211882   3.995   3.420   1.391 -0.3475 -0.3120 -0.0134
  807MPD2    C311883   3.884   3.442   1.474  0.6632 -0.0854 -0.1675
  807MPD2    C411884   3.758   3.400   1.425  0.4122 -0.0482  0.2344
  807MPD2    C511885   3.748   3.335   1.301 -0.5763  0.9255  0.3854
  807MPD2     H11886   4.097   3.441   1.422  0.2092 -2.1735 -0.5800
  807MPD2    H111887   3.665   3.404   1.481  0.6378  1.0217  0.5157
  807MPD2    H211888   3.841   3.264   1.133 -2.7462  0.5280 -0.7730
  807MPD2    H311889   3.649   3.302   1.274  0.1197  1.9322 -3.3418
  807MPD2     N11890   3.904   3.498   1.600  0.0253 -0.7790 -0.2924
  807MPD2    H511891   3.996   3.516   1.640  0.6593  0.0019 -2.1270
  807MPD2    N111892   4.095   3.336   1.182  0.0821 -0.1920  0.6608
  807MPD2    H711893   4.190   3.342   1.215  1.0129  0.9313 -2.2328
  808MPD2     C11894   0.501   0.379   9.320 -0.2629  0.5427  0.0758
  808MPD2    C111895   0.475   0.375   9.457 -0.3121  0.3679 -0.3423
  808MPD2    C211896   0.541   0.460   9.538  0.2060  0.0549 -0.1361
  808MPD2    C311897   0.630   0.560   9.487 -0.5319 -0.2541 -0.1495
  808MPD2    C411898   0.645   0.566   9.350 -0.3556 -0.6622 -0.1210
  808MPD2    C511899   0.587   0.473   9.270  0.1816 -0.5034 -0.0739
  808MPD2     H11900   0.523   0.455   9.645  2.2192  1.9905  0.2954
  808MPD2    H111901   0.710   0.640   9.304 -0.4334 -1.5175 -1.6146
  808MPD2    H211902   0.449   0.313   9.252  0.3008  3.0833 -2.8383
  808MPD2    H311903   0.604   0.472   9.163 -0.5726 -0.5962 -0.1946
  808MPD2     N11904   0.703   0.650   9.569 -0.0892  0.2119  0.0183
  808MPD2    H511905   0.762   0.722   9.528  0.3977  0.2617  0.8105
  808MPD2    N111906   0.392   0.280   9.517  0.1870  0.1576  0.8314
  808MPD2    H711907   0.366   0.289   9.615 -1.3411  0.4139  0.3886
  809MPD2     C11908   1.496   0.635   9.361  0.7083 -0.1972 -0.4046
  809MPD2    C111909   1.494   0.634   9.497  0.1815  0.1071  0.4485
  809MPD2    C211910   1.382   0.675   9.566  0.1355 -0.1801  0.6239
  809MPD2    C311911   1.274   0.735   9.497 -0.3727 -0.4448 -0.4365
  809MPD2    C411912   1.276   0.729   9.360 -1.0788  0.6489  0.1608
  809MPD2    C511913   1.386   0.682   9.294  0.1619  0.2380 -0.9819
  809MPD2     H11914   1.381   0.652   9.672  2.2768 -0.8160  0.5167
  809MPD2    H111915   1.186   0.751   9.303 -0.6089  0.5896 -0.6024
  809MPD2    H211916   1.572   0.591   9.298 -1.6666 -1.5783 -2.2990
  809MPD2    H311917   1.389   0.667   9.187 -0.4199  0.8534 -1.0860
  809MPD2     N11918   1.150   0.762   9.561  0.1971 -0.2485  0.4102
  809MPD2    H511919   1.063   0.761   9.510 -1.2016 -4.8883  2.9133
  809MPD2    N111920   1.599   0.581   9.567 -0.6326  0.0157  0.5922
  809MPD2    H711921   1.617   0.615   9.661 -0.9320  1.3558  0.1563
  810MPD2     C11922   0.496   4.369  10.520 -0.8893 -0.2378 -0.3987
  810MPD2    C111923   0.375   4.431  10.560 -0.4146  0.6693  0.7741
  810MPD2    C211924   0.365   4.572  10.569 -0.1224 -0.8389 -0.3396
  810MPD2    C311925   0.464   4.656  10.525 -0.1809 -0.1099 -0.2478
  810MPD2    C411926   0.583   4.596  10.487 -0.3659 -0.3751  0.0456
  810MPD2    C511927   0.597   4.456  10.483  0.2800  0.3307 -0.0528
  810MPD2     H11928   0.276   4.619  10.610 -0.4575 -1.0043 -0.8783
  810MPD2    H111929   0.670   4.649  10.451 -1.0908  0.3539 -0.6418
  810MPD2    H211930   0.520   4.263  10.517 -0.8152 -0.2288 -0.1745
  810MPD2    H311931   0.682   4.413  10.433 -0.7530 -0.3364 -1.2311
  810MPD2     N11932   0.431   0.069  10.519  0.0118 -0.5042  0.5597
  810MPD2    H511933   0.488   0.128  10.458 -1.2198 -1.4566 -1.4960
  810MPD2    N111934   0.262   4.347  10.583 -0.1191 -0.7934 -0.5934
  810MPD2    H711935   0.279   4.247  10.576 -0.2584 -1.0039  1.8238
  811MPD2     C11936   4.201   4.447  10.254  0.4245  0.5098 -0.1484
  811MPD2    C111937   4.322   4.505  10.272  0.3968 -0.5927  0.0785
  811MPD2    C211938   4.352   4.627  10.215 -0.3740  0.0795  0.7620
  811MPD2    C311939   4.247   4.700  10.154  0.6734  0.0089 -0.6051
  811MPD2    C411940   4.120   4.649  10.155  0.2136  0.1885 -0.6690
  811MPD2    C511941   4.104   4.525  10.204  0.0664 -0.2854 -0.2926
  811MPD2     H11942   4.448   4.675  10.229  0.0547 -0.4845 -0.2314
  811MPD2    H111943   4.037   4.692  10.099  0.0147  2.3432  1.2955
  811MPD2    H211944   4.171   4.349  10.291  1.2018  0.1134 -0.5492
  811MPD2    H311945   4.009   4.474  10.195 -0.3827  0.8297 -1.8866
  811MPD2     N11946   4.279   0.092  10.089 -0.1639 -1.0136  1.4025
  811MPD2    H511947   4.374   0.126  10.094 -0.8223  0.6142  2.9593
  811MPD2    N111948   4.427   4.437  10.344  0.3638 -0.6205  0.4818
  811MPD2    H711949   4.516   4.477  10.314  0.1323 -0.7612 -0.3992
  812MPD2     C11950   3.859   0.207  12.050  0.3423  0.2367 -0.4488
  812MPD2    C111951   3.772   0.243  12.148 -0.1023 -0.0255  1.3343
  812MPD2    C211952   3.750   0.146  12.248 -0.1889 -0.0295 -0.1029
  812MPD2    C311953   3.798   0.015  12.246  0.5294  0.0236  0.6292
  812MPD2    C411954   3.866   4.708  12.136 -0.3593 -0.6393 -0.0133
  812MPD2    C511955   3.898   0.076  12.041 -0.3568  0.8985 -0.0243
  812MPD2     H11956   3.676   0.166  12.324  1.8102 -1.7635  2.2869
  812MPD2    H111957   3.913   4.612  12.123  1.2012  0.0124  0.7285
  812MPD2    H211958   3.876   0.276  11.968 -0.1858  0.9898  0.0764
  812MPD2    H311959   3.965   0.049  11.959  0.9804 -0.7696  1.6051
  812MPD2     N11960   3.762   4.660  12.353  0.2175 -0.0536 -0.0273
  812MPD2    H511961   3.718   4.693  12.438 -0.9867  0.1475 -0.7284
  812MPD2    N111962   3.701   0.365  12.133  0.4880  0.2208  0.3072
  812MPD2    H711963   3.707   0.422  12.050  2.3939  1.3718  1.2225
  813MPD2     C11964   3.343   1.738  12.915 -0.2840  0.1310  0.1928
  813MPD2    C111965   3.225   1.789  12.886  0.3158 -0.0479  0.5144
  813MPD2    C211966   3.108   1.727  12.934 -0.0279  0.1860 -0.1907
  813MPD2    C311967   3.113   1.605  13.004 -0.0199 -0.1000 -0.3077
  813MPD2    C411968   3.240   1.552  13.030 -0.9545 -0.0564  0.5227
  813MPD2    C511969   3.351   1.618  12.989 -0.4757 -0.2459 -0.0341
  813MPD2     H11970   3.011   1.767  12.906 -0.2377 -0.0564  0.1767
  813MPD2    H111971   3.247   1.458  13.085  0.6650 -0.4936 -0.4271
  813MPD2    H211972   3.434   1.793  12.893 -0.3862  0.6074  0.9414
  813MPD2    H311973   3.445   1.581  13.028  0.1711  0.2782 -1.0924
  813MPD2     N11974   2.984   1.560  13.035 -0.6826 -0.0096  0.4002
  813MPD2    H511975   2.906   1.611  12.994 -0.7047  1.3805  2.1531
  813MPD2    N111976   3.212   1.904  12.804  0.0242 -0.1640  0.2167
  813MPD2    H711977   3.301   1.949  12.784 -0.5829  0.4265 -1.1894
  814MPD2     C11978   3.104   2.689  12.158 -0.3508 -0.2419 -0.3474
  814MPD2    C111979   3.170   2.782  12.073 -0.7031 -0.1749 -0.0684
  814MPD2    C211980   3.207   2.905  12.124  0.4217 -0.0802  0.3454
  814MPD2    C311981   3.172   2.940  12.256 -0.3140  0.1775  0.3967
  814MPD2    C411982   3.105   2.851  12.341 -0.4215 -0.1521 -0.2154
  814MPD2    C511983   3.082   2.723  12.288  0.8507  0.5584 -0.0245
  814MPD2     H11984   3.243   2.979  12.053 -0.7641 -1.2005 -1.4340
  814MPD2    H111985   3.079   2.875  12.444  0.3399  0.2570 -0.1140
  814MPD2    H211986   3.100   2.586  12.125 -2.7826 -0.7263  1.5185
  814MPD2    H311987   3.040   2.653  12.360  3.5369 -2.1071 -1.0456
  814MPD2     N11988   3.207   3.057  12.311 -0.5942  0.5324 -0.4816
  814MPD2    H511989   3.181   3.065  12.408 -1.9458  2.9811 -1.0620
  814MPD2    N111990   3.203   2.751  11.936  0.8315 -0.0837 -0.0774
  814MPD2    H711991   3.249   2.828  11.888 -0.0752  0.3260 -0.2831
  815MPD2     C11992   3.673   1.736  11.831  0.4412  0.2582  0.4102
  815MPD2    C111993   3.653   1.602  11.856  0.0466 -0.0368  0.6187
  815MPD2    C211994   3.539   1.560  11.923  0.8577  0.8774 -0.5507
  815MPD2    C311995   3.446   1.648  11.972  0.4794  1.1832 -0.7137
  815MPD2    C411996   3.466   1.783  11.950  0.0723  0.0514  0.0054
  815MPD2    C511997   3.572   1.822  11.868  0.0763  0.0014 -0.2051
  815MPD2     H11998   3.517   1.454  11.930  0.8237  0.8091 -1.7654
  815MPD2    H111999   3.395   1.859  11.983  0.0011 -1.4010  3.2315
  815MPD2    H212000   3.762   1.769  11.778  1.0834 -0.3373  1.1181
  815MPD2    H312001   3.573   1.926  11.839  0.3469 -0.6565 -2.5831
  815MPD2     N12002   3.334   1.598  12.043  0.4779  0.7728  0.0605
  815MPD2    H512003   3.337   1.500  12.066  1.2150  0.8250  0.1783
  815MPD2    N112004   3.736   1.511  11.792  1.0205 -0.3578  0.3309
  815MPD2    H712005   3.820   1.550  11.750 -0.5277  0.8298 -1.7459
  816MPD2     C12006   3.914   0.948  17.528 -0.1248 -0.2426 -0.5670
  816MPD2    C112007   3.805   0.933  17.443  0.6870  0.5187  0.5334
  816MPD2    C212008   3.810   0.840  17.340  0.2496  0.3755 -0.4069
  816MPD2    C312009   3.920   0.754  17.319 -0.4478 -0.5711  0.9530
  816MPD2    C412010   4.027   0.773  17.407  0.3214 -0.6024  1.3410
  816MPD2    C512011   4.023   0.869  17.502  0.6541  0.2316  0.1890
  816MPD2     H12012   3.720   0.821  17.282  0.0935 -2.4940  0.8025
  816MPD2    H112013   4.117   0.714  17.401 -0.5252 -1.8028  0.5800
  816MPD2    H212014   3.916   0.988  17.628  3.8789 -0.9484 -0.3644
  816MPD2    H312015   4.103   0.865  17.575 -0.9034  1.0038  1.9213
  816MPD2     N12016   3.917   0.648  17.221 -0.1770  0.0854  0.4486
  816MPD2    H512017   3.830   0.637  17.172 -0.7188 -1.6588  1.7845
  816MPD2    N112018   3.688   1.006  17.475 -0.1257 -0.1798  0.6465
  816MPD2    H712019   3.695   1.084  17.539 -1.9651 -0.5141  1.2760
  817MPD2     C12020   2.885   1.924   9.627  0.2481  0.0488 -0.2808
  817MPD2    C112021   2.842   1.809   9.565  0.5488 -0.1604 -0.2435
  817MPD2    C212022   2.726   1.816   9.486 -0.0571 -0.2794 -0.1453
  817MPD2    C312023   2.648   1.930   9.480  0.2816 -0.3635 -0.3188
  817MPD2    C412024   2.697   2.047   9.537  0.6474 -0.3234 -0.0059
  817MPD2    C512025   2.810   2.040   9.608 -0.9584 -0.2970 -0.6111
  817MPD2     H12026   2.691   1.721   9.447 -1.8357 -0.7420  2.5862
  817MPD2    H112027   2.652   2.145   9.525  3.5754  0.8153 -1.6416
  817MPD2    H212028   2.982   1.922   9.676  0.1594  1.6700 -0.0397
  817MPD2    H312029   2.845   2.134   9.649 -0.3987 -1.0281  0.5843
  817MPD2     N12030   2.527   1.924   9.398  0.0903 -0.1586  0.3565
  817MPD2    H512031   2.506   1.843   9.342 -0.0024 -0.3036  0.6025
  817MPD2    N112032   2.912   1.690   9.586 -0.4004 -0.6702 -0.0105
  817MPD2    H712033   2.877   1.609   9.535  0.7804 -1.0113 -0.2835
  818MPD2     C12034   2.496   1.951  10.172 -0.2024  0.1868  0.7092
  818MPD2    C112035   2.368   1.929  10.128 -0.6045  0.1734  0.5097
  818MPD2    C212036   2.329   1.807  10.082 -0.4566 -0.2850  0.4112
  818MPD2    C312037   2.422   1.700  10.092 -0.1043  0.0133  0.1364
  818MPD2    C412038   2.553   1.725  10.136  0.4131 -0.6786 -0.2531
  818MPD2    C512039   2.585   1.849  10.178  0.0252  0.5696  1.0567
  818MPD2     H12040   2.225   1.782  10.064  0.2382 -0.6803 -3.0126
  818MPD2    H112041   2.622   1.642  10.144  0.1843 -0.8670 -0.2326
  818MPD2    H212042   2.533   2.050  10.198 -0.2756 -0.2592  2.5304
  818MPD2    H312043   2.683   1.871  10.217  0.0580  2.7095 -0.1984
  818MPD2     N12044   2.380   1.567  10.064 -0.0448 -0.9687  0.1526
  818MPD2    H512045   2.445   1.496  10.097 -0.3955 -0.9906  0.8035
  818MPD2    N112046   2.253   2.017  10.139 -0.1255 -0.5462  0.0320
  818MPD2    H712047   2.166   1.974  10.113 -0.8916  1.0050  0.0218
  819MPD2     C12048   0.249   3.949  15.870 -0.6945  0.1771 -0.7170
  819MPD2    C112049   0.286   3.842  15.787  0.1066  0.0677 -0.1166
  819MPD2    C212050   0.410   3.787  15.808  0.8001 -0.3540  0.1032
  819MPD2    C312051   0.494   3.818  15.915  0.3221 -0.0312  0.5012
  819MPD2    C412052   0.438   3.899  16.014  0.0018  0.4521  0.3308
  819MPD2    C512053   0.325   3.970  15.983  0.2168 -0.0138 -0.2810
  819MPD2     H12054   0.454   3.728  15.728 -0.3375 -3.4013  1.7254
  819MPD2    H112055   0.490   3.926  16.105  0.5959 -0.8767  0.3818
  819MPD2    H212056   0.159   4.008  15.858  0.6389  2.1973 -0.6865
  819MPD2    H312057   0.291   4.049  16.049 -0.0038  0.2804 -0.7419
  819MPD2     N12058   0.621   3.770  15.919 -0.8576 -0.8372  0.5744
  819MPD2    H512059   0.646   3.717  15.836  0.8551 -1.9973  1.8463
  819MPD2    N112060   0.196   3.807  15.687  0.6781  0.6282 -0.1901
  819MPD2    H712061   0.127   3.879  15.670 -0.3452 -0.8860 -2.4713
  820MPD2     C12062   4.094   3.944  15.159 -0.4457  0.1875 -0.1386
  820MPD2    C112063   4.217   4.009  15.175 -0.4673 -0.1583  0.0348
  820MPD2    C212064   4.308   3.947  15.260  0.3493 -0.2790  0.5629
  820MPD2    C312065   4.280   3.822  15.303 -0.1337  0.2193 -0.2383
  820MPD2    C412066   4.156   3.754  15.289  0.0080 -0.3353  0.1569
  820MPD2    C512067   4.058   3.832  15.232  0.6630 -0.0134  0.1179
  820MPD2     H12068   4.405   3.991  15.278  0.3140  1.2696 -2.9433
  820MPD2    H112069   4.139   3.656  15.330  1.5410  0.3455  2.4603
  820MPD2    H212070   4.018   3.980  15.091 -0.3090  1.2414  0.2646
  820MPD2    H312071   3.958   3.794  15.214  0.6456  1.4007 -2.7476
  820MPD2     N12072   4.379   3.744  15.364  0.1926  0.3629  0.2614
  820MPD2    H512073   4.363   3.643  15.362  0.1092  0.4114 -1.5367
  820MPD2    N112074   4.232   4.137  15.122  0.3541  0.0894  0.8046
  820MPD2    H712075   4.144   4.170  15.084  1.4972  0.8209 -1.1852
  821MPD2     C12076   0.295   0.060  13.552 -0.5776 -1.2474 -0.1321
  821MPD2    C112077   0.390   0.164  13.570  0.1101  0.3092  0.0874
  821MPD2    C212078   0.475   0.207  13.472 -0.1110  0.5565  0.2733
  821MPD2    C312079   0.473   0.141  13.354 -0.2636  0.0482  0.3353
  821MPD2    C412080   0.388   0.033  13.336  0.6579  0.4900 -0.3646
  821MPD2    C512081   0.299   4.719  13.436  0.0869  0.0815 -0.1217
  821MPD2     H12082   0.534   0.295  13.494  1.1167 -0.2310  0.1444
  821MPD2    H112083   0.373   4.717  13.238  0.3523  1.4923 -0.7722
  821MPD2    H212084   0.212   0.047  13.621 -1.2330 -1.0165 -0.8735
  821MPD2    H312085   0.228   4.640  13.414 -0.4298  0.9214 -1.4668
  821MPD2     N12086   0.552   0.176  13.243 -0.3693  0.4454  0.0329
  821MPD2    H512087   0.551   0.118  13.160 -0.4024 -1.3801  1.3258
  821MPD2    N112088   0.408   0.227  13.695 -0.5786  0.3960 -0.2597
  821MPD2    H712089   0.478   0.301  13.695 -0.8111  0.6255 -1.8835
  822MPD2     C12090   0.891   0.607  15.762  0.7162 -0.5148 -0.1927
  822MPD2    C112091   0.997   0.674  15.825  0.2936  0.6314  0.0292
  822MPD2    C212092   0.981   0.798  15.877 -0.0973 -0.0663  0.0937
  822MPD2    C312093   0.853   0.856  15.880  0.4930 -0.1986  0.3037
  822MPD2    C412094   0.754   0.785  15.832  0.0917  0.0343  0.5115
  822MPD2    C512095   0.768   0.657  15.778  0.3994  0.0504  0.1491
  822MPD2     H12096   1.070   0.852  15.909 -1.2792  1.8078  0.2548
  822MPD2    H112097   0.651   0.820  15.837 -0.6718 -2.3097  1.5368
  822MPD2    H212098   0.898   0.511  15.712 -1.0643 -0.3954 -0.6477
  822MPD2    H312099   0.688   0.608  15.726 -0.2021  1.5868 -0.3808
  822MPD2     N12100   0.827   0.977  15.937 -0.1853  0.1265 -0.0436
  822MPD2    H512101   0.729   0.996  15.955  0.1484  1.0528  0.8103
  822MPD2    N112102   1.125   0.609  15.838 -0.1998 -0.5817 -0.3599
  822MPD2    H712103   1.191   0.641  15.908 -1.2693 -0.8991  0.7897
  823MPD2     C12104   0.592   1.050  16.590 -0.4579 -0.3478 -0.1022
  823MPD2    C112105   0.670   0.991  16.491 -0.3586  0.3710  0.4878
  823MPD2    C212106   0.701   0.854  16.510  0.2917 -0.2246 -0.1819
  823MPD2    C312107   0.670   0.791  16.635  0.2763  0.0929 -0.4145
  823MPD2    C412108   0.582   0.851  16.719  0.2544 -0.0499 -0.4275
  823MPD2    C512109   0.549   0.981  16.701 -0.2410  0.7261  0.1253
  823MPD2     H12110   0.766   0.798  16.444  0.5744 -1.6939  1.3634
  823MPD2    H112111   0.539   0.804  16.806 -1.1257  0.4381 -0.8492
  823MPD2    H212112   0.563   1.154  16.598  2.0954  0.4338 -0.9082
  823MPD2    H312113   0.484   1.027  16.774  0.5026 -0.7098  1.6897
  823MPD2     N12114   0.690   0.657  16.669 -0.4291  0.0596 -0.2558
  823MPD2    H512115   0.638   0.620  16.747  2.4874 -1.6393  0.9017
  823MPD2    N112116   0.714   1.052  16.378  0.3634  0.0730  0.2250
  823MPD2    H712117   0.763   1.002  16.304 -0.0691  0.9890 -0.6787
  824MPD2     C12118   1.256   4.571  15.651 -0.4489  0.3798 -0.3242
  824MPD2    C112119   1.375   4.640  15.672  0.4142  0.1621 -0.3391
  824MPD2    C212120   1.496   4.575  15.651  0.6249  0.1200  0.6484
  824MPD2    C312121   1.503   4.440  15.615  0.3496 -0.3165 -0.8441
  824MPD2    C412122   1.381   4.365  15.609  0.5539 -0.1993  0.3045
  824MPD2    C512123   1.261   4.439  15.621  0.4447  0.3245  1.5683
  824MPD2     H12124   1.585   4.627  15.683  1.7795 -1.7879  0.5251
  824MPD2    H112125   1.367   4.259  15.590  0.6083 -0.3190  0.9461
  824MPD2    H212126   1.163   4.624  15.670 -1.2903 -0.0498 -3.1171
  824MPD2    H312127   1.167   4.387  15.611  1.3621 -0.9954 -0.1787
  824MPD2     N12128   1.624   4.380  15.603 -1.2181 -0.4833 -0.3732
  824MPD2    H512129   1.713   4.430  15.607 -2.7352  2.1496  0.4197
  824MPD2    N112130   1.363   0.045  15.723  0.0213 -0.0371  0.3318
  824MPD2    H712131   1.270   0.086  15.723  0.2156  0.4049  0.5837
  825MPD2     C12132   2.237   4.299  15.029 -0.4094  0.2304  0.4695
  825MPD2    C112133   2.171   4.382  15.112 -0.3562  0.0488  0.0513
  825MPD2    C212134   2.155   4.515  15.090  0.0791  0.6582 -0.6401
  825MPD2    C312135   2.219   4.574  14.985  0.1919  0.4557  0.0177
  825MPD2    C412136   2.288   4.494  14.904  0.4609  0.4306 -0.3796
  825MPD2    C512137   2.311   4.364  14.936  0.0041 -0.3787  0.2334
  825MPD2     H12138   2.094   4.577  15.156 -1.1396 -1.9701  0.6720
  825MPD2    H112139   2.334   4.535  14.814  0.3250 -1.6056 -1.3632
  825MPD2    H212140   2.256   4.196  15.054 -0.0752  0.7129  2.1956
  825MPD2    H312141   2.378   4.309  14.870 -0.1244  0.2406 -0.4113
  825MPD2     N12142   2.200   4.710  14.955  0.3424 -0.0555 -0.3606
  825MPD2    H512143   2.247   0.011  14.870 -0.0873  3.4198  0.5848
  825MPD2    N112144   2.099   4.312  15.209  0.2348 -0.6182 -0.3739
  825MPD2    H712145   2.126   4.217  15.230  2.0088  0.1038  0.6219
  826MPD2     C12146   1.855   4.271  14.005  0.1477 -0.7528 -0.0437
  826MPD2    C112147   1.738   4.240  13.938 -0.0574  0.3345  0.1704
  826MPD2    C212148   1.633   4.327  13.943  0.4520 -0.1336  0.1627
  826MPD2    C312149   1.640   4.445  14.025  0.5138  0.0838 -0.4067
  826MPD2    C412150   1.762   4.479  14.083 -0.2902 -0.7969 -0.0861
  826MPD2    C512151   1.866   4.395  14.064 -0.7616 -0.0388  0.6011
  826MPD2     H12152   1.546   4.304  13.883 -0.2402  2.5306  0.1450
  826MPD2    H112153   1.779   4.576  14.128 -1.3629 -0.8496  0.4315
  826MPD2    H212154   1.942   4.212  13.979  0.7197  0.7445 -1.5404
  826MPD2    H312155   1.963   4.434  14.095 -1.3630  1.0678  1.0705
  826MPD2     N12156   1.532   4.539  14.040  0.0318 -0.6044 -0.4048
  826MPD2    H512157   1.555   4.605  14.113  0.6177  0.8101 -1.8673
  826MPD2    N112158   1.728   4.126  13.857  0.5212  0.0055 -0.2229
  826MPD2    H712159   1.798   4.053  13.868  0.5294  0.1118  0.4128
  827MPD2     C12160   2.403   0.316  10.146  0.0554 -0.5447  0.2219
  827MPD2    C112161   2.403   0.288  10.280 -0.5019  0.0775 -0.0996
  827MPD2    C212162   2.362   0.164  10.324 -0.7681  0.3217  0.1265
  827MPD2    C312163   2.299   0.072  10.238  0.6960 -0.3257  0.6021
  827MPD2    C412164   2.289   0.107  10.105  1.4066 -0.4908 -0.1555
  827MPD2    C512165   2.341   0.227  10.068 -0.0893  0.1082  0.5423
  827MPD2     H12166   2.375   0.133  10.427  0.4204  0.2969 -0.0226
  827MPD2    H112167   2.249   0.036  10.033  0.1716 -0.6498  0.6753
  827MPD2    H212168   2.440   0.406  10.098  1.5157 -0.8278  0.8073
  827MPD2    H312169   2.332   0.245   9.962 -0.8120 -2.0330  0.2361
  827MPD2     N12170   2.278   4.675  10.289 -0.5457 -0.4004 -0.0410
  827MPD2    H512171   2.314   4.661  10.383  1.9628 -0.5042 -1.0287
  827MPD2    N112172   2.452   0.372  10.387  0.0032  0.2212  0.2908
  827MPD2    H712173   2.450   0.342  10.484  1.6676 -1.4002 -0.1825
  828MPD2     C12174   0.859   0.913  12.319 -0.5485 -0.9903 -0.2210
  828MPD2    C112175   0.906   0.922  12.185 -0.2788 -0.2871  0.1600
  828MPD2    C212176   1.032   0.879  12.153  0.9176  0.0630 -0.0534
  828MPD2    C312177   1.116   0.836  12.254  0.6123 -0.2345  0.7244
  828MPD2    C412178   1.069   0.833  12.383 -0.2305  0.0628  0.6041
  828MPD2    C512179   0.943   0.872  12.418  0.0335 -0.7734 -0.4834
  828MPD2     H12180   1.061   0.894  12.050 -1.6694 -1.9736 -1.0915
  828MPD2    H112181   1.136   0.813  12.466 -2.0056  0.7761  2.2353
  828MPD2    H212182   0.757   0.936  12.346 -0.5172 -2.3453  1.0052
  828MPD2    H312183   0.922   0.883  12.524  2.6487 -1.1081  0.0766
  828MPD2     N12184   1.254   0.799  12.239  0.4548  0.5278  0.2048
  828MPD2    H512185   1.296   0.774  12.328 -0.0875  0.2533  0.3804
  828MPD2    N112186   0.825   0.965  12.082  0.2399 -0.0944  0.7356
  828MPD2    H712187   0.858   0.948  11.987 -1.5487  1.6522 -0.2084
  829MPD2     C12188   0.669   1.029  11.104  0.3223 -0.9575  0.3968
  829MPD2    C112189   0.688   0.936  11.206  0.1236  0.3897  0.8405
  829MPD2    C212190   0.691   0.978  11.336  0.5731 -0.4011 -0.1956
  829MPD2    C312191   0.678   1.103  11.370 -0.4068  0.2661  0.1720
  829MPD2    C412192   0.665   1.200  11.268 -0.6838  0.8191  0.3523
  829MPD2    C512193   0.661   1.162  11.137 -0.1204  0.4238 -0.1752
  829MPD2     H12194   0.720   0.908  11.413  2.3553  2.3041  1.5754
  829MPD2    H112195   0.670   1.306  11.291  0.4328  0.4878  1.6338
  829MPD2    H212196   0.655   1.007  10.999  0.1399 -3.4249  0.9370
  829MPD2    H312197   0.656   1.244  11.067  1.8702  0.2264 -0.5330
  829MPD2     N12198   0.665   1.144  11.514 -0.5971  0.3232  0.1900
  829MPD2    H512199   0.635   1.241  11.522  1.3229  0.7905  1.6389
  829MPD2    N112200   0.669   0.802  11.171  0.1189 -1.0019 -0.3952
  829MPD2    H712201   0.620   0.786  11.083 -0.5187 -0.0636 -0.2095
  830MPD2     C12202   1.417   3.635  15.762  0.7319  0.1864  0.5756
  830MPD2    C112203   1.292   3.646  15.712 -0.2587 -0.3289  0.0614
  830MPD2    C212204   1.263   3.742  15.612 -0.0314 -0.0214  0.0975
  830MPD2    C312205   1.361   3.819  15.563  0.1490 -0.2810  0.9626
  830MPD2    C412206   1.482   3.817  15.628 -0.2134 -0.1505  0.2275
  830MPD2    C512207   1.514   3.723  15.724 -0.5785  0.2923 -0.7196
  830MPD2     H12208   1.167   3.742  15.563  0.4526  0.0121 -0.8455
  830MPD2    H112209   1.554   3.892  15.599  0.4062 -1.0575 -0.5615
  830MPD2    H212210   1.441   3.562  15.839 -0.7491 -0.0999  0.7642
  830MPD2    H312211   1.610   3.710  15.775  0.2417  1.1535 -2.0556
  830MPD2     N12212   1.339   3.916  15.464 -0.4083  0.2530  0.0613
  830MPD2    H512213   1.414   3.983  15.453  0.0485 -0.1517  0.6955
  830MPD2    N112214   1.189   3.568  15.770 -0.2991 -0.4136 -0.0475
  830MPD2    H712215   1.206   3.509  15.851  1.7673  0.6948  0.3108
  831MPD2     C12216   1.192   1.066  16.220 -0.4146  0.1519 -0.2314
  831MPD2    C112217   1.210   0.953  16.151  0.5508 -0.4755  0.4372
  831MPD2    C212218   1.124   0.847  16.164 -0.3326  0.1303 -0.3315
  831MPD2    C312219   1.018   0.839  16.252 -0.3903 -0.5358 -0.5850
  831MPD2    C412220   1.009   0.950  16.334  0.7816  0.1640  0.0174
  831MPD2    C512221   1.091   1.061  16.309  0.5465  0.0806 -0.4305
  831MPD2     H12222   1.129   0.766  16.093 -3.4348  1.1224 -1.6607
  831MPD2    H112223   0.933   0.967  16.409  0.4209 -0.5166 -0.1912
  831MPD2    H212224   1.243   1.161  16.209  0.8939 -0.2989  1.7037
  831MPD2    H312225   1.062   1.156  16.351  1.5640  0.1083  0.1904
  831MPD2     N12226   0.916   0.738  16.242 -0.1171 -0.2506  0.9871
  831MPD2    H512227   0.826   0.743  16.288  1.8096 -0.6256  4.7957
  831MPD2    N112228   1.297   0.965  16.038 -0.3298  0.5190  1.2403
  831MPD2    H712229   1.347   1.052  16.021  0.0930 -0.2231 -1.3326
  832MPD2     C12230   4.125   1.552  16.991  0.4275  0.0102 -0.4759
  832MPD2    C112231   4.097   1.676  16.944  0.5390 -0.7851  0.3616
  832MPD2    C212232   3.974   1.710  16.899  0.5030 -0.2589 -0.1953
  832MPD2    C312233   3.864   1.629  16.927  0.1380 -0.3870  0.1956
  832MPD2    C412234   3.887   1.506  16.985 -0.9663  0.4174 -0.2281
  832MPD2    C512235   4.017   1.462  17.006  0.0392  0.9078  0.1751
  832MPD2     H12236   3.953   1.814  16.879  2.0320  0.1576  0.4049
  832MPD2    H112237   3.811   1.430  16.990  1.1136 -1.4867  2.2383
  832MPD2    H212238   4.225   1.521  17.021 -1.3740 -1.7680  3.6390
  832MPD2    H312239   4.039   1.361  17.041  1.0765  0.7964 -0.7922
  832MPD2     N12240   3.728   1.666  16.902 -0.3152 -0.8021  0.0013
  832MPD2    H512241   3.654   1.601  16.929 -2.2702  0.4098 -2.3961
  832MPD2    N112242   4.201   1.770  16.956  0.1261 -0.5076 -0.8338
  832MPD2    H712243   4.275   1.733  17.014 -1.3035 -2.2867 -0.1302
  833MPD2     C12244   1.320   3.272  12.564  0.0743  0.2225  0.5037
  833MPD2    C112245   1.393   3.374  12.507  0.0464  0.2477 -0.1156
  833MPD2    C212246   1.503   3.335  12.435 -0.5179  0.5140  0.6803
  833MPD2    C312247   1.547   3.208  12.412 -0.5510  0.1553  0.0346
  833MPD2    C412248   1.469   3.108  12.471 -0.6477  0.1189  0.0480
  833MPD2    C512249   1.363   3.141  12.549  0.1677 -0.2834  0.1474
  833MPD2     H12250   1.563   3.412  12.388  0.9608 -2.0825 -1.6986
  833MPD2    H112251   1.486   3.001  12.467  0.5715  0.2838  0.9057
  833MPD2    H212252   1.226   3.287  12.617  1.3842 -0.0259  2.8771
  833MPD2    H312253   1.298   3.059  12.577  2.2979 -2.4647 -1.2500
  833MPD2     N12254   1.666   3.167  12.338  0.5567  0.0422  0.0252
  833MPD2    H512255   1.663   3.070  12.308  1.7259 -0.3954  1.3090
  833MPD2    N112256   1.350   3.506  12.524  0.5370 -0.1549 -0.1035
  833MPD2    H712257   1.264   3.527  12.574  1.4995 -2.8012  2.6822
  834MPD2     C12258   1.620   2.399  11.879  0.3312 -0.3530  0.3937
  834MPD2    C112259   1.650   2.475  11.771  0.5785  0.4815  0.6421
  834MPD2    C212260   1.685   2.607  11.793 -0.1052 -0.6341  0.8362
  834MPD2    C312261   1.673   2.667  11.924  0.1928 -0.0317 -0.1533
  834MPD2    C412262   1.644   2.582  12.029 -0.3792  0.0795 -0.3516
  834MPD2    C512263   1.622   2.447  12.004  0.0128  0.1934  0.1076
  834MPD2     H12264   1.704   2.671  11.708 -0.1016 -0.4380  0.9844
  834MPD2    H112265   1.639   2.611  12.134 -0.1628  2.1011 -0.9136
  834MPD2    H212266   1.593   2.294  11.870 -1.5820  0.0227  1.9083
  834MPD2    H312267   1.599   2.391  12.094 -0.2542  0.6781  0.3425
  834MPD2     N12268   1.702   2.809  11.944  0.2451 -0.2762 -0.4915
  834MPD2    H512269   1.735   2.853  11.859 -0.7000  0.3545 -0.5356
  834MPD2    N112270   1.653   2.401  11.649  0.8590 -0.4235  0.8696
  834MPD2    H712271   1.597   2.317  11.650 -0.7266  0.6391  2.4069
  835MPD2     C12272   1.879   0.437  11.418  0.4658 -0.1301 -0.1818
  835MPD2    C112273   1.802   0.541  11.466 -0.0261 -0.7006 -0.1894
  835MPD2    C212274   1.847   0.620  11.567 -0.4416  0.7041  0.3352
  835MPD2    C312275   1.971   0.604  11.631  0.2461 -0.1113 -0.4859
  835MPD2    C412276   2.041   0.493  11.584 -0.2031 -0.2568 -0.8065
  835MPD2    C512277   1.999   0.416  11.480 -0.3061 -0.4578 -0.7216
  835MPD2     H12278   1.782   0.697  11.607 -0.4148  1.3799 -0.9343
  835MPD2    H112279   2.133   0.475  11.639 -0.4922  1.1956  0.1557
  835MPD2    H212280   1.836   0.359  11.356  2.5193 -1.1228 -0.3471
  835MPD2    H312281   2.055   0.326  11.456  0.4526 -0.6079  1.6125
  835MPD2     N12282   2.022   0.686  11.735  0.7938 -0.1496  0.8571
  835MPD2    H512283   2.094   0.645  11.792  0.0421  0.0885  1.9682
  835MPD2    N112284   1.674   0.583  11.414 -0.3889  0.1619 -0.4425
  835MPD2    H712285   1.629   0.666  11.450 -1.4637 -0.7101  0.2278
  836MPD2     C12286   1.628   1.346  12.000  0.1884  0.4103  0.4903
  836MPD2    C112287   1.682   1.259  12.086 -0.0056  0.2172  0.0906
  836MPD2    C212288   1.618   1.243  12.207  0.6499 -0.2819  0.6571
  836MPD2    C312289   1.504   1.319  12.236  0.3677  0.4044 -0.2444
  836MPD2    C412290   1.459   1.411  12.152 -0.1553 -0.2897  0.2897
  836MPD2    C512291   1.526   1.429  12.032  0.0724 -0.0875 -0.2390
  836MPD2     H12292   1.651   1.174  12.283  1.7305  0.0903  0.5211
  836MPD2    H112293   1.373   1.474  12.172  0.5076  0.5569  0.4416
  836MPD2    H212294   1.682   1.368  11.909  1.4707 -1.7152  0.7378
  836MPD2    H312295   1.497   1.514  11.970 -2.3314 -1.5967 -1.1580
  836MPD2     N12296   1.451   1.301  12.360 -0.1157  0.2649  0.0786
  836MPD2    H512297   1.388   1.375  12.390 -1.3982 -2.0595  3.0585
  836MPD2    N112298   1.792   1.184  12.046  0.6406  0.1057 -0.3406
  836MPD2    H712299   1.823   1.183  11.949  0.1455  3.3973 -0.5104
  837MPD2     C12300   0.068   0.642  10.021 -1.1284  0.2415  0.4720
  837MPD2    C112301   4.693   0.682   9.933  0.5600  0.1650 -0.5990
  837MPD2    C212302   4.675   0.815   9.913 -0.1406  0.1563 -0.7340
  837MPD2    C312303   0.019   0.902   9.988 -0.2650 -0.2985 -0.5079
  837MPD2    C412304   0.125   0.856  10.063 -0.4946 -0.1272 -0.0962
  837MPD2    C512305   0.148   0.726  10.085 -0.6863  0.0328 -0.4020
  837MPD2     H12306   4.598   0.845   9.843  0.0642  3.3084  0.3844
  837MPD2    H112307   0.203   0.919  10.104 -0.9765  0.1274  0.4257
  837MPD2    H212308   0.095   0.539  10.038 -0.5179  0.6038  1.7247
  837MPD2    H312309   0.226   0.685  10.148  0.3780  0.8567 -1.1751
  837MPD2     N12310   4.724   1.040   9.981  0.2308  0.3042  0.2067
  837MPD2    H512311   4.643   1.069   9.927  0.8062  0.2578 -0.6858
  837MPD2    N112312   4.589   0.605   9.870  0.3600  0.5390 -0.3706
  837MPD2    H712313   4.528   0.654   9.806 -0.3960  1.1809  0.8440
  838MPD2     C12314   2.995   3.650  12.356 -0.8935  0.2426  0.6454
  838MPD2    C112315   2.952   3.550  12.271 -0.0727 -0.7521  0.0643
  838MPD2    C212316   2.822   3.512  12.277 -0.4108 -0.6104  0.2191
  838MPD2    C312317   2.736   3.570  12.365 -0.2340 -0.0614 -0.7613
  838MPD2    C412318   2.782   3.657  12.458  0.3429 -0.1961 -0.4733
  838MPD2    C512319   2.912   3.695  12.454 -0.3242  0.7678  0.5565
  838MPD2     H12320   2.784   3.438  12.207 -0.0589  0.0660 -0.6804
  838MPD2    H112321   2.718   3.700  12.534  1.3579 -1.8500  1.3100
  838MPD2    H212322   3.091   3.700  12.360 -1.0225  0.6934 -1.8873
  838MPD2    H312323   2.952   3.767  12.525  0.4516  0.2869  0.6062
  838MPD2     N12324   2.593   3.541  12.350 -0.3591  0.3264  0.5476
  838MPD2    H512325   2.572   3.459  12.294  0.9201 -1.0950  2.1484
  838MPD2    N112326   3.023   3.486  12.175 -0.6101  0.9311  0.0565
  838MPD2    H712327   2.969   3.417  12.125 -1.8126  1.4672  0.6227
  839MPD2     C12328   2.789   2.770  11.833  0.4895 -0.0050  0.0385
  839MPD2    C112329   2.829   2.850  11.730  0.4346  0.0498 -0.1956
  839MPD2    C212330   2.916   2.960  11.746  0.5185 -0.1426  0.0484
  839MPD2    C312331   2.948   3.000  11.868 -0.6088  0.0160 -0.7691
  839MPD2    C412332   2.909   2.924  11.978  0.0020  0.2682  0.0244
  839MPD2    C512333   2.840   2.805  11.961 -0.1922  0.0836 -0.4407
  839MPD2     H12334   2.936   3.016  11.655  0.6662  2.6394  1.7868
  839MPD2    H112335   2.933   2.948  12.081 -0.9807  1.3224  0.0028
  839MPD2    H212336   2.716   2.689  11.830  0.5531 -0.1526  1.9894
  839MPD2    H312337   2.811   2.747  12.048 -0.7766  0.0878 -0.6337
  839MPD2     N12338   3.037   3.111  11.884 -0.4067 -0.1995  0.0286
  839MPD2    H512339   3.059   3.148  11.976  1.2591 -1.7233  0.2506
  839MPD2    N112340   2.782   2.830  11.599  0.2953 -0.2618  0.1271
  839MPD2    H712341   2.829   2.879  11.524 -0.4389 -1.5753 -1.2017
  840MPD2     C12342   3.028   0.702  10.253  0.6354  0.1544 -0.0083
  840MPD2    C112343   3.027   0.704  10.388  0.2282  0.0957  0.2815
  840MPD2    C212344   3.105   0.790  10.458  0.5076 -0.0018 -0.5801
  840MPD2    C312345   3.184   0.883  10.389  0.5537 -0.6558  0.0930
  840MPD2    C412346   3.189   0.864  10.250  0.0565 -0.7343 -0.3430
  840MPD2    C512347   3.108   0.782  10.181  0.3968 -0.5565  0.6443
  840MPD2     H12348   3.094   0.795  10.566 -1.8227  0.9757 -0.8810
  840MPD2    H112349   3.247   0.931  10.187  2.0069 -2.2347 -0.1551
  840MPD2    H212350   2.960   0.634  10.201  0.6829  0.9924 -1.1745
  840MPD2    H312351   3.121   0.780  10.073  1.6627 -1.6882  0.8265
  840MPD2     N12352   3.258   0.988  10.445 -0.5433  0.4621 -0.0409
  840MPD2    H512353   3.325   1.036  10.386  1.3555  0.0320  1.8024
  840MPD2    N112354   2.923   0.626  10.455 -0.1485  0.2873 -0.0956
  840MPD2    H712355   2.858   0.583  10.390 -0.2326 -0.4180  0.4590
  841MPD2     C12356   2.262   0.677  14.928 -0.1091  0.1346 -0.2419
  841MPD2    C112357   2.315   0.674  14.798 -0.3025  0.8900 -0.1010
  841MPD2    C212358   2.302   0.785  14.721 -0.0561 -0.1854  0.2522
  841MPD2    C312359   2.234   0.900  14.767  0.3530 -0.5010 -0.2781
  841MPD2    C412360   2.175   0.898  14.894  0.3177 -0.1333  0.9610
  841MPD2    C512361   2.196   0.785  14.972 -0.8262  0.2875 -0.2886
  841MPD2     H12362   2.341   0.788  14.620 -2.2802  1.3198 -0.5498
  841MPD2    H112363   2.143   0.987  14.947  0.5282  0.0468  0.7863
  841MPD2    H212364   2.275   0.591  14.993 -1.0025 -0.8325 -1.3558
  841MPD2    H312365   2.142   0.791  15.066  0.8690  1.0752  0.6606
  841MPD2     N12366   2.243   1.015  14.681  0.0107 -0.7166 -0.2440
  841MPD2    H512367   2.292   0.986  14.597  0.9879  0.7750 -0.1935
  841MPD2    N112368   2.397   0.563  14.750  0.1201  0.7974 -0.7435
  841MPD2    H712369   2.436   0.571  14.657  2.6658  0.5413  0.3093
  842MPD2     C12370   2.904   1.763  16.702 -0.3444 -0.5122  0.1097
  842MPD2    C112371   2.811   1.862  16.737  0.6663 -0.3189 -0.1051
  842MPD2    C212372   2.788   1.878  16.873  0.2329  0.5286 -0.0516
  842MPD2    C312373   2.850   1.796  16.964 -0.5600 -0.2410 -0.2818
  842MPD2    C412374   2.942   1.700  16.926  0.2641  0.1179 -0.1839
  842MPD2    C512375   2.974   1.687  16.794 -0.0991  0.7278  0.5659
  842MPD2     H12376   2.718   1.956  16.902  1.9246  2.2283 -0.5128
  842MPD2    H112377   3.000   1.648  17.002  1.7660  1.6682 -0.2629
  842MPD2    H212378   2.922   1.747  16.596 -0.5588  3.0491 -0.4687
  842MPD2    H312379   3.043   1.610  16.761 -1.6761  0.0243 -1.0968
  842MPD2     N12380   2.828   1.805  17.100  0.6634  0.6729  0.4497
  842MPD2    H512381   2.894   1.754  17.159 -0.8204  2.4939  3.6749
  842MPD2    N112382   2.754   1.946  16.641 -0.2127 -0.1912  1.3595
  842MPD2    H712383   2.776   1.927  16.544  0.9746 -2.6268  2.0902
  843MPD2     C12384   0.142   2.696   0.480  0.5620 -0.0994  0.5273
  843MPD2    C112385   0.260   2.671   0.549 -0.3998 -0.2035 -0.3303
  843MPD2    C212386   0.380   2.712   0.490  0.7001 -0.3604  0.4076
  843MPD2    C312387   0.382   2.789   0.372 -0.1899  0.0439  0.2164
  843MPD2    C412388   0.260   2.830   0.320 -0.2339 -0.2576  0.4873
  843MPD2    C512389   0.143   2.780   0.373  0.1417 -0.3131  0.4464
  843MPD2     H12390   0.473   2.670   0.526  1.4722  0.6392 -0.4042
  843MPD2    H112391   0.251   2.887   0.228 -0.3538  1.6818  1.7114
  843MPD2    H212392   0.052   2.639   0.501  0.6337 -0.3918  0.0490
  843MPD2    H312393   0.057   2.801   0.311  0.1023 -1.1395  0.2093
  843MPD2     N12394   0.498   2.816   0.300 -0.1695 -0.5504  1.0104
  843MPD2    H512395   0.485   2.881   0.223 -1.1938  0.3003  1.8957
  843MPD2    N112396   0.254   2.594   0.666 -0.3518  0.1832 -0.0013
  843MPD2    H712397   0.160   2.570   0.695 -0.1538 -0.2219  0.2981
  844MPD2     C12398   3.420   1.109  16.772 -0.1977 -0.8975 -0.4439
  844MPD2    C112399   3.441   1.144  16.643  0.4696  0.9327 -0.3745
  844MPD2    C212400   3.531   1.247  16.612  0.4647  0.2549  0.7155
  844MPD2    C312401   3.592   1.314  16.718  0.1440 -0.9874  0.2942
  844MPD2    C412402   3.567   1.282  16.846 -0.0530 -0.5024 -0.5941
  844MPD2    C512403   3.482   1.177  16.869 -0.1653  0.1418 -0.1228
  844MPD2     H12404   3.574   1.267  16.514 -0.3473 -2.3977 -0.1663
  844MPD2    H112405   3.623   1.331  16.924 -0.7609  0.2002 -0.5321
  844MPD2    H212406   3.345   1.037  16.801 -1.4064  0.6045  0.1230
  844MPD2    H312407   3.461   1.153  16.973 -0.0511  1.4801  0.2112
  844MPD2     N12408   3.686   1.421  16.696  0.1432 -0.3648 -0.2673
  844MPD2    H512409   3.745   1.441  16.776  0.3221  0.4045 -0.5933
  844MPD2    N112410   3.387   1.078  16.531  0.1109  0.5140  0.5000
  844MPD2    H712411   3.396   1.119  16.439 -0.1149  0.2459  0.3594
  845MPD2     C12412   3.882   2.368  16.571  0.6846  0.4561 -0.6536
  845MPD2    C112413   3.830   2.293  16.676 -0.2932 -0.0705 -0.5731
  845MPD2    C212414   3.828   2.152  16.662 -0.3607  0.2733 -0.0641
  845MPD2    C312415   3.890   2.092  16.550  0.1662 -1.1675 -0.5180
  845MPD2    C412416   3.945   2.169  16.453  0.1632 -0.0326 -0.2848
  845MPD2    C512417   3.934   2.306  16.469 -0.3294 -1.0018  0.0778
  845MPD2     H12418   3.798   2.084  16.741  0.6329  1.5237  1.3886
  845MPD2    H112419   4.005   2.130  16.372 -3.4717  1.4438 -3.7150
  845MPD2    H212420   3.898   2.475  16.574  1.5736  0.3014  0.1144
  845MPD2    H312421   3.989   2.368  16.399  1.2034 -1.2684  1.0436
  845MPD2     N12422   3.893   1.955  16.550  0.6541  0.6780  0.1344
  845MPD2    H512423   3.829   1.912  16.617  1.5316  1.5031  1.5007
  845MPD2    N112424   3.776   2.368  16.786 -0.1674  0.5583 -0.4075
  845MPD2    H712425   3.790   2.468  16.786 -0.2217  0.5646  1.3253
  846MPD2     C12426   0.536   2.743  13.645  0.7990 -0.3485 -0.0097
  846MPD2    C112427   0.565   2.876  13.640 -0.0152  0.0793 -0.2472
  846MPD2    C212428   0.607   2.944  13.755  0.1460  0.4291 -0.1387
  846MPD2    C312429   0.632   2.879  13.875  0.3353 -0.9774 -0.0458
  846MPD2    C412430   0.603   2.746  13.881  0.6878  1.1536  0.3497
  846MPD2    C512431   0.557   2.683  13.773  0.6325 -0.0201  0.7232
  846MPD2     H12432   0.623   3.051  13.746  0.5789  0.5808  2.1922
  846MPD2    H112433   0.606   2.692  13.975  0.9236  0.3571 -0.1153
  846MPD2    H212434   0.510   2.683  13.558  1.4101  0.2995 -0.6336
  846MPD2    H312435   0.541   2.575  13.772  1.3120 -0.1195  0.9253
  846MPD2     N12436   0.653   2.961  13.987  0.4994  0.5321  0.2289
  846MPD2    H512437   0.676   3.060  13.989  2.3337  0.0552  1.4833
  846MPD2    N112438   0.561   2.947  13.522  0.3146  0.1596 -0.3052
  846MPD2    H712439   0.583   3.046  13.518 -0.9052  0.5261  1.6791
  847MPD2     C12440   1.155   3.476  14.055 -0.5450 -0.5511  0.2670
  847MPD2    C112441   1.106   3.555  14.152 -0.2559  0.1687 -0.0759
  847MPD2    C212442   1.138   3.530  14.284 -0.1781 -0.2546  0.3570
  847MPD2    C312443   1.239   3.443  14.310 -0.9140 -0.0141 -0.1358
  847MPD2    C412444   1.293   3.363  14.214 -0.0817  0.0116  0.5068
  847MPD2    C512445   1.246   3.380  14.086 -0.1996  0.6493  0.3322
  847MPD2     H12446   1.085   3.592  14.355 -1.6062  0.2373 -1.1412
  847MPD2    H112447   1.365   3.282  14.221 -0.8548 -0.9566 -2.6191
  847MPD2    H212448   1.126   3.480  13.950  1.2333  1.9298 -0.1202
  847MPD2    H312449   1.292   3.318  14.010 -1.0923 -1.5853  1.6422
  847MPD2     N12450   1.300   3.442  14.433  0.3815 -0.3968  0.5114
  847MPD2    H512451   1.382   3.383  14.431  0.5575 -0.2526  2.8716
  847MPD2    N112452   1.012   3.659  14.132 -0.3026  0.4910  0.1621
  847MPD2    H712453   0.989   3.721  14.209 -0.5012 -0.6763  1.0406
  848MPD2     C12454   3.307   1.825  16.200 -0.8168  0.5634  0.3071
  848MPD2    C112455   3.388   1.899  16.279  0.7131  0.4553 -1.0495
  848MPD2    C212456   3.423   2.022  16.236  0.0375  0.3658  0.0682
  848MPD2    C312457   3.395   2.064  16.101 -0.2626 -0.2739  0.1318
  848MPD2    C412458   3.318   1.981  16.019 -0.4917  0.0487 -0.0749
  848MPD2    C512459   3.279   1.859  16.071 -0.0825 -0.6467  0.5181
  848MPD2     H12460   3.493   2.085  16.291 -1.3500  1.2789  0.7945
  848MPD2    H112461   3.295   2.010  15.917  1.3630  2.0289  0.0580
  848MPD2    H212462   3.272   1.727  16.228 -0.0771  0.2731  0.2095
  848MPD2    H312463   3.217   1.790  16.014 -0.0724  0.9645 -1.4484
  848MPD2     N12464   3.439   2.191  16.049 -0.1198  0.6349  0.4350
  848MPD2    H512465   3.414   2.214  15.954 -1.1989  1.0590  0.8119
  848MPD2    N112466   3.424   1.865  16.412  0.3551 -0.3027 -0.1694
  848MPD2    H712467   3.476   1.931  16.468  1.9390 -1.2048 -0.5744
  849MPD2     C12468   2.455   2.187  14.182  0.0356 -0.2017  0.8116
  849MPD2    C112469   2.563   2.127  14.126 -0.1800 -0.1343  0.0438
  849MPD2    C212470   2.623   2.012  14.175 -0.1745  0.3465 -0.4072
  849MPD2    C312471   2.569   1.946  14.284  0.2414 -0.3487 -0.3204
  849MPD2    C412472   2.450   1.999  14.332  0.2325  0.0726  0.1806
  849MPD2    C512473   2.402   2.116  14.283 -0.5296  0.0570 -0.3575
  849MPD2     H12474   2.705   1.968  14.118 -0.2894  1.3237 -1.3356
  849MPD2    H112475   2.407   1.957  14.422  1.0420 -1.4504 -0.1397
  849MPD2    H212476   2.418   2.283  14.147 -1.1727 -0.4409  1.4450
  849MPD2    H312477   2.311   2.148  14.333 -1.7644  1.2780 -3.4226
  849MPD2     N12478   2.639   1.831  14.323  0.0619  0.4680  0.0255
  849MPD2    H512479   2.719   1.810  14.265  0.3061 -1.7838  1.1932
  849MPD2    N112480   2.639   2.189  14.027 -0.0231  0.0921  0.3556
  849MPD2    H712481   2.716   2.131  13.996  0.0917  0.5255 -0.1855
  850MPD2     C12482   0.946   4.661  14.493  0.1960 -0.0133  0.4464
  850MPD2    C112483   0.945   0.046  14.577 -0.2451  0.2559  0.5496
  850MPD2    C212484   1.065   0.093  14.635 -0.4392  0.8980 -0.0387
  850MPD2    C312485   1.174   0.011  14.635  0.0013 -0.1884  0.2754
  850MPD2    C412486   1.177   4.626  14.551 -0.5459 -1.0825 -0.3651
  850MPD2    C512487   1.064   4.593  14.471 -0.0902 -0.1514  0.2137
  850MPD2     H12488   1.060   0.176  14.705  0.8509 -0.2423  1.4131
  850MPD2    H112489   1.269   4.569  14.550 -0.5485 -1.1187  1.6646
  850MPD2    H212490   0.853   4.636  14.443 -0.5815 -0.2086  1.9846
  850MPD2    H312491   1.064   4.504  14.409  0.9399  0.8388 -1.2210
  850MPD2     N12492   1.292   0.031  14.710 -0.2374  0.1079 -0.6417
  850MPD2    H512493   1.368   4.699  14.680  0.1135  0.8133 -1.1613
  850MPD2    N112494   0.827   0.113  14.582  0.4844  0.0400  0.3982
  850MPD2    H712495   0.757   0.093  14.511 -0.2434 -0.2939  1.2021
  851MPD2     C12496   1.317   0.080  15.256  0.4295 -0.3612  0.2192
  851MPD2    C112497   1.219   0.021  15.180 -0.0523  0.1909 -0.1366
  851MPD2    C212498   1.236   4.617  15.138  0.1543  0.1466 -0.2473
  851MPD2    C312499   1.336   4.543  15.195  0.2299  0.6643  0.4045
  851MPD2    C412500   1.413   4.598  15.298 -0.3731 -0.3350 -0.9515
  851MPD2    C512501   1.411   0.003  15.318 -0.3902 -1.1428  0.8388
  851MPD2     H12502   1.180   4.577  15.054  0.7971  0.3308 -0.7610
  851MPD2    H112503   1.486   4.540  15.355 -2.0732 -0.6922  0.8636
  851MPD2    H212504   1.306   0.186  15.277  1.5899 -0.2982  0.5154
  851MPD2    H312505   1.469   0.055  15.393 -0.0213 -0.9187  0.3967
  851MPD2     N12506   1.344   4.406  15.166 -0.3300 -0.6147  0.3626
  851MPD2    H512507   1.269   4.365  15.112  0.2915  0.5291 -1.3666
  851MPD2    N112508   1.115   0.100  15.127  0.2217  0.1855 -0.0983
  851MPD2    H712509   1.137   0.199  15.124 -1.2995  0.4848 -1.3814
  852MPD2     C12510   0.097   2.318   9.686 -0.5939  0.1083 -0.5685
  852MPD2    C112511   0.176   2.336   9.797 -0.0821  1.2442  0.3281
  852MPD2    C212512   0.244   2.454   9.809 -0.3448  0.4470 -0.3584
  852MPD2    C312513   0.239   2.557   9.723  0.0310  0.2278  0.5344
  852MPD2    C412514   0.162   2.540   9.606 -0.8789 -0.4673  0.3310
  852MPD2    C512515   0.080   2.425   9.600  0.4213  0.2285 -0.2368
  852MPD2     H12516   0.298   2.479   9.899  0.9809  1.6584 -1.5017
  852MPD2    H112517   0.149   2.619   9.533 -0.1460  1.3160  2.1558
  852MPD2    H212518   0.050   2.225   9.656 -0.5594 -0.5412  1.3584
  852MPD2    H312519   0.009   2.414   9.518 -1.8183 -3.0019  2.1451
  852MPD2     N12520   0.310   2.679   9.759  0.3145 -0.2818  0.1080
  852MPD2    H512521   0.371   2.667   9.839  2.3709  0.7817 -1.2865
  852MPD2    N112522   0.179   2.244   9.908 -0.5928 -0.6512 -0.7681
  852MPD2    H712523   0.230   2.269   9.992  1.1964 -1.3130 -1.6556
  853MPD2     C12524   2.802   2.018  12.136  0.5971 -0.7531 -0.3243
  853MPD2    C112525   2.680   2.045  12.080 -0.0245  0.2622 -0.2412
  853MPD2    C212526   2.656   2.027  11.945  0.5965 -0.2951  0.8224
  853MPD2    C312527   2.752   1.972  11.867  0.3967  0.0854  0.9352
  853MPD2    C412528   2.881   1.957  11.926  0.6111 -0.1008  0.2338
  853MPD2    C512529   2.900   1.981  12.057 -0.0715  0.5505 -0.5642
  853MPD2     H12530   2.556   2.040  11.905  0.8116  0.5554  0.5518
  853MPD2    H112531   2.962   1.928  11.859  0.4665  2.6886 -1.1624
  853MPD2    H212532   2.817   2.014  12.243 -2.3671 -0.5039  0.1083
  853MPD2    H312533   2.993   1.965  12.111  0.0686 -0.9055 -1.2330
  853MPD2     N12534   2.738   1.942  11.731 -0.0173  0.2982  0.7867
  853MPD2    H512535   2.820   1.935  11.671 -0.7883  2.7544 -0.5902
  853MPD2    N112536   2.578   2.070  12.172  0.2980 -0.4634  0.4660
  853MPD2    H712537   2.599   2.079  12.270  2.4571  1.4192 -0.1869
  854MPD2     C12538   4.035   1.843  12.664  0.8385  0.5343  0.4878
  854MPD2    C112539   4.132   1.930  12.704  0.1977  0.1192  0.1247
  854MPD2    C212540   4.251   1.865  12.746 -0.4780  0.1823 -0.0702
  854MPD2    C312541   4.270   1.730  12.744  0.1532 -0.1308  0.7086
  854MPD2    C412542   4.177   1.651  12.684  0.1427  0.4950  0.5616
  854MPD2    C512543   4.060   1.709  12.647  0.4927  0.5662 -0.2044
  854MPD2     H12544   4.328   1.931  12.785  0.2126 -1.5524  1.5047
  854MPD2    H112545   4.185   1.543  12.678 -1.2770  0.5809 -2.9451
  854MPD2    H212546   3.938   1.881  12.635  2.0855  3.0302 -0.4724
  854MPD2    H312547   3.988   1.638  12.609 -0.4214  1.1915  0.3643
  854MPD2     N12548   4.396   1.691  12.790 -0.5373 -0.8065  0.2738
  854MPD2    H512549   4.458   1.768  12.809  1.3172 -2.1516 -0.3396
  854MPD2    N112550   4.109   2.071  12.711 -0.1222 -0.4931  0.1269
  854MPD2    H712551   4.016   2.105  12.690 -1.1021 -1.1267  3.4285
  855MPD2     C12552   4.688   2.084  13.369 -0.2421  0.0618 -0.2561
  855MPD2    C112553   0.057   1.984  13.395 -0.3394  0.1894  0.3368
  855MPD2    C212554   0.076   1.891  13.292 -0.1418  0.7224  0.1912
  855MPD2    C312555   0.018   1.907  13.164 -0.3667 -0.1288 -0.6299
  855MPD2    C412556   4.674   2.022  13.145 -0.6282 -0.2120  0.2764
  855MPD2    C512557   4.651   2.108  13.244 -0.8063 -0.3048  0.3666
  855MPD2     H12558   0.124   1.795  13.307  0.3254  0.6619 -1.7956
  855MPD2    H112559   4.624   2.044  13.051 -0.5333  0.2910  0.3432
  855MPD2    H212560   4.660   2.156  13.445  2.2696 -0.7706  1.4619
  855MPD2    H312561   4.583   2.192  13.238  2.5889  2.5865  2.6372
  855MPD2     N12562   0.021   1.815  13.063 -0.1719 -0.3101  0.8998
  855MPD2    H512563   4.688   1.836  12.985  0.9253  0.2648  0.1864
  855MPD2    N112564   0.129   1.964  13.513  0.0088 -0.1498  0.0799
  855MPD2    H712565   0.185   1.880  13.517  1.4297  0.6821 -2.7527
  856MPD2     C12566   1.636   2.996  14.272 -0.7200 -0.3353 -0.0656
  856MPD2    C112567   1.735   3.092  14.243 -0.1385 -0.0332  0.3580
  856MPD2    C212568   1.711   3.177  14.131  0.3739 -0.3354 -0.2000
  856MPD2    C312569   1.595   3.161  14.052 -0.5644  0.2367  1.0503
  856MPD2    C412570   1.517   3.047  14.072  0.0544 -0.0937 -0.2611
  856MPD2    C512571   1.532   2.971  14.185 -0.1423  0.2715  0.5152
  856MPD2     H12572   1.783   3.254  14.108  0.8923 -0.2078  1.8484
  856MPD2    H112573   1.432   3.026  14.008 -1.3924  0.7829  1.3851
  856MPD2    H212574   1.652   2.924  14.351  1.0635 -0.2576 -0.3459
  856MPD2    H312575   1.463   2.889  14.202 -0.2807  0.5199  1.1412
  856MPD2     N12576   1.565   3.237  13.939 -0.6642 -0.2909 -0.4572
  856MPD2    H512577   1.505   3.197  13.867 -0.9374  0.3108 -0.5626
  856MPD2    N112578   1.851   3.114  14.319 -1.1658  0.5355  0.6953
  856MPD2    H712579   1.896   3.201  14.290  0.1160  0.3850  2.2586
  857MPD2     C12580   3.430   0.530  13.187 -0.4052  0.4756 -0.1379
  857MPD2    C112581   3.565   0.512  13.182  0.6485  0.1094  0.2651
  857MPD2    C212582   3.643   0.585  13.266 -0.0754  0.1043 -0.2123
  857MPD2    C312583   3.588   0.681  13.351 -0.2610 -0.0933 -0.0625
  857MPD2    C412584   3.456   0.700  13.353  0.0239 -0.3121 -0.2590
  857MPD2    C512585   3.378   0.616  13.278 -0.1999  0.0311  0.7781
  857MPD2     H12586   3.751   0.586  13.259  0.0303 -2.7779  0.9821
  857MPD2    H112587   3.404   0.778  13.408  1.7484  0.5133  0.1757
  857MPD2    H212588   3.358   0.474  13.128  0.3772 -0.3811 -0.2735
  857MPD2    H312589   3.271   0.629  13.281 -0.4253 -1.6119 -0.3321
  857MPD2     N12590   3.679   0.759  13.431 -0.4126 -0.5359  0.3879
  857MPD2    H512591   3.776   0.737  13.410 -0.5340  1.5636 -2.4301
  857MPD2    N112592   3.614   0.421  13.088 -0.1095  0.0442 -0.2870
  857MPD2    H712593   3.538   0.376  13.038  0.4775  1.9373 -2.9125
  858MPD2     C12594   4.145   4.292  16.972 -0.1198 -0.4708  0.2222
  858MPD2    C112595   4.234   4.208  17.038 -0.1328 -0.7571  0.4060
  858MPD2    C212596   4.279   4.245  17.164 -0.4764  0.3676 -0.1964
  858MPD2    C312597   4.235   4.357  17.227  0.5446  0.2521  0.1622
  858MPD2    C412598   4.157   4.442  17.156 -0.1655  0.7563  1.2453
  858MPD2    C512599   4.118   4.412  17.028 -0.2716  0.2690  0.3359
  858MPD2     H12600   4.345   4.179  17.219  0.5191  0.5543 -1.1649
  858MPD2    H112601   4.119   4.533  17.200 -0.2909  0.3549  1.9625
  858MPD2    H212602   4.103   4.264  16.876 -0.8420  3.9404 -0.7399
  858MPD2    H312603   4.046   4.473  16.975  0.3705  0.4404 -0.3502
  858MPD2     N12604   4.269   4.398  17.359 -0.1033 -0.0616 -0.3097
  858MPD2    H512605   4.251   4.494  17.388  1.3387  0.2379 -0.3853
  858MPD2    N112606   4.271   4.089  16.975  0.0018 -0.6422 -0.0457
  858MPD2    H712607   4.241   4.074  16.879  0.0246  0.0761 -0.1662
  859MPD2     C12608   2.295   1.252  15.192  0.8282 -0.0339  0.8400
  859MPD2    C112609   2.420   1.309  15.175  0.0970 -0.2611 -0.8468
  859MPD2    C212610   2.531   1.228  15.171 -0.8565 -0.0575  0.0120
  859MPD2    C312611   2.512   1.091  15.165 -0.6944  0.7170  0.6546
  859MPD2    C412612   2.391   1.046  15.184  0.4263  0.4865  0.2435
  859MPD2    C512613   2.281   1.124  15.199  0.0997 -0.1883  0.4845
  859MPD2     H12614   2.632   1.268  15.167 -0.1941 -1.7073  0.2337
  859MPD2    H112615   2.377   0.939  15.172 -3.8331  1.0591  0.0828
  859MPD2    H212616   2.206   1.313  15.182 -0.3282 -1.9995 -0.8212
  859MPD2    H312617   2.181   1.082  15.212  0.9914 -2.7301 -0.7292
  859MPD2     N12618   2.609   0.995  15.149 -0.0133 -0.2876  0.8170
  859MPD2    H512619   2.583   0.898  15.165 -0.8998  0.0486  1.3704
  859MPD2    N112620   2.428   1.453  15.161 -0.2738  0.5208  0.3601
  859MPD2    H712621   2.346   1.507  15.187 -0.4766  1.8140 -2.9455
  860MPD2     C12622   0.586   1.901  11.499  0.5514  0.0012 -0.0323
  860MPD2    C112623   0.564   1.900  11.635 -0.1458 -0.3708 -0.2266
  860MPD2    C212624   0.441   1.860  11.685  0.0692  0.1168  0.2659
  860MPD2    C312625   0.340   1.827  11.603 -0.0081  0.1721 -0.0532
  860MPD2    C412626   0.364   1.830  11.464 -0.6706  0.1218  0.2904
  860MPD2    C512627   0.484   1.859  11.412 -0.3638  0.0284 -0.2646
  860MPD2     H12628   0.425   1.862  11.792  1.8319  0.8296  0.5076
  860MPD2    H112629   0.282   1.815  11.395  0.0215 -2.1903 -0.0206
  860MPD2    H212630   0.681   1.916  11.448 -0.4277  3.0703 -0.9554
  860MPD2    H312631   0.495   1.865  11.305 -3.9055 -1.0045 -0.6749
  860MPD2     N12632   0.216   1.791  11.661 -0.3145 -0.3074 -0.4331
  860MPD2    H512633   0.217   1.800  11.762  0.8342  2.9276 -0.7421
  860MPD2    N112634   0.657   1.932  11.732 -0.2598 -0.4926 -0.1462
  860MPD2    H712635   0.629   1.910  11.828  1.4521 -1.0965  0.2096
  861MPD2     C12636   4.304   0.370  10.880 -0.0654 -0.0997 -0.1183
  861MPD2    C112637   4.200   0.389  10.968 -0.3150 -0.1803  0.2726
  861MPD2    C212638   4.078   0.432  10.915 -0.6464  0.7684 -0.1629
  861MPD2    C312639   4.060   0.458  10.778 -0.1649 -0.5595 -0.4633
  861MPD2    C412640   4.172   0.448  10.698  0.0015 -0.0650 -0.3866
  861MPD2    C512641   4.290   0.402  10.748 -0.4921 -0.5482  0.2490
  861MPD2     H12642   3.989   0.431  10.978  0.4223 -0.6845  1.2905
  861MPD2    H112643   4.176   0.459  10.591 -0.7572 -0.5274 -0.4639
  861MPD2    H212644   4.390   0.318  10.922  0.3813  0.3308 -0.4933
  861MPD2    H312645   4.372   0.387  10.679 -1.2369  0.2923 -0.8154
  861MPD2     N12646   3.946   0.519  10.720 -0.6059 -0.1682 -0.2796
  861MPD2    H512647   3.950   0.546  10.622 -0.6563 -1.6790 -0.6995
  861MPD2    N112648   4.209   0.353  11.110 -0.5825  0.1457  0.3766
  861MPD2    H712649   4.121   0.368  11.157 -0.7929 -0.7995  0.2771
  862MPD2     C12650   3.446   0.595  10.215 -0.5181 -0.5474  0.1296
  862MPD2    C112651   3.543   0.532  10.296  0.5957 -0.5076  0.2157
  862MPD2    C212652   3.547   0.396  10.310 -0.1105 -0.1513 -0.1134
  862MPD2    C312653   3.453   0.322  10.242  0.5451 -0.5970 -0.7554
  862MPD2    C412654   3.356   0.380  10.166 -0.1578  0.4751  0.1198
  862MPD2    C512655   3.355   0.515  10.149 -0.2609 -0.5342  0.3456
  862MPD2     H12656   3.617   0.349  10.378 -2.7373 -0.3531  2.4558
  862MPD2    H112657   3.284   0.318  10.114  0.7598  0.9911 -1.7818
  862MPD2    H212658   3.429   0.702  10.212 -1.4550 -0.6926  0.4500
  862MPD2    H312659   3.279   0.563  10.087  0.1745  0.6583  0.7443
  862MPD2     N12660   3.446   0.179  10.251 -0.6230  0.1366 -0.0390
  862MPD2    H512661   3.405   0.130  10.172  1.8847 -3.0807  0.6488
  862MPD2    N112662   3.624   0.603  10.382 -0.6143 -0.2001 -0.5340
  862MPD2    H712663   3.676   0.539  10.441  2.4084  1.8805 -0.9087
  863MPD2     C12664   2.548   3.241  16.769  0.2083  0.5875  0.0134
  863MPD2    C112665   2.522   3.365  16.828  0.1439 -0.3179 -0.3030
  863MPD2    C212666   2.585   3.399  16.944 -0.1230  0.5780 -0.0244
  863MPD2    C312667   2.684   3.322  16.993 -0.8960 -0.3143  0.0717
  863MPD2    C412668   2.702   3.193  16.948 -0.3311 -0.0432 -0.0104
  863MPD2    C512669   2.639   3.159  16.831  0.4323  0.8238 -0.4244
  863MPD2     H12670   2.555   3.491  16.992  2.0383  0.3578  1.7838
  863MPD2    H112671   2.761   3.113  16.992 -0.9453 -0.4609  0.0508
  863MPD2    H212672   2.507   3.202  16.676 -0.1179 -1.0586  0.8504
  863MPD2    H312673   2.658   3.067  16.778 -0.4711 -0.6905  1.9209
  863MPD2     N12674   2.769   3.364  17.100 -0.3796  0.1502 -0.0531
  863MPD2    H512675   2.832   3.295  17.138  1.5045  0.6075 -2.3726
  863MPD2    N112676   2.417   3.443  16.772 -0.2276 -0.2729  0.3627
  863MPD2    H712677   2.370   3.394  16.697 -0.2482  1.3242 -0.6596
  864MPD2     C12678   2.983   4.504  17.606  0.1995 -0.2465  0.3500
  864MPD2    C112679   2.966   4.488  17.467  0.0683 -0.1048  0.2199
  864MPD2    C212680   2.990   4.594  17.383  0.4028 -0.4855 -0.8761
  864MPD2    C312681   3.012   4.716  17.437 -0.0597  0.8312 -0.0267
  864MPD2    C412682   3.020   0.011  17.573 -0.2752 -0.0420  0.2484
  864MPD2    C512683   3.002   4.629  17.655  0.4569  0.0697 -0.2133
  864MPD2     H12684   2.994   4.572  17.277  2.6425  0.0468 -0.9083
  864MPD2    H112685   3.052   0.109  17.606 -2.1929  0.5521  0.3870
  864MPD2    H212686   2.976   4.423  17.678 -2.2133 -1.7552 -1.5335
  864MPD2    H312687   3.023   4.643   0.047 -2.0649 -2.7292  0.6640
  864MPD2     N12688   3.031   0.102  17.355  0.5665 -0.3840 -0.0677
  864MPD2    H512689   3.026   0.190  17.404  0.0556 -0.6386  0.3385
  864MPD2    N112690   2.942   4.355  17.419  0.6886 -0.2540  0.4456
  864MPD2    H712691   2.924   4.282  17.487 -2.6899 -0.0248 -0.2053
  865MPD2     C12692   3.037   0.218  16.333  0.0373 -0.2646 -0.2128
  865MPD2    C112693   3.104   0.139  16.426 -0.3693 -0.1578  0.5164
  865MPD2    C212694   3.105   0.169  16.567 -0.3691  0.1171  0.3817
  865MPD2    C312695   3.053   0.283  16.613  0.2112  0.1830 -0.4952
  865MPD2    C412696   2.981   0.358  16.522  0.8506 -0.1040  0.6140
  865MPD2    C512697   2.984   0.329  16.384 -0.1631 -0.0114 -0.3365
  865MPD2     H12698   3.170   0.108  16.628 -0.9716 -0.0244  0.8870
  865MPD2    H112699   2.918   0.437  16.561 -0.3062 -0.3622 -0.7098
  865MPD2    H212700   3.017   0.205  16.227 -0.1945  0.1107 -0.2139
  865MPD2    H312701   2.916   0.387  16.322 -1.8461 -0.2575  1.2703
  865MPD2     N12702   3.060   0.321  16.746 -0.1117 -0.4410  0.6393
  865MPD2    H512703   2.999   0.398  16.772 -1.0238 -1.6143  2.0519
  865MPD2    N112704   3.161   0.017  16.386  0.3716  0.3299  0.1816
  865MPD2    H712705   3.160   0.005  16.285 -0.2525 -2.1160  0.4796
  866MPD2     C12706   0.027   0.419  11.270  0.2196  0.3942 -0.7391
  866MPD2    C112707   0.021   0.490  11.149 -0.3187  0.0631  0.3084
  866MPD2    C212708   4.638   0.572  11.122  0.1179  0.0033  0.2852
  866MPD2    C312709   4.550   0.606  11.225 -0.3475  0.2351  0.2576
  866MPD2    C412710   4.571   0.556  11.350 -0.1274 -0.7626 -0.2044
  866MPD2    C512711   4.671   0.464  11.371 -0.1678 -0.2825  1.5140
  866MPD2     H12712   4.631   0.627  11.028 -0.6958 -1.0473 -0.2677
  866MPD2    H112713   4.505   0.566  11.436 -0.1391  1.2121 -0.4373
  866MPD2    H212714   0.102   0.343  11.289  2.0234  2.1607 -0.8057
  866MPD2    H312715   4.682   0.439  11.476 -1.7299 -3.2012  0.9563
  866MPD2     N12716   4.433   0.684  11.212 -0.3204  0.1194 -0.9895
  866MPD2    H512717   4.379   0.711  11.293  1.4541 -0.9984  0.5623
  866MPD2    N112718   0.128   0.472  11.060  0.0158 -0.9294 -0.0188
  866MPD2    H712719   0.204   0.416  11.098 -0.0673 -1.8180 -1.1568
  867MPD2     C12720   2.589   0.110  16.398 -0.0777  0.6082 -0.2057
  867MPD2    C112721   2.538   0.125  16.524  0.2291  0.5375  1.3879
  867MPD2    C212722   2.516   0.248  16.582 -0.5111 -0.3114  0.4417
  867MPD2    C312723   2.539   0.362  16.508  0.2917 -0.0527  0.0554
  867MPD2    C412724   2.570   0.351  16.373  0.4492 -0.5739  0.3642
  867MPD2    C512725   2.595   0.223  16.328  0.0615  0.2782 -0.4555
  867MPD2     H12726   2.471   0.258  16.680  1.2543 -2.6131  1.5087
  867MPD2    H112727   2.578   0.441  16.314  1.9068 -0.3333  0.9272
  867MPD2    H212728   2.607   0.014  16.351  0.1053  0.3238  0.4463
  867MPD2    H312729   2.612   0.220  16.221  2.8971 -2.9716  0.0949
  867MPD2     N12730   2.532   0.493  16.551  0.9406  0.0499 -0.1467
  867MPD2    H512731   2.561   0.567  16.488  0.2567 -1.0779 -1.7854
  867MPD2    N112732   2.524   0.005  16.600  0.0914  0.0090 -0.0182
  867MPD2    H712733   2.553   4.650  16.550 -0.0934 -0.8852  1.3620
  868MPD2     C12734   3.620   3.135  13.038  0.6102  0.0106  0.6006
  868MPD2    C112735   3.712   3.180  13.135  0.8335  0.2232  0.3324
  868MPD2    C212736   3.673   3.197  13.266 -0.1317 -0.5264  0.1645
  868MPD2    C312737   3.541   3.179  13.303 -0.1144 -0.0535  0.3799
  868MPD2    C412738   3.456   3.124  13.216 -0.0710  0.1514 -0.8638
  868MPD2    C512739   3.493   3.105  13.083 -0.2515 -0.5686  0.0579
  868MPD2     H12740   3.744   3.225  13.343 -1.9017 -0.6444  1.8568
  868MPD2    H112741   3.354   3.105  13.245  0.5144  0.1261  1.1784
  868MPD2    H212742   3.649   3.130  12.933  2.3850  2.2744  0.9638
  868MPD2    H312743   3.422   3.077  13.007  2.3068  2.0432 -3.3018
  868MPD2     N12744   3.501   3.229  13.430  0.5784 -0.0656 -0.4605
  868MPD2    H512745   3.568   3.275  13.491  0.8454  0.1125 -0.8880
  868MPD2    N112746   3.847   3.209  13.112  0.3071  0.9002 -1.1115
  868MPD2    H712747   3.903   3.238  13.191  1.1665 -1.3174 -0.9127
  869MPD2     C12748   0.311   1.727   2.145 -0.2819  0.3505  0.7334
  869MPD2    C112749   0.385   1.804   2.227 -0.5003  0.0159  0.3034
  869MPD2    C212750   0.416   1.930   2.193  0.2334 -0.1288 -0.0187
  869MPD2    C312751   0.373   1.987   2.073 -0.4108  1.1218 -0.1005
  869MPD2    C412752   0.294   1.910   1.986 -0.2087 -0.2503  0.2097
  869MPD2    C512753   0.269   1.777   2.022  0.2202  1.1930 -0.0619
  869MPD2     H12754   0.488   1.989   2.249  1.3451 -0.6133 -0.9459
  869MPD2    H112755   0.254   1.933   1.888 -0.6157  0.0442  0.4447
  869MPD2    H212756   0.303   1.622   2.172  0.9769  0.2086  0.5594
  869MPD2    H312757   0.234   1.710   1.945 -0.4553  0.1702  1.1355
  869MPD2     N12758   0.388   2.125   2.032 -0.0017 -0.3915  0.0073
  869MPD2    H512759   0.353   2.144   1.939 -2.3976  1.4948  1.2791
  869MPD2    N112760   0.422   1.752   2.352 -0.1741  0.3830  0.6330
  869MPD2    H712761   0.410   1.652   2.355 -0.1983  0.4355  2.1983
  870MPD2     C12762   4.648   0.506   1.803  0.2502  0.2721  0.3032
  870MPD2    C112763   4.689   0.404   1.721 -0.4035  0.5810 -0.5027
  870MPD2    C212764   4.648   0.409   1.590  0.1189  0.3230 -0.4594
  870MPD2    C312765   4.541   0.483   1.552 -0.3391  0.3534  0.1558
  870MPD2    C412766   4.484   0.569   1.642 -0.6665 -0.0123 -0.3467
  870MPD2    C512767   4.543   0.590   1.760 -0.9101  0.4817  0.4718
  870MPD2     H12768   4.677   0.330   1.521 -1.0930  0.1575 -0.7723
  870MPD2    H112769   4.394   0.628   1.623  0.0232  0.5101 -1.9869
  870MPD2    H212770   4.680   0.512   1.907  0.6161 -3.1215  0.3924
  870MPD2    H312771   4.505   0.662   1.831 -1.7036  0.3042  0.2261
  870MPD2     N12772   4.483   0.459   1.424 -0.4795  0.3503 -0.1675
  870MPD2    H512773   4.525   0.385   1.368  0.1666  0.0322  0.7333
  870MPD2    N112774   0.062   0.317   1.770  0.1330  0.0446 -0.4318
  870MPD2    H712775   0.077   0.331   1.870  1.4088 -0.4276 -0.5572
  871MPD2     C12776   1.100   0.198  16.180  0.0234  0.0792  0.1778
  871MPD2    C112777   1.043   0.137  16.290  0.5067 -0.8855  0.3285
  871MPD2    C212778   0.956   0.030  16.266 -0.0719  0.1931  0.5150
  871MPD2    C312779   0.947   4.689  16.145 -0.3180 -0.0744 -0.7024
  871MPD2    C412780   1.014   0.011  16.037 -0.7413  0.3557  0.3095
  871MPD2    C512781   1.083   0.137  16.051 -0.9179 -0.7957  0.0523
  871MPD2     H12782   0.882   0.002  16.341  0.1321 -1.7979 -0.0153
  871MPD2    H112783   1.002   4.709  15.934 -0.9545  3.2011 -0.4955
  871MPD2    H212784   1.152   0.293  16.180 -0.7952  0.5307  0.4712
  871MPD2    H312785   1.120   0.187  15.962 -2.4526 -1.9680 -1.2522
  871MPD2     N12786   0.853   4.578  16.141  0.5099  0.9516  0.1088
  871MPD2    H512787   0.823   4.547  16.233  2.9346 -0.9243  0.2500
  871MPD2    N112788   1.054   0.200  16.424  0.5009 -0.2064 -0.2885
  871MPD2    H712789   1.087   0.296  16.420 -1.3682  0.4346 -0.4573
  872MPD2     C12790   1.218   2.835  13.800  0.9538 -0.1265 -0.0491
  872MPD2    C112791   1.283   2.754  13.893  0.1020 -0.5942  0.2638
  872MPD2    C212792   1.201   2.693  13.987  0.0252 -0.4147  0.1939
  872MPD2    C312793   1.063   2.721  14.001  0.0758  0.3422  0.1052
  872MPD2    C412794   1.002   2.814  13.917  0.1148 -0.7040 -0.0814
  872MPD2    C512795   1.084   2.869  13.822  1.1368 -0.2251 -0.2766
  872MPD2     H12796   1.243   2.638  14.070  1.5061  1.2179  0.5295
  872MPD2    H112797   0.901   2.849  13.935 -0.0133 -0.3039 -1.6020
  872MPD2    H212798   1.274   2.882  13.721 -0.1849 -1.5978 -1.7514
  872MPD2    H312799   1.044   2.950  13.760 -0.9768 -0.1718  1.1470
  872MPD2     N12800   0.990   2.666  14.114 -0.2798 -0.1855 -0.3848
  872MPD2    H512801   0.905   2.712  14.146  0.6927  0.6929  0.9779
  872MPD2    N112802   1.421   2.721  13.897 -0.1687 -0.1915  0.1753
  872MPD2    H712803   1.457   2.661  13.970  1.0800  1.0185  0.5388
  873MPD2     C12804   3.290   2.615   1.752 -0.2033  0.4785  0.2549
  873MPD2    C112805   3.228   2.654   1.633  0.3905  0.1285  0.3291
  873MPD2    C212806   3.174   2.556   1.552 -0.6557  0.5858 -0.0027
  873MPD2    C312807   3.183   2.419   1.591  0.5405  0.3676  0.2354
  873MPD2    C412808   3.273   2.383   1.697 -0.2003 -0.1985  0.2176
  873MPD2    C512809   3.318   2.487   1.776  0.0053  0.2834 -0.9527
  873MPD2     H12810   3.120   2.581   1.462 -2.1616  1.0622  1.0487
  873MPD2    H112811   3.289   2.283   1.735 -0.2180 -0.3340 -0.1271
  873MPD2    H212812   3.334   2.688   1.820  0.4488  0.4610 -0.1506
  873MPD2    H312813   3.377   2.457   1.862 -1.6961 -2.1044 -0.6057
  873MPD2     N12814   3.125   2.316   1.513  0.3338 -0.8798 -0.0236
  873MPD2    H512815   3.157   2.223   1.534 -0.1642 -1.2538 -0.9182
  873MPD2    N112816   3.227   2.791   1.597 -0.1163  0.0978  0.0413
  873MPD2    H712817   3.285   2.850   1.656 -0.3730 -0.5430  0.9323
  874MPD2     C12818   2.792   2.684  16.250 -0.0758 -0.4182  0.0485
  874MPD2    C112819   2.832   2.555  16.255  1.1524  0.0441  0.7472
  874MPD2    C212820   2.957   2.526  16.217 -0.7364  0.2469 -0.4855
  874MPD2    C312821   3.048   2.626  16.181 -0.2805  0.7683  0.1814
  874MPD2    C412822   3.009   2.756  16.194  0.3243 -0.2539  0.1207
  874MPD2    C512823   2.879   2.789  16.224  0.2094 -0.4657 -1.0500
  874MPD2     H12824   2.993   2.424  16.213 -0.7373  0.2666 -1.0510
  874MPD2    H112825   3.069   2.843  16.174  0.9693 -0.2811  1.9707
  874MPD2    H212826   2.688   2.708  16.268 -0.3237 -1.9995  0.7197
  874MPD2    H312827   2.853   2.894  16.227 -2.2978 -1.1289  0.6388
  874MPD2     N12828   3.172   2.589  16.121 -0.8176 -0.2751 -0.5819
  874MPD2    H512829   3.198   2.491  16.128 -1.3249 -0.3254  0.5766
  874MPD2    N112830   2.739   2.466  16.309  0.1257 -0.0611 -0.6686
  874MPD2    H712831   2.646   2.496  16.336  0.5568  2.4295 -1.9609
  875MPD2     C12832   4.422   0.974  14.519 -0.3864 -0.1501 -0.0456
  875MPD2    C112833   4.297   0.959  14.580  0.0412  0.3955  0.1952
  875MPD2    C212834   4.266   1.001  14.707  0.5407  0.4356  0.1252
  875MPD2    C312835   4.371   1.063  14.777 -0.3114 -0.5400 -0.0943
  875MPD2    C412836   4.497   1.079  14.723  0.0487 -0.3198 -0.4848
  875MPD2    C512837   4.516   1.038  14.592 -0.0874 -0.5558  0.5103
  875MPD2     H12838   4.169   0.990  14.755  0.7294 -1.3651  0.0956
  875MPD2    H112839   4.571   1.136  14.777  0.4548  0.7827 -2.2143
  875MPD2    H212840   4.436   0.956  14.413 -0.2942  1.5056 -0.3220
  875MPD2    H312841   4.607   1.068  14.542 -0.4038 -1.4898 -0.6236
  875MPD2     N12842   4.354   1.101  14.913  0.3281 -1.0831  0.0229
  875MPD2    H512843   4.430   1.154  14.956 -1.5038 -0.1863  2.1897
  875MPD2    N112844   4.188   0.898  14.514  0.8611  0.3615 -0.7371
  875MPD2    H712845   4.103   0.908  14.568  1.9519 -1.0389  1.2359
  876MPD2     C12846   2.409   2.186  16.047  0.7818  0.0573 -0.2100
  876MPD2    C112847   2.514   2.101  16.017 -0.0892 -0.2598  1.2416
  876MPD2    C212848   2.537   1.993  16.101  0.3285  0.2112 -0.3445
  876MPD2    C312849   2.463   1.969  16.214  0.4245 -0.5210  0.2705
  876MPD2    C412850   2.350   2.045  16.238 -0.2366 -0.3352  0.5344
  876MPD2    C512851   2.320   2.150  16.150 -0.0087  0.1017  0.3676
  876MPD2     H12852   2.630   1.937  16.093  0.5042  0.3556  0.6209
  876MPD2    H112853   2.277   2.025  16.315  0.3809 -0.0826  1.1756
  876MPD2    H212854   2.382   2.269  15.983 -0.9493  0.1577  0.6407
  876MPD2    H312855   2.234   2.207  16.183 -1.1353 -0.5472 -1.5098
  876MPD2     N12856   2.506   1.862  16.298 -0.7287  0.1721  0.1868
  876MPD2    H512857   2.579   1.805  16.256 -1.8153 -0.6201 -0.6227
  876MPD2    N112858   2.601   2.128  15.910  0.4687 -0.3086 -0.0565
  876MPD2    H712859   2.590   2.216  15.862  1.5503  0.7420  1.6509
  877MPD2     C12860   2.708   2.597  15.306  0.0332  0.6117 -0.2800
  877MPD2    C112861   2.822   2.521  15.323 -0.9278 -0.9170  0.1076
  877MPD2    C212862   2.918   2.530  15.227  0.4572 -0.7492  0.9297
  877MPD2    C312863   2.898   2.597  15.110  0.3739  0.0033  0.4505
  877MPD2    C412864   2.779   2.662  15.091 -0.0273  0.2045 -0.3764
  877MPD2    C512865   2.680   2.660  15.188 -0.0390  1.0953  0.2158
  877MPD2     H12866   3.006   2.468  15.237  2.4028  1.8888  0.3653
  877MPD2    H112867   2.760   2.709  14.996 -1.0389 -0.0143 -0.2825
  877MPD2    H212868   2.631   2.612  15.381 -1.0126  2.4605 -1.7217
  877MPD2    H312869   2.583   2.702  15.166  0.0153  0.2769 -1.5254
  877MPD2     N12870   2.987   2.589  15.003  0.0858  0.5226 -0.3925
  877MPD2    H512871   2.972   2.639  14.916  1.9361  1.0412 -0.4185
  877MPD2    N112872   2.858   2.428  15.423  0.3883  0.7604  0.6705
  877MPD2    H712873   2.953   2.393  15.433 -0.1870 -1.3435 -1.2038
  878MPD2     C12874   2.919   2.639  13.089  0.5755  1.2190 -0.2674
  878MPD2    C112875   2.976   2.519  13.116 -0.2893  0.6074  0.0255
  878MPD2    C212876   2.964   2.460  13.243  0.4414  0.3207 -0.1243
  878MPD2    C312877   2.893   2.529  13.343 -1.2468 -0.9515 -0.5222
  878MPD2    C412878   2.833   2.657  13.317  0.2209 -0.0742  0.0931
  878MPD2    C512879   2.845   2.701  13.189  0.0027 -0.1919  1.1098
  878MPD2     H12880   3.019   2.373  13.276 -0.8582 -0.5482 -0.2216
  878MPD2    H112881   2.768   2.708  13.387  0.0066 -0.0703 -0.1076
  878MPD2    H212882   2.942   2.684  12.993  1.9786  0.0254 -0.5015
  878MPD2    H312883   2.824   2.806  13.178  1.0732 -0.1354 -0.2349
  878MPD2     N12884   2.903   2.473  13.476 -0.1488  0.0395  0.0032
  878MPD2    H512885   2.942   2.381  13.494 -2.7825 -1.1758 -0.4265
  878MPD2    N112886   3.035   2.464  13.004  0.6511  0.6054  0.3030
  878MPD2    H712887   3.060   2.525  12.927 -0.4932  0.3623 -0.2655
  879MPD2     C12888   3.733   3.136  17.077  0.5521 -0.4199  0.4311
  879MPD2    C112889   3.633   3.091  17.169 -0.3331 -0.3045 -0.0559
  879MPD2    C212890   3.518   3.044  17.116  0.0730 -0.4585 -0.0887
  879MPD2    C312891   3.497   3.020  16.976  0.6789  0.4560 -0.0821
  879MPD2    C412892   3.595   3.051  16.885 -0.0256  1.2502 -0.1469
  879MPD2    C512893   3.704   3.127  16.936  0.5917 -0.5615 -0.3566
  879MPD2     H12894   3.440   3.026  17.189 -0.5549  1.8341 -0.1998
  879MPD2    H112895   3.598   3.042  16.777  1.3340  1.6155 -0.1382
  879MPD2    H212896   3.833   3.162  17.108  0.7849 -0.4778 -0.2741
  879MPD2    H312897   3.780   3.158  16.865  1.3892 -0.7955  0.3986
  879MPD2     N12898   3.370   2.977  16.923 -0.5825 -0.2309  0.0509
  879MPD2    H512899   3.362   2.977  16.822  0.9186  2.3173 -0.0749
  879MPD2    N112900   3.658   3.105  17.310  0.4940  0.5644  0.6581
  879MPD2    H712901   3.734   3.163  17.342  1.0253 -0.4792  1.3001
  880MPD2     C12902   0.361   4.213   0.092  0.1222 -0.0944  0.2781
  880MPD2    C112903   0.293   4.254   0.205  0.0336  0.4275  0.5443
  880MPD2    C212904   0.245   4.162   0.287 -1.2758 -0.1860 -0.0679
  880MPD2    C312905   0.258   4.028   0.256 -0.1516  0.1495  0.3420
  880MPD2    C412906   0.330   3.983   0.144  0.5793  0.5259 -0.5107
  880MPD2    C512907   0.387   4.083   0.066 -0.4763  0.2801 -0.5518
  880MPD2     H12908   0.186   4.187   0.375  0.2973  0.5716  0.7729
  880MPD2    H112909   0.359   3.881   0.119 -1.5821 -0.5450  1.3338
  880MPD2    H212910   0.382   4.280   0.009  2.9536 -1.3013  0.0245
  880MPD2    H312911   0.439   4.053  17.689  1.7592 -2.3922  1.5867
  880MPD2     N12912   0.209   3.940   0.355  0.3108 -0.1336 -0.1155
  880MPD2    H512913   0.157   3.979   0.434  2.2842  1.9528  0.1348
  880MPD2    N112914   0.270   4.392   0.219  0.2039  0.3020  0.5516
  880MPD2    H712915   0.310   4.461   0.156 -0.0877  1.6378  1.8299
  881MPD2     C12916   4.693   0.569  17.587 -0.2017  0.1722  0.1603
  881MPD2    C112917   0.055   0.483  17.549  0.3830  0.3700  0.1634
  881MPD2    C212918   0.071   0.378  17.640 -0.0601  0.2702  0.5597
  881MPD2    C312919   0.018   0.380   0.059 -0.9972  0.3003 -0.5411
  881MPD2    C412920   4.672   0.490   0.096  0.5055 -0.0856  0.2126
  881MPD2    C512921   4.642   0.581  17.713  0.6317  0.2992  0.1167
  881MPD2     H12922   0.131   0.294  17.606  1.3070  2.0717 -1.5199
  881MPD2    H112923   4.628   0.506   0.194 -0.0299 -0.9540  0.1164
  881MPD2    H212924   4.666   0.649  17.519 -0.1929 -0.3880 -0.5089
  881MPD2    H312925   4.565   0.654   0.019  1.5304  1.3564 -0.2641
  881MPD2     N12926   0.061   0.282   0.154 -0.2589 -0.2629  0.3079
  881MPD2    H512927   0.052   0.312   0.251  2.2178 -2.8710  1.3187
  881MPD2    N112928   0.073   0.466  17.408  0.3961  0.2345  0.4089
  881MPD2    H712929   0.032   0.527  17.339 -0.0175 -0.0306  0.4186
  882MPD2     C12930   3.061   2.571  14.211 -0.1969  0.5252  0.0822
  882MPD2    C112931   3.006   2.591  14.339 -0.0054  1.4292 -0.0348
  882MPD2    C212932   2.865   2.584  14.357 -0.5403  0.1887 -0.1288
  882MPD2    C312933   2.784   2.587  14.248  0.5134  0.4962  0.5850
  882MPD2    C412934   2.844   2.596  14.120 -0.9151  0.2252  0.7226
  882MPD2    C512935   2.985   2.585  14.100 -0.0988  1.4466 -0.4537
  882MPD2     H12936   2.830   2.567  14.458 -0.2934 -1.2592 -0.2860
  882MPD2    H112937   2.777   2.604  14.035 -1.0972  0.9935  0.9386
  882MPD2    H212938   3.164   2.548  14.188  0.2804  0.6873  2.0315
  882MPD2    H312939   3.028   2.588  14.000 -0.0683 -0.1930 -0.4981
  882MPD2     N12940   2.644   2.565  14.256  0.3405 -0.0964 -0.3791
  882MPD2    H512941   2.594   2.580  14.168  0.4691 -1.8887 -0.7473
  882MPD2    N112942   3.097   2.580  14.446  0.3120 -1.4182  0.9007
  882MPD2    H712943   3.195   2.560  14.428 -0.1571 -1.5877 -1.4738
  883MPD2     C12944   0.981   2.849  16.431  0.0973 -0.2452  0.0175
  883MPD2    C112945   0.901   2.762  16.496 -0.1542 -0.2275  0.3637
  883MPD2    C212946   0.948   2.709  16.612  0.2383  0.2755 -0.2410
  883MPD2    C312947   1.080   2.730  16.663  0.1688 -0.0949  0.0162
  883MPD2    C412948   1.159   2.812  16.586  0.4033 -0.1045  0.5003
  883MPD2    C512949   1.107   2.881  16.481  0.2326  0.3535 -0.4279
  883MPD2     H12950   0.894   2.626  16.655  2.5186 -0.4332  1.2446
  883MPD2    H112951   1.263   2.830  16.610  0.9919 -0.5717 -1.6778
  883MPD2    H212952   0.947   2.901  16.342  0.7853  0.8229  0.3811
  883MPD2    H312953   1.173   2.946  16.425 -1.3918  1.8289 -0.6430
  883MPD2     N12954   1.123   2.668  16.782  0.5179  0.1075  0.0784
  883MPD2    H512955   1.050   2.615  16.829  0.6389 -2.2585 -2.4412
  883MPD2    N112956   0.777   2.716  16.451  0.3867 -0.3151  0.1680
  883MPD2    H712957   0.726   2.649  16.508 -0.0494 -0.4989 -0.4313
  884MPD2     C12958   2.265   3.121  15.405 -0.5083 -0.2299  0.1353
  884MPD2    C112959   2.246   3.204  15.291  0.0470 -0.2850  0.6390
  884MPD2    C212960   2.138   3.288  15.286 -0.6411 -0.3204 -0.1309
  884MPD2    C312961   2.047   3.289  15.389 -0.5391  0.0374  0.3271
  884MPD2    C412962   2.059   3.195  15.485  0.5943 -0.4254 -0.5590
  884MPD2    C512963   2.169   3.118  15.501 -0.3702  0.0916 -0.0404
  884MPD2     H12964   2.112   3.339  15.194 -1.4147 -0.0863  0.2200
  884MPD2    H112965   1.984   3.184  15.563 -0.9399  0.9825 -1.8263
  884MPD2    H212966   2.354   3.060  15.415  0.0568  0.9349  2.1806
  884MPD2    H312967   2.187   3.052  15.586 -2.5268  0.6621  0.8443
  884MPD2     N12968   1.948   3.390  15.388 -0.3338 -0.3682  0.6991
  884MPD2    H512969   1.947   3.451  15.307 -1.7541 -0.6854  0.4728
  884MPD2    N112970   2.326   3.208  15.174  0.3828  0.0353 -0.1479
  884MPD2    H712971   2.292   3.266  15.098 -2.6446  0.8669  1.8246
  885MPD2     C12972   0.226   3.227   0.372 -0.0017 -0.7278 -0.7586
  885MPD2    C112973   0.359   3.192   0.351  0.5905  0.2348  0.7764
  885MPD2    C212974   0.410   3.207   0.227  0.3530  0.9004  0.1618
  885MPD2    C312975   0.331   3.245   0.112 -0.5071 -0.3039 -1.0125
  885MPD2    C412976   0.196   3.276   0.140 -0.1637 -0.0023 -0.2937
  885MPD2    C512977   0.147   3.265   0.269 -0.0786  0.7358 -0.1010
  885MPD2     H12978   0.513   3.181   0.202  0.7566 -0.2848  3.0543
  885MPD2    H112979   0.133   3.313   0.060  0.6390 -0.1560 -0.9980
  885MPD2    H212980   0.174   3.198   0.462  0.3364  1.9537  0.2786
  885MPD2    H312981   0.044   3.296   0.276 -0.2073  0.2479  0.1776
  885MPD2     N12982   0.378   3.238  17.695  0.2432  0.3586 -0.0284
  885MPD2    H512983   0.475   3.214  17.679 -0.2286 -1.3765 -0.3066
  885MPD2    N112984   0.435   3.140   0.459  0.3179 -0.2289 -0.0227
  885MPD2    H712985   0.386   3.100   0.539  1.1658 -1.6673 -0.2258
  886MPD2     C12986   1.554   2.197  16.097 -0.3462  0.6971  0.0687
  886MPD2    C112987   1.680   2.196  16.044 -0.0790  0.0799 -0.2658
  886MPD2    C212988   1.703   2.258  15.919 -0.3992 -0.2969 -0.7167
  886MPD2    C312989   1.602   2.333  15.864  0.0776  0.0991  0.3011
  886MPD2    C412990   1.476   2.340  15.917  0.1090  0.0853 -0.3628
  886MPD2    C512991   1.461   2.278  16.038 -0.6235 -0.3960 -0.3898
  886MPD2     H12992   1.792   2.235  15.862  0.3483  1.4641 -0.2492
  886MPD2    H112993   1.389   2.390  15.877  0.1393  0.5816  0.1871
  886MPD2    H212994   1.514   2.154  16.188  3.2181 -1.3561  0.6581
  886MPD2    H312995   1.358   2.278  16.071 -0.6475  0.4252 -0.4450
  886MPD2     N12996   1.632   2.381  15.734  0.4392  0.2362  0.0573
  886MPD2    H512997   1.728   2.366  15.704  0.3721 -0.5350  0.2200
  886MPD2    N112998   1.788   2.119  16.092 -0.3601  0.2261  0.4792
  886MPD2    H712999   1.878   2.134  16.049  0.0262 -1.8546  0.5563
  887MPD2     C13000   2.339   1.918  15.717 -0.5589 -0.4246 -0.2958
  887MPD2    C113001   2.249   1.999  15.781  0.8137 -0.5013 -0.5030
  887MPD2    C213002   2.209   2.115  15.719  0.4856  0.3876  0.4866
  887MPD2    C313003   2.272   2.164  15.610  0.0224  0.6082  0.0780
  887MPD2    C413004   2.373   2.093  15.556  0.1172  0.5843 -0.1022
  887MPD2    C513005   2.410   1.971  15.610 -0.7050  0.1047 -0.0695
  887MPD2     H13006   2.131   2.173  15.765  0.4879  0.1916  0.7395
  887MPD2    H113007   2.425   2.130  15.468  0.2786  2.8943  0.9855
  887MPD2    H213008   2.366   1.823  15.761  0.5352 -0.0684 -0.1936
  887MPD2    H313009   2.489   1.915  15.562  0.9646  0.9122  1.7095
  887MPD2     N13010   2.234   2.296  15.567  0.0665  0.5317 -0.2138
  887MPD2    H513011   2.165   2.345  15.623 -2.1162 -3.7866  0.8711
  887MPD2    N113012   2.176   1.969  15.894  0.6972  0.2560  0.4137
  887MPD2    H713013   2.119   2.043  15.932  0.4881  0.9234 -1.1875
  888MPD2     C13014   4.303   2.127  14.723 -0.0664  0.1525 -0.0365
  888MPD2    C113015   4.300   2.163  14.854 -0.0954 -0.1470  0.1382
  888MPD2    C213016   4.338   2.289  14.889  0.1264 -0.1414 -0.3210
  888MPD2    C313017   4.385   2.375  14.795  0.7487  0.5260  0.3292
  888MPD2    C413018   4.383   2.339  14.660  0.1116 -0.1447  0.1403
  888MPD2    C513019   4.343   2.215  14.625 -0.8077 -0.0811 -0.4588
  888MPD2     H13020   4.340   2.317  14.994  0.3629  1.4867 -0.7514
  888MPD2    H113021   4.418   2.410  14.586 -1.8189  0.4600 -0.1846
  888MPD2    H213022   4.294   2.026  14.684 -0.0127 -0.0644  0.5130
  888MPD2    H313023   4.350   2.189  14.520 -3.3814  0.8603 -0.8518
  888MPD2     N13024   4.421   2.509  14.837  0.2321 -0.9525  0.4582
  888MPD2    H513025   4.416   2.516  14.938  0.2989 -0.0481  0.3906
  888MPD2    N113026   4.257   2.076  14.960 -0.3268  0.0011 -0.2708
  888MPD2    H713027   4.255   2.111  15.056  0.5217  1.9446 -0.9731
  889MPD2     C13028   3.908   1.451  13.384 -0.0092  0.0022 -0.4798
  889MPD2    C113029   3.829   1.430  13.494 -0.6440 -0.3956 -0.3358
  889MPD2    C213030   3.772   1.545  13.539 -0.2301 -0.8391  0.6500
  889MPD2    C313031   3.748   1.658  13.461  0.4882 -0.2607  0.0302
  889MPD2    C413032   3.809   1.667  13.341 -0.3306 -0.3372  0.7919
  889MPD2    C513033   3.896   1.567  13.313  0.7015  0.0940 -0.3049
  889MPD2     H13034   3.726   1.544  13.637 -1.0076 -0.6747  0.2864
  889MPD2    H113035   3.805   1.751  13.274  1.2330  1.4258  2.9298
  889MPD2    H213036   3.969   1.372  13.340 -0.8710 -1.2102  0.5257
  889MPD2    H313037   3.954   1.573  13.222 -0.6696 -1.1391 -1.2720
  889MPD2     N13038   3.665   1.757  13.513 -0.0615  0.3417 -0.4866
  889MPD2    H513039   3.631   1.761  13.608  0.8053 -1.1861 -0.1158
  889MPD2    N113040   3.848   1.327  13.584 -0.1414  0.1126  0.1223
  889MPD2    H713041   3.777   1.324  13.657 -1.9858 -3.6935 -1.7829
  890MPD2     C13042   3.443   3.012  14.811 -0.5574 -0.1454 -0.2714
  890MPD2    C113043   3.468   3.093  14.920  0.3049  0.1885 -0.2800
  890MPD2    C213044   3.458   3.040  15.050 -0.2777  0.6573  0.2703
  890MPD2    C313045   3.416   2.911  15.069  0.1703 -0.0559  0.3521
  890MPD2    C413046   3.373   2.837  14.955 -0.9375  0.4427 -0.6087
  890MPD2    C513047   3.392   2.894  14.832 -0.5972 -0.1252  0.1455
  890MPD2     H13048   3.487   3.090  15.142  1.5681 -1.0217  0.5860
  890MPD2    H113049   3.310   2.749  14.964  1.4274 -1.4024 -1.8277
  890MPD2    H213050   3.464   3.045  14.709  0.9367 -0.9391 -0.2197
  890MPD2    H313051   3.359   2.837  14.746 -1.6851 -1.5470  1.5084
  890MPD2     N13052   3.397   2.864  15.201 -0.0567 -0.2273  0.1085
  890MPD2    H513053   3.424   2.930  15.274  0.7051 -0.4054 -0.0155
  890MPD2    N113054   3.511   3.226  14.895  0.3459 -0.1191 -0.0101
  890MPD2    H713055   3.498   3.253  14.799  2.4706 -1.6044 -0.7187
  891MPD2     C13056   0.938   1.476  16.874 -0.4165  0.3158  0.2749
  891MPD2    C113057   0.854   1.520  16.970 -0.4612  0.4677 -0.1607
  891MPD2    C213058   0.887   1.488  17.112  0.3095 -0.8978 -0.4418
  891MPD2    C313059   0.996   1.412  17.139 -0.0714 -0.3434 -0.3379
  891MPD2    C413060   1.078   1.365  17.041 -0.1990 -0.9117 -0.1677
  891MPD2    C513061   1.044   1.399  16.912 -0.0342 -0.0859  0.4354
  891MPD2     H13062   0.827   1.519  17.196 -1.9730 -0.8200 -2.1053
  891MPD2    H113063   1.158   1.296  17.063  0.4782 -0.0629  0.0618
  891MPD2    H213064   0.937   1.513  16.772  0.0392 -2.0350 -0.5807
  891MPD2    H313065   1.095   1.355  16.828 -1.2457  0.3554 -0.5357
  891MPD2     N13066   1.029   1.401  17.281 -0.2487 -0.6593  0.0489
  891MPD2    H513067   0.957   1.440  17.341  0.1207  1.4111 -0.8572
  891MPD2    N113068   0.736   1.578  16.922  0.4550 -0.2232 -0.4401
  891MPD2    H713069   0.716   1.570  16.823 -1.1753 -0.4240 -0.0895
  892MPD2     C13070   2.259   2.643  15.099  0.2965  0.2450 -0.2167
  892MPD2    C113071   2.162   2.711  15.033 -0.2918  0.5737  0.4048
  892MPD2    C213072   2.152   2.695  14.898  0.8771 -0.4472 -0.1513
  892MPD2    C313073   2.243   2.601  14.830  0.3573  0.6129  1.0056
  892MPD2    C413074   2.344   2.548  14.903  0.4750  0.5596 -0.1249
  892MPD2    C513075   2.347   2.556  15.036 -0.5825 -0.3714  0.3923
  892MPD2     H13076   2.080   2.747  14.836  2.0710 -0.3701 -1.4895
  892MPD2    H113077   2.427   2.495  14.858 -0.2770 -0.4725 -0.3205
  892MPD2    H213078   2.276   2.658  15.205  3.1578  0.7954 -0.7543
  892MPD2    H313079   2.422   2.493  15.084 -0.7236  1.0443  2.4589
  892MPD2     N13080   2.252   2.587  14.690  0.0286 -0.0773 -0.4495
  892MPD2    H513081   2.333   2.539  14.654 -0.1160 -0.4447 -0.2845
  892MPD2    N113082   2.072   2.800  15.089  0.2559  0.2807 -0.3196
  892MPD2    H713083   2.002   2.855  15.040  0.3392  0.9986  0.3783
  893MPD2     C13084   0.400   0.300   2.208 -0.4181 -0.1140  0.3352
  893MPD2    C113085   0.436   0.359   2.094 -0.0862  0.1974 -0.3194
  893MPD2    C213086   0.509   0.280   2.002 -0.3226  0.3673  0.1877
  893MPD2    C313087   0.548   0.152   2.027 -0.3733  0.2692 -0.6259
  893MPD2    C413088   0.510   0.095   2.145 -0.5910  0.0964  0.1344
  893MPD2    C513089   0.435   0.167   2.231 -0.4917 -0.0812 -1.1879
  893MPD2     H13090   0.533   0.332   1.910 -1.7043 -1.1823 -1.0372
  893MPD2    H113091   0.549   4.726   2.175  0.0031 -0.5085 -2.6213
  893MPD2    H213092   0.346   0.357   2.283 -0.7000 -2.3690  1.8573
  893MPD2    H313093   0.405   0.122   2.325  0.7866 -0.1117 -0.8073
  893MPD2     N13094   0.620   0.071   1.936  0.0670  0.0279  0.3107
  893MPD2    H513095   0.655   4.706   1.956  0.2864  0.4166  1.7837
  893MPD2    N113096   0.389   0.493   2.073  0.2159 -0.4206  0.2949
  893MPD2    H713097   0.341   0.543   2.147  1.9176  2.5066 -0.5982
  894MPD2     C13098   1.917   4.124   0.799 -0.5099 -0.1267 -0.2237
  894MPD2    C113099   2.019   4.119   0.892 -0.8578 -0.0297 -0.4915
  894MPD2    C213100   2.094   4.229   0.925 -0.5043 -0.2668 -0.0118
  894MPD2    C313101   2.068   4.352   0.868 -0.0832  0.1818  0.4929
  894MPD2    C413102   1.981   4.357   0.761 -0.6270  0.0348  0.0266
  894MPD2    C513103   1.906   4.243   0.731 -0.1628  0.4245 -0.2971
  894MPD2     H13104   2.165   4.223   1.007 -1.0648 -1.1285  0.4191
  894MPD2    H113105   1.957   4.438   0.694  2.7380  0.7277 -0.2970
  894MPD2    H213106   1.861   4.037   0.768 -0.6761  0.8074 -2.5648
  894MPD2    H313107   1.832   4.240   0.652  0.7008 -2.1098 -0.9907
  894MPD2     N13108   2.130   4.463   0.925  0.5781  0.5876 -0.4500
  894MPD2    H513109   2.174   4.455   1.016  1.0932  1.1483 -0.6451
  894MPD2    N113110   2.040   4.003   0.974 -0.1693 -0.3511 -0.7965
  894MPD2    H713111   2.111   4.000   1.047 -2.3675  0.5932  1.4001
  895MPD2     C13112   1.547   1.812  13.798 -0.8344  0.6551  0.2315
  895MPD2    C113113   1.476   1.753  13.700 -0.1214 -0.8494  0.2805
  895MPD2    C213114   1.539   1.647  13.630  0.0271  0.2534 -0.3208
  895MPD2    C313115   1.671   1.615  13.647 -0.0552 -0.7881  0.2315
  895MPD2    C413116   1.741   1.681  13.748  0.3292  0.1830 -0.3827
  895MPD2    C513117   1.674   1.769  13.829  0.9833 -0.7495  0.3128
  895MPD2     H13118   1.489   1.602  13.545 -0.8245 -0.2454  0.4435
  895MPD2    H113119   1.838   1.649  13.785 -0.7317 -1.4953  0.9528
  895MPD2    H213120   1.515   1.895  13.861  0.9479  0.8061  0.9261
  895MPD2    H313121   1.723   1.814  13.914  0.6732  0.7688 -0.3217
  895MPD2     N13122   1.734   1.527  13.560 -0.6239 -0.7028 -0.4081
  895MPD2    H513123   1.675   1.501  13.481  0.6308  1.0099 -1.9213
  895MPD2    N113124   1.358   1.805  13.641  0.8573  0.7522 -0.1559
  895MPD2    H713125   1.324   1.758  13.557 -0.8779  1.3488  0.2055
  896MPD2     C13126   3.531   4.267   1.879 -0.4343  0.3445 -0.1212
  896MPD2    C113127   3.565   4.283   1.745 -0.3006 -0.2472 -0.4665
  896MPD2    C213128   3.465   4.273   1.651 -0.6141  0.5347  1.0514
  896MPD2    C313129   3.332   4.280   1.686 -0.6745  0.1175  0.1044
  896MPD2    C413130   3.304   4.277   1.828  0.1181  0.0832  0.2955
  896MPD2    C513131   3.402   4.257   1.918 -0.5372 -0.6462 -0.4119
  896MPD2     H13132   3.497   4.275   1.547 -0.5145 -0.6286  1.0536
  896MPD2    H113133   3.204   4.287   1.868 -1.2083  2.0843 -3.5180
  896MPD2    H213134   3.609   4.247   1.952 -1.1552 -2.5250 -0.1388
  896MPD2    H313135   3.372   4.254   2.022  1.4434 -0.1056  0.1745
  896MPD2     N13136   3.239   4.296   1.584  0.6337 -0.4354 -0.5153
  896MPD2    H513137   3.265   4.267   1.490  1.0768 -0.0285 -0.5158
  896MPD2    N113138   3.699   4.313   1.714  0.2976 -0.6401 -0.3830
  896MPD2    H713139   3.755   4.344   1.793  1.3017 -2.1616 -0.4884
  897MPD2     C13140   0.331   0.838  10.451 -0.5843  0.2494 -0.4942
  897MPD2    C113141   0.267   0.942  10.393  0.4115 -1.3089  0.2732
  897MPD2    C213142   0.136   0.960  10.420 -0.3565  0.1362 -0.5348
  897MPD2    C313143   0.070   0.883  10.512  0.1595  0.4993 -0.1999
  897MPD2    C413144   0.146   0.788  10.586 -0.0616  0.1740  0.6456
  897MPD2    C513145   0.271   0.762  10.546  0.0107  0.2399 -1.1854
  897MPD2     H13146   0.086   1.046  10.378  0.5320 -0.3397 -2.5725
  897MPD2    H113147   0.103   0.744  10.675 -0.2457  0.8206  0.8796
  897MPD2    H213148   0.434   0.816  10.425 -0.5863  0.8753 -1.0542
  897MPD2    H313149   0.320   0.683  10.602  1.3562  0.6160 -1.8374
  897MPD2     N13150   4.670   0.917  10.561 -0.9482 -0.6585  0.9216
  897MPD2    H513151   4.640   0.869  10.645 -0.6402 -0.0246  1.3930
  897MPD2    N113152   0.337   1.044  10.329  0.5724  0.2046 -0.7945
  897MPD2    H713153   0.284   1.126  10.303 -0.2499 -0.1560 -0.2581
  898MPD2     C13154   1.757   2.151  17.671 -0.3180  0.5050 -0.4992
  898MPD2    C113155   1.862   2.243  17.665 -0.5704 -0.6542 -0.2590
  898MPD2    C213156   1.833   2.378  17.650  0.4188 -0.2458  0.6510
  898MPD2    C313157   1.711   2.422  17.619  0.1171 -0.4501  0.6790
  898MPD2    C413158   1.604   2.334  17.627  0.7926  0.4159 -0.6199
  898MPD2    C513159   1.630   2.205  17.648  1.0149  0.2210  0.2625
  898MPD2     H13160   1.913   2.448  17.629 -1.6849  1.3845 -1.8377
  898MPD2    H113161   1.505   2.364  17.594  1.1854  0.1650 -2.0532
  898MPD2    H213162   1.772   2.044  17.679 -0.7190  0.3894 -1.2982
  898MPD2    H313163   1.554   2.129  17.643 -0.2522  1.6243 -2.0861
  898MPD2     N13164   1.702   2.551  17.561 -0.9715 -0.3573  0.1878
  898MPD2    H513165   1.794   2.593  17.553 -0.1432 -2.1404  0.2416
  898MPD2    N113166   1.997   2.213  17.679  0.2139 -0.5015 -0.9320
  898MPD2    H713167   2.061   2.289  17.701  1.0573 -0.5972 -2.9791
  899MPD2     C13168   3.017   3.125   0.034 -0.2790 -0.7404  0.0958
  899MPD2    C113169   2.897   3.186  17.708 -0.5505 -0.1252  0.8095
  899MPD2    C213170   2.781   3.138   0.045 -1.0165 -0.3175  0.3495
  899MPD2    C313171   2.780   3.034   0.137 -1.0753 -0.8995 -0.5080
  899MPD2    C413172   2.896   2.974   0.171 -0.5025 -0.9737 -0.6136
  899MPD2    C513173   3.011   3.011   0.108  0.0809 -0.0821  0.8146
  899MPD2     H13174   2.685   3.180   0.019  0.1544  1.8341 -0.4219
  899MPD2    H113175   2.896   2.893   0.243 -1.0350 -0.6885 -0.2916
  899MPD2    H213176   3.112   3.148  17.700 -0.4714 -2.5742 -1.1552
  899MPD2    H313177   3.099   2.950   0.124 -0.2357 -1.0422 -1.0840
  899MPD2     N13178   2.664   2.993   0.202  0.4489 -0.5681  0.5689
  899MPD2    H513179   2.683   2.921   0.271 -0.0105 -1.4258 -0.2057
  899MPD2    N113180   2.894   3.279  17.604 -0.4993  0.6972  0.1628
  899MPD2    H713181   2.800   3.309  17.578 -0.7607 -1.7079 -1.6638
  900MPD2     C13182   2.365   4.082  12.752  0.0321 -0.4209  0.3804
  900MPD2    C113183   2.285   4.004  12.674  0.2779  0.6454  0.0478
  900MPD2    C213184   2.227   4.055  12.560  0.1301  0.2257  1.0173
  900MPD2    C313185   2.237   4.189  12.527  0.4202  0.4365  0.0577
  900MPD2    C413186   2.313   4.270  12.604 -0.3116 -0.1545  0.5181
  900MPD2    C513187   2.375   4.216  12.719  0.2825  0.2450 -0.5280
  900MPD2     H13188   2.168   3.990  12.498 -0.7381  0.2134  1.8659
  900MPD2    H113189   2.334   4.372  12.575 -2.1080  0.4013  1.1425
  900MPD2    H213190   2.415   4.052  12.844 -0.9602 -0.8258  0.7887
  900MPD2    H313191   2.446   4.270  12.780 -1.3057  2.4152 -0.5918
  900MPD2     N13192   2.171   4.239  12.407 -0.5770 -0.3006 -0.0542
  900MPD2    H513193   2.115   4.170  12.358 -0.9634 -0.6398  0.8887
  900MPD2    N113194   2.293   3.868  12.704 -0.4386  0.3444  0.1296
  900MPD2    H713195   2.362   3.832  12.769 -0.3738  0.7668  0.2985
  901MPD2     C13196   1.860   2.857  12.528 -0.6793 -0.7354  0.1920
  901MPD2    C113197   1.983   2.851  12.476 -0.1198  0.0780 -0.1007
  901MPD2    C213198   2.071   2.958  12.495 -0.2925  0.6740  0.6035
  901MPD2    C313199   2.027   3.079  12.543 -0.6301 -0.4437 -0.8598
  901MPD2    C413200   1.897   3.085  12.581 -0.3466  0.1676  0.2582
  901MPD2    C513201   1.819   2.980  12.577 -0.3256 -0.3297 -0.4420
  901MPD2     H13202   2.167   2.953  12.444 -0.5575  0.6031  0.1031
  901MPD2    H113203   1.854   3.182  12.599  0.4724  0.7725 -1.0823
  901MPD2    H213204   1.789   2.776  12.528  0.2696 -1.5594 -1.8987
  901MPD2    H313205   1.716   2.986  12.611  0.2553  0.1966  1.2010
  901MPD2     N13206   2.116   3.189  12.554 -0.7045  0.1270  0.5651
  901MPD2    H513207   2.214   3.173  12.533 -1.3435  0.3481 -2.6935
  901MPD2    N113208   2.029   2.728  12.418  0.6384 -0.0082  0.1503
  901MPD2    H713209   1.965   2.660  12.378  0.3876  0.2586  0.0953
  902MPD2     C13210   0.810   2.191  13.028 -0.5885  0.1999  0.1143
  902MPD2    C113211   0.915   2.257  13.081  0.9431 -0.1584  0.3302
  902MPD2    C213212   1.042   2.206  13.059 -0.5631  0.2193 -0.0755
  902MPD2    C313213   1.063   2.095  12.976  0.1579  0.1018 -0.0944
  902MPD2    C413214   0.957   2.011  12.938  0.2716  0.0258  0.3825
  902MPD2    C513215   0.830   2.063  12.975  0.4078  0.5199 -0.2233
  902MPD2     H13216   1.125   2.262  13.102 -0.7279  1.7993 -1.8498
  902MPD2    H113217   0.972   1.911  12.901 -0.7797  0.1593 -0.4104
  902MPD2    H213218   0.713   2.241  13.032 -0.7435 -0.1457  0.5938
  902MPD2    H313219   0.746   2.000  12.949  1.3638 -0.2975 -1.3201
  902MPD2     N13220   1.193   2.068  12.934  0.6568  0.3710 -0.3767
  902MPD2    H513221   1.209   1.978  12.889 -0.6083 -1.1975  2.3222
  902MPD2    N113222   0.892   2.377  13.147  0.0512  0.0758 -0.5273
  902MPD2    H713223   0.798   2.414  13.137  0.6571  2.3049  2.0533
  903MPD2     C13224   1.639   2.106  12.196 -0.1208 -0.6695 -0.6963
  903MPD2    C113225   1.536   2.113  12.286  0.6418 -0.7316  0.0691
  903MPD2    C213226   1.406   2.097  12.240  0.0346  0.2139 -0.1537
  903MPD2    C313227   1.376   2.094  12.106  0.0353  0.2123 -0.0445
  903MPD2    C413228   1.481   2.097  12.014  0.0910  0.2608 -0.1015
  903MPD2    C513229   1.609   2.095  12.060  0.1134 -0.7540  0.2453
  903MPD2     H13230   1.319   2.095  12.306  0.7842 -0.1713  0.8324
  903MPD2    H113231   1.468   2.076  11.909  0.9071  0.7941 -0.3080
  903MPD2    H213232   1.741   2.113  12.233 -0.8129  0.8516  0.9494
  903MPD2    H313233   1.694   2.077  11.994  0.2818 -0.1539  0.3004
  903MPD2     N13234   1.241   2.076  12.065 -0.0734  0.0364 -0.1053
  903MPD2    H513235   1.177   2.055  12.141  0.5186 -0.3922  0.2811
  903MPD2    N113236   1.570   2.108  12.422  0.6908  0.2335 -0.0002
  903MPD2    H713237   1.668   2.091  12.441 -0.1558 -2.0052  2.3870
  904MPD2     C13238   1.588   1.007  13.675 -0.4018 -0.5392  0.1793
  904MPD2    C113239   1.537   1.130  13.707 -0.1086 -0.6094 -0.1758
  904MPD2    C213240   1.615   1.221  13.777 -0.3728  0.0831  0.4032
  904MPD2    C313241   1.747   1.191  13.815 -1.4471  0.3652 -0.1827
  904MPD2    C413242   1.792   1.067  13.782  0.5441  0.4981  0.0116
  904MPD2    C513243   1.719   0.985  13.708 -0.0757 -0.4022 -0.1772
  904MPD2     H13244   1.575   1.320  13.794 -1.0537  0.0214 -0.8458
  904MPD2    H113245   1.882   1.023  13.823  1.0625  1.6661  0.1358
  904MPD2    H213246   1.540   0.927  13.619  1.7972 -0.4873 -1.7882
  904MPD2    H313247   1.759   0.888  13.680  1.5242  0.5994 -1.3869
  904MPD2     N13248   1.826   1.292  13.888 -0.0483  0.4129 -0.1852
  904MPD2    H513249   1.780   1.379  13.912 -0.5924  0.0188  0.2163
  904MPD2    N113250   1.407   1.168  13.670  0.3214 -0.5654 -0.2172
  904MPD2    H713251   1.377   1.262  13.694 -1.4932 -1.4481  0.9747
  905MPD2     C13252   1.327   1.094  12.974  0.1501  0.5932  0.1287
  905MPD2    C113253   1.335   1.197  13.066  0.0425  0.3188 -0.0278
  905MPD2    C213254   1.446   1.283  13.070  0.2790 -0.1813  0.2266
  905MPD2    C313255   1.555   1.251  13.005 -0.1782  0.0546 -1.0342
  905MPD2    C413256   1.552   1.142  12.921  0.0718  0.6819  0.1669
  905MPD2    C513257   1.437   1.068  12.903 -0.2979  0.3619 -0.1124
  905MPD2     H13258   1.445   1.368  13.137 -1.3044  0.7704 -0.9974
  905MPD2    H113259   1.644   1.111  12.872  0.8157  1.3019  1.1819
  905MPD2    H213260   1.239   1.031  12.966  1.3072 -0.9418 -0.7248
  905MPD2    H313261   1.437   0.989  12.829 -1.0179 -1.2098  1.5537
  905MPD2     N13262   1.677   1.308  13.046  0.2580  0.4795 -0.2142
  905MPD2    H513263   1.758   1.273  12.995 -0.6014 -2.1258  0.2312
  905MPD2    N113264   1.225   1.209  13.145 -0.0443  0.8334  0.3450
  905MPD2    H713265   1.152   1.139  13.136 -1.5520  2.3427  0.6852
  906MPD2     C13266   3.438   1.388  11.168 -0.3415  0.6591  0.2133
  906MPD2    C113267   3.337   1.317  11.106  0.0587  0.7779 -0.0844
  906MPD2    C213268   3.235   1.265  11.184 -0.4375 -0.1927  0.5497
  906MPD2    C313269   3.224   1.277  11.316  0.3965  0.5616  0.0709
  906MPD2    C413270   3.324   1.344  11.377 -0.5198  0.3908  0.5361
  906MPD2    C513271   3.424   1.403  11.306 -0.6677  0.4182  0.2676
  906MPD2     H13272   3.158   1.216  11.126  2.1581  1.0392 -3.9707
  906MPD2    H113273   3.324   1.352  11.485  1.9029 -0.6340  0.6073
  906MPD2    H213274   3.530   1.431  11.130  0.8083 -0.6043  1.5769
  906MPD2    H313275   3.497   1.466  11.355 -2.7841  0.4295  3.3924
  906MPD2     N13276   3.117   1.235  11.395 -0.1541  0.0801  0.4063
  906MPD2    H513277   3.109   1.269  11.490  1.2605  1.2159  0.1194
  906MPD2    N113278   3.339   1.294  10.970  0.2541 -0.6595 -0.4468
  906MPD2    H713279   3.266   1.234  10.932  1.7927 -3.0774  0.3828
  907MPD2     C13280   1.793   0.668  15.214  0.4577 -0.4515 -0.6791
  907MPD2    C113281   1.918   0.618  15.244  0.1002  0.9541 -0.6488
  907MPD2    C213282   2.001   0.669  15.339  0.1013 -0.3084 -0.1617
  907MPD2    C313283   1.957   0.781  15.405 -0.2339 -0.1198  0.3887
  907MPD2    C413284   1.830   0.828  15.387 -1.1292 -0.3853 -1.0156
  907MPD2    C513285   1.752   0.768  15.296 -0.5010  0.3825  0.6943
  907MPD2     H13286   2.105   0.639  15.353 -0.4045 -2.4557 -0.9709
  907MPD2    H113287   1.790   0.917  15.435  0.3211 -0.3704  0.1603
  907MPD2    H213288   1.725   0.635  15.136  0.9254 -0.7046 -0.9741
  907MPD2    H313289   1.655   0.811  15.273 -1.5442 -2.8790 -1.0030
  907MPD2     N13290   2.050   0.833  15.497 -0.0102 -0.5045  1.0064
  907MPD2    H513291   2.148   0.809  15.490 -0.2827 -1.9169  2.1109
  907MPD2    N113292   1.986   0.524  15.157  0.0559 -0.2078 -0.0916
  907MPD2    H713293   2.077   0.494  15.189  0.0901 -1.6556 -1.5246
  908MPD2     C13294   0.637   1.059   9.413 -0.0601  0.2799  0.1783
  908MPD2    C113295   0.549   0.993   9.494  0.1983 -0.1433  0.1439
  908MPD2    C213296   0.529   1.023   9.626  0.0587  0.3926 -0.3577
  908MPD2    C313297   0.603   1.130   9.680 -0.5670 -0.0370 -0.0010
  908MPD2    C413298   0.698   1.191   9.601  0.7963 -0.6164  0.1974
  908MPD2    C513299   0.715   1.156   9.474 -0.6266 -0.1561 -0.1451
  908MPD2     H13300   0.447   0.969   9.670  0.0827  0.5756 -0.0874
  908MPD2    H113301   0.755   1.277   9.634 -0.3375  0.8748 -1.7123
  908MPD2    H213302   0.649   1.042   9.307 -1.3553 -0.1170  0.0921
  908MPD2    H313303   0.789   1.205   9.412 -0.8313 -0.0146 -0.2773
  908MPD2     N13304   0.570   1.167   9.817  0.1766  0.6214 -0.1392
  908MPD2    H513305   0.500   1.109   9.864  0.8665 -0.6961 -0.7501
  908MPD2    N113306   0.470   0.888   9.440  0.4502 -0.3895 -0.5124
  908MPD2    H713307   0.396   0.848   9.497  0.1089 -1.0035 -1.3793
  909MPD2     C13308   0.303   3.769  11.992  0.1726 -0.4145  0.0599
  909MPD2    C113309   0.327   3.873  11.907 -0.9111  0.2591  0.5918
  909MPD2    C213310   0.298   3.993  11.962 -0.1317 -0.1805  0.3349
  909MPD2    C313311   0.241   4.012  12.088 -0.1711 -0.2973  0.5594
  909MPD2    C413312   0.199   3.900  12.159  0.6841  0.3488  0.1083
  909MPD2    C513313   0.253   3.782  12.119  0.1171  0.1338 -0.6276
  909MPD2     H13314   0.313   4.087  11.909  0.5331  2.1031  4.5531
  909MPD2    H113315   0.151   3.879  12.254  0.6419 -1.5873 -0.3367
  909MPD2    H213316   0.344   3.671  11.976 -0.2310 -0.0170 -3.3712
  909MPD2    H313317   0.241   3.692  12.177 -3.0346  0.1661 -1.2073
  909MPD2     N13318   0.203   4.139  12.110 -0.4301 -0.4617  0.3263
  909MPD2    H513319   0.223   4.209  12.038  2.7794 -2.7296 -0.9606
  909MPD2    N113320   0.395   3.862  11.784  0.5014  0.2997  0.6638
  909MPD2    H713321   0.418   3.944  11.729  0.4710 -0.9191 -1.1752
  910MPD2     C13322   1.437   1.306  16.077 -0.1755 -0.1426  0.3172
  910MPD2    C113323   1.500   1.252  15.966 -0.2940  0.0260  0.1473
  910MPD2    C213324   1.434   1.248  15.845 -0.2688 -0.5261  1.1267
  910MPD2    C313325   1.327   1.335  15.815 -0.0286 -0.5295  0.9764
  910MPD2    C413326   1.288   1.417  15.919  0.0767  0.0944 -0.6183
  910MPD2    C513327   1.338   1.393  16.051 -0.1179  0.8694  0.2318
  910MPD2     H13328   1.482   1.181  15.774  1.2827 -0.0158  1.6892
  910MPD2    H113329   1.208   1.490  15.910 -0.5624 -0.7253 -1.6254
  910MPD2    H213330   1.458   1.293  16.182 -1.1285 -0.1165  0.5102
  910MPD2    H313331   1.288   1.447  16.131  1.6304 -0.0744  1.9641
  910MPD2     N13332   1.264   1.353  15.689 -0.4415  0.4744  0.6855
  910MPD2    H513333   1.209   1.438  15.690 -1.7628 -0.3837  0.8810
  910MPD2    N113334   1.610   1.164  15.983  0.5832 -0.0167 -0.3555
  910MPD2    H713335   1.637   1.101  15.908 -2.3809  0.5067 -1.8673
  911MPD2     C13336   4.030   1.371  16.266 -0.1817  0.5334  0.3154
  911MPD2    C113337   4.082   1.496  16.237 -0.2482 -0.3413  0.6566
  911MPD2    C213338   3.999   1.597  16.193 -0.2822  0.3448  0.4892
  911MPD2    C313339   3.867   1.567  16.166 -0.1256  0.0382 -0.1670
  911MPD2    C413340   3.821   1.443  16.188  0.5116  0.7411  0.1453
  911MPD2    C513341   3.900   1.355  16.251 -0.7426 -0.2391 -0.3610
  911MPD2     H13342   4.037   1.696  16.168  0.0562 -0.1823 -1.0499
  911MPD2    H113343   3.717   1.413  16.183  0.8064 -0.1369 -0.6688
  911MPD2    H213344   4.091   1.294  16.312 -1.1914 -0.1721  0.4801
  911MPD2    H313345   3.862   1.256  16.272  2.0929 -1.1054  0.7488
  911MPD2     N13346   3.772   1.661  16.108  0.3183 -0.0902 -0.5079
  911MPD2    H513347   3.697   1.621  16.052 -0.0343 -1.1755  0.7192
  911MPD2    N113348   4.218   1.510  16.265 -0.0558  0.1127 -0.0977
  911MPD2    H713349   4.267   1.424  16.290  0.6277  0.0250 -1.7344
  912MPD2     C13350   3.693   1.273  15.814  0.0585  0.7210 -0.2719
  912MPD2    C113351   3.590   1.331  15.874  0.8129 -0.6761 -0.1315
  912MPD2    C213352   3.506   1.261  15.964 -0.1112 -0.4175  0.5274
  912MPD2    C313353   3.531   1.127  15.984 -0.3961  0.3830 -0.3767
  912MPD2    C413354   3.632   1.060  15.918  0.3555  0.1044  0.7083
  912MPD2    C513355   3.717   1.140  15.838  0.0284 -0.2968  0.0868
  912MPD2     H13356   3.414   1.304  16.001  0.2602  1.1857 -0.4188
  912MPD2    H113357   3.654   0.954  15.921  2.2951  0.4934  0.5482
  912MPD2    H213358   3.767   1.335  15.765  0.3820 -0.4431 -1.2445
  912MPD2    H313359   3.806   1.093  15.797 -0.5596 -1.1899 -0.1714
  912MPD2     N13360   3.440   1.058  16.061  0.2181 -1.2771  0.5578
  912MPD2    H513361   3.383   1.110  16.127  0.1364 -0.1840 -0.3681
  912MPD2    N113362   3.578   1.470  15.868  0.5976 -0.5453 -0.5199
  912MPD2    H713363   3.628   1.516  15.793 -0.1196  1.7238  0.3921
  913MPD2     C13364   4.150   2.345  10.524 -0.1048 -0.2753 -0.3120
  913MPD2    C113365   4.282   2.330  10.558  0.2405 -0.0965 -0.5553
  913MPD2    C213366   4.368   2.346  10.456  0.3779 -0.0192  1.2007
  913MPD2    C313367   4.331   2.377  10.329  0.1403  0.3090 -0.1296
  913MPD2    C413368   4.195   2.395  10.299 -0.2901 -1.1017 -0.5686
  913MPD2    C513369   4.108   2.395  10.402 -0.2309  1.0725 -0.0812
  913MPD2     H13370   4.472   2.327  10.478  0.5799  0.8623  1.0095
  913MPD2    H113371   4.160   2.422  10.201  0.9557 -0.9534 -0.9767
  913MPD2    H213372   4.068   2.332  10.594 -0.5342  2.1659 -0.3685
  913MPD2    H313373   4.008   2.436  10.394 -0.5645  0.4577  0.9544
  913MPD2     N13374   4.424   2.393  10.219 -0.0832  0.3608 -0.2762
  913MPD2    H513375   4.384   2.410  10.127 -0.3082  0.1404 -0.2167
  913MPD2    N113376   4.314   2.291  10.690  0.3685 -0.0003 -0.2685
  913MPD2    H713377   4.235   2.292  10.754 -0.7924  1.3823 -1.6919
  914MPD2     C13378   2.119   3.203  11.849  0.0913 -0.5238  0.4270
  914MPD2    C113379   2.151   3.183  11.984  0.0539  0.4492  0.5358
  914MPD2    C213380   2.161   3.047  12.026  0.4516  0.4291 -0.2873
  914MPD2    C313381   2.120   2.940  11.953 -0.3928  0.0079 -0.0153
  914MPD2    C413382   2.083   2.965  11.822  0.2382  0.0658  0.4147
  914MPD2    C513383   2.085   3.093  11.772 -0.0753 -0.2295  0.4980
  914MPD2     H13384   2.188   3.024  12.128  0.5634 -0.4404 -0.5193
  914MPD2    H113385   2.065   2.885  11.751  2.4285  1.2057 -1.4434
  914MPD2    H213386   2.115   3.299  11.799  2.3240 -0.3729  0.5689
  914MPD2    H313387   2.069   3.105  11.666  1.8317 -0.5940  0.1557
  914MPD2     N13388   2.115   2.818  12.022 -0.7030 -0.3853 -0.1647
  914MPD2    H513389   2.160   2.821  12.113  0.1349 -1.2308 -0.5502
  914MPD2    N113390   2.178   3.300  12.065 -0.4003  0.5941 -0.2114
  914MPD2    H713391   2.181   3.391  12.021  0.5862  0.4290 -0.4727
  915MPD2     C13392   0.820   3.227  15.878  0.5144 -0.6060 -0.4728
  915MPD2    C113393   0.706   3.298  15.826 -0.0705  0.4860 -0.5208
  915MPD2    C213394   0.616   3.338  15.920  0.1989  0.4572 -0.0335
  915MPD2    C313395   0.626   3.310  16.055 -0.5204 -0.1088 -0.7606
  915MPD2    C413396   0.739   3.245  16.103 -0.4730 -0.1321  0.6046
  915MPD2    C513397   0.830   3.202  16.014 -0.2311 -0.0897 -0.7516
  915MPD2     H13398   0.526   3.391  15.891  1.3072  1.5201 -1.5448
  915MPD2    H113399   0.765   3.229  16.206 -0.0770  3.5215  1.0801
  915MPD2    H213400   0.897   3.183  15.815 -2.0492 -2.3335 -2.3654
  915MPD2    H313401   0.920   3.161  16.059  1.3734  3.6975 -0.4837
  915MPD2     N13402   0.527   3.360  16.144  0.5924 -0.2841  0.1377
  915MPD2    H513403   0.450   3.407  16.097  0.4956 -0.4020  0.1776
  915MPD2    N113404   0.700   3.313  15.687  0.0343 -0.3665  0.0534
  915MPD2    H713405   0.756   3.249  15.632  0.7103  1.1227 -0.9942
  916MPD2     C13406   2.934   1.716  16.107 -0.7955 -0.2432 -0.1460
  916MPD2    C113407   2.924   1.602  16.183 -0.1428 -0.3127 -0.1127
  916MPD2    C213408   2.989   1.492  16.130 -0.3370 -0.7170  0.0957
  916MPD2    C313409   3.049   1.487  16.007  0.0797 -0.1835  1.3411
  916MPD2    C413410   3.041   1.600  15.928 -0.2697  0.4806  0.1190
  916MPD2    C513411   2.988   1.717  15.981 -0.3327 -0.1031  0.5114
  916MPD2     H13412   3.003   1.401  16.187 -0.4235  0.9669  2.8164
  916MPD2    H113413   3.089   1.606  15.830 -0.3239  1.2003  0.1357
  916MPD2    H213414   2.905   1.815  16.140  1.1811  0.4861 -0.6111
  916MPD2    H313415   2.995   1.809  15.923 -1.4180 -1.8095 -2.3263
  916MPD2     N13416   3.115   1.371  15.964 -0.4501 -0.1378 -0.8220
  916MPD2    H513417   3.117   1.292  16.028  0.4020  0.3731 -0.2328
  916MPD2    N113418   2.842   1.607  16.294  0.1662 -0.0653 -0.2094
  916MPD2    H713419   2.809   1.697  16.327 -1.4290 -0.8142  0.2256
  917MPD2     C13420   4.226   3.920  11.817 -0.0274 -0.5408 -0.2628
  917MPD2    C113421   4.151   3.848  11.733  0.6536  0.4521 -0.3095
  917MPD2    C213422   4.115   3.898  11.612 -0.0763  0.5457 -0.4375
  917MPD2    C313423   4.153   4.026  11.574  0.2275 -0.1646  0.2754
  917MPD2    C413424   4.234   4.096  11.660  0.0353  0.1532  0.9757
  917MPD2    C513425   4.273   4.041  11.781  0.1310  0.0945 -0.1103
  917MPD2     H13426   4.047   3.843  11.548 -0.2569  1.4763 -1.0459
  917MPD2    H113427   4.283   4.190  11.639  0.1506 -0.4173 -1.3088
  917MPD2    H213428   4.267   3.885  11.910  1.1357  0.0753 -0.5406
  917MPD2    H313429   4.338   4.088  11.854  1.6957 -3.2561  0.6374
  917MPD2     N13430   4.120   4.089  11.459 -0.3704  0.7551  0.1442
  917MPD2    H513431   4.164   4.178  11.442 -0.4169  0.8159  0.3442
  917MPD2    N113432   4.114   3.722  11.782 -0.6689 -0.0970 -0.2678
  917MPD2    H713433   4.140   3.702  11.878  1.6447  0.1941 -0.8294
  918MPD2     C13434   3.661   3.991  12.370 -0.8168  0.0714  0.0864
  918MPD2    C113435   3.796   3.978  12.339  0.3378  0.2354  0.2510
  918MPD2    C213436   3.840   3.869  12.263  0.9990  0.6261 -0.5954
  918MPD2    C313437   3.744   3.774  12.221  0.8622  0.0738  0.3310
  918MPD2    C413438   3.608   3.793  12.245  0.0252  0.6348 -0.7612
  918MPD2    C513439   3.570   3.898  12.327 -0.3714 -0.0249 -0.2129
  918MPD2     H13440   3.947   3.856  12.257  0.4498 -2.8548 -2.5551
  918MPD2    H113441   3.528   3.746  12.189 -0.6439  0.8630  0.0038
  918MPD2    H213442   3.623   4.072  12.432 -0.4017  0.6651 -0.4311
  918MPD2    H313443   3.470   3.916  12.363  1.1892  1.7115  3.2818
  918MPD2     N13444   3.798   3.676  12.136  0.0862 -0.0690  0.2570
  918MPD2    H513445   3.894   3.690  12.104  1.0243 -1.5151  2.4375
  918MPD2    N113446   3.896   4.067  12.375  0.2268 -0.4187  0.4378
  918MPD2    H713447   3.979   4.050  12.319 -0.1544  1.7562 -0.8057
  919MPD2     C13448   4.590   2.659  11.746 -0.1393  0.7118 -0.8080
  919MPD2    C113449   4.484   2.571  11.733  0.3551 -0.3916 -0.5052
  919MPD2    C213450   4.403   2.581  11.630 -0.5170  0.0220 -0.2425
  919MPD2    C313451   4.422   2.665  11.521 -0.1317 -0.6911  0.1148
  919MPD2    C413452   4.523   2.754  11.532  0.3673 -0.0815 -0.4695
  919MPD2    C513453   4.606   2.752  11.647  0.3392 -0.7467 -0.0877
  919MPD2     H13454   4.327   2.504  11.624 -1.0234  0.5083 -0.1043
  919MPD2    H113455   4.548   2.830  11.459 -0.8902 -0.1707 -0.9884
  919MPD2    H213456   4.666   2.662  11.823 -0.4398 -0.2141 -0.4783
  919MPD2    H313457   4.675   2.835  11.658 -0.3653 -0.4985  2.4437
  919MPD2     N13458   4.341   2.672  11.404 -0.4261  0.2881 -0.6428
  919MPD2    H513459   4.376   2.727  11.326  0.1082 -2.1202 -2.1182
  919MPD2    N113460   4.453   2.475  11.824  0.2837 -0.3697  0.1757
  919MPD2    H713461   4.374   2.411  11.813  0.7989 -1.1550  1.0396
  920MPD2     C13462   4.476   2.678  10.433  0.7009  0.0016  0.3513
  920MPD2    C113463   4.344   2.701  10.444 -0.9350  0.7684  0.0420
  920MPD2    C213464   4.280   2.678  10.565  0.0524 -0.2235  0.0420
  920MPD2    C313465   4.344   2.628  10.673 -0.1044  1.1137 -0.0269
  920MPD2    C413466   4.481   2.596  10.663  0.3712 -0.3196  0.0140
  920MPD2    C513467   4.537   2.618  10.538  0.6995  0.3257 -0.5606
  920MPD2     H13468   4.178   2.713  10.574  0.5462  1.1298  0.4002
  920MPD2    H113469   4.542   2.560  10.744  1.8150  0.3555 -0.7619
  920MPD2    H213470   4.527   2.694  10.339  1.6765  0.5361  0.9684
  920MPD2    H313471   4.642   2.592  10.531  0.5943  0.3051 -2.1356
  920MPD2     N13472   4.284   2.646  10.794  0.2905 -0.0531  0.6843
  920MPD2    H513473   4.188   2.680  10.790  0.7758  1.3081  0.9315
  920MPD2    N113474   4.274   2.753  10.335 -0.7894  0.1761  0.0489
  920MPD2    H713475   4.179   2.785  10.349 -0.3855  0.5306  2.0440
  921MPD2     C13476   0.003   2.138  16.866  0.6074 -0.2881  1.4519
  921MPD2    C113477   0.067   2.020  16.857 -0.0058 -0.2679 -0.7042
  921MPD2    C213478   0.013   1.918  16.782  0.1482  0.0861 -0.1854
  921MPD2    C313479   4.637   1.943  16.703 -0.0332  0.1440  0.1657
  921MPD2    C413480   4.577   2.064  16.706  0.2123  0.9805  0.6011
  921MPD2    C513481   4.630   2.171  16.780  0.6580  0.3340 -0.7859
  921MPD2     H13482   0.052   1.817  16.790 -0.4485 -0.0135  1.5610
  921MPD2    H113483   4.501   2.092  16.634 -0.2280  0.8529  1.0239
  921MPD2    H213484   0.035   2.219  16.930  0.5608 -0.8283  2.1645
  921MPD2    H313485   4.597   2.275  16.778  1.7701  0.7098  1.0611
  921MPD2     N13486   4.590   1.862  16.596 -0.2648  0.1917 -0.3047
  921MPD2    H513487   4.507   1.896  16.550  0.2651  0.8797 -0.7502
  921MPD2    N113488   0.182   1.998  16.936  0.0221 -0.2956 -0.1184
  921MPD2    H713489   0.243   2.079  16.941  0.0747 -0.3516  0.1350
  922MPD2     C13490   1.610   4.397  16.602  0.1608 -0.5791 -0.5865
  922MPD2    C113491   1.583   4.464  16.718 -0.0425  0.3660 -0.0765
  922MPD2    C213492   1.491   4.400  16.797 -0.9677  0.0363  0.4513
  922MPD2    C313493   1.436   4.276  16.782  0.5641 -0.3062 -0.6626
  922MPD2    C413494   1.469   4.212  16.668  0.1757 -0.1974 -0.1458
  922MPD2    C513495   1.545   4.275  16.576  0.5750 -0.2243 -0.5783
  922MPD2     H13496   1.463   4.460  16.883 -0.3685 -0.1684  0.7874
  922MPD2    H113497   1.432   4.111  16.656 -0.3213 -0.0860  0.4793
  922MPD2    H213498   1.674   4.432  16.522  0.4672  1.3238  0.5012
  922MPD2    H313499   1.560   4.221  16.483 -2.3085  1.8938 -2.2782
  922MPD2     N13500   1.359   4.223  16.884  0.0983  0.0438 -0.3179
  922MPD2    H513501   1.338   4.282  16.964 -0.3555  0.4110 -0.7065
  922MPD2    N113502   1.642   4.583  16.758 -0.0266  0.3390  0.1028
  922MPD2    H713503   1.591   4.618  16.839 -1.2908 -3.2263  0.8600
  923MPD2     C13504   2.413   0.644   9.050 -0.0949  1.0764 -0.6238
  923MPD2    C113505   2.392   0.750   9.128 -0.5531  0.8084  0.2606
  923MPD2    C213506   2.481   0.778   9.234  0.0713 -0.6132  0.2140
  923MPD2    C313507   2.594   0.695   9.259  0.7249  0.6287 -0.1105
  923MPD2    C413508   2.610   0.577   9.186  0.2537 -0.6412  0.0619
  923MPD2    C513509   2.514   0.552   9.087 -0.2218 -0.8931  0.6472
  923MPD2     H13510   2.477   0.873   9.287 -3.1750 -0.4317 -0.3534
  923MPD2    H113511   2.693   0.510   9.200  0.2389 -0.0830  2.7112
  923MPD2    H213512   2.351   0.636   8.962 -0.0965  1.6115 -0.6723
  923MPD2    H313513   2.521   0.466   9.021  2.9079  0.3406 -0.6254
  923MPD2     N13514   2.685   0.720   9.365 -0.5880  0.1830  0.0906
  923MPD2    H513515   2.751   0.643   9.375  0.4606  0.9398 -1.0826
  923MPD2    N113516   2.288   0.835   9.097  0.1112 -0.4025  0.3602
  923MPD2    H713517   2.243   0.811   9.009  0.7091  3.1669 -0.9144
  924MPD2     C13518   2.991   1.059  15.517  0.0591  0.5744  0.2633
  924MPD2    C113519   2.907   0.946  15.498  0.1035 -1.1966  0.2029
  924MPD2    C213520   2.769   0.970  15.495  0.2432  0.4359 -0.0687
  924MPD2    C313521   2.723   1.097  15.521  0.3141  0.1397 -0.0695
  924MPD2    C413522   2.802   1.204  15.534  0.7674 -0.2923  0.0456
  924MPD2    C513523   2.938   1.187  15.524 -0.0336  0.4942  0.1441
  924MPD2     H13524   2.706   0.884  15.474  2.4927 -1.4467  0.8310
  924MPD2    H113525   2.761   1.301  15.559  3.6569  0.9342  0.0106
  924MPD2    H213526   3.098   1.051  15.504 -0.2610 -0.3581 -1.7476
  924MPD2    H313527   3.011   1.266  15.515  1.0126 -0.3022  1.6600
  924MPD2     N13528   2.585   1.118  15.533  0.0780  0.0105  0.1465
  924MPD2    H513529   2.544   1.210  15.550  1.1710  0.3532  0.9347
  924MPD2    N113530   2.971   0.820  15.478 -0.2456  0.3491 -0.4449
  924MPD2    H713531   3.067   0.827  15.445 -0.3218  1.3094 -0.4784
  925MPD2     C13532   1.243   2.442  14.836  0.0263  0.3868  0.0615
  925MPD2    C113533   1.107   2.408  14.850 -0.2287 -0.0759 -0.0495
  925MPD2    C213534   1.054   2.366  14.970  0.2436 -0.1277 -0.5919
  925MPD2    C313535   1.134   2.368  15.088  0.0992  0.0619  0.0797
  925MPD2    C413536   1.267   2.405  15.061  0.7143  0.0605  0.2690
  925MPD2    C513537   1.322   2.440  14.941  0.5157 -0.5473 -0.5411
  925MPD2     H13538   0.951   2.337  14.984 -0.1291  0.9674 -1.0912
  925MPD2    H113539   1.341   2.397  15.140  0.6999  2.0486  0.4824
  925MPD2    H213540   1.282   2.462  14.737 -1.8893  0.2804 -0.7166
  925MPD2    H313541   1.430   2.454  14.942  0.2342  1.4479  1.9633
  925MPD2     N13542   1.101   2.301  15.212 -0.1613  0.6121 -0.3126
  925MPD2    H513543   1.178   2.270  15.270 -1.7488  0.8652  1.8968
  925MPD2    N113544   1.015   2.413  14.743  0.4513  0.4676  0.5165
  925MPD2    H713545   0.914   2.405  14.754  0.2903 -0.3529 -1.6138
  926MPD2     C13546   0.288   0.481  13.299  0.7589 -0.3288 -0.3877
  926MPD2    C113547   0.248   0.612  13.309  0.3381 -0.0539 -0.6924
  926MPD2    C213548   0.241   0.685  13.192 -0.4474 -0.2192 -0.9710
  926MPD2    C313549   0.273   0.624  13.074 -0.3813  0.0914  0.1430
  926MPD2    C413550   0.305   0.491  13.068 -0.2779 -0.5897  0.2396
  926MPD2    C513551   0.310   0.417  13.184  0.2780 -0.0203 -0.4971
  926MPD2     H13552   0.220   0.791  13.206  1.7317  0.1581 -0.4586
  926MPD2    H113553   0.338   0.436  12.981  2.1725  0.2634  0.6132
  926MPD2    H213554   0.295   0.420  13.388 -0.4717  0.6975  0.4230
  926MPD2    H313555   0.342   0.313  13.186 -0.8553 -0.4420 -3.8520
  926MPD2     N13556   0.263   0.698  12.952 -0.1028  0.4699  0.4880
  926MPD2    H513557   0.304   0.654  12.870 -0.3536  1.5845 -0.2438
  926MPD2    N113558   0.225   0.682  13.432 -0.1794  0.0631 -0.8639
  926MPD2    H713559   0.204   0.781  13.426  4.0909  1.2199  3.2068
  927MPD2     C13560   4.210   2.653   0.283  0.5848  0.5549  0.4153
  927MPD2    C113561   4.187   2.791   0.277 -0.4744  0.1777  0.3306
  927MPD2    C213562   4.213   2.864   0.168 -0.7577  0.3305  0.1926
  927MPD2    C313563   4.250   2.802   0.051  0.9452  0.4703 -1.1251
  927MPD2    C413564   4.247   2.668   0.048 -0.1139 -0.3959 -0.5340
  927MPD2    C513565   4.226   2.593   0.161 -0.5146  0.2044 -0.5923
  927MPD2     H13566   4.206   2.972   0.166 -2.1118  0.2224 -0.6821
  927MPD2    H113567   4.270   2.611  17.671 -0.1005 -1.4288  0.1209
  927MPD2    H213568   4.196   2.584   0.365 -0.2491  0.7365  0.4245
  927MPD2    H313569   4.238   2.486   0.157 -0.1255  0.3222 -2.3552
  927MPD2     N13570   4.257   2.889  17.648 -0.1038  0.2677 -0.8482
  927MPD2    H513571   4.238   2.988  17.665  0.4640  0.6152 -2.2118
  927MPD2    N113572   4.133   2.858   0.393  0.8506 -0.1463  0.0861
  927MPD2    H713573   4.112   2.797   0.471 -4.5220  2.1367  0.3953
  928MPD2     C13574   2.259   1.807   0.631 -0.6133  0.6266 -0.2739
  928MPD2    C113575   2.308   1.919   0.567  0.2075 -0.1521  0.4225
  928MPD2    C213576   2.437   1.960   0.590 -0.6686  0.0559 -0.6602
  928MPD2    C313577   2.532   1.874   0.649 -0.2680  0.0855 -0.5146
  928MPD2    C413578   2.478   1.757   0.706  0.8615  0.8746  0.1216
  928MPD2    C513579   2.343   1.725   0.700  0.0109  0.0106  0.8860
  928MPD2     H13580   2.476   2.056   0.557 -0.2804  0.3061  0.5387
  928MPD2    H113581   2.548   1.689   0.753 -0.4816  0.2910  1.2909
  928MPD2    H213582   2.153   1.793   0.612 -1.0599  2.6975  0.7041
  928MPD2    H313583   2.301   1.639   0.751 -0.5842  0.7067  1.5790
  928MPD2     N13584   2.672   1.897   0.655  0.7681  0.7063 -0.1451
  928MPD2    H513585   2.728   1.825   0.700 -1.8246 -1.9436 -1.1369
  928MPD2    N113586   2.219   1.995   0.490 -0.1672 -0.5188  0.8272
  928MPD2    H713587   2.121   1.968   0.489 -0.0159 -1.0038 -2.0350
  929MPD2     C13588   2.805   0.967  10.397 -0.1679 -0.0524  0.9683
  929MPD2    C113589   2.671   0.964  10.432 -0.8738  0.2466  1.0033
  929MPD2    C213590   2.578   0.987  10.334 -0.7081  0.8232 -0.4757
  929MPD2    C313591   2.611   1.018  10.199  0.0760 -1.0021  0.2754
  929MPD2    C413592   2.747   1.015  10.168 -0.1063  0.1676  0.4044
  929MPD2    C513593   2.843   0.996  10.267 -0.5164 -0.8374 -1.3645
  929MPD2     H13594   2.485   1.013  10.383  0.2327  1.2567  1.0736
  929MPD2    H113595   2.781   1.041  10.068 -0.8784 -0.1482  0.0589
  929MPD2    H213596   2.881   0.956  10.473 -2.0991  0.2105  2.9642
  929MPD2    H313597   2.947   1.003  10.239 -1.0920  0.7021 -3.1416
  929MPD2     N13598   2.515   1.070  10.107 -0.0919  0.2652 -0.0340
  929MPD2    H513599   2.536   1.125  10.025 -2.3031  0.0840 -0.6958
  929MPD2    N113600   2.643   0.951  10.574  0.3066 -0.6025 -0.0137
  929MPD2    H713601   2.722   0.960  10.638 -0.0267 -0.1344  0.3283
  930MPD2     C13602   4.180   3.513  14.418 -0.2665  0.1455  0.0797
  930MPD2    C113603   4.154   3.626  14.340 -0.0515  0.2412 -0.3497
  930MPD2    C213604   4.119   3.618  14.209  0.1139 -0.4702 -0.0020
  930MPD2    C313605   4.093   3.493  14.149 -0.5926 -0.5053  0.6581
  930MPD2    C413606   4.115   3.386  14.227  0.1887  0.1039  0.2831
  930MPD2    C513607   4.157   3.393  14.358 -0.1231  0.3991  0.6343
  930MPD2     H13608   4.109   3.705  14.146  0.6825 -0.2769  0.1837
  930MPD2    H113609   4.093   3.290  14.182  0.2735  0.9663 -1.5935
  930MPD2    H213610   4.209   3.523  14.522 -0.8490  2.7389 -0.0083
  930MPD2    H313611   4.169   3.297  14.407 -1.9563  0.0832  0.4362
  930MPD2     N13612   4.065   3.479  14.014  0.3773  0.4846 -0.2687
  930MPD2    H513613   4.094   3.394  13.966 -0.7742  0.2573 -0.5781
  930MPD2    N113614   4.166   3.760  14.387  1.0207  0.0538  0.3228
  930MPD2    H713615   4.173   3.830  14.314  3.3658 -0.3268  0.1516
  931MPD2     C13616   4.450   2.829   0.958 -0.0563 -0.0446  0.0605
  931MPD2    C113617   4.323   2.871   0.998  0.6647  0.2059  0.1969
  931MPD2    C213618   4.303   2.911   1.126  1.1245 -0.4765  0.2497
  931MPD2    C313619   4.404   2.902   1.222  0.4179  0.2301  0.1790
  931MPD2    C413620   4.525   2.844   1.177 -0.0979 -0.1219 -0.3550
  931MPD2    C513621   4.546   2.826   1.045  0.3801  0.1545 -0.9900
  931MPD2     H13622   4.209   2.953   1.159  2.0136  2.8799 -1.4610
  931MPD2    H113623   4.611   2.847   1.242 -0.7385 -0.3271  0.5044
  931MPD2    H213624   4.475   2.816   0.853  0.2828  0.9687  0.0086
  931MPD2    H313625   4.644   2.795   1.010 -0.3240 -2.5537 -0.5727
  931MPD2     N13626   4.389   2.942   1.359 -0.3769 -0.0911 -0.2494
  931MPD2    H513627   4.474   2.936   1.415  1.4018 -0.4620 -3.0130
  931MPD2    N113628   4.236   2.898   0.889  0.3117  0.2247  0.4300
  931MPD2    H713629   4.278   2.904   0.796  0.5961  1.9460  0.6619
  932MPD2     C13630   1.874   1.751  11.401  0.8929 -0.0726  0.1244
  932MPD2    C113631   1.835   1.828  11.507  0.2291  0.1158 -0.3287
  932MPD2    C213632   1.872   1.778  11.639  0.3216 -0.1182  0.0543
  932MPD2    C313633   1.936   1.657  11.657  0.4827  0.4133  0.2626
  932MPD2    C413634   1.955   1.576  11.543 -0.4331 -0.0128  0.0432
  932MPD2    C513635   1.931   1.628  11.418 -0.2440  0.4628 -0.3414
  932MPD2     H13636   1.861   1.836  11.730 -0.3210  0.7918 -0.6102
  932MPD2    H113637   1.979   1.471  11.545 -1.9262 -0.3798 -1.2876
  932MPD2    H213638   1.854   1.780  11.299  1.4387  1.0857  0.3480
  932MPD2    H313639   1.944   1.570  11.327 -0.5044 -1.0139  0.5673
  932MPD2     N13640   1.969   1.615  11.785 -0.4139  0.3907  0.0144
  932MPD2    H513641   1.942   1.668  11.867  1.3921  1.4883 -0.1114
  932MPD2    N113642   1.762   1.950  11.483 -0.7300 -0.2064 -0.2189
  932MPD2    H713643   1.754   2.026  11.551 -0.5113  0.6704 -1.1709
  933MPD2     C13644   1.440   2.104   0.316  0.2728  0.7232 -0.3277
  933MPD2    C113645   1.546   2.010   0.298 -0.0536  0.0764  0.1315
  933MPD2    C213646   1.520   1.879   0.319 -0.1672 -0.6206 -0.3728
  933MPD2    C313647   1.393   1.834   0.347 -0.0853  0.2861  0.0707
  933MPD2    C413648   1.288   1.924   0.352 -0.1528  0.4780  0.3513
  933MPD2    C513649   1.316   2.057   0.331 -0.1528  0.3843 -0.6277
  933MPD2     H13650   1.598   1.804   0.312  0.6047 -0.0538  2.2942
  933MPD2    H113651   1.186   1.892   0.371 -0.5595  0.5968 -1.6430
  933MPD2    H213652   1.451   2.212   0.312  0.9214  0.6690  0.0997
  933MPD2    H313653   1.233   2.126   0.320 -0.1993  0.6962  1.5286
  933MPD2     N13654   1.377   1.692   0.377 -0.0513 -0.0950  0.1482
  933MPD2    H513655   1.461   1.641   0.400  0.9711  1.5542  0.1030
  933MPD2    N113656   1.673   2.073   0.289  0.0118 -0.1703 -0.2430
  933MPD2    H713657   1.665   2.173   0.280 -1.4963 -0.1309  1.5541
  934MPD2     C13658   3.025   4.250   2.269  1.2226 -0.1915  0.0986
  934MPD2    C113659   3.113   4.169   2.200  0.3772 -0.1611  0.0724
  934MPD2    C213660   3.090   4.126   2.071 -0.0247 -0.8512 -0.0630
  934MPD2    C313661   2.967   4.148   2.013  0.7068  0.3429  0.3743
  934MPD2    C413662   2.877   4.227   2.084  0.1176 -0.7317 -0.0438
  934MPD2    C513663   2.908   4.278   2.206  0.5717 -0.0901  0.5365
  934MPD2     H13664   3.168   4.073   2.017 -0.1830 -1.9884  0.8273
  934MPD2    H113665   2.777   4.249   2.049  0.2563  0.6818  0.4607
  934MPD2    H213666   3.034   4.298   2.366 -0.0486 -0.2992  0.2772
  934MPD2    H313667   2.832   4.348   2.241  0.1466 -0.4790  0.3884
  934MPD2     N13668   2.928   4.108   1.887 -0.2564 -0.6796  0.5996
  934MPD2    H513669   2.841   4.146   1.851 -0.4934 -0.7394  1.1247
  934MPD2    N113670   3.237   4.129   2.251  0.3713  0.3184 -0.0601
  934MPD2    H713671   3.308   4.076   2.201 -0.2334 -1.4107  0.9100
  935MPD2     C13672   3.388   3.462   1.348 -0.6774 -0.1367  0.5426
  935MPD2    C113673   3.276   3.470   1.271 -0.4400 -0.1041  0.0954
  935MPD2    C213674   3.199   3.586   1.290  0.2346  0.6597  0.2885
  935MPD2    C313675   3.230   3.680   1.388 -0.1281  0.0057  0.4985
  935MPD2    C413676   3.350   3.672   1.452 -0.5143 -0.0201 -0.1898
  935MPD2    C513677   3.426   3.559   1.437 -0.0134 -0.0236 -0.2980
  935MPD2     H13678   3.105   3.589   1.236 -0.0170  0.3275  0.7043
  935MPD2    H113679   3.374   3.752   1.521  1.2841 -0.7397  0.0151
  935MPD2    H213680   3.437   3.366   1.360  0.2349  0.3398  0.6692
  935MPD2    H313681   3.515   3.544   1.497  0.3291  0.1286 -0.7675
  935MPD2     N13682   3.140   3.785   1.427  0.7459 -0.4897 -0.4643
  935MPD2    H513683   3.160   3.835   1.512  1.4094 -3.4303  1.1117
  935MPD2    N113684   3.233   3.361   1.193 -0.0454  0.0025  0.3416
  935MPD2    H713685   3.150   3.389   1.141 -1.3829 -3.1055  0.8113
  936MPD2     C13686   1.953   0.376  12.388  0.3402 -0.9241 -0.6464
  936MPD2    C113687   1.957   0.401  12.525 -0.3943  0.2045 -0.3802
  936MPD2    C213688   2.019   0.512  12.578 -0.0596 -0.3977 -0.7389
  936MPD2    C313689   2.071   0.607  12.487  0.5621 -0.8717 -0.0499
  936MPD2    C413690   2.079   0.577  12.354  0.1441 -0.5954  0.0760
  936MPD2    C513691   2.028   0.459  12.306  0.1084 -0.4060 -0.0405
  936MPD2     H13692   2.017   0.526  12.686  1.4200  1.3046 -0.9448
  936MPD2    H113693   2.124   0.650  12.287 -1.2525  0.5026  0.3370
  936MPD2    H213694   1.923   0.278  12.352 -0.5993 -0.7502 -0.3300
  936MPD2    H313695   2.026   0.443  12.199  0.8254  0.2559 -0.1525
  936MPD2     N13696   2.130   0.736  12.532  0.1784  0.3663 -0.3690
  936MPD2    H513697   2.172   0.801  12.466  0.6726 -0.2470 -0.6538
  936MPD2    N113698   1.912   0.304  12.620 -0.1514  0.5812  0.2317
  936MPD2    H713699   1.925   0.320  12.720 -0.2951  0.1545  0.3183
  937MPD2     C13700   4.366   1.780  11.706  0.1576 -0.0194 -0.2015
  937MPD2    C113701   4.418   1.904  11.681 -0.1023  0.1274  0.0619
  937MPD2    C213702   4.479   1.923  11.559  0.8903  0.1912 -0.2615
  937MPD2    C313703   4.508   1.820  11.476 -0.1279 -0.2242  0.2379
  937MPD2    C413704   4.466   1.694  11.509  0.2789  0.4752 -0.8712
  937MPD2    C513705   4.392   1.672  11.626 -0.3419 -0.2196  0.9784
  937MPD2     H13706   4.511   2.024  11.537 -1.3248  0.7353 -0.9301
  937MPD2    H113707   4.500   1.608  11.452  1.7081 -0.0785  0.7887
  937MPD2    H213708   4.298   1.761  11.788  0.6129 -4.3137 -0.8285
  937MPD2    H313709   4.344   1.575  11.633 -0.2588 -0.2475  1.1611
  937MPD2     N13710   4.571   1.850  11.358  0.8164  0.3258  0.5416
  937MPD2    H513711   4.597   1.948  11.353  1.8727 -0.0275 -1.1144
  937MPD2    N113712   4.386   2.014  11.760  0.3259  0.5770  1.0313
  937MPD2    H713713   4.417   2.104  11.725 -1.5166  1.1984  0.9891
  938MPD2     C13714   2.345   3.728   0.858  0.2756  1.3654 -0.3117
  938MPD2    C113715   2.237   3.763   0.783 -0.5528 -0.1677  0.1385
  938MPD2    C213716   2.128   3.683   0.769 -0.0432 -0.0661  0.0775
  938MPD2    C313717   2.128   3.563   0.840  0.5765  0.0597 -0.6148
  938MPD2    C413718   2.238   3.525   0.916 -0.4832 -0.0933  0.1582
  938MPD2    C513719   2.346   3.612   0.929  1.0430 -0.0179  0.0324
  938MPD2     H13720   2.047   3.718   0.707  1.0600 -1.4175 -2.1556
  938MPD2    H113721   2.242   3.431   0.970 -0.3283 -0.5803 -0.6897
  938MPD2    H213722   2.435   3.788   0.849 -0.2980  2.1179 -1.0649
  938MPD2    H313723   2.431   3.575   0.985 -0.0152 -2.4544  0.0645
  938MPD2     N13724   2.025   3.464   0.827  0.5163 -0.3908 -0.0268
  938MPD2    H513725   2.041   3.371   0.864  3.8266  0.4557  0.6657
  938MPD2    N113726   2.255   3.888   0.711  0.0733 -0.3684  0.1189
  938MPD2    H713727   2.340   3.931   0.745  1.6720 -1.6662 -2.2697
  939MPD2     C13728   3.277   4.692   1.577  0.6678 -0.1575 -0.1452
  939MPD2    C113729   3.242   0.044   1.474  0.3598  0.4229 -0.0556
  939MPD2    C213730   3.321   0.044   1.357 -0.1571  0.3618  0.1526
  939MPD2    C313731   3.437   4.693   1.353  0.8466  0.1174 -0.0615
  939MPD2    C413732   3.464   4.608   1.458 -0.5414  0.6075  0.7571
  939MPD2    C513733   3.382   4.609   1.564  0.1052 -0.3655  0.9710
  939MPD2     H13734   3.295   0.113   1.278  0.4029 -1.1349 -1.3210
  939MPD2    H113735   3.537   4.528   1.457 -1.7610 -0.4456 -1.9903
  939MPD2    H213736   3.228   4.695   1.674  1.0412 -1.1616  0.0762
  939MPD2    H313737   3.397   4.545   1.650  0.7090 -0.6373  0.6618
  939MPD2     N13738   3.499   4.690   1.231  0.2487  1.1346 -0.1433
  939MPD2    H513739   3.474   0.024   1.155 -1.4563  0.4950 -0.1128
  939MPD2    N113740   3.132   0.127   1.498  0.4975 -0.5261 -0.1121
  939MPD2    H713741   3.091   0.108   1.589 -1.1787 -3.6719 -1.5169
  940MPD2     C13742   2.976   0.811  13.344  0.1090 -0.1283 -0.4882
  940MPD2    C113743   2.933   0.691  13.292  0.0774 -0.4956  0.3510
  940MPD2    C213744   2.984   0.653  13.164 -0.2974  0.8539 -0.1818
  940MPD2    C313745   3.091   0.733  13.112 -0.3711 -0.2120  0.2966
  940MPD2    C413746   3.147   0.839  13.177  0.0622  0.8115  0.0546
  940MPD2    C513747   3.079   0.883  13.285  0.2613  0.7521  0.2745
  940MPD2     H13748   2.947   0.565  13.113  0.1917  0.1043  0.7737
  940MPD2    H113749   3.231   0.893  13.133 -0.8199  0.6878 -1.7969
  940MPD2    H213750   2.942   0.853  13.438  0.7070  0.5822 -0.5913
  940MPD2    H313751   3.112   0.975  13.331 -0.2740  0.3295  1.5042
  940MPD2     N13752   3.156   0.699  12.991  0.1664 -0.4026  0.3062
  940MPD2    H513753   3.239   0.751  12.963  2.3442 -2.6053  2.5958
  940MPD2    N113754   2.859   0.615  13.373 -0.3878  0.2234  1.0228
  940MPD2    H713755   2.845   0.651  13.467 -2.1478  0.2807  0.7397
  941MPD2     C13756   2.388   3.482   9.803  0.0485 -0.0781  0.3420
  941MPD2    C113757   2.304   3.503   9.915  0.3315  0.1967 -0.1708
  941MPD2    C213758   2.184   3.434   9.920 -0.7778  0.4020 -0.2280
  941MPD2    C313759   2.141   3.347   9.827 -0.0357 -0.2715  0.7369
  941MPD2    C413760   2.217   3.338   9.707 -0.0195  0.4317 -0.3130
  941MPD2    C513761   2.337   3.400   9.701  0.3261  0.2234  0.5053
  941MPD2     H13762   2.122   3.445  10.008  1.2717 -0.8948  1.4019
  941MPD2    H113763   2.175   3.283   9.624 -1.3912 -0.0137  0.6658
  941MPD2    H213764   2.482   3.533   9.787 -0.0831  0.3252  0.8303
  941MPD2    H313765   2.391   3.381   9.609 -1.1895  0.4545 -0.4373
  941MPD2     N13766   2.024   3.272   9.835  0.6073  0.1387 -0.9192
  941MPD2    H513767   1.992   3.217   9.755 -0.9464 -0.3621  0.0539
  941MPD2    N113768   2.324   3.602  10.011  0.5530  0.7097  0.2610
  941MPD2    H713769   2.258   3.599  10.087  1.3822 -0.6812  0.9104
  942MPD2     C13770   1.629   0.916   9.252 -0.3292 -0.4100 -1.1778
  942MPD2    C113771   1.696   0.840   9.164 -0.3481  0.2143  0.1306
  942MPD2    C213772   1.807   0.767   9.201  0.0783 -0.5773  0.5581
  942MPD2    C313773   1.859   0.779   9.327 -0.2480  0.1640  0.6533
  942MPD2    C413774   1.788   0.852   9.422 -0.2455  0.4743 -0.3913
  942MPD2    C513775   1.676   0.918   9.385  0.9080 -0.1971  0.9074
  942MPD2     H13776   1.846   0.690   9.136 -1.0222 -1.0834  0.4958
  942MPD2    H113777   1.822   0.840   9.524 -2.3433  2.8932  0.6064
  942MPD2    H213778   1.540   0.971   9.222  0.4495  0.6849 -1.4602
  942MPD2    H313779   1.618   0.978   9.454  0.6769  1.2627 -0.5361
  942MPD2     N13780   1.971   0.705   9.373  0.5700 -0.0630  0.0121
  942MPD2    H513781   1.994   0.715   9.471  0.4176 -0.0744  0.0497
  942MPD2    N113782   1.648   0.827   9.028  0.1900 -0.2005 -0.3079
  942MPD2    H713783   1.694   0.756   8.971  2.6832  3.3862 -2.7248
  943MPD2     C13784   0.145   3.614   9.781 -0.1446 -0.7832  0.1247
  943MPD2    C113785   0.270   3.567   9.750  0.0767 -0.4424 -0.4770
  943MPD2    C213786   0.311   3.552   9.618 -0.3175 -0.9499 -0.4277
  943MPD2    C313787   0.224   3.578   9.512  0.4643 -0.2507 -0.2688
  943MPD2    C413788   0.096   3.615   9.543  0.1609 -0.0415 -0.7110
  943MPD2    C513789   0.056   3.633   9.672  0.2873 -0.1217  0.2609
  943MPD2     H13790   0.416   3.541   9.593  0.1572  2.6846 -0.0368
  943MPD2    H113791   0.024   3.622   9.463  1.0954  1.0387 -1.4527
  943MPD2    H213792   0.106   3.656   9.873 -3.0925 -2.1644 -0.4743
  943MPD2    H313793   4.688   3.676   9.695  0.0806 -0.2912 -0.2769
  943MPD2     N13794   0.249   3.563   9.374 -0.2304  0.0895  0.3091
  943MPD2    H513795   0.191   3.626   9.320 -0.8194 -1.5929 -1.0417
  943MPD2    N113796   0.356   3.535   9.858  0.2578  0.0676  0.1381
  943MPD2    H713797   0.315   3.512   9.949 -0.2099 -0.4365 -0.1969
  944MPD2     C13798   0.328   3.017  12.192 -0.2448  0.2221  0.8363
  944MPD2    C113799   0.344   3.049  12.063 -0.3404 -0.7192  0.1536
  944MPD2    C213800   0.292   3.167  12.015  0.0750 -0.1008  0.0739
  944MPD2    C313801   0.218   3.255  12.096 -0.6314 -0.2699  0.3790
  944MPD2    C413802   0.210   3.223  12.226  0.2259  0.8133 -0.7638
  944MPD2    C513803   0.266   3.106  12.273  0.4242 -0.2930 -0.7024
  944MPD2     H13804   0.283   3.183  11.908  0.2003 -0.0978  0.0638
  944MPD2    H113805   0.154   3.288  12.292 -0.6524 -1.0412  0.3276
  944MPD2    H213806   0.374   2.932  12.240 -2.7093 -1.0716  0.9368
  944MPD2    H313807   0.265   3.075  12.377 -0.2244 -3.8631 -1.7574
  944MPD2     N13808   0.155   3.365  12.036  0.0933 -0.2968  0.0889
  944MPD2    H513809   0.160   3.361  11.935  0.7465 -0.5657  0.1347
  944MPD2    N113810   0.401   2.943  11.986 -0.4341  0.5078 -0.1428
  944MPD2    H713811   0.423   2.856  12.032 -1.7448  0.7241  0.9130
    1TCq1    O113812   3.035   4.257  14.132 -0.2388 -0.0891 -0.4148
    1TCq1    C113813   3.104   4.365  14.155  0.3612 -0.1542  0.0194
    1TCq1    O213814   3.073   4.457  14.230 -0.4153 -0.0785  0.1520
    1TCq1    C213815   3.247   4.347  14.132  0.2047  0.2356  1.1959
    1TCq1    C313816   3.294   4.251  14.040 -0.0243  0.4931 -0.0667
    1TCq1    C413817   3.423   4.207  14.054 -0.4545  0.8506  0.5754
    1TCq1    C513818   3.510   4.247  14.154  0.1738  0.3451 -0.1849
    1TCq1    C613819   3.458   4.335  14.243  0.0035  0.6598 -0.7458
    1TCq1    C713820   3.329   4.388  14.230 -0.4943  0.2448  0.5932
    1TCq1    C813821   3.558   4.393  14.342  0.0512  0.1932  0.0811
    1TCq1    O413822   3.650   4.315  14.372 -0.7961 -0.3068 -0.0387
    1TCq1    C913823   3.467   4.112  13.954 -0.3951  1.0788  0.1477
    1TCq1    O513824   3.382   4.085  13.864 -0.6580  0.0977  0.3329
    1TCq1    O613825   3.570   4.045  13.981  0.1840 -0.1732 -0.1881
    1TCq1    H113826   3.093   4.179  14.122  1.7719  1.3739 -0.0277
    1TCq1    H213827   3.234   4.232  13.952  3.1131 -1.5527 -1.7821
    1TCq1    H313828   3.608   4.200  14.156  0.6222  1.2752 -0.3767
    1TCq1    H413829   3.290   4.465  14.296  1.5738  1.3584  0.5300
    2MPD2     C13830   3.698   4.696  14.715 -0.2584 -0.6715 -0.3947
    2MPD2    C113831   3.582   0.015  14.661  0.7113  0.2010  0.3354
    2MPD2    C213832   3.521   4.665  14.568  0.0185  0.1036 -1.1553
    2MPD2    C313833   3.591   4.561  14.516 -0.1199  0.6871  0.2061
    2MPD2    C413834   3.718   4.522  14.558 -0.5799 -0.0754  0.0657
    2MPD2    C513835   3.762   4.579  14.670 -0.2406  0.9849 -0.0032
    2MPD2     H13836   3.422   4.688  14.529 -0.0496  2.6987  0.5524
    2MPD2    H113837   3.773   4.438  14.517  0.1153  1.2759 -1.7743
    2MPD2    H213838   3.733   0.006  14.810 -2.3396  1.7490 -0.5796
    2MPD2    H313839   3.856   4.544  14.712 -0.7360  2.1652  2.0812
    2MPD2     N13840   3.519   4.502  14.407 -0.2084 -0.2116  0.6959
    2MPD2    H513841   3.434   4.553  14.383  2.2374  3.0964 -1.0112
    2MPD2    N113842   3.519   0.125  14.728 -0.5967  0.0915  0.9561
    2MPD2    H713843   3.575   0.172  14.798 -0.0926 -0.5923  1.0055
    3TMC2    C113844   3.410   0.335  14.753 -0.7981  0.0763  0.6317
    3TMC2    C213845   3.455   0.351  14.883  0.0625  0.0495 -0.0675
    3TMC2    C313846   3.448   0.476  14.933 -0.1162  0.0257 -0.4928
    3TMC2    C413847   3.371   0.443  14.677 -0.4944  0.1342  0.2464
    3TMC2    C513848   3.384   0.565  14.732 -0.5509 -0.0445  0.1229
    3TMC2    C613849   3.426   0.589  14.861  0.6500  0.0979  0.4597
    3TMC2     C13850   3.426   0.211  14.671  0.5977  0.0915  0.0603
    3TMC2     O13851   3.341   0.190  14.584  0.7400 -0.0431 -0.6204
    3TMC2     H13852   3.477   0.266  14.947 -0.6987 -0.9008 -1.0667
    3TMC2    H113853   3.355   0.434  14.570 -1.2234  0.7222  0.3043
    3TMC2    H213854   3.449   0.691  14.890 -0.6452 -0.1004  2.2018
    3TMC2    C713855   3.396   0.682  14.648  0.2483  0.1220  0.9056
    3TMC2    C813856   3.484   0.478  15.082  0.7164 -1.1541  0.9173
    3TMC2    O113857   3.389   0.792  14.695  0.0617 -0.4172  0.3552
    3TMC2    O213858   3.529   0.385  15.146  0.0833 -0.3206 -0.6798
    3TMC2    O513859   3.462   0.600  15.139  0.5061  0.1052 -0.3395
    3TMC2    H513860   3.381   0.641  15.104  1.1080 -1.1036 -3.1830
    4MPD2     C13861   2.503   1.197  13.885 -0.4605 -0.2304 -0.4004
    4MPD2    C113862   2.608   1.199  13.789  0.1352  0.5555 -0.7026
    4MPD2    C213863   2.738   1.222  13.832  0.9156  0.4177  0.1376
    4MPD2    C313864   2.763   1.265  13.970 -0.0616  0.4371  0.4902
    4MPD2    C413865   2.650   1.259  14.054 -0.1282  0.1895  0.3581
    4MPD2    C513866   2.529   1.235  14.010 -0.4888 -0.1368  0.0087
    4MPD2     H13867   2.824   1.218  13.766  0.6271  0.7014 -0.2543
    4MPD2    H113868   2.653   1.282  14.160  2.3652  0.2389  0.2791
    4MPD2    H213869   2.403   1.166  13.854 -0.5923 -0.6105  0.4275
    4MPD2    H313870   2.449   1.237  14.083 -0.9958  0.7984 -0.5734
    4MPD2     N13871   2.893   1.299  14.013 -0.8240  0.0860  0.2682
    4MPD2    H513872   2.961   1.305  13.938 -0.3366  0.5621  0.7413
    4MPD2    N113873   2.576   1.151  13.656  0.3270 -0.3312 -0.0398
    4MPD2    H713874   2.478   1.143  13.630  0.4104 -0.2446 -0.3781
    5TCq2    C113875   2.933   1.314  14.139  0.2971 -0.7130 -0.4109
    5TCq2    O213876   2.862   1.312  14.243 -0.0303  0.0170 -0.0556
    5TCq2    C213877   3.074   1.344  14.157  0.9104  0.3137  0.3609
    5TCq2    C313878   3.151   1.402  14.054  0.4333 -0.3222  0.0251
    5TCq2    C413879   3.281   1.396  14.071  0.1651 -0.7920  0.2662
    5TCq2    C513880   3.340   1.304  14.161 -0.5788 -0.3135  0.8464
    5TCq2    C613881   3.260   1.258  14.266 -0.8361  0.2137 -0.0824
    5TCq2    C713882   3.124   1.276  14.262 -0.3600 -0.3326 -0.8201
    5TCq2    C813883   3.293   1.132  14.332  0.0698 -0.1630  0.2555
    5TCq2    O413884   3.221   1.090  14.421  0.4774 -0.5109 -0.2005
    5TCq2    C913885   3.369   1.470  13.980 -0.3467 -0.5002  0.0129
    5TCq2    O513886   3.321   1.545  13.889  0.6673 -0.5407  0.1885
    5TCq2    O613887   3.489   1.435  13.990 -0.2690  0.0322 -0.3325
    5TCq2    H213888   3.105   1.467  13.980  2.4299 -1.4297 -2.2292
    5TCq2    H313889   3.447   1.286  14.162 -0.5428 -0.2240 -0.5860
    5TCq2    H413890   3.065   1.228  14.339  2.7843 -1.8159  0.6922
    6MPD1     C13891   2.126   1.943  11.906  0.5364 -0.0371  0.4544
    6MPD1    C113892   2.062   1.993  12.014  0.5855  0.3498 -0.2351
    6MPD1    C213893   2.068   1.917  12.130  0.1646 -0.3513  0.4513
    6MPD1    C313894   2.150   1.805  12.135  0.3149  0.5318  0.5493
    6MPD1    C413895   2.220   1.767  12.024 -0.1572 -0.5030  0.4757
    6MPD1    C513896   2.210   1.839  11.910 -0.2258 -1.1350 -0.1303
    6MPD1     H13897   2.014   1.952  12.217  0.5394  1.1385  0.0931
    6MPD1    H113898   2.285   1.681  12.024 -0.8217 -1.0107  2.2320
    6MPD1    H213899   2.114   1.992  11.809  1.2793  1.2677  1.0200
    6MPD1    H313900   2.250   1.798  11.818  0.6639  2.7203 -1.4497
    6MPD1     N13901   2.177   1.733  12.255 -0.8581  0.2922 -0.5226
    6MPD1    H513902   2.244   1.659  12.239  0.4814  1.2420  0.6853
    6MPD1    N113903   1.956   2.083  11.997 -0.6683 -0.2570 -0.4218
    6MPD1    H613904   1.943   2.130  12.087  0.6628 -1.7585  0.5562
    6MPD1    H713905   1.959   2.158  11.928  0.1889  1.2816  1.2709
    7MPD2     C13906   2.102   1.604  13.133  0.4210 -0.7286 -0.6699
    7MPD2    C113907   2.133   1.503  13.049  0.1462  1.0664  0.3877
    7MPD2    C213908   2.186   1.389  13.099 -0.3552 -0.3020  0.8129
    7MPD2    C313909   2.217   1.373  13.233  0.7949  0.0639 -0.1972
    7MPD2    C413910   2.182   1.477  13.316  0.4412 -0.3790 -0.0059
    7MPD2    C513911   2.117   1.589  13.268  0.1500 -0.1696  0.7723
    7MPD2     H13912   2.215   1.317  13.023  3.7850  0.0478  2.0830
    7MPD2    H113913   2.194   1.473  13.424 -0.3524  1.7110  0.1703
    7MPD2    H213914   2.071   1.702  13.097  1.2053 -0.3625 -0.3389
    7MPD2    H313915   2.099   1.672  13.334 -0.4047 -0.1746  0.6327
    7MPD2     N13916   2.291   1.271  13.290  0.1314 -0.5421  0.0769
    7MPD2    H513917   2.339   1.289  13.377 -0.4704  2.7090 -0.2799
    7MPD2    N113918   2.137   1.526  12.913 -0.5885 -0.2123  0.0582
    7MPD2    H713919   2.174   1.445  12.864 -1.0625  0.0489 -0.7325
    8TMC3    C113920   2.413   1.060  13.304  0.1168  0.4721  0.6142
    8TMC3    C213921   2.465   1.112  13.417  0.0972  0.0183  1.0332
    8TMC3    C313922   2.604   1.089  13.434 -0.1806 -0.0661  0.6575
    8TMC3    C413923   2.485   0.982  13.220 -0.8044  0.0610  0.1053
    8TMC3    C513924   2.622   0.979  13.227 -0.4101  0.3474 -0.2545
    8TMC3    C613925   2.680   1.037  13.339  0.0776 -0.9358  0.0049
    8TMC3     C13926   2.310   1.143  13.241  0.0087  0.0057 -0.4765
    8TMC3     O13927   2.269   1.096  13.134 -0.0588 -0.1598  0.0178
    8TMC3     H13928   2.408   1.168  13.490  0.2378  1.4471  0.0507
    8TMC3    H113929   2.428   0.917  13.154 -0.6262 -1.3890  1.3646
    8TMC3    H213930   2.788   1.026  13.346 -0.1300 -4.4508 -2.8479
    8TMC3    C713931   2.685   1.018  13.101 -0.4891 -0.3025  0.5172
    8TMC3    C813932   2.670   1.119  13.563 -0.2634 -0.7865 -0.5935
    8TMC3    O113933   2.807   1.024  13.092 -0.4750  0.3674  0.1263
    8TMC3    O213934   2.790   1.100  13.570 -0.2278  0.2546 -0.1355
    9TMC3    C113935   2.158   1.660  12.474 -0.3940  0.7232  0.1950
    9TMC3    C213936   2.261   1.575  12.456  0.5884  0.0283  0.5484
    9TMC3    C313937   2.307   1.517  12.568  0.3315  0.3126  0.1501
    9TMC3    C413938   2.114   1.698  12.602 -0.4133  0.3920 -0.2329
    9TMC3    C513939   2.165   1.634  12.710 -0.3168 -0.0275  1.1044
    9TMC3    C613940   2.272   1.552  12.690  0.7283 -0.2391  0.3448
    9TMC3     C13941   2.117   1.750  12.371 -0.1586  0.1826  0.5353
    9TMC3     O13942   2.023   1.827  12.398  0.3802 -0.1479  0.0440
    9TMC3     H13943   2.277   1.536  12.356  2.2828  0.9951  0.4383
    9TMC3    H113944   2.025   1.756  12.624 -2.0113 -1.5437 -1.6418
    9TMC3    H213945   2.321   1.513  12.779  0.2047  1.5909  1.4468
    9TMC3    C713946   2.101   1.638  12.841  0.3978 -0.1009  0.4205
    9TMC3    C813947   2.432   1.436  12.560 -0.4250 -0.0765 -0.7484
    9TMC3    O113948   2.044   1.739  12.881  0.1012 -0.2438  0.2595
    9TMC3    O213949   2.519   1.461  12.479 -0.4630 -0.2455 -0.9664
   10MPD2     C13950   2.754   1.163  12.850 -0.1712 -0.0375  1.2435
   10MPD2    C113951   2.626   1.143  12.895 -0.0708  0.1674  0.9642
   10MPD2    C213952   2.523   1.200  12.824  0.0788  0.6983 -0.0133
   10MPD2    C313953   2.546   1.273  12.713  0.4940 -0.0561  0.0798
   10MPD2    C413954   2.673   1.296  12.668  0.2263 -0.4455 -0.1783
   10MPD2    C513955   2.774   1.234  12.734 -0.9259 -0.8910 -0.2643
   10MPD2     H13956   2.422   1.197  12.862  0.2792  1.0577  0.5454
   10MPD2    H113957   2.697   1.359  12.584 -0.7604 -0.4141 -0.4422
   10MPD2    H213958   2.842   1.118  12.894 -1.0867 -0.2221  2.8594
   10MPD2    H313959   2.871   1.241  12.687 -0.2782 -0.3127  1.1524
   10MPD2     N13960   2.432   1.348  12.664  0.4312 -0.0626  0.1163
   10MPD2    H513961   2.349   1.336  12.720  1.0569 -0.5640  0.9302
   10MPD2    N113962   2.597   1.064  13.006 -0.3205  0.2497 -0.0221
   10MPD2    H713963   2.496   1.054  13.015 -0.0465 -1.4212  1.1032
   11MPD2     C13964   3.528   0.677  14.300 -0.5291 -0.0224 -0.2549
   11MPD2    C113965   3.455   0.733  14.405 -0.0632  0.0848  0.2140
   11MPD2    C213966   3.411   0.863  14.394  0.2104 -0.4325 -0.1919
   11MPD2    C313967   3.428   0.934  14.273 -0.0076 -0.7500 -0.7551
   11MPD2    C413968   3.501   0.875  14.170  0.3214  0.0494  0.2646
   11MPD2    C513969   3.557   0.754  14.183  0.2777 -0.0421 -0.3439
   11MPD2     H13970   3.363   0.908  14.480  1.9059  1.6382 -0.3246
   11MPD2    H113971   3.513   0.935  14.080 -1.2979 -1.2731 -0.8286
   11MPD2    H213972   3.569   0.577  14.310 -1.3643 -0.4188 -0.7988
   11MPD2    H313973   3.635   0.718  14.117 -0.8069 -0.7886 -1.2175
   11MPD2     N13974   3.374   1.064  14.250 -0.0963  0.3438  0.7188
   11MPD2    H513975   3.407   1.116  14.170  1.2944  0.8069  1.5903
   11MPD2    N113976   3.441   0.649  14.518  0.0897  0.8112  0.2016
   11MPD2    H713977   3.482   0.556  14.507  1.4814  1.4398  0.0608
    1MPD1     C13978   4.336   1.365  17.378 -0.0831  0.3522 -0.2004
    1MPD1    C113979   4.323   1.404  17.511  0.3476  0.1128  0.9778
    1MPD1    C213980   4.403   1.510  17.557  0.2320 -0.7084  0.3145
    1MPD1    C313981   4.498   1.557  17.469 -0.4992  0.2919  0.4804
    1MPD1    C413982   4.510   1.506  17.345 -0.9802 -0.3286  0.3132
    1MPD1    C513983   4.424   1.415  17.289 -0.2250 -0.3604  0.9718
    1MPD1     H13984   4.397   1.547  17.658 -0.4573 -0.1530  0.0686
    1MPD1    H113985   4.589   1.554  17.290  0.6877 -1.9218  1.3212
    1MPD1    H213986   4.276   1.281  17.346 -0.2243 -1.1468  4.0545
    1MPD1    H313987   4.428   1.373  17.189 -2.7333 -0.1588  0.7901
    1MPD1     N13988   4.586   1.662  17.497 -0.0204 -0.3558  0.0471
    1MPD1    H513989   4.645   1.695  17.421  0.0487  0.2726  0.3760
    1MPD1    N113990   4.218   1.353  17.589  0.0661 -0.0520 -0.0404
    1MPD1    H613991   4.217   1.395  17.682 -1.4789 -0.7857  0.2911
    1MPD1    H713992   4.214   1.251  17.587 -1.6217  0.0322 -1.0139
    2MPD1     C13993   0.424   2.294   0.483  0.0950  1.1079 -0.4600
    2MPD1    C113994   0.521   2.204   0.451 -0.5752  0.0654 -0.4840
    2MPD1    C213995   0.476   2.099   0.367 -0.2003 -0.3365 -0.2851
    2MPD1    C313996   0.347   2.102   0.309  0.1428  0.6918 -0.4509
    2MPD1    C413997   0.254   2.196   0.349 -0.2504 -0.0273 -0.3544
    2MPD1    C513998   0.292   2.290   0.443 -0.4989  0.7610  0.0060
    2MPD1     H13999   0.537   2.012   0.347 -0.8605 -0.9460  0.3558
    2MPD1    H114000   0.151   2.188   0.317 -0.8024 -1.9012  1.9274
    2MPD1    H214001   0.445   2.368   0.560  1.2193  0.8484 -0.5198
    2MPD1    H314002   0.224   2.357   0.494 -0.6309  1.8858 -1.6459
    2MPD1     N14003   0.310   1.991   0.224 -0.3946  0.4327  0.7121
    2MPD1    H514004   0.383   1.929   0.190 -0.7226  0.8767 -0.8004
    2MPD1    N114005   0.643   2.213   0.519  1.1753 -0.6135  0.1639
    2MPD1    H614006   0.674   2.302   0.557  0.2178 -0.1657 -0.1111
    2MPD1    H714007   0.715   2.154   0.478  1.6836  0.4497 -0.4695
    3TMC3    C114008   0.166   1.870   0.076 -0.3842  0.3293  0.0147
    3TMC3    C214009   0.261   1.885  17.684  0.1621  0.1930 -0.3162
    3TMC3    C314010   0.219   1.855  17.560  0.2680 -0.7219 -0.7108
    3TMC3    C414011   0.047   1.817   0.053  0.5329 -0.6459  0.0693
    3TMC3    C514012   0.013   1.773  17.639  0.6644  0.2408 -0.0462
    3TMC3    C614013   0.105   1.785  17.534  0.1389  0.1907  0.3579
    3TMC3     C14014   0.181   1.966   0.178  0.3312 -0.2257  0.1793
    3TMC3     O14015   0.079   2.020   0.205 -0.3527 -0.0257 -0.4452
    3TMC3     H14016   0.358   1.930  17.704 -0.4625  1.1181  0.6081
    3TMC3    H114017   4.703   1.800   0.132 -1.8201  1.3674 -1.6603
    3TMC3    H214018   0.087   1.752  17.432  1.9471 -2.1636  0.8060
    3TMC3    C714019   4.618   1.707  17.623 -0.2327  1.1978  0.0526
    3TMC3    C814020   0.305   1.890  17.447 -0.3130  0.1451 -0.6676
    3TMC3    O114021   4.564   1.672   0.017 -0.5428  0.5366 -0.4751
    3TMC3    O214022   0.300   1.812  17.351  0.0701  0.1517 -0.4001
    4MPD1     C14023   0.546   2.247  17.175 -0.6532 -0.0663  0.4565
    4MPD1    C114024   0.494   2.318  17.289  0.1934 -0.3646 -0.7532
    4MPD1    C214025   0.452   2.224  17.388 -0.0613 -0.4064  0.2784
    4MPD1    C314026   0.427   2.089  17.367  0.2932 -0.8954 -0.1134
    4MPD1    C414027   0.456   2.029  17.245 -0.1503  0.0710 -0.0964
    4MPD1    C514028   0.529   2.109  17.162 -0.2055  0.3732 -0.2058
    4MPD1     H14029   0.428   2.271  17.483 -1.7487 -0.5032 -0.0967
    4MPD1    H114030   0.443   1.924  17.224  0.4879  0.3307 -1.7827
    4MPD1    H214031   0.590   2.294  17.088  2.6787 -2.1922  1.0121
    4MPD1    H314032   0.571   2.063  17.073  1.7047  1.1659  0.3077
    4MPD1     N14033   0.354   2.017  17.464 -0.3131  0.2986 -0.0463
    4MPD1    H514034   0.319   2.072  17.542  3.0297 -0.1927  1.8031
    4MPD1    N114035   0.512   2.452  17.322 -0.7786  0.2088 -0.2360
    4MPD1    H614036   0.439   2.499  17.375  1.2209  1.4273  1.4777
    4MPD1    H714037   0.514   2.510  17.239 -4.3506 -2.2155 -2.0286
    1TCq1    O114038   1.333   2.095  10.905 -0.1932  0.2036 -0.0705
    1TCq1    C114039   1.463   2.133  10.929 -0.5671  0.5388  0.5624
    1TCq1    O214040   1.499   2.246  10.951 -0.6425  0.3824  0.1111
    1TCq1    C214041   1.549   2.030  10.884  0.1148  0.4358  0.5049
    1TCq1    C314042   1.518   1.905  10.928  0.4876 -0.6761 -0.5025
    1TCq1    C414043   1.595   1.802  10.888 -0.6672  0.5579 -0.1436
    1TCq1    C514044   1.713   1.827  10.824 -0.8170  0.3375  0.2742
    1TCq1    C614045   1.733   1.947  10.759 -0.2468  0.3428  0.0695
    1TCq1    C714046   1.649   2.054  10.797  0.4168  0.9177  0.6146
    1TCq1    C814047   1.860   1.974  10.686 -0.3287  0.2614 -0.2078
    1TCq1    O414048   1.892   2.095  10.682 -0.2749 -0.2443  0.2255
    1TCq1    C914049   1.589   1.676  10.958 -0.1130 -0.5179 -0.4558
    1TCq1    O514050   1.490   1.662  11.033  0.7198  0.4659 -0.3056
    1TCq1    O614051   1.674   1.585  10.929  0.1048 -0.0474  0.2397
    1TCq1    H114052   1.325   2.006  10.865 -1.4053 -0.0718  0.7870
    1TCq1    H214053   1.449   1.888  11.011  0.9046 -2.1153 -0.4433
    1TCq1    H314054   1.777   1.744  10.798 -0.2113  0.9640 -0.2521
    1TCq1    H414055   1.665   2.153  10.756 -1.1671  0.2161 -1.6575
    2MPD1     C14056   2.301   1.830  10.466 -0.9684 -0.1641  0.0141
    2MPD1    C114057   2.223   1.712  10.479  0.3873  0.0659  0.0483
    2MPD1    C214058   2.092   1.731  10.531 -0.0802  0.4295  0.0969
    2MPD1    C314059   2.047   1.851  10.579 -0.7742 -0.7602 -0.1465
    2MPD1    C414060   2.133   1.958  10.567 -0.0566  0.2565  0.2353
    2MPD1    C514061   2.262   1.946  10.513  0.2824  0.2240  0.2982
    2MPD1     H14062   2.023   1.648  10.525 -0.3427  0.6674 -0.1318
    2MPD1    H114063   2.115   2.059  10.602 -1.3246  0.9291 -2.4091
    2MPD1    H214064   2.403   1.828  10.432 -0.4941 -2.2179  1.5233
    2MPD1    H314065   2.322   2.036  10.505 -2.7158  2.2674  1.0023
    2MPD1     N14066   1.925   1.861  10.642 -0.1606  0.1046  0.0994
    2MPD1    H514067   1.875   1.773  10.644  0.0994 -0.0833 -1.4721
    2MPD1    N114068   2.254   1.591  10.413  0.2111  0.1861 -0.0839
    2MPD1    H614069   2.354   1.576  10.420  0.0683 -0.7215 -0.0143
    2MPD1    H714070   2.206   1.507  10.445 -0.6622 -0.1404 -2.2496
    1TCq1    O114071   1.345   4.239   0.332  0.2549 -0.5476 -0.0915
    1TCq1    C114072   1.295   4.151   0.421 -0.1978  0.0121 -0.4471
    1TCq1    O214073   1.357   4.067   0.483  0.1331  0.0997 -0.6552
    1TCq1    C214074   1.153   4.177   0.441 -0.5616 -0.1271 -0.6442
    1TCq1    C314075   1.113   4.306   0.453  0.3293 -0.4623 -0.4713
    1TCq1    C414076   0.980   4.331   0.472  0.2066  0.3442 -0.7441
    1TCq1    C514077   0.891   4.231   0.492  0.4452 -0.5411  0.1844
    1TCq1    C614078   0.937   4.102   0.465 -0.0385 -0.0641 -0.0577
    1TCq1    C714079   1.070   4.074   0.436  0.0462  0.3038 -0.4322
    1TCq1    C814080   0.837   4.002   0.441 -0.2898 -0.6524 -0.0361
    1TCq1    O414081   0.723   4.051   0.438 -0.0157  0.0481  0.5736
    1TCq1    C914082   0.939   4.464   0.503 -0.4727  0.0134  0.3506
    1TCq1    O514083   1.030   4.541   0.533  0.2958 -0.6257 -0.5828
    1TCq1    O614084   0.817   4.497   0.516 -0.0144  0.7430  0.4118
    1TCq1    H114085   1.269   4.288   0.295 -1.2994 -2.2451  0.8651
    1TCq1    H214086   1.186   4.382   0.478 -0.1994 -0.5506  1.3493
    1TCq1    H314087   0.790   4.247   0.528  0.6054 -0.3841  0.5722
    1TCq1    H414088   1.103   3.972   0.420 -1.9813 -0.2309 -1.2017
    2MPD1     C14089   0.632   3.539   0.391 -0.5608 -0.3899  0.5888
    2MPD1    C114090   0.764   3.519   0.412  0.1149  0.0573  0.5832
    2MPD1    C214091   0.846   3.630   0.417  0.2950  0.0462 -0.3353
    2MPD1    C314092   0.800   3.758   0.395 -0.4958 -0.0020  0.0385
    2MPD1    C414093   0.665   3.776   0.367 -0.0480  0.5880  0.3692
    2MPD1    C514094   0.582   3.666   0.368  0.1665  0.6582 -0.1922
    2MPD1     H14095   0.951   3.602   0.419  0.4764  0.7233 -0.1744
    2MPD1    H114096   0.619   3.870   0.339  0.5668 -0.0830 -2.8149
    2MPD1    H214097   0.568   3.452   0.379 -1.9256  0.3579  2.5430
    2MPD1    H314098   0.476   3.681   0.349  0.2267  0.1929 -0.9392
    2MPD1     N14099   0.880   3.871   0.413  0.1322  0.2635 -0.6335
    2MPD1    H514100   0.974   3.842   0.439 -1.3925 -1.7775  2.5571
    2MPD1    N114101   0.804   3.395   0.463 -0.2974 -0.6246 -0.2065
    2MPD1    H614102   0.749   3.318   0.425 -0.1616  0.3053 -2.2637
    2MPD1    H714103   0.902   3.370   0.458 -0.0918  0.4048 -1.2240
    1MPD1     C14104   3.461   0.966  12.473 -0.5617  0.7984  0.9421
    1MPD1    C114105   3.588   0.926  12.434 -0.6943  0.0486  0.0371
    1MPD1    C214106   3.678   1.018  12.386 -0.6733  0.2007  0.1687
    1MPD1    C314107   3.642   1.147  12.350  0.7109  0.0211 -0.3572
    1MPD1    C414108   3.511   1.173  12.358  0.1550 -0.1771  0.3017
    1MPD1    C514109   3.425   1.089  12.424 -0.2948  0.0274  0.2873
    1MPD1     H14110   3.778   0.984  12.365 -1.4391 -2.5623  0.8507
    1MPD1    H114111   3.475   1.273  12.337  1.0371 -0.0568 -0.5925
    1MPD1    H214112   3.383   0.906  12.517 -1.1374  0.5557 -0.4002
    1MPD1    H314113   3.322   1.122  12.430  1.2437  4.8238  0.3656
    1MPD1     N14114   3.736   1.233  12.291 -0.3933 -0.5002  0.2545
    1MPD1    H514115   3.830   1.195  12.284 -0.1987 -0.3776  2.0908
    1MPD1    N114116   3.629   0.795  12.475 -0.0188 -0.3220 -0.2246
    1MPD1    H614117   3.563   0.718  12.474  1.3309 -1.5640  3.6800
    1MPD1    H714118   3.705   0.762  12.417  0.1884 -0.6159  0.2112
    2MPD1     C14119   3.189   2.241  11.313  0.0979  0.3457  0.1113
    2MPD1    C114120   3.092   2.182  11.236  0.0928  0.3433 -0.3374
    2MPD1    C214121   3.132   2.095  11.136  0.4734 -0.1307 -0.0946
    2MPD1    C314122   3.268   2.091  11.109  0.4157 -0.4833  0.8600
    2MPD1    C414123   3.361   2.150  11.187  0.1239 -0.0639  0.4913
    2MPD1    C514124   3.326   2.223  11.295  0.4363  0.2709  0.7415
    2MPD1     H14125   3.061   2.045  11.071  1.4927 -0.3638 -1.0286
    2MPD1    H114126   3.466   2.134  11.163  0.6514  2.2785  1.2077
    2MPD1    H214127   3.159   2.291  11.404 -0.9709  0.8848 -0.5432
    2MPD1    H314128   3.397   2.268  11.363 -0.9972  2.6936  0.6605
    2MPD1     N14129   3.319   2.017  10.997 -0.4520 -0.2247  1.2776
    2MPD1    H514130   3.420   2.017  10.994 -0.5042  1.0715 -0.1608
    2MPD1    N114131   2.957   2.189  11.270  0.4828  0.1981  0.3274
    2MPD1    H614132   2.928   2.282  11.296 -1.4848 -0.0117 -1.1244
    2MPD1    H714133   2.910   2.145  11.191 -1.3087 -0.9297  2.0109
    3MPD1     C14134   3.109   1.320  10.236 -0.3411  0.7587 -0.3256
    3MPD1    C114135   3.044   1.348  10.354 -0.6091 -0.4435  0.1467
    3MPD1    C214136   3.102   1.428  10.447  0.0912 -0.2551  0.1560
    3MPD1    C314137   3.224   1.491  10.432  0.3313  0.0034 -0.4848
    3MPD1    C414138   3.293   1.452  10.317 -0.3586  0.7605  0.4096
    3MPD1    C514139   3.236   1.366  10.223 -0.1040 -0.3310 -0.3939
    3MPD1     H14140   3.044   1.444  10.537  0.0840 -2.2109  0.5015
    3MPD1    H114141   3.386   1.502  10.292 -0.6765  1.2648  0.2399
    3MPD1    H214142   3.075   1.253  10.158  2.7446 -1.3228  0.0822
    3MPD1    H314143   3.293   1.356  10.131 -3.2459 -0.0244 -2.3869
    3MPD1     N14144   3.269   1.585  10.527  0.8850  0.0210  1.0074
    3MPD1    H514145   3.200   1.599  10.600 -0.7860 -0.8341 -0.4131
    3MPD1    N114146   2.912   1.289  10.370 -0.3612  0.4976  0.1508
    3MPD1    H614147   2.909   1.253  10.465  2.2660 -0.4112 -0.0942
    3MPD1    H714148   2.887   1.222  10.297  0.0055  1.4823 -0.8732
    4MPD2     C14149   3.949   2.008  12.091  0.1422  0.2980 -0.0981
    4MPD2    C114150   3.967   1.878  12.048  0.0895  0.4622  0.3029
    4MPD2    C214151   3.975   1.853  11.911 -0.4317 -0.0139 -0.5884
    4MPD2    C314152   3.961   1.954  11.820 -0.1436  0.2779  0.1598
    4MPD2    C414153   3.950   2.081  11.866  0.4050 -0.0135  0.2289
    4MPD2    C514154   3.950   2.113  11.998 -0.2817 -0.1894  0.2250
    4MPD2     H14155   3.997   1.750  11.886  0.6054  0.2908 -0.9500
    4MPD2    H114156   3.942   2.163  11.794 -0.6995  0.2745  0.6684
    4MPD2    H214157   3.926   2.031  12.194  3.3867  0.8448  0.5185
    4MPD2    H314158   3.936   2.218  12.020 -1.7099 -0.2663 -0.3029
    4MPD2     N14159   3.978   1.910  11.688  0.1585 -0.6141 -0.1525
    4MPD2    H514160   3.973   1.810  11.675 -0.3996 -0.4230 -1.4354
    4MPD2    N114161   3.986   1.763  12.125 -0.3094  0.5415  0.5741
    4MPD2    H714162   4.032   1.688  12.074 -0.9166 -1.3281  2.7834
    5TMC3    C114163   3.983   1.612  12.297 -0.0606 -0.5228  0.2304
    5TMC3    C214164   3.858   1.549  12.303 -0.9538  0.3243 -0.5190
    5TMC3    C314165   3.847   1.427  12.247 -0.8247  0.0575  0.2788
    5TMC3    C414166   4.078   1.548  12.221  0.7030 -0.6637 -0.1934
    5TMC3    C514167   4.058   1.420  12.161  0.4933  0.0060  0.8113
    5TMC3    C614168   3.935   1.358  12.171  0.9345  0.2768 -0.1225
    5TMC3     C14169   3.956   1.749  12.259  0.1162 -0.2222  0.2165
    5TMC3     O14170   3.885   1.815  12.329 -0.0915  0.1224 -0.6512
    5TMC3     H14171   3.782   1.588  12.370  1.4512  0.6261  2.0355
    5TMC3    H114172   4.174   1.597  12.208 -1.1435  3.0896  0.3296
    5TMC3    H214173   3.904   1.270  12.115 -0.0597 -0.4556  1.5538
    5TMC3    C714174   4.099   1.430  12.025 -0.3895  0.4150 -0.2720
    5TMC3    C814175   3.719   1.364  12.280  0.6596 -0.1434  0.2843
    5TMC3    O114176   4.119   1.546  11.993  0.2034 -0.1455 -0.1373
    5TMC3    O214177   3.623   1.432  12.309 -0.3344 -0.4947 -0.2712
    6TMC3    C114178   3.349   1.846  10.844 -0.6616  0.2283 -0.4804
    6TMC3    C214179   3.318   1.794  10.722 -0.2243  0.9569  1.0002
    6TMC3    C314180   3.419   1.738  10.645  1.0190 -0.1093 -0.3642
    6TMC3    C414181   3.481   1.835  10.892 -0.2998  0.2845 -0.0155
    6TMC3    C514182   3.580   1.796  10.806 -0.0181 -0.3737 -0.7372
    6TMC3    C614183   3.555   1.739  10.686  0.4811 -0.5066 -0.4574
    6TMC3     C14184   3.252   1.940  10.898  0.0424  0.4036  0.1248
    6TMC3     O14185   3.134   1.937  10.864  0.0406  0.3192 -0.8381
    6TMC3     H14186   3.217   1.785  10.685  0.7177  1.1475 -1.5846
    6TMC3    H114187   3.509   1.877  10.988  0.7510 -1.0819  0.2658
    6TMC3    H214188   3.636   1.682  10.641 -0.5532 -2.6256  0.4101
    6TMC3    C714189   3.707   1.769  10.863  0.0978  0.7255  0.5159
    6TMC3    C814190   3.394   1.644  10.532 -0.4691  0.8876 -0.1248
    6TMC3    O114191   3.708   1.736  10.979  0.0679  0.0668 -0.0983
    6TMC3    O214192   3.491   1.633  10.464 -0.2385  0.4458 -0.0281
    7MPD2     C14193   4.154   1.248  11.556 -0.5386  0.4498  0.2543
    7MPD2    C114194   4.124   1.376  11.595 -0.1901  0.3588  0.8347
    7MPD2    C214195   4.140   1.404  11.731  0.1285  0.3625 -0.5799
    7MPD2    C314196   4.147   1.295  11.820 -0.1726 -0.3897 -0.0480
    7MPD2    C414197   4.169   1.168  11.775 -0.4775 -0.0786 -0.3325
    7MPD2    C514198   4.192   1.148  11.642  0.3818  0.4806  0.1009
    7MPD2     H14199   4.125   1.505  11.765 -3.3331  0.6034 -2.8193
    7MPD2    H114200   4.182   1.082  11.840 -1.4924 -1.3600 -1.8055
    7MPD2    H214201   4.172   1.229  11.450  0.5352 -0.2098  0.5560
    7MPD2    H314202   4.221   1.051  11.604  1.9385  1.6034 -1.5665
    7MPD2     N14203   4.125   1.312  11.963  0.3233  0.3391 -0.1520
    7MPD2    H514204   4.122   1.220  12.006 -0.2523 -0.5168 -1.9925
    7MPD2    N114205   4.091   1.485  11.505  0.1261  0.3053  0.2396
    7MPD2    H714206   4.111   1.472  11.406 -1.6330  1.4482 -0.2460
    8TMC3    C114207   4.021   1.691  11.433  0.1889 -1.1846 -0.3713
    8TMC3    C214208   4.138   1.699  11.361 -0.4683  0.1990  0.0369
    8TMC3    C314209   4.181   1.827  11.337  0.0695 -0.4477 -0.0117
    8TMC3    C414210   3.957   1.799  11.475  0.1049 -0.3973  0.7955
    8TMC3    C514211   4.009   1.921  11.462 -0.2106  0.5072  0.1002
    8TMC3    C614212   4.124   1.937  11.390  0.7738  0.0740 -0.4609
    8TMC3     C14213   4.026   1.595  11.542  0.4547 -0.2064  0.1564
    8TMC3     O14214   3.979   1.623  11.648  0.2641 -0.1409  0.4168
    8TMC3     H14215   4.207   1.619  11.341 -1.0318  0.1577 -1.7806
    8TMC3    H114216   3.855   1.790  11.512 -0.2367  0.9898  0.1855
    8TMC3    H214217   4.162   2.034  11.362  1.4011 -0.0272  0.0486
    8TMC3    C714218   4.002   1.999  11.581  0.2247  0.3890 -0.1989
    8TMC3    C814219   4.227   1.848  11.200 -0.4248 -0.4187 -0.1753
    8TMC3    O114220   4.054   2.112  11.575 -0.3677 -0.1649  0.6143
    8TMC3    O214221   4.286   1.953  11.171 -0.1028 -0.6520  0.7883
    9MPD2     C14222   4.194   1.915  10.903 -0.2695 -0.4106 -0.2218
    9MPD2    C114223   4.125   1.817  10.973 -0.0532 -0.2003 -0.3430
    9MPD2    C214224   3.998   1.795  10.934 -0.1410  0.4177 -0.0276
    9MPD2    C314225   3.940   1.843  10.819 -0.2622  0.4918  0.3286
    9MPD2    C414226   4.021   1.920  10.741 -0.1914 -0.4555 -0.2580
    9MPD2    C514227   4.149   1.950  10.777  0.9100 -0.7247 -0.2606
    9MPD2     H14228   3.943   1.722  10.992  0.7199 -0.7211 -0.6462
    9MPD2    H114229   3.986   1.947  10.642 -0.3288 -2.2524 -0.7110
    9MPD2    H214230   4.296   1.944  10.927 -0.7257 -0.5729  1.9058
    9MPD2    H314231   4.213   2.017  10.721  0.2254 -0.1742 -0.3912
    9MPD2     N14232   3.804   1.824  10.779  0.0746 -0.0885 -0.0669
    9MPD2    H514233   3.780   1.868  10.691 -3.5574 -0.3063  0.8192
    9MPD2    N114234   4.146   1.779  11.114 -0.1029 -0.2449 -0.2267
    9MPD2    H714235   4.091   1.702  11.153  1.7019 -1.8161 -0.7649
    1MPD1     C14236   3.897   0.252   0.249  0.1109  0.0020 -0.5053
    1MPD1    C114237   3.777   0.241   0.183  0.4975 -0.3465  0.1970
    1MPD1    C214238   3.685   0.337   0.215 -0.3648  0.5606 -0.0038
    1MPD1    C314239   3.710   0.447   0.289 -0.2772 -0.1882  0.3251
    1MPD1    C414240   3.843   0.466   0.337  0.0033 -0.7661  1.0206
    1MPD1    C514241   3.929   0.368   0.317  0.3909  0.0430  0.2342
    1MPD1     H14242   3.584   0.305   0.189 -0.9425  1.3682  1.2494
    1MPD1    H114243   3.864   0.550   0.402 -0.3447 -0.5404  0.8456
    1MPD1    H214244   3.973   0.175   0.240 -1.0080 -0.9949 -1.3597
    1MPD1    H314245   4.021   0.384   0.371 -1.0114  0.7500  2.4072
    1MPD1     N14246   3.616   0.547   0.310 -0.4892 -0.4053 -0.2768
    1MPD1    H514247   3.628   0.618   0.382  1.0916 -1.7112  0.7530
    1MPD1    N114248   3.744   0.121   0.118 -1.1370  0.1123  0.3978
    1MPD1    H614249   3.671   0.138   0.049 -2.7490 -1.3172  1.7671
    1MPD1    H714250   3.829   0.084   0.074 -0.8437  0.8716  0.3342
    2MPD1     C14251   3.620   1.000   1.010 -0.2303 -0.2152 -0.1372
    2MPD1    C114252   3.705   0.921   0.934 -0.5861  0.7074  0.3386
    2MPD1    C214253   3.661   0.870   0.818 -0.0908  1.0977  0.3443
    2MPD1    C314254   3.531   0.900   0.764  0.1876 -0.4944 -0.2901
    2MPD1    C414255   3.451   0.988   0.833 -0.4299 -0.0172  1.3522
    2MPD1    C514256   3.495   1.029   0.954  0.1176 -0.2297  0.2159
    2MPD1     H14257   3.722   0.797   0.767 -1.5243 -0.0639  0.2957
    2MPD1    H114258   3.354   1.022   0.801  0.6268  0.0719 -1.7701
    2MPD1    H214259   3.633   1.039   1.110 -0.9249  0.7776 -0.4290
    2MPD1    H314260   3.434   1.094   1.016 -0.8238 -1.6667  0.7964
    2MPD1     N14261   3.482   0.834   0.651  0.2273 -0.1173 -0.3033
    2MPD1    H514262   3.543   0.765   0.608 -1.9724 -1.7053 -0.8603
    2MPD1    N114263   3.832   0.893   0.986  0.5719  0.5029 -0.3388
    2MPD1    H614264   3.875   0.810   0.946 -1.7911 -0.6718 -0.4578
    2MPD1    H714265   3.829   0.894   1.088  1.8576  1.2675 -0.3113
    3TCq2    C114266   3.360   0.858   0.591 -0.6273 -0.1381  0.2180
    3TCq2    O214267   3.270   0.930   0.632  1.0099  0.0420  0.1441
    3TCq2    C214268   3.344   0.813   0.458 -0.7485 -0.1008 -0.1154
    3TCq2    C314269   3.246   0.870   0.382  0.9508  0.5296 -0.3724
    3TCq2    C414270   3.231   0.816   0.253 -0.0667 -0.9202 -0.3692
    3TCq2    C514271   3.312   0.717   0.213 -0.4347  0.1509 -0.6108
    3TCq2    C614272   3.405   0.659   0.294 -0.6212  0.0013  0.3208
    3TCq2    C714273   3.425   0.706   0.417  0.6061 -0.1305 -0.2435
    3TCq2    C814274   3.498   0.563   0.232 -0.3463 -0.0509 -0.8056
    3TCq2    O414275   3.462   0.511   0.127  0.1882 -0.5503 -0.2773
    3TCq2    C914276   3.141   0.888   0.155 -0.4997 -0.4351  0.2441
    3TCq2    O514277   3.137   0.832   0.043 -0.1933 -0.3565 -0.5715
    3TCq2    O614278   3.075   0.986   0.201 -0.2968  0.0332  0.1960
    3TCq2    H214279   3.195   0.955   0.426  0.0421 -0.5110  0.5945
    3TCq2    H314280   3.314   0.697   0.106 -1.0760  0.2449 -0.6375
    3TCq2    H414281   3.479   0.646   0.489  0.0241 -0.2842  0.0714
    1TCq1    O114282   0.703   4.678  12.706  0.0955 -0.1283  0.3121
    1TCq1    C114283   0.724   4.589  12.610  0.7494  0.0798 -1.9568
    1TCq1    O214284   0.754   4.624  12.494  0.4333 -0.4118 -0.1501
    1TCq1    C214285   0.800   4.495  12.686 -0.3552  0.0995 -0.1046
    1TCq1    C314286   0.741   4.417  12.775  0.1522 -0.2346  0.6535
    1TCq1    C414287   0.818   4.334  12.847 -0.3733 -0.4423 -0.0678
    1TCq1    C514288   0.952   4.323  12.820  0.5393 -0.5669  0.0814
    1TCq1    C614289   1.010   4.402  12.727 -0.3958 -0.1300  0.5572
    1TCq1    C714290   0.931   4.489  12.656 -0.2242  0.2960  0.1688
    1TCq1    C814291   1.149   4.430  12.727 -0.0102 -0.2002 -0.4385
    1TCq1    O414292   1.189   4.458  12.618  0.6949  0.5390  0.3925
    1TCq1    C914293   0.748   4.246  12.936  0.5406  0.2343  0.1944
    1TCq1    O514294   0.820   4.187  13.025  0.2010 -0.0294 -0.3407
    1TCq1    O614295   0.618   4.237  12.944  0.1557  0.0408 -0.2940
    1TCq1    H114296   0.736   4.664  12.797  0.0111  0.1893  0.3916
    1TCq1    H214297   0.636   4.429  12.796  0.3668 -2.1713  2.8533
    1TCq1    H314298   1.007   4.242  12.868  0.6248 -0.1823  0.6314
    1TCq1    H414299   0.978   4.572  12.604  1.6650 -0.8127  0.1230
    2MPD2     C14300   1.442   4.404  12.747 -0.3653  0.6484  0.7221
    2MPD2    C114301   1.355   4.402  12.856 -0.3795 -0.1545  0.2734
    2MPD2    C214302   1.413   4.395  12.981  0.0144 -0.4167 -0.2547
    2MPD2    C314303   1.554   4.402  13.001 -0.9776 -0.1537 -0.0576
    2MPD2    C414304   1.633   4.406  12.885 -0.3958  1.1810 -0.3721
    2MPD2    C514305   1.580   4.404  12.763 -0.5359 -0.3802  0.0933
    2MPD2     H14306   1.351   4.388  13.070  2.4806 -1.2410  1.3934
    2MPD2    H114307   1.741   4.402  12.893 -0.2901  2.0539 -1.5170
    2MPD2    H214308   1.413   4.401  12.642  1.1771  0.1464  0.3057
    2MPD2    H314309   1.645   4.406  12.676 -0.9868 -1.9186 -0.2759
    2MPD2     N14310   1.612   4.388  13.122 -1.0328 -0.2243  0.2907
    2MPD2    H514311   1.545   4.370  13.196 -0.0184 -0.5014  1.1355
    2MPD2    N114312   1.214   4.401  12.844 -0.2811 -0.3117 -0.6000
    2MPD2    H714313   1.166   4.396  12.934  1.2881 -0.0543  0.2634
    3TCq1    O114314   1.744   4.585  13.655  0.2061 -0.5916  0.6714
    3TCq1    C114315   1.642   4.512  13.606 -0.4445 -0.4836 -0.5124
    3TCq1    O214316   1.523   4.530  13.623  0.5096  0.4223  0.4414
    3TCq1    C214317   1.709   4.414  13.515 -0.1189 -0.2904 -0.6179
    3TCq1    C314318   1.835   4.375  13.550  0.2195  0.2957 -0.5135
    3TCq1    C414319   1.916   4.317  13.460  0.5978 -0.3598 -0.1239
    3TCq1    C514320   1.878   4.306  13.330 -1.0525  0.5549  0.1772
    3TCq1    C614321   1.752   4.356  13.297  0.1201  0.4048  0.6344
    3TCq1    C714322   1.659   4.400  13.389 -0.0688  0.2124  0.6008
    3TCq1    C814323   1.742   4.391  13.159  0.2074  0.0013 -0.0577
    3TCq1    O414324   1.842   4.378  13.087  0.6109 -0.5652  0.1005
    3TCq1    C914325   2.042   4.270  13.510  0.8248 -0.2271  0.5029
    3TCq1    O514326   2.068   4.270  13.637  0.1680 -0.0412  0.1679
    3TCq1    O614327   2.130   4.251  13.422 -0.1159 -0.6738 -0.1063
    3TCq1    H114328   1.827   4.567  13.604  0.9411  1.7541  1.0256
    3TCq1    H214329   1.863   4.371  13.655 -0.9763 -0.5153 -0.2226
    3TCq1    H314330   1.942   4.268  13.252 -0.6623 -1.7599  1.6298
    3TCq1    H414331   1.566   4.451  13.366 -0.9219 -1.7428 -0.2692
    1MPD2     C14332   1.524   1.259  14.616 -0.1254  0.2445 -0.3971
    1MPD2    C114333   1.397   1.213  14.650 -0.6064  0.3190  0.6550
    1MPD2    C214334   1.370   1.083  14.618 -0.0787 -0.0644 -0.1702
    1MPD2    C314335   1.460   0.996  14.561  0.4744  1.4065 -0.3835
    1MPD2    C414336   1.584   1.053  14.523  0.3387  0.0056 -0.7834
    1MPD2    C514337   1.617   1.182  14.561  0.0062 -0.3829 -0.0924
    1MPD2     H14338   1.274   1.044  14.649 -0.1073  0.3165  0.2211
    1MPD2    H114339   1.653   0.998  14.460 -1.4930 -0.4311 -2.4114
    1MPD2    H214340   1.544   1.363  14.641  0.6531  0.2194 -0.9091
    1MPD2    H314341   1.720   1.212  14.548  0.4386 -1.3615  1.0787
    1MPD2     N14342   1.418   0.865  14.526 -0.4144  0.5200 -0.0742
    1MPD2    H514343   1.484   0.790  14.505 -3.4087 -2.4638  1.0342
    1MPD2    N114344   1.308   1.306  14.717  0.5059 -0.4367  0.0817
    1MPD2    H714345   1.335   1.403  14.715  2.3337 -0.9703 -1.0191
    2TMC3    C114346   1.113   1.365  14.829 -0.4834 -0.8059  1.1594
    2TMC3    C214347   1.018   1.319  14.918  0.1059  0.5396  0.3619
    2TMC3    C314348   0.888   1.359  14.913  0.3192 -0.4285  0.0910
    2TMC3    C414349   1.094   1.486  14.760  0.5791 -0.4802  0.3682
    2TMC3    C514350   0.965   1.528  14.761 -0.4417  0.2019  0.7312
    2TMC3    C614351   0.861   1.470  14.833  0.0804 -0.0532  0.7163
    2TMC3     C14352   1.192   1.261  14.774 -0.0193  0.4707 -0.1191
    2TMC3     O14353   1.160   1.145  14.802  0.6536 -0.0731  0.2529
    2TMC3     H14354   1.041   1.229  14.974 -1.4054  0.0345  0.1745
    2TMC3    H114355   1.172   1.532  14.699 -1.5646  1.2373 -1.0960
    2TMC3    H214356   0.765   1.515  14.809 -0.1019 -1.6040 -1.4973
    2TMC3    C714357   0.931   1.629  14.662 -0.2799  0.5185  0.0781
    2TMC3    C814358   0.792   1.252  14.910  0.1534  0.0795 -0.5088
    2TMC3    O114359   0.820   1.624  14.609  0.5837 -0.2200  0.0511
    2TMC3    O214360   0.676   1.275  14.928 -0.3580 -0.1600 -0.3329
    3TCq1    O114361   1.568   2.649  14.238  0.6540 -0.3390  0.3603
    3TCq1    C114362   1.546   2.531  14.171 -0.8064 -0.3964  0.4082
    3TCq1    O214363   1.506   2.530  14.054  0.0233 -0.1510 -0.3351
    3TCq1    C214364   1.529   2.432  14.275  0.3714  0.0441 -0.4819
    3TCq1    C314365   1.613   2.414  14.384 -0.7170 -0.9715  0.3619
    3TCq1    C414366   1.573   2.320  14.475 -0.2152  0.1481 -0.2485
    3TCq1    C514367   1.473   2.234  14.458  0.4346  0.3262  0.1588
    3TCq1    C614368   1.401   2.247  14.345 -0.2569 -0.3045 -0.2930
    3TCq1    C714369   1.428   2.348  14.257 -0.6294 -0.1098 -0.3528
    3TCq1    C814370   1.287   2.170  14.312  0.6558  0.1116  0.0631
    3TCq1    O414371   1.234   2.189  14.204  0.3604 -0.4734 -0.1254
    3TCq1    C914372   1.666   2.278  14.581 -0.1639 -0.0162  0.1571
    3TCq1    O514373   1.647   2.173  14.657 -0.6701  0.0782 -0.4924
    3TCq1    O614374   1.780   2.323  14.566  0.1813  0.1640 -0.2242
    3TCq1    H114375   1.592   2.632  14.332 -0.8192 -4.3500  0.0207
    3TCq1    H214376   1.712   2.457  14.386 -0.6173 -1.3323  2.5915
    3TCq1    H314377   1.452   2.152  14.526 -1.1326 -1.2020 -2.1267
    3TCq1    H414378   1.375   2.364  14.163  1.0045  0.3962 -1.1827
    4MPD2     C14379   1.049   2.006  14.329 -0.0266  0.5101  0.4306
    4MPD2    C114380   1.145   1.998  14.423 -0.0975 -0.2106  0.0740
    4MPD2    C214381   1.138   1.911  14.532  0.2145 -0.0851 -0.1469
    4MPD2    C314382   1.029   1.820  14.542 -0.2390 -0.0501 -0.2187
    4MPD2    C414383   0.939   1.817  14.434  0.8833  0.3271 -0.0441
    4MPD2    C514384   0.947   1.913  14.333  0.1772  0.0079  1.0549
    4MPD2     H14385   1.220   1.916  14.603  1.0222  0.3344 -1.1012
    4MPD2    H114386   0.861   1.745  14.414  1.2887 -0.0687 -0.1953
    4MPD2    H214387   1.055   2.075  14.246  0.4046 -0.9221 -0.7276
    4MPD2    H314388   0.883   1.910  14.246  0.3151  0.2614  0.9460
    4MPD2     N14389   1.026   1.728  14.652 -0.0073  0.0075  0.3022
    4MPD2    H514390   1.103   1.729  14.719 -0.2177 -0.5226  0.5529
    4MPD2    N114391   1.258   2.089  14.419  0.0769  0.0233  0.5551
    4MPD2    H714392   1.323   2.075  14.496 -0.3054  0.9181  1.0394
    5TMC2    C114393   1.100   0.562  14.662  0.1455 -0.5997  0.1655
    5TMC2    C214394   1.188   0.505  14.748 -0.4378 -0.3449  0.5356
    5TMC2    C314395   1.316   0.547  14.733  0.2060  0.2209 -0.6789
    5TMC2    C414396   1.145   0.638  14.558 -0.2566 -0.2151  0.5970
    5TMC2    C514397   1.274   0.678  14.551  0.2057  0.3073 -0.5015
    5TMC2    C614398   1.371   0.622  14.636  0.8491  0.1351 -0.2984
    5TMC2     C14399   1.023   0.663  14.742 -0.3516 -0.1447 -0.3691
    5TMC2     O14400   1.088   0.709  14.838 -0.0892  0.4282 -0.4850
    5TMC2     H14401   1.153   0.446  14.832 -0.0374 -1.1587  0.1269
    5TMC2    H114402   1.071   0.682  14.492  0.7667  0.1717 -0.2915
    5TMC2    H214403   1.473   0.657  14.649  0.9648 -0.5945  0.7988
    5TMC2    C714404   1.284   0.824  14.531  0.1990 -0.4675  0.3852
    5TMC2    C814405   1.406   0.515  14.848  0.5638  0.5056 -0.8049
    5TMC2    O114406   1.177   0.887  14.531  0.2926 -0.0884  0.3524
    5TMC2    O214407   1.359   0.503  14.958 -0.9276  0.2995  0.3103
    5TMC2    O514408   1.525   0.466  14.801 -0.0860  0.1911 -0.2142
    5TMC2    H514409   1.544   0.458  14.705  1.1037 -0.2384  0.0640
    6MPD2     C14410   0.654   1.001  14.811 -0.6332 -0.1867  0.1977
    6MPD2    C114411   0.790   1.015  14.837  0.0775 -0.8718  0.2497
    6MPD2    C214412   0.867   0.901  14.804 -0.7524  0.0388 -1.3031
    6MPD2    C314413   0.818   0.797  14.736 -1.1461  0.9306 -0.4161
    6MPD2    C414414   0.690   0.793  14.690  0.1292 -0.3950 -0.0097
    6MPD2    C514415   0.609   0.893  14.737 -0.6961  0.1189  0.5235
    6MPD2     H14416   0.974   0.904  14.821 -1.1543  1.8975  0.8886
    6MPD2    H114417   0.642   0.710  14.640 -0.6225  0.9616 -1.5066
    6MPD2    H214418   0.586   1.075  14.851  0.7533  0.7733  0.7606
    6MPD2    H314419   0.503   0.890  14.715 -0.4503 -1.6255 -0.4156
    6MPD2     N14420   0.897   0.694  14.691  0.0053 -0.0605  0.0596
    6MPD2    H514421   0.851   0.636  14.621 -0.6559  0.8181 -0.2349
    6MPD2    N114422   0.853   1.134  14.884  0.5404  0.2899 -0.0024
    6MPD2    H714423   0.953   1.132  14.868  0.5483  1.7133 -0.0819
  945NH4     N114424   3.425   4.415  10.937 -0.2880 -0.1502 -0.2794
  945NH4     H214425   3.436   4.326  10.989  2.8106  0.2722 -0.2160
  945NH4     H314426   3.478   4.412  10.847  0.7208  1.5749  0.2619
  945NH4     H414427   3.471   4.491  10.991 -1.3268  0.5209 -0.3416
  945NH4     H514428   3.324   4.440  10.931 -0.3465 -0.3612 -0.1462
  946SOD     NA14429   0.797   4.030   9.879  0.1402 -0.3773  0.4951
  947SOD     NA14430   3.865   2.754  15.398 -0.2022  0.0539 -0.0446
  948SOD     NA14431   3.868   4.592   7.786  0.5910 -0.4413 -0.3492
  949SOD     NA14432   3.166   0.656   1.175 -0.6289  0.0504  0.1402
  950SOD     NA14433   2.606   1.839   4.675  0.4978 -0.2049 -0.2554
  951SOD     NA14434   1.507   2.619   1.850  0.3500 -0.1361 -0.2629
  952SOD     NA14435   1.226   3.704   8.490  0.1635 -0.1843 -0.1001
  953SOD     NA14436   4.554   3.184   6.737 -0.3298  0.5394 -0.6742
  954SOD     NA14437   3.938   0.330  16.080  0.1006 -0.2006 -0.3619
  955SOD     NA14438   4.289   2.899   8.727 -0.0044 -0.1059 -0.0327
  956SOD     NA14439   2.792   3.939  15.320  0.1410 -0.3042 -0.2855
  957SOD     NA14440   2.439   1.090  12.275 -0.4635  0.2850  0.3012
  958SOD     NA14441   3.466   0.968  13.706  0.2628  0.4507 -0.3144
  959SOD     NA14442   2.283   4.438  13.035  0.1207  0.0007  0.3016
  960SOD     NA14443   1.633   0.187  12.329 -0.4985 -0.1695 -0.1628
  961SOD     NA14444   3.720   3.979   0.802  0.4699  0.2571  0.0499
  962SOD     NA14445   3.328   4.254   1.077 -0.0319  0.1558 -0.3002
  963SOD     NA14446   0.243   3.168   6.324 -0.1973 -0.1542  0.2199
  964SOD     NA14447   2.260   0.040  11.746  0.9278  0.0320 -0.4721
  965SOD     NA14448   2.479   2.261  11.022  0.2224 -0.0183 -0.3121
  966SOD     NA14449   0.719   0.842  10.360 -0.3030  0.3255 -0.2879
  967SOD     NA14450   3.704   3.990  14.128 -0.1076  0.6533 -0.0547
  968SOD     NA14451   1.680   3.828   2.806 -0.0144 -0.0566  0.0526
  969SOD     NA14452   1.216   0.714  15.311  0.3740 -0.0904  0.5776
  970SOD     NA14453   1.295   1.587  11.040 -0.0572 -0.0003 -0.2298
  971SOD     NA14454   1.461   0.871  10.069  0.2432 -0.0411 -0.6767
  972SOD     NA14455   3.749   3.999  13.042 -0.2774  0.1838  0.1835
  973SOD     NA14456   2.821   3.260   3.307 -0.1491  0.5251 -0.0793
  974SOD     NA14457   3.470   2.311   7.560 -0.2484 -0.3672 -0.3204
  975SOD     NA14458   1.026   2.617  12.125  0.2916  0.0875  0.0761
  976SOD     NA14459   2.370   4.469  11.661  0.0970 -0.0401 -0.5994
  977SOD     NA14460   0.933   4.327   3.234  0.3636 -0.5472 -0.5241
  978SOD     NA14461   1.526   1.091  17.585  0.2487 -0.0839  0.0265
  979SOD     NA14462   2.057   4.253  11.341  0.5283  0.6375  0.2812
  980SOD     NA14463   3.652   1.256  15.410 -0.2213 -0.5342  0.1204
  981SOD     NA14464   2.235   0.898   1.813 -0.1624  0.1715  0.3070
  982SOD     NA14465   3.158   0.524  10.750 -0.4160  0.4535 -0.3451
  983SOD     NA14466   0.537   0.453   9.925  0.0889  0.3841  0.2858
  984SOD     NA14467   3.237   1.059  15.025 -0.0703  0.4680 -0.4275
  985SOD     NA14468   0.903   4.668   0.647 -0.3268 -0.0299 -0.1027
  986SOD     NA14469   0.744   3.758  13.182  0.3625  0.0745  0.4918
  987SOD     NA14470   1.897   3.141  10.537  0.1627  0.0467  0.5586
  988SOD     NA14471   2.604   3.740  16.980 -0.2212 -0.1636 -0.3736
  989SOD     NA14472   1.434   4.407   1.512  0.0855 -0.3930  0.1540
  990SOD     NA14473   0.665   3.238  11.463  0.3354 -0.0818  0.0568
  991SOD     NA14474   2.545   4.447  11.976 -0.1501 -0.1727 -0.2882
  992SOD     NA14475   4.029   0.806  12.709  0.2604  0.0885 -0.3497
  993SOD     NA14476   1.835   2.033  14.651 -0.4358 -0.3819 -0.4901
  994SOD     NA14477   0.025   2.510  13.397  0.8756  0.2009 -0.4388
  995SOD     NA14478   1.714   3.760   0.754  0.0777  0.0825 -0.2463
  996SOD     NA14479   3.575   0.558  15.625 -0.1203  0.2802 -0.6091
  997SOD     NA14480   1.151   3.291  10.206  0.4783  0.1905  0.2559
  998SOD     NA14481   2.304   4.011  10.736  0.0685 -0.7617  0.1851
  999SOD     NA14482   1.352   4.454   8.735  0.2087  0.3872 -0.1031
 1000SOD     NA14483   2.077   4.689   0.553  0.1154 -0.5255  0.1446
 1001SOD     NA14484   2.735   2.678  14.686  0.3489  0.6839  0.6895
 1002SOD     NA14485   1.298   3.627  10.138  0.3091 -0.0996  0.0792
 1003SOD     NA14486   3.589   4.088   1.087  0.1881 -0.3423  0.0011
 1004SOD     NA14487   0.917   4.056  15.672 -0.1486  0.6161 -0.3110
 1005SOD     NA14488   2.978   4.625  14.677 -0.1756  0.5288 -0.1369
 1006SOD     NA14489   1.801   3.713  12.027  0.2798  0.0755 -0.6388
 1007SOD     NA14490   0.896   3.399  10.364  0.5269  0.0875 -0.0967
 1008SOD     NA14491   2.161   4.596   0.250 -0.2870 -0.0488  0.2106
 1009SOD     NA14492   1.329   2.747  12.122  0.0031 -0.1431 -0.3562
 1010SOD     NA14493   4.463   2.326   0.943 -0.3748  0.0563 -0.4182
 1011SOL     OW14494   4.403   0.089   1.614 -0.1608 -0.1594  0.7248
 1011SOL    HW114495   4.460   0.118   1.685  0.4478 -0.5435  0.3896
 1011SOL    HW214496   4.318   0.122   1.642  0.5727  2.6913 -0.3935
 1012SOL     OW14497   4.463   2.490   1.289 -0.2568 -0.2909 -0.7127
 1012SOL    HW114498   4.384   2.531   1.253  0.7582 -0.3851 -2.9789
 1012SOL    HW214499   4.521   2.471   1.216 -0.9298  0.9591 -1.5701
 1013SOL     OW14500   2.354   0.085  12.208  0.2556  0.6750 -0.5442
 1013SOL    HW114501   2.302   0.026  12.263 -0.1433  2.7717  1.3421
 1013SOL    HW214502   2.434   0.095  12.260 -0.3491  2.7585  0.0074
 1014SOL     OW14503   1.960   2.627   3.526  0.7201 -0.6623 -0.7507
 1014SOL    HW114504   1.962   2.718   3.499 -0.0824  0.2393  2.2432
 1014SOL    HW214505   1.876   2.607   3.485  1.4388 -0.1363 -2.4596
 1015SOL     OW14506   4.545   3.501   4.512  0.6649 -0.1027 -0.1786
 1015SOL    HW114507   4.580   3.433   4.569 -3.5067 -0.5631  1.8046
 1015SOL    HW214508   4.494   3.555   4.573  1.6187  1.5418 -0.8521
 1016SOL     OW14509   4.082   0.197   8.732 -0.3367 -0.3161 -0.0913
 1016SOL    HW114510   4.125   0.260   8.788 -0.6505  1.9421 -2.4011
 1016SOL    HW214511   4.009   0.169   8.788  1.5180  0.6060  2.7165
 1017SOL     OW14512   1.043   2.606   0.894  0.2938 -0.3189 -0.0926
 1017SOL    HW114513   0.974   2.620   0.829  2.3511  0.6607 -2.0435
 1017SOL    HW214514   1.026   2.512   0.902 -0.3920 -0.1599  0.3375
 1018SOL     OW14515   2.326   0.084  13.910 -0.8806 -0.7173 -0.4697
 1018SOL    HW114516   2.259   0.130  13.858  0.0805 -0.8649 -1.8585
 1018SOL    HW214517   2.344   0.145  13.982  3.0634  0.1158 -2.1058
 1019SOL     OW14518   2.232   3.317   4.437  0.2061  0.3007 -0.9511
 1019SOL    HW114519   2.326   3.327   4.446  0.1911  0.3614 -0.8577
 1019SOL    HW214520   2.217   3.410   4.456 -1.2293  0.1029 -1.1216
 1020SOL     OW14521   3.233   4.533   5.363 -0.0977  0.3826  0.4571
 1020SOL    HW114522   3.311   4.504   5.316 -0.3099 -2.3097  1.8127
 1020SOL    HW214523   3.189   4.588   5.299  0.3259 -0.0246 -0.1787
 1021SOL     OW14524   3.908   4.076   9.588  0.3039 -0.0875  0.2744
 1021SOL    HW114525   3.831   4.066   9.644 -0.2795  1.3842 -0.2812
 1021SOL    HW214526   3.972   4.096   9.656 -0.7748 -1.3988  1.6800
 1022SOL     OW14527   4.026   1.275   4.746 -0.9115 -0.4928 -0.3356
 1022SOL    HW114528   4.030   1.371   4.754 -0.1952 -0.6442  1.0722
 1022SOL    HW214529   4.030   1.254   4.839  0.2487 -1.5409 -0.6364
 1023SOL     OW14530   3.717   2.675  10.773  0.1646 -0.1260  0.0027
 1023SOL    HW114531   3.811   2.671  10.795  0.0389  1.9943  0.9268
 1023SOL    HW214532   3.697   2.760  10.812  0.5280 -0.4624  0.9419
 1024SOL     OW14533   2.557   1.149   7.277  0.4318  0.1215  0.0993
 1024SOL    HW114534   2.487   1.152   7.342  0.4264 -1.7454  0.1708
 1024SOL    HW214535   2.536   1.237   7.244 -0.8283 -1.5842 -3.6315
 1025SOL     OW14536   0.920   2.839  13.491  0.0261 -0.3726 -0.1305
 1025SOL    HW114537   0.954   2.752  13.512 -2.2997 -1.8372 -2.5129
 1025SOL    HW214538   1.009   2.870  13.471 -0.1348 -1.2540 -2.2292
 1026SOL     OW14539   2.168   4.258   1.458 -0.2815  0.6382  0.3202
 1026SOL    HW114540   2.095   4.262   1.519 -1.0465 -0.4636 -0.5335
 1026SOL    HW214541   2.241   4.236   1.517  1.3057 -1.2852 -2.3377
 1027SOL     OW14542   0.179   1.370  15.840 -0.8030 -0.1685 -0.2128
 1027SOL    HW114543   0.120   1.442  15.865  0.7281  1.5917 -1.6635
 1027SOL    HW214544   0.233   1.412  15.773  1.1788 -1.2566  0.7159
 1028SOL     OW14545   1.209   2.144   6.455  0.3147  0.1232 -0.1967
 1028SOL    HW114546   1.199   2.157   6.361  0.3684 -0.9210 -0.3492
 1028SOL    HW214547   1.301   2.169   6.463 -0.6124  2.7129  2.4072
 1029SOL     OW14548   1.671   2.492   1.463  0.8173 -0.0143  0.1300
 1029SOL    HW114549   1.704   2.452   1.543  1.3220 -1.0925 -0.6121
 1029SOL    HW214550   1.609   2.552   1.504 -0.2180  0.0067 -1.4634
 1030SOL     OW14551   1.562   1.861   6.687 -0.1756 -0.7351 -0.8839
 1030SOL    HW114552   1.619   1.908   6.625 -1.2502  0.2047 -1.1541
 1030SOL    HW214553   1.618   1.836   6.760 -2.2109 -1.0576  0.5697
 1031SOL     OW14554   0.309   2.394   9.366  0.0770  0.1007  0.2510
 1031SOL    HW114555   0.295   2.488   9.381  1.8691  0.5925 -1.1252
 1031SOL    HW214556   0.397   2.402   9.329 -0.5535  1.2287 -0.9997
 1032SOL     OW14557   4.303   1.179   6.370  0.1445 -0.3020  0.2969
 1032SOL    HW114558   4.282   1.104   6.426 -0.4741  0.8902  1.6776
 1032SOL    HW214559   4.398   1.186   6.385  0.3154  1.1847 -1.5650
 1033SOL     OW14560   1.973   2.272   1.932  0.1171  0.6948  0.4442
 1033SOL    HW114561   2.020   2.208   1.878 -1.5646  2.3498 -2.9430
 1033SOL    HW214562   1.916   2.221   1.989  1.2249 -1.0021  0.0346
 1034SOL     OW14563   1.018   3.913   5.852 -0.4514  0.7292  0.3963
 1034SOL    HW114564   0.963   3.983   5.818  0.4861  2.0257  1.5205
 1034SOL    HW214565   1.010   3.843   5.787  2.9886 -0.2772  1.0203
 1035SOL     OW14566   2.823   2.393   2.498  0.6367  0.4041 -0.5130
 1035SOL    HW114567   2.807   2.318   2.441  0.3870 -1.1644  1.6281
 1035SOL    HW214568   2.795   2.466   2.443 -0.0669 -0.7661 -1.6850
 1036SOL     OW14569   3.978   3.462   7.099 -0.2291 -0.5532  0.5219
 1036SOL    HW114570   3.904   3.403   7.112 -0.6723  0.2545  1.7280
 1036SOL    HW214571   3.937   3.549   7.090 -1.1873 -0.7287  3.1999
 1037SOL     OW14572   3.913   2.907   5.647  0.0978 -0.1252 -0.3499
 1037SOL    HW114573   3.831   2.902   5.599 -1.4946 -1.6095  2.5364
 1037SOL    HW214574   3.970   2.856   5.589  1.5370  0.7066  0.3217
 1038SOL     OW14575   0.951   0.779   7.325  0.5034 -0.5922  0.5016
 1038SOL    HW114576   0.922   0.763   7.415  0.0171  1.3743  0.6928
 1038SOL    HW214577   0.865   0.809   7.295 -0.1720 -0.2558  2.7418
 1039SOL     OW14578   0.177   3.882   7.412 -0.0134 -0.0331  0.1057
 1039SOL    HW114579   0.238   3.916   7.477 -0.4345 -0.6282  0.8061
 1039SOL    HW214580   0.196   3.789   7.410 -0.2285 -0.1312  2.2286
 1040SOL     OW14581   3.439   4.525   4.996  0.0290 -0.2834  0.1841
 1040SOL    HW114582   3.420   4.459   5.063  0.5478  1.6054  2.1874
 1040SOL    HW214583   3.347   4.540   4.974 -0.1607 -0.8656  0.5597
 1041SOL     OW14584   4.412   0.574  13.800  0.0786 -0.1405  0.3140
 1041SOL    HW114585   4.443   0.488  13.828 -1.3128 -0.3729  1.1682
 1041SOL    HW214586   4.475   0.592  13.731 -0.8850 -0.5514 -0.6667
 1042SOL     OW14587   4.090   1.150   2.163  0.4783 -0.4163  0.0658
 1042SOL    HW114588   4.131   1.192   2.238  2.5754 -0.9869 -0.7729
 1042SOL    HW214589   4.020   1.215   2.151  1.3829 -0.0885 -3.3092
 1043SOL     OW14590   2.173   2.594  17.423 -0.3409  0.3676 -0.4019
 1043SOL    HW114591   2.115   2.648  17.370  1.1933 -1.2671 -3.7419
 1043SOL    HW214592   2.219   2.557  17.347  1.7210 -1.0234  1.5440
 1044SOL     OW14593   0.080   4.360   2.677  0.4800 -0.0429  0.1519
 1044SOL    HW114594   0.043   4.417   2.610  0.1591 -2.6514 -1.8630
 1044SOL    HW214595   0.030   4.280   2.660  0.5008  0.5365 -2.5346
 1045SOL     OW14596   1.940   1.361   9.634 -0.5597  0.1366  0.3055
 1045SOL    HW114597   2.035   1.351   9.643 -0.3116 -0.7161 -3.0515
 1045SOL    HW214598   1.922   1.319   9.550 -0.1928  0.3906  0.0979
 1046SOL     OW14599   0.529   1.647  12.706 -0.2710  0.1065  0.3863
 1046SOL    HW114600   0.459   1.653  12.642 -0.5122 -1.9716  0.4352
 1046SOL    HW214601   0.524   1.556  12.735  3.0393 -0.1713  0.1324
 1047SOL     OW14602   0.787   1.886  17.171 -0.3100  0.1950 -0.0297
 1047SOL    HW114603   0.718   1.819  17.172 -0.6096  0.5092  0.5526
 1047SOL    HW214604   0.779   1.941  17.249 -1.9712  1.6517 -1.2379
 1048SOL     OW14605   1.590   3.542   1.702 -0.2088 -0.4141 -0.0370
 1048SOL    HW114606   1.616   3.517   1.791 -1.8709  0.9311  0.8044
 1048SOL    HW214607   1.641   3.623   1.697  0.7708 -1.0518 -0.5377
 1049SOL     OW14608   2.143   2.287   8.702 -0.1071  0.0258 -0.1585
 1049SOL    HW114609   2.138   2.383   8.705 -1.1312 -0.0654  1.4694
 1049SOL    HW214610   2.237   2.278   8.717 -0.1841  2.3169  1.7729
 1050SOL     OW14611   3.049   1.407   7.416 -0.0741  0.2105 -0.1984
 1050SOL    HW114612   2.989   1.438   7.349  0.8022 -1.8982 -1.9731
 1050SOL    HW214613   3.101   1.488   7.412 -2.3526  1.6640 -0.3538
 1051SOL     OW14614   3.969   2.936  15.516  0.1827  0.3880 -0.1431
 1051SOL    HW114615   3.923   2.994  15.578 -0.5284  1.1648 -1.4016
 1051SOL    HW214616   4.056   2.978  15.520  0.9122 -1.2128  0.6799
 1052SOL     OW14617   1.293   4.094   2.831 -0.0721  0.2044  0.1372
 1052SOL    HW114618   1.284   4.098   2.735  2.7826 -1.2895 -0.1655
 1052SOL    HW214619   1.246   4.014   2.853  2.3238 -1.2427 -0.1318
 1053SOL     OW14620   2.154   1.597   0.065  0.2811  0.2196  0.4790
 1053SOL    HW114621   2.200   1.653   0.127 -0.5815  0.5829  0.7867
 1053SOL    HW214622   2.087   1.579   0.132 -0.9058  1.0410 -0.4864
 1054SOL     OW14623   1.182   3.610   9.078  0.6190  0.5283 -0.0992
 1054SOL    HW114624   1.113   3.548   9.102  0.1295  0.7723 -0.9024
 1054SOL    HW214625   1.128   3.688   9.067 -1.4633 -0.9903 -0.5276
 1055SOL     OW14626   3.585   1.470   8.487  0.0353  0.0087  0.3528
 1055SOL    HW114627   3.587   1.376   8.505 -0.9462 -0.3085 -1.2164
 1055SOL    HW214628   3.650   1.490   8.555  0.0037 -1.5222  0.8370
 1056SOL     OW14629   2.639   3.061   4.119 -0.0706 -0.6039 -0.0383
 1056SOL    HW114630   2.639   3.145   4.072 -3.6313 -0.5777  0.0729
 1056SOL    HW214631   2.672   3.005   4.048  0.3998  1.4695 -1.4774
 1057SOL     OW14632   4.296   3.422   8.734 -0.1341 -0.6801  0.3683
 1057SOL    HW114633   4.225   3.468   8.689 -0.5384 -1.7085 -0.0481
 1057SOL    HW214634   4.360   3.420   8.663  1.4433 -0.7637  1.8199
 1058SOL     OW14635   1.611   0.001   8.167  0.1743 -0.1613  0.4796
 1058SOL    HW114636   1.687   4.679   8.138  0.8566  1.3650 -0.3571
 1058SOL    HW214637   1.639   0.092   8.158 -0.3753  0.0510  0.8964
 1059SOL     OW14638   3.923   3.588   8.326 -0.2205  0.4219 -0.2378
 1059SOL    HW114639   3.958   3.677   8.325 -1.3775  0.8519 -3.0138
 1059SOL    HW214640   3.833   3.593   8.294  0.2687  1.5202 -1.4749
 1060SOL     OW14641   1.558   3.473   8.642  0.6297  0.1627 -0.3173
 1060SOL    HW114642   1.521   3.406   8.700  1.5492 -1.1355 -1.2395
 1060SOL    HW214643   1.639   3.433   8.611  0.4380 -1.2273  0.9618
 1061SOL     OW14644   1.746   3.424   9.526  0.0076 -1.0290  0.1166
 1061SOL    HW114645   1.724   3.331   9.531  1.4937 -1.2737  2.2005
 1061SOL    HW214646   1.664   3.456   9.563 -0.5957 -0.7005 -1.5123
 1062SOL     OW14647   3.103   0.135   4.783 -0.1599  0.5291 -0.0969
 1062SOL    HW114648   3.119   0.188   4.861  0.5097 -1.0287  0.8250
 1062SOL    HW214649   3.008   0.131   4.776 -0.4989  2.8065  3.1215
 1063SOL     OW14650   1.647   4.256  14.806  0.8424  0.0136  0.0486
 1063SOL    HW114651   1.715   4.191  14.789 -0.1854 -0.6690 -1.4394
 1063SOL    HW214652   1.702   4.325  14.843  1.7053 -1.4019  1.3914
 1064SOL     OW14653   4.283   0.653   8.872  0.0399  0.3467 -0.0663
 1064SOL    HW114654   4.238   0.729   8.909  1.4434  1.6519 -1.0757
 1064SOL    HW214655   4.364   0.645   8.923 -0.1375  0.8873  0.2997
 1065SOL     OW14656   0.727   2.448   6.919 -0.4123  0.1189 -0.0939
 1065SOL    HW114657   0.711   2.476   7.009  1.2396  0.3109  0.1325
 1065SOL    HW214658   0.654   2.500   6.888 -1.2584 -1.9450 -1.5816
 1066SOL     OW14659   2.586   4.656  15.657  0.3903  0.0449 -0.4960
 1066SOL    HW114660   2.563   4.679  15.567 -3.5307  0.4807  0.5945
 1066SOL    HW214661   2.497   4.646  15.693  0.3652  1.1731 -0.2642
 1067SOL     OW14662   2.522   0.843   3.512 -0.3657 -0.1218  0.1421
 1067SOL    HW114663   2.473   0.765   3.538 -1.4642  0.4093 -0.3468
 1067SOL    HW214664   2.462   0.880   3.448 -0.4264 -0.8027 -0.1973
 1068SOL     OW14665   0.294   2.101  10.718 -1.0912  0.5845  0.1441
 1068SOL    HW114666   0.316   2.031  10.658 -1.3726  0.2854  0.3869
 1068SOL    HW214667   0.325   2.178  10.670 -0.5693 -1.1493 -2.2463
 1069SOL     OW14668   0.225   4.443   2.372  0.0299  0.0668  0.2307
 1069SOL    HW114669   0.210   4.469   2.282  1.2294 -1.4862 -0.4217
 1069SOL    HW214670   0.139   4.408   2.398  0.4268 -0.1602  1.2530
 1070SOL     OW14671   3.622   1.484   9.148 -0.0364 -0.1399 -0.1107
 1070SOL    HW114672   3.572   1.407   9.122  0.5775  0.2308 -2.4149
 1070SOL    HW214673   3.551   1.547   9.136 -0.4874 -0.6691 -0.1912
 1071SOL     OW14674   2.742   0.378   2.412 -0.3798  0.4956  0.2888
 1071SOL    HW114675   2.704   0.311   2.356  0.8897 -0.1358  0.1904
 1071SOL    HW214676   2.832   0.350   2.396 -1.1898 -1.6824 -0.4490
 1072SOL     OW14677   1.710   4.596   7.123  0.3969  0.0792  0.0683
 1072SOL    HW114678   1.796   4.588   7.082  0.2838 -0.6740 -0.0149
 1072SOL    HW214679   1.667   4.659   7.064  0.8082  0.3869  0.0956
 1073SOL     OW14680   1.190   1.635   7.005 -0.3329  0.1894 -0.1873
 1073SOL    HW114681   1.273   1.673   7.032  0.7737 -3.3151  1.3142
 1073SOL    HW214682   1.126   1.705   7.019  0.6249  1.1417 -0.6171
 1074SOL     OW14683   2.710   3.113  12.608 -0.4587  0.7997  0.3018
 1074SOL    HW114684   2.649   3.188  12.606  0.2075  1.2614 -3.3255
 1074SOL    HW214685   2.642   3.046  12.605  0.8348 -0.5299  0.8438
 1075SOL     OW14686   3.443   0.832   6.132  0.3076 -0.8009  0.0343
 1075SOL    HW114687   3.405   0.912   6.168  0.1718 -1.3275  1.0526
 1075SOL    HW214688   3.527   0.864   6.100 -0.3862  1.2049  0.2388
 1076SOL     OW14689   3.161   4.116   5.779 -0.0008  0.6442 -0.6566
 1076SOL    HW114690   3.193   4.076   5.698  0.9876 -1.8903  0.9850
 1076SOL    HW214691   3.125   4.197   5.745 -1.3374 -0.3960 -1.6819
 1077SOL     OW14692   2.954   1.113   5.685  0.0504 -0.3905  0.0189
 1077SOL    HW114693   2.981   1.022   5.677  0.0750 -0.2037 -2.0048
 1077SOL    HW214694   3.020   1.167   5.641  1.6427  0.1306  3.0796
 1078SOL     OW14695   0.223   0.749   2.829  0.0910 -0.2339 -0.0356
 1078SOL    HW114696   0.180   0.773   2.748 -0.8309  1.2363  0.8931
 1078SOL    HW214697   0.279   0.826   2.844 -0.2273 -0.6150  3.1210
 1079SOL     OW14698   4.303   0.679  14.039 -0.2526 -0.7786  0.3779
 1079SOL    HW114699   4.361   0.670  13.963  2.1485 -0.6872  2.1936
 1079SOL    HW214700   4.342   0.753  14.085  1.4608 -1.3740 -0.1260
 1080SOL     OW14701   2.528   2.890   3.312  0.1283  0.7930  0.7379
 1080SOL    HW114702   2.510   2.884   3.218 -1.6406  1.6114  1.0301
 1080SOL    HW214703   2.549   2.799   3.333 -3.4903 -0.0518  0.6794
 1081SOL     OW14704   4.439   2.895   4.642 -0.2500 -0.1632 -0.0089
 1081SOL    HW114705   4.395   2.902   4.557 -0.4489  0.3600  0.1403
 1081SOL    HW214706   4.382   2.835   4.690  0.4542 -0.5894  0.2991
 1082SOL     OW14707   4.724   0.369  15.847  0.4308 -0.4085 -0.3485
 1082SOL    HW114708   4.673   0.325  15.779  0.2644 -0.9257  0.1065
 1082SOL    HW214709   4.685   0.338  15.929  0.0092  2.3302  0.4948
 1083SOL     OW14710   3.579   0.572   2.795  0.0220  0.4811  0.2985
 1083SOL    HW114711   3.511   0.541   2.735 -0.3339 -0.4973  1.1907
 1083SOL    HW214712   3.521   0.616   2.857  1.3792  0.1513  1.8018
 1084SOL     OW14713   3.553   4.450   6.293  0.1327 -0.1681  0.1180
 1084SOL    HW114714   3.617   4.379   6.289  0.9392  0.5625  0.3298
 1084SOL    HW214715   3.543   4.479   6.202 -0.9587  0.3646  0.4048
 1085SOL     OW14716   3.326   0.318  13.994  0.2358 -0.0753  0.4757
 1085SOL    HW114717   3.283   0.234  14.010 -1.3621  0.5956 -0.2120
 1085SOL    HW214718   3.391   0.327  14.063  1.3303 -1.2562 -0.3956
 1086SOL     OW14719   3.937   0.484   2.382  0.0250 -0.3894 -0.0878
 1086SOL    HW114720   3.894   0.538   2.449 -0.0843 -1.2905  0.5676
 1086SOL    HW214721   3.867   0.489   2.317  1.4377  0.0618 -1.5527
 1087SOL     OW14722   3.070   1.645  12.444 -0.0602  0.1220 -0.4593
 1087SOL    HW114723   3.121   1.574  12.483  0.4824 -0.6486 -2.5574
 1087SOL    HW214724   2.979   1.617  12.442  0.5591 -1.9609  0.9856
 1088SOL     OW14725   2.336   3.068   3.887  0.2210 -0.0298 -0.0274
 1088SOL    HW114726   2.403   3.004   3.861  1.9075  1.2374  1.2050
 1088SOL    HW214727   2.257   3.016   3.902 -1.9354  2.6736 -1.9126
 1089SOL     OW14728   2.073   3.029   3.048 -0.0996  0.2400  0.2561
 1089SOL    HW114729   2.043   2.948   3.006  0.5957 -1.3648  2.8287
 1089SOL    HW214730   2.120   3.064   2.972 -2.3791  3.1571  0.1920
 1090SOL     OW14731   0.494   2.345   4.166  0.6467  0.2059 -0.5691
 1090SOL    HW114732   0.521   2.328   4.256 -0.7904 -1.2164 -0.3952
 1090SOL    HW214733   0.449   2.262   4.148 -0.7971  0.7822  0.4233
 1091SOL     OW14734   0.641   0.747  10.569 -0.1108  0.1815  0.5678
 1091SOL    HW114735   0.654   0.760  10.663 -0.0758  0.0815  0.5776
 1091SOL    HW214736   0.693   0.667  10.555 -2.7768 -1.5255  0.3785
 1092SOL     OW14737   1.872   0.696  12.918 -0.1783 -0.0815 -0.5851
 1092SOL    HW114738   1.949   0.725  12.869 -0.1408  1.4028  0.3504
 1092SOL    HW214739   1.902   0.729  13.003  2.1209 -1.1167 -0.9843
 1093SOL     OW14740   4.224   3.651   1.298  0.3896 -0.3028  0.2570
 1093SOL    HW114741   4.216   3.692   1.384 -0.7832 -1.4725  0.7100
 1093SOL    HW214742   4.261   3.564   1.314 -0.2883 -0.5416  0.5093
 1094SOL     OW14743   0.255   1.253   9.747  0.0034 -0.1225  0.3811
 1094SOL    HW114744   0.232   1.338   9.783 -1.0726 -0.8477  1.4137
 1094SOL    HW214745   0.190   1.260   9.677 -2.9823  0.4542  3.2285
 1095SOL     OW14746   4.272   0.120   4.020 -0.4267  0.0141 -0.2046
 1095SOL    HW114747   4.318   0.041   4.049 -0.7175  0.1803  0.7014
 1095SOL    HW214748   4.336   0.186   3.994 -1.9556  1.1822 -0.9674
 1096SOL     OW14749   2.196   4.590  13.224 -0.1824 -0.1459  0.3148
 1096SOL    HW114750   2.209   4.629  13.311 -0.0158 -0.4705  0.4322
 1096SOL    HW214751   2.121   4.643  13.197 -0.7385 -0.9917  0.2042
 1097SOL     OW14752   1.193   2.535  16.454 -0.1057  0.5594  0.2035
 1097SOL    HW114753   1.128   2.572  16.512 -0.8342  0.4629 -0.5537
 1097SOL    HW214754   1.212   2.460  16.511  1.6514 -0.0601 -1.1659
 1098SOL     OW14755   1.210   3.859   7.559  1.3135  0.2467  0.1794
 1098SOL    HW114756   1.129   3.907   7.546  0.5041 -1.0203  0.5183
 1098SOL    HW214757   1.214   3.805   7.480  1.0423 -0.8288  0.8930
 1099SOL     OW14758   1.453   3.313   2.941 -0.0177 -0.1444 -0.5394
 1099SOL    HW114759   1.377   3.259   2.964  1.2907 -1.2008  1.2203
 1099SOL    HW214760   1.476   3.256   2.867 -0.5775 -1.7958  0.5644
 1100SOL     OW14761   0.093   0.100  15.633  0.2001  0.7188 -0.1556
 1100SOL    HW114762   0.109   0.061  15.719 -1.7307  0.6211  0.1593
 1100SOL    HW214763   0.183   0.101  15.600 -0.0005 -2.1427 -0.7120
 1101SOL     OW14764   3.334   2.805   7.565 -0.0720  0.4622  0.6732
 1101SOL    HW114765   3.273   2.878   7.579  1.1418  1.4430  0.8247
 1101SOL    HW214766   3.317   2.754   7.644  2.6144  0.0351  0.9531
 1102SOL     OW14767   1.542   0.400  14.536  0.5015 -0.4678 -0.3234
 1102SOL    HW114768   1.467   0.385  14.479 -2.4329 -0.7182  3.6342
 1102SOL    HW214769   1.614   0.405  14.473  0.5297  2.3809 -0.0790
 1103SOL     OW14770   1.478   1.155   6.929  0.0570 -0.6887  0.4267
 1103SOL    HW114771   1.475   1.118   6.841  1.1430 -0.1700  0.1717
 1103SOL    HW214772   1.389   1.140   6.962 -0.8469  1.4658 -1.0306
 1104SOL     OW14773   0.937   3.491  17.209 -0.7356 -0.4157  0.5972
 1104SOL    HW114774   0.998   3.449  17.149  0.1272  1.6961 -0.0012
 1104SOL    HW214775   0.888   3.411  17.230  0.4281 -0.6615  2.3142
 1105SOL     OW14776   3.100   3.932   7.873  0.4481 -0.2034  0.3122
 1105SOL    HW114777   3.171   3.974   7.825 -0.8347 -0.2573 -1.5921
 1105SOL    HW214778   3.027   3.924   7.811  0.6644 -0.6091  0.1144
 1106SOL     OW14779   0.293   3.596   1.538  0.1077 -0.6188  0.2402
 1106SOL    HW114780   0.314   3.538   1.611  1.0016 -1.9300 -1.0463
 1106SOL    HW214781   0.198   3.599   1.541  0.2206  1.1314  2.0580
 1107SOL     OW14782   0.733   2.182  14.372  0.1526 -0.0531  0.2455
 1107SOL    HW114783   0.758   2.205  14.283  0.2131  2.5743  0.9442
 1107SOL    HW214784   0.792   2.109  14.393  0.1487 -0.0395  0.3053
 1108SOL     OW14785   4.197   3.109   2.878 -0.5410 -0.1193  0.1742
 1108SOL    HW114786   4.265   3.132   2.815  1.8538 -2.8389  1.7619
 1108SOL    HW214787   4.120   3.109   2.820  0.1947 -2.6925 -0.7912
 1109SOL     OW14788   2.571   1.878   4.433 -0.3888 -1.3747 -0.4853
 1109SOL    HW114789   2.495   1.821   4.420 -2.1958  1.4155 -2.1684
 1109SOL    HW214790   2.536   1.966   4.444 -2.4279 -2.1894 -0.4199
 1110SOL     OW14791   0.831   1.223   9.047  0.5066 -0.1071 -0.1302
 1110SOL    HW114792   0.788   1.293   8.997  0.2005  1.1655  1.9075
 1110SOL    HW214793   0.774   1.151   9.023 -0.7018  1.4836 -2.0604
 1111SOL     OW14794   3.620   4.224   6.679  0.4635  0.7490 -0.5317
 1111SOL    HW114795   3.619   4.225   6.584  1.0220 -0.1486 -0.5491
 1111SOL    HW214796   3.562   4.153   6.705  3.0395 -1.3292 -0.3763
 1112SOL     OW14797   2.763   1.286   4.875 -0.3383 -0.4697  0.7851
 1112SOL    HW114798   2.752   1.338   4.954 -0.9977 -2.6549  2.1128
 1112SOL    HW214799   2.695   1.324   4.819 -0.6036 -0.8896  0.8289
 1113SOL     OW14800   4.333   0.182   6.094 -0.5115 -0.2493 -0.2753
 1113SOL    HW114801   4.245   0.172   6.128 -0.2738 -1.6250 -0.0798
 1113SOL    HW214802   4.372   0.116   6.151  0.2671  0.0509 -0.4527
 1114SOL     OW14803   3.834   2.508   7.548 -0.0352  0.4263 -0.5732
 1114SOL    HW114804   3.895   2.437   7.529 -2.3731 -1.6470 -0.3331
 1114SOL    HW214805   3.875   2.583   7.504  0.9916 -0.1794 -0.6418
 1115SOL     OW14806   0.952   1.855   6.310  0.7366  0.0689  0.0862
 1115SOL    HW114807   0.992   1.873   6.225  0.7391 -0.2617  0.0178
 1115SOL    HW214808   0.997   1.772   6.328  2.0115  1.2189  2.1846
 1116SOL     OW14809   3.317   0.807   3.262  0.0015  0.0219 -0.8428
 1116SOL    HW114810   3.376   0.867   3.216  2.4361 -0.6250  1.4482
 1116SOL    HW214811   3.272   0.864   3.325  2.8201  1.8869 -0.5048
 1117SOL     OW14812   1.336   1.841  10.300 -0.1440  0.3133 -0.1321
 1117SOL    HW114813   1.416   1.826  10.349 -0.7817 -0.2810  0.7322
 1117SOL    HW214814   1.339   1.775  10.230  0.6434  1.7510 -1.4674
 1118SOL     OW14815   4.539   1.733   2.812  0.6141 -0.0588 -0.7038
 1118SOL    HW114816   4.605   1.785   2.767  1.4065 -0.9035 -0.5237
 1118SOL    HW214817   4.553   1.755   2.904 -1.6098 -1.1507 -0.0901
 1119SOL     OW14818   3.822   2.604   8.223 -0.7086  0.2729 -0.2242
 1119SOL    HW114819   3.856   2.521   8.258 -3.2550 -1.7894 -2.5921
 1119SOL    HW214820   3.740   2.608   8.273 -0.4933  1.2144  0.0411
 1120SOL     OW14821   1.477   2.223  13.389  0.1209  0.0934 -0.4492
 1120SOL    HW114822   1.504   2.143  13.434  0.8028  1.1514  1.0330
 1120SOL    HW214823   1.441   2.271  13.464 -1.0066  1.6264 -1.9701
 1121SOL     OW14824   2.747   0.461   7.761  0.2430 -0.6697  0.4618
 1121SOL    HW114825   2.689   0.400   7.807  0.1134  0.6032  1.9957
 1121SOL    HW214826   2.696   0.542   7.754  0.5273 -0.5747 -0.5699
 1122SOL     OW14827   2.243   0.269   3.021 -0.1795  0.1455 -0.7105
 1122SOL    HW114828   2.232   0.289   2.928 -0.4948 -1.5538 -1.0395
 1122SOL    HW214829   2.198   0.345   3.060  0.3121 -0.4997  1.0884
 1123SOL     OW14830   0.516   0.575   7.460  0.4842  0.0623 -0.4836
 1123SOL    HW114831   0.450   0.577   7.390  2.0537  0.2067 -1.9840
 1123SOL    HW214832   0.474   0.518   7.524  1.0649  2.7043  2.2554
 1124SOL     OW14833   2.567   4.513   4.679  0.3759  0.2359  0.0015
 1124SOL    HW114834   2.519   4.577   4.626  1.0198  0.4865 -0.2855
 1124SOL    HW214835   2.535   4.531   4.767  0.5379  1.5517 -0.2109
 1125SOL     OW14836   1.619   3.569   7.633  0.6721  0.2888  1.0299
 1125SOL    HW114837   1.563   3.646   7.645  1.0800  0.5632  1.1617
 1125SOL    HW214838   1.597   3.545   7.544  2.4121 -1.9055  1.1931
 1126SOL     OW14839   1.827   1.865  12.951  0.7041 -0.4735 -0.3450
 1126SOL    HW114840   1.912   1.822  12.942  1.1229  0.2478  0.1442
 1126SOL    HW214841   1.771   1.792  12.924  0.0525  0.3095 -1.1180
 1127SOL     OW14842   4.456   3.324  13.350  0.0337 -0.0268 -0.4426
 1127SOL    HW114843   4.546   3.349  13.371 -0.5028 -1.3579  3.5031
 1127SOL    HW214844   4.466   3.252  13.287  1.1342 -0.3366  0.0788
 1128SOL     OW14845   2.425   1.444   3.243 -0.3183  0.4995 -1.1750
 1128SOL    HW114846   2.404   1.511   3.308 -1.2107 -1.8866  0.9789
 1128SOL    HW214847   2.405   1.500   3.167 -2.0403  0.9749 -0.3837
 1129SOL     OW14848   1.262   4.626   1.926  0.2706  0.3301  0.1109
 1129SOL    HW114849   1.307   4.610   2.009 -1.5252 -1.1002  0.8325
 1129SOL    HW214850   1.170   4.625   1.954 -0.3306  1.1179 -1.8703
 1130SOL     OW14851   3.060   4.035   8.427 -0.2495  0.0932  0.3022
 1130SOL    HW114852   3.115   3.958   8.440 -0.7180 -0.0848  1.1973
 1130SOL    HW214853   3.121   4.094   8.382 -1.1410  1.1404  0.4855
 1131SOL     OW14854   3.695   0.334   3.857  0.0998  0.1253 -0.3533
 1131SOL    HW114855   3.740   0.355   3.776 -1.6131  1.3009 -1.0079
 1131SOL    HW214856   3.756   0.372   3.920  1.7249 -2.5869 -0.2866
 1132SOL     OW14857   3.387   2.223   2.565  0.4837  0.2708 -0.3739
 1132SOL    HW114858   3.306   2.171   2.561  1.0033 -0.7215  2.1261
 1132SOL    HW214859   3.405   2.235   2.472  1.5315  0.2981 -0.1621
 1133SOL     OW14860   4.277   0.300   4.668 -0.6370 -0.0962  0.7413
 1133SOL    HW114861   4.327   0.238   4.721 -0.2930 -2.4594 -2.3227
 1133SOL    HW214862   4.227   0.242   4.611  0.5832  1.3043 -1.7786
 1134SOL     OW14863   2.390   1.707   1.085  0.0960 -0.4850 -0.2320
 1134SOL    HW114864   2.482   1.733   1.090  0.3589 -1.4310 -0.2465
 1134SOL    HW214865   2.391   1.625   1.036 -0.7114  0.4132 -1.7532
 1135SOL     OW14866   2.976   2.726   5.874  0.2579 -0.0552 -0.5443
 1135SOL    HW114867   2.885   2.703   5.895  0.7998 -0.6406  1.1590
 1135SOL    HW214868   3.021   2.692   5.951 -1.7676  1.0991  1.1541
 1136SOL     OW14869   2.165   1.251  12.812 -0.2082  0.1197 -0.4138
 1136SOL    HW114870   2.143   1.238  12.720  0.2037  3.3594 -0.9672
 1136SOL    HW214871   2.078   1.242  12.852 -0.9364  1.0288 -1.7659
 1137SOL     OW14872   0.630   4.683   9.480 -0.4061 -0.2551 -0.3205
 1137SOL    HW114873   0.658   0.046   9.484  2.0295 -0.9981 -1.0244
 1137SOL    HW214874   0.608   4.662   9.571 -1.6274 -0.5526 -0.6828
 1138SOL     OW14875   4.608   3.846   7.454 -0.3254 -0.5399 -0.4791
 1138SOL    HW114876   4.700   3.833   7.432 -0.1637  0.5472 -0.4196
 1138SOL    HW214877   4.575   3.915   7.396 -2.4692  0.2699  1.7103
 1139SOL     OW14878   2.425   0.212   8.565  0.0168  0.4149 -0.3955
 1139SOL    HW114879   2.390   0.281   8.621  0.2706  0.6245 -0.4920
 1139SOL    HW214880   2.412   0.255   8.480  3.0488  2.6466  0.2478
 1140SOL     OW14881   2.750   3.755   6.597 -0.1475 -0.0504 -0.1874
 1140SOL    HW114882   2.776   3.758   6.505 -2.3877 -2.6175 -0.8901
 1140SOL    HW214883   2.780   3.669   6.626 -0.8308 -0.4048 -0.5204
 1141SOL     OW14884   3.262   1.352   5.829 -0.0840  0.3526 -0.2591
 1141SOL    HW114885   3.253   1.344   5.924  2.4122 -0.3385 -0.0793
 1141SOL    HW214886   3.342   1.300   5.819  0.3131  0.6466  1.3828
 1142SOL     OW14887   4.721   1.327   4.233  0.4988 -0.0430 -0.1001
 1142SOL    HW114888   0.041   1.253   4.198  0.2514 -0.4397  0.3906
 1142SOL    HW214889   0.035   1.319   4.319 -2.4594  1.7437  1.5278
 1143SOL     OW14890   4.486   3.168   7.386  0.2929  0.1120 -0.5896
 1143SOL    HW114891   4.495   3.146   7.479 -1.9096  0.8370 -0.2008
 1143SOL    HW214892   4.421   3.105   7.355  0.1723 -0.4176  0.7150
 1144SOL     OW14893   1.452   3.918   6.995  0.5967 -0.5790  0.4725
 1144SOL    HW114894   1.401   3.977   7.051 -0.2362 -0.8112 -0.0445
 1144SOL    HW214895   1.541   3.926   7.028  1.6433 -1.3971 -2.2006
 1145SOL     OW14896   4.480   0.801   9.056 -0.4837 -0.3965  0.1224
 1145SOL    HW114897   4.530   0.735   9.008  1.0828 -0.2067  1.4730
 1145SOL    HW214898   4.545   0.847   9.111 -0.5734 -0.7464  0.5252
 1146SOL     OW14899   3.717   0.689  15.249 -0.4583  0.4038 -1.0052
 1146SOL    HW114900   3.664   0.715  15.174 -1.0744  0.5308 -0.5227
 1146SOL    HW214901   3.804   0.720  15.223  1.4338 -3.1167  1.0105
 1147SOL     OW14902   0.414   3.985   7.538 -0.3850  0.4947  0.0531
 1147SOL    HW114903   0.396   3.997   7.632  1.4949  0.8197  0.3667
 1147SOL    HW214904   0.474   3.913   7.556  1.6197  1.9037 -1.1242
 1148SOL     OW14905   3.107   4.123   4.313  0.1599  0.2698 -0.4120
 1148SOL    HW114906   3.186   4.109   4.365  1.0292 -0.6916 -1.9768
 1148SOL    HW214907   3.115   4.053   4.248 -1.2842  0.1756 -0.4732
 1149SOL     OW14908   2.861   1.618   7.855 -0.0871 -0.1832  0.0400
 1149SOL    HW114909   2.817   1.684   7.909  0.7709  0.2160  0.2480
 1149SOL    HW214910   2.797   1.591   7.790 -0.9068  0.4396  0.5840
 1150SOL     OW14911   2.590   0.405   2.067 -0.0230  0.2288  0.1507
 1150SOL    HW114912   2.568   0.314   2.049  1.3895 -0.5806  2.5094
 1150SOL    HW214913   2.671   0.404   2.017  0.0644 -1.4828  0.3230
 1151SOL     OW14914   1.925   0.122   9.117  0.7608  0.1985  0.5458
 1151SOL    HW114915   1.898   0.206   9.155 -0.2139 -0.0445  0.3888
 1151SOL    HW214916   1.937   0.069   9.195 -1.3443 -0.4001  0.4629
 1152SOL     OW14917   2.716   4.633   7.608  0.0639 -0.2101 -0.3469
 1152SOL    HW114918   2.707   4.728   7.597 -1.0793  0.0594  2.9789
 1152SOL    HW214919   2.638   4.602   7.653 -0.3084  0.8345 -0.2605
 1153SOL     OW14920   4.018   1.612   1.613 -0.2813  0.1004  0.2287
 1153SOL    HW114921   3.965   1.666   1.671  0.9007 -0.7259  2.0881
 1153SOL    HW214922   4.037   1.672   1.541 -0.5890 -0.6508 -0.4813
 1154SOL     OW14923   1.169   2.424  13.823  0.1086 -0.5488  0.8056
 1154SOL    HW114924   1.260   2.397  13.812  0.0225 -1.0964  1.4149
 1154SOL    HW214925   1.173   2.485  13.897  0.9158  0.5311 -0.1311
 1155SOL     OW14926   3.087   2.063   8.006  0.4200  0.1046 -0.2978
 1155SOL    HW114927   3.151   2.134   8.016  0.0427  0.2867  0.9068
 1155SOL    HW214928   3.147   1.988   8.012  1.2434  1.0142  3.3230
 1156SOL     OW14929   0.264   1.844  14.689 -0.4862 -0.5586  0.2104
 1156SOL    HW114930   0.315   1.919  14.659  0.1572 -1.5357 -1.1535
 1156SOL    HW214931   0.226   1.879  14.770  1.9696 -1.3550  1.7125
 1157SOL     OW14932   4.498   0.669  14.369  0.1698  0.4702 -0.4468
 1157SOL    HW114933   4.422   0.719  14.342 -0.6753 -1.0126 -0.7819
 1157SOL    HW214934   4.539   0.655  14.283 -0.1123 -1.5798 -0.2647
 1158SOL     OW14935   4.594   0.734  10.232 -0.0157  0.5214  0.3442
 1158SOL    HW114936   4.669   0.772  10.277  0.3168  1.9604 -1.4135
 1158SOL    HW214937   4.637   0.659  10.192 -1.7839  0.1683 -0.8978
 1159SOL     OW14938   1.700   1.773   8.049  0.0079  0.6451  0.3483
 1159SOL    HW114939   1.639   1.700   8.058  4.0112 -2.3252  2.9611
 1159SOL    HW214940   1.718   1.761   7.955  1.3480  2.3546  0.3887
 1160SOL     OW14941   3.210   2.792   0.374  0.1491 -0.2198 -1.0014
 1160SOL    HW114942   3.302   2.817   0.386 -1.0296  2.1603  2.9157
 1160SOL    HW214943   3.224   2.775   0.281 -2.0100  0.2039 -1.4037
 1161SOL     OW14944   0.933   3.460  13.709  0.4116 -0.1484  0.2160
 1161SOL    HW114945   0.967   3.525  13.771  1.2269 -0.0720 -0.3107
 1161SOL    HW214946   0.841   3.486  13.713  0.3337 -0.1450 -1.6176
 1162SOL     OW14947   2.088   4.086   3.775  0.1327  0.0905 -0.0242
 1162SOL    HW114948   2.064   4.130   3.694 -2.0412  0.0521  0.6187
 1162SOL    HW214949   2.024   4.015   3.782  1.3727 -0.9350  1.0386
 1163SOL     OW14950   3.444   4.303   3.021  0.2088 -0.3784  0.3679
 1163SOL    HW114951   3.486   4.277   2.939 -0.2781 -0.7214  0.2235
 1163SOL    HW214952   3.476   4.237   3.083  0.0542 -1.1787 -0.4040
 1164SOL     OW14953   3.724   1.133   2.994 -0.2784  0.1771 -0.2781
 1164SOL    HW114954   3.774   1.153   2.915  0.3613  1.0219  0.3354
 1164SOL    HW214955   3.799   1.145   3.053 -0.8302  0.6982  0.3261
 1165SOL     OW14956   0.986   1.646   8.371 -0.4200  0.3518  0.2293
 1165SOL    HW114957   0.939   1.607   8.445  0.0347 -0.0667  0.2984
 1165SOL    HW214958   1.034   1.715   8.418 -0.0998 -1.8730  3.1502
 1166SOL     OW14959   4.669   4.691  16.420 -0.5933 -0.3211  0.5073
 1166SOL    HW114960   4.639   4.611  16.376 -1.3625  0.5286 -0.4996
 1166SOL    HW214961   4.624   0.028  16.366  1.5176  1.0725  0.4719
 1167SOL     OW14962   2.021   3.473  11.596  0.1139 -0.6168  0.4994
 1167SOL    HW114963   1.995   3.492  11.506  0.2452  0.2737  0.6521
 1167SOL    HW214964   2.054   3.560  11.618  1.4554 -0.7578 -0.9578
 1168SOL     OW14965   4.442   2.906   7.058 -0.3711  0.0476  0.3158
 1168SOL    HW114966   4.456   2.823   7.103  0.2308 -0.8549 -1.5511
 1168SOL    HW214967   4.381   2.871   6.994 -0.0377 -2.1324  1.1954
 1169SOL     OW14968   1.163   3.869  16.594  0.2259 -0.8613  0.5372
 1169SOL    HW114969   1.196   3.934  16.656 -3.1186  1.5614 -0.1625
 1169SOL    HW214970   1.093   3.921  16.553 -0.1147 -1.9761 -0.2861
 1170SOL     OW14971   4.285   4.538   4.620  0.7267 -0.4890  0.1874
 1170SOL    HW114972   4.245   4.588   4.691 -0.6796 -0.7191 -0.4509
 1170SOL    HW214973   4.325   4.464   4.667  1.2891  0.5331  1.3418
 1171SOL     OW14974   2.326   1.036   0.117  0.3775  0.0590  0.1098
 1171SOL    HW114975   2.328   0.971   0.048  0.0811  1.2269 -0.9965
 1171SOL    HW214976   2.420   1.053   0.121  0.4367 -0.3230  0.3486
 1172SOL     OW14977   2.612   0.595   2.269  0.1764 -0.1829  0.2921
 1172SOL    HW114978   2.606   0.526   2.203 -2.5628 -0.5372  0.9146
 1172SOL    HW214979   2.685   0.560   2.320 -1.0659 -0.6966  1.7214
 1173SOL     OW14980   0.922   0.387  17.331 -0.2485  0.3252  0.2483
 1173SOL    HW114981   0.913   0.424  17.243 -2.1118  1.3839  0.8895
 1173SOL    HW214982   1.015   0.395  17.352 -0.3152 -2.1593  1.4658
 1174SOL     OW14983   2.019   1.256   4.449 -0.5622  0.5127  0.0686
 1174SOL    HW114984   2.109   1.240   4.420 -0.6313 -0.6373  0.5187
 1174SOL    HW214985   2.021   1.236   4.542 -0.7611  2.2036  0.4388
 1175SOL     OW14986   3.147   3.567   1.666 -0.2818 -0.1925  0.3603
 1175SOL    HW114987   3.172   3.620   1.742  1.1390  0.0547 -0.2715
 1175SOL    HW214988   3.216   3.592   1.604 -0.5345  0.7373  0.4480
 1176SOL     OW14989   1.808   3.427   8.552 -0.0093  0.0969 -0.3701
 1176SOL    HW114990   1.863   3.353   8.580 -0.1291  0.8868  1.9792
 1176SOL    HW214991   1.836   3.490   8.619  1.1615 -0.4006 -0.3968
 1177SOL     OW14992   0.830   4.201   7.400 -0.1580  0.1216 -0.4308
 1177SOL    HW114993   0.740   4.209   7.430 -0.1427  0.3718 -0.4545
 1177SOL    HW214994   0.850   4.289   7.369 -1.1931  1.2536  2.1748
 1178SOL     OW14995   3.241   0.823   3.623 -0.3309 -0.2135 -0.0812
 1178SOL    HW114996   3.314   0.785   3.575  0.2656 -1.4435  1.7986
 1178SOL    HW214997   3.204   0.740   3.654  0.4098  0.8965  3.7648
 1179SOL     OW14998   1.473   0.158   8.414  0.1493  0.2450 -0.0988
 1179SOL    HW114999   1.428   0.241   8.397 -1.5133 -0.5242  0.5559
 1179SOL    HW215000   1.562   0.171   8.382  0.7405  1.6049  2.0415
 1180SOL     OW15001   2.689   2.631  12.540 -0.0950  0.5131  0.5676
 1180SOL    HW115002   2.714   2.540  12.558 -0.0248  1.1590  3.6998
 1180SOL    HW215003   2.613   2.639  12.598  0.4431  0.8651  1.2188
 1181SOL     OW15004   3.953   1.411  14.484 -0.2812  0.1484  0.3308
 1181SOL    HW115005   4.035   1.397  14.437  0.9089  1.3488  2.0610
 1181SOL    HW215006   3.897   1.370  14.418 -0.9841  2.2614 -0.4031
 1182SOL     OW15007   1.666   0.326   3.995 -0.2691  0.2104  0.0106
 1182SOL    HW115008   1.757   0.303   4.012 -0.1323 -0.4077 -1.5631
 1182SOL    HW215009   1.666   0.406   3.942 -0.7582  0.4476  0.3698
 1183SOL     OW15010   3.143   2.299  10.012 -0.5453 -0.2192  0.9113
 1183SOL    HW115011   3.238   2.292  10.020 -0.2185  1.7258 -1.3365
 1183SOL    HW215012   3.117   2.207  10.006 -1.3745  0.0147  0.9012
 1184SOL     OW15013   0.447   2.547   6.697 -0.4762  0.1249 -0.1412
 1184SOL    HW115014   0.482   2.635   6.682 -0.4020  0.8062  3.8804
 1184SOL    HW215015   0.524   2.491   6.683  0.0387  0.6182  0.6738
 1185SOL     OW15016   4.412   0.094   1.313 -0.4956 -0.1365  0.0383
 1185SOL    HW115017   4.418   0.131   1.401 -1.5364  0.6981 -0.2470
 1185SOL    HW215018   4.337   0.035   1.317 -0.8886  0.4409  1.2222
 1186SOL     OW15019   4.184   0.800   3.328  0.2711 -0.1099  0.0230
 1186SOL    HW115020   4.219   0.712   3.338  1.4862  0.6104  1.8996
 1186SOL    HW215021   4.134   0.815   3.408  0.8740 -0.8509  0.5381
 1187SOL     OW15022   2.332   3.741  13.459 -0.1893 -0.1935  0.0876
 1187SOL    HW115023   2.407   3.752  13.401 -1.0840 -0.9312 -1.1943
 1187SOL    HW215024   2.380   3.716  13.538 -0.8443  0.4451  0.6848
 1188SOL     OW15025   2.698   4.047  11.951  0.0297 -0.2024  0.8894
 1188SOL    HW115026   2.730   4.136  11.966 -3.0330  1.1103 -0.4257
 1188SOL    HW215027   2.784   4.006  11.941 -0.0601 -0.0593 -0.3983
 1189SOL     OW15028   4.281   0.718   2.055 -0.1708 -0.3176  0.0231
 1189SOL    HW115029   4.221   0.775   2.103 -0.2724 -0.4246  0.0253
 1189SOL    HW215030   4.228   0.681   1.984 -0.6705 -0.8772  0.6841
 1190SOL     OW15031   0.460   3.654   8.439  0.8522  0.4395  0.3117
 1190SOL    HW115032   0.418   3.646   8.354  0.5851  0.2302  0.4658
 1190SOL    HW215033   0.446   3.564   8.467  1.5722  0.4979  0.8734
 1191SOL     OW15034   3.688   0.089   5.426 -0.2756  0.0017 -0.4456
 1191SOL    HW115035   3.623   0.148   5.387 -2.2432 -1.0411  1.2195
 1191SOL    HW215036   3.763   0.148   5.427 -0.9220  0.8194  0.2578
 1192SOL     OW15037   0.018   0.732   5.065 -0.0203  0.0401 -0.9078
 1192SOL    HW115038   4.675   0.787   5.099  0.7067 -0.0876  0.7943
 1192SOL    HW215039   0.092   0.741   5.124 -0.4595  1.9649 -0.6468
 1193SOL     OW15040   4.521   2.105  16.382  0.3050  0.4585  0.6384
 1193SOL    HW115041   4.435   2.080  16.348 -0.2854  1.0422  1.7210
 1193SOL    HW215042   4.523   2.199  16.363  1.8432  0.5802  1.4083
 1194SOL     OW15043   1.605   1.120   1.932  0.3097  0.1066  0.5597
 1194SOL    HW115044   1.661   1.051   1.968  2.0841  1.7551  0.9510
 1194SOL    HW215045   1.564   1.064   1.865 -0.3831 -0.4213  1.4277
 1195SOL     OW15046   4.203   1.113   8.305  0.6851 -0.1505 -0.3426
 1195SOL    HW115047   4.110   1.098   8.288  0.4711  1.4584 -0.6780
 1195SOL    HW215048   4.245   1.048   8.248  1.2775 -0.0781  0.0148
 1196SOL     OW15049   3.419   2.103  11.944  0.2365  0.5001  0.2684
 1196SOL    HW115050   3.432   2.117  11.850 -0.8406 -1.4432 -0.1618
 1196SOL    HW215051   3.456   2.180  11.989 -0.4964  0.4003  1.0516
 1197SOL     OW15052   1.259   2.668  13.531 -0.2678 -0.3237  0.5087
 1197SOL    HW115053   1.181   2.638  13.577 -0.3321 -1.4391 -0.3194
 1197SOL    HW215054   1.301   2.702  13.610  0.2178  1.5057 -0.5563
 1198SOL     OW15055   0.897   1.021   6.711 -0.2061  0.6023 -0.1492
 1198SOL    HW115056   0.806   0.991   6.705  0.9683 -2.7708 -0.7343
 1198SOL    HW215057   0.946   0.978   6.641 -1.3821  0.3429 -0.8026
 1199SOL     OW15058   0.535   4.083  11.662 -0.6301 -0.0333  0.0572
 1199SOL    HW115059   0.607   4.026  11.689 -0.4723  0.3069  0.3506
 1199SOL    HW215060   0.577   4.156  11.617 -1.2828 -0.2464 -0.8924
 1200SOL     OW15061   0.179   1.342   5.103 -0.2956 -0.4228  0.4375
 1200SOL    HW115062   0.230   1.345   5.184 -0.9856  1.3711  0.8109
 1200SOL    HW215063   0.115   1.413   5.111 -0.5423 -0.4455 -1.4083
 1201SOL     OW15064   0.264   4.273   7.912  0.7314  0.1826 -0.1762
 1201SOL    HW115065   0.170   4.251   7.906  0.4703  1.0395  0.8370
 1201SOL    HW215066   0.284   4.256   8.004 -0.5441 -0.7630 -0.0670
 1202SOL     OW15067   2.015   4.617   7.678 -0.3492 -0.9653  0.0671
 1202SOL    HW115068   1.980   4.644   7.593 -1.9641  1.4417  1.4882
 1202SOL    HW215069   2.026   4.523   7.665  1.3890 -0.7952  0.4265
 1203SOL     OW15070   0.744   1.715  13.484  0.1914  0.0886 -0.8656
 1203SOL    HW115071   0.791   1.768  13.420  0.9246 -1.7913 -1.9023
 1203SOL    HW215072   0.823   1.672  13.517  0.4059  2.1644  1.2595
 1204SOL     OW15073   0.081   2.859   6.943  0.1244  0.4088 -0.0406
 1204SOL    HW115074   0.043   2.785   6.990 -3.4772  1.1917 -1.7403
 1204SOL    HW215075   0.165   2.822   6.915 -0.1802 -2.4273  2.8203
 1205SOL     OW15076   0.133   3.295   1.751  0.3963 -0.2533  0.3162
 1205SOL    HW115077   0.163   3.241   1.823  2.0549  1.6313  1.0357
 1205SOL    HW215078   0.182   3.375   1.768 -3.1753  2.1041 -0.5010
 1206SOL     OW15079   1.041   1.798   9.955  0.2275 -0.1426  0.5621
 1206SOL    HW115080   1.076   1.758  10.035 -0.4875  0.6284  1.2564
 1206SOL    HW215081   1.125   1.818   9.914  0.7634 -2.0571  0.7321
 1207SOL     OW15082   1.432   0.571   7.746  0.0594 -0.3361  0.0849
 1207SOL    HW115083   1.489   0.639   7.781  0.5008 -0.6520 -0.0085
 1207SOL    HW215084   1.349   0.577   7.792  0.0550  0.7812 -0.0779
 1208SOL     OW15085   0.703   1.600   7.184 -0.0971 -0.3797  0.2511
 1208SOL    HW115086   0.670   1.591   7.273 -0.4897 -1.8313 -0.0419
 1208SOL    HW215087   0.642   1.542   7.138  0.0216  1.0195 -1.6979
 1209SOL     OW15088   0.454   4.015  13.116  0.1195  0.7217 -0.3084
 1209SOL    HW115089   0.418   4.016  13.027 -1.1368  1.3393  0.2057
 1209SOL    HW215090   0.393   4.074  13.159  0.4559 -0.1682  1.3785
 1210SOL     OW15091   4.093   1.191   9.427 -0.1424  0.0412 -0.3026
 1210SOL    HW115092   4.078   1.240   9.346  2.6708  2.0034  0.3586
 1210SOL    HW215093   4.009   1.147   9.438 -1.1985  2.8243  2.7686
 1211SOL     OW15094   0.575   2.200   8.505 -0.2180  0.7007  0.9488
 1211SOL    HW115095   0.488   2.230   8.532  0.0440  1.2113  1.2439
 1211SOL    HW215096   0.577   2.120   8.556 -2.3226  0.1581  0.1767
 1212SOL     OW15097   3.093   0.248   7.745  1.2957 -0.2439 -0.2119
 1212SOL    HW115098   3.049   0.245   7.660  1.5878  0.4985 -0.3985
 1212SOL    HW215099   3.016   0.223   7.795  1.5497  2.0253  1.3361
 1213SOL     OW15100   3.701   3.577   8.810 -0.0619 -0.4494 -0.2315
 1213SOL    HW115101   3.789   3.614   8.819  0.1516 -0.4165 -2.5009
 1213SOL    HW215102   3.699   3.537   8.723  2.2924 -1.5702  0.2164
 1214SOL     OW15103   2.686   2.948   4.783  0.4243  0.0684 -0.4900
 1214SOL    HW115104   2.735   3.004   4.843  1.8185 -1.8890  0.1782
 1214SOL    HW215105   2.605   2.999   4.782  0.0388 -0.5403  0.2525
 1215SOL     OW15106   0.783   0.412  15.450  0.1584  0.3102 -0.6076
 1215SOL    HW115107   0.868   0.369  15.436 -0.3563 -1.0754  0.5158
 1215SOL    HW215108   0.795   0.502  15.420 -1.2941  0.9733  0.8136
 1216SOL     OW15109   0.323   1.349   6.753  0.0978 -0.1785  0.0565
 1216SOL    HW115110   0.293   1.329   6.842 -1.2143  1.7815  0.0630
 1216SOL    HW215111   0.299   1.276   6.696  0.3704 -0.0435 -0.2333
 1217SOL     OW15112   4.149   2.366   5.418  0.2571  0.2075 -0.2113
 1217SOL    HW115113   4.065   2.319   5.416  0.8279 -0.9412  3.2113
 1217SOL    HW215114   4.204   2.313   5.362 -0.8953 -1.8692  0.6290
 1218SOL     OW15115   0.718   2.506  14.891 -0.6069 -0.0855 -0.3769
 1218SOL    HW115116   0.729   2.411  14.898  3.5805  0.3923 -0.4159
 1218SOL    HW215117   0.748   2.535  14.977 -2.8645 -3.5246  1.6288
 1219SOL     OW15118   2.189   1.622  17.495  0.0329  0.2026 -1.0487
 1219SOL    HW115119   2.191   1.714  17.468 -0.2895  0.6188  0.2891
 1219SOL    HW215120   2.174   1.630  17.590  2.6933 -1.4289 -0.4855
 1220SOL     OW15121   1.181   4.561  16.434 -0.8315 -0.1128 -0.3764
 1220SOL    HW115122   1.131   4.480  16.432 -1.0355 -0.0624  2.4057
 1220SOL    HW215123   1.110   4.621  16.458  0.5378  1.1974  0.4555
 1221SOL     OW15124   3.365   2.187  10.669  0.6219 -0.2159 -0.1861
 1221SOL    HW115125   3.327   2.250  10.608  1.1658 -0.7511 -1.0802
 1221SOL    HW215126   3.400   2.241  10.740 -0.8363 -0.6096  0.8286
 1222SOL     OW15127   3.135   0.899   8.896  0.3271 -0.0357 -0.6511
 1222SOL    HW115128   3.058   0.938   8.938  1.5351 -1.0766  2.5024
 1222SOL    HW215129   3.129   0.804   8.910  1.9892 -0.1931 -0.9966
 1223SOL     OW15130   1.729   4.686   8.862  0.4518  0.1197 -0.1468
 1223SOL    HW115131   1.663   4.681   8.793  0.5173  1.8809 -0.3383
 1223SOL    HW215132   1.809   4.688   8.809  0.7591 -2.2814  0.2176
 1224SOL     OW15133   0.808   0.174   9.158  0.0524 -0.1225 -0.4658
 1224SOL    HW115134   0.719   0.172   9.122 -0.6026  1.5122  1.0124
 1224SOL    HW215135   0.786   0.132   9.242  0.0829  0.3423 -0.2226
 1225SOL     OW15136   4.379   0.615   6.886 -0.1070  0.4101  0.1160
 1225SOL    HW115137   4.298   0.600   6.837  0.1942 -0.4941 -0.1098
 1225SOL    HW215138   4.365   0.550   6.955 -0.8731  0.3581 -0.0838
 1226SOL     OW15139   0.564   2.169   2.509 -0.0677  0.3604  0.4157
 1226SOL    HW115140   0.508   2.091   2.512  0.5143 -0.0557  0.4408
 1226SOL    HW215141   0.528   2.221   2.437 -1.3164 -0.9331  0.1050
 1227SOL     OW15142   4.524   3.833   7.113  0.2328  0.0358  0.1772
 1227SOL    HW115143   4.500   3.907   7.057  2.0955  1.1548  0.8226
 1227SOL    HW215144   4.606   3.868   7.151  1.2307  0.3174 -2.2346
 1228SOL     OW15145   1.043   2.871   6.693  0.2473 -0.1206 -0.5736
 1228SOL    HW115146   1.128   2.835   6.717  0.8601 -0.2417 -2.9295
 1228SOL    HW215147   0.978   2.818   6.740 -0.1427  1.1302  0.2990
 1229SOL     OW15148   1.211   4.428   8.205 -0.2758 -0.5174 -0.1282
 1229SOL    HW115149   1.142   4.495   8.205 -0.7835 -1.0298 -1.7675
 1229SOL    HW215150   1.281   4.476   8.248 -0.5097 -0.1986 -0.1021
 1230SOL     OW15151   4.413   1.223   1.090 -0.4154 -0.1696 -0.2323
 1230SOL    HW115152   4.348   1.154   1.100  0.4838 -1.1354 -1.1183
 1230SOL    HW215153   4.389   1.267   1.008 -0.2585  3.3204  1.5701
 1231SOL     OW15154   3.364   3.939   9.459 -0.0510 -0.2649  0.1189
 1231SOL    HW115155   3.294   3.985   9.413 -0.3488 -0.1617  0.6775
 1231SOL    HW215156   3.382   3.865   9.400 -0.7397  0.9526 -1.6316
 1232SOL     OW15157   0.850   1.133   5.331  0.5001 -0.5511  0.3361
 1232SOL    HW115158   0.881   1.219   5.301 -1.3541  0.1082  0.3046
 1232SOL    HW215159   0.811   1.100   5.250  3.2129 -2.9187  0.0065
 1233SOL     OW15160   1.199   3.074   7.897 -0.3260 -0.6504 -0.3321
 1233SOL    HW115161   1.154   3.156   7.876 -0.9416 -0.1545  2.7953
 1233SOL    HW215162   1.287   3.107   7.913 -1.5084  1.6540  1.3945
 1234SOL     OW15163   3.560   4.551   2.778  0.5566 -0.1287  0.1768
 1234SOL    HW115164   3.571   4.617   2.710  1.0295 -0.8578 -0.4608
 1234SOL    HW215165   3.502   4.489   2.734 -2.7093  1.0452  2.8879
 1235SOL     OW15166   4.387   3.852  12.559 -0.0546  0.1111  0.9131
 1235SOL    HW115167   4.411   3.849  12.652 -2.0634 -1.7038  1.3824
 1235SOL    HW215168   4.399   3.945  12.540  0.4209 -0.2409 -0.5055
 1236SOL     OW15169   4.018   2.684  13.578  0.0217  0.2520 -0.1237
 1236SOL    HW115170   4.039   2.590  13.578 -0.9175  0.0401  0.6501
 1236SOL    HW215171   4.046   2.704  13.668 -0.0989 -2.3830  0.5007
 1237SOL     OW15172   1.449   0.346  13.533 -0.2309  0.1809  0.0026
 1237SOL    HW115173   1.462   0.272  13.592  0.5036 -0.0561 -0.4646
 1237SOL    HW215174   1.426   0.409  13.601 -2.3589 -0.4796 -0.0918
 1238SOL     OW15175   0.257   1.836  12.073  0.1587  0.0480 -0.0776
 1238SOL    HW115176   0.316   1.861  12.145 -0.4495  0.0020  0.4317
 1238SOL    HW215177   0.295   1.890  12.004 -0.8153  1.1354  0.2319
 1239SOL     OW15178   2.648   3.698   6.328 -0.3225  0.0764 -0.0274
 1239SOL    HW115179   2.625   3.672   6.239 -0.8392 -0.6284  0.3095
 1239SOL    HW215180   2.717   3.762   6.310 -2.4129  2.3114 -0.0442
 1240SOL     OW15181   4.316   0.692  15.991  0.1510  0.2462  0.5907
 1240SOL    HW115182   4.358   0.728  15.913  1.6849  0.4606  1.5079
 1240SOL    HW215183   4.250   0.760  16.006 -0.0548  0.2401 -0.2608
 1241SOL     OW15184   0.691   3.189   3.756 -0.0067  0.1963  0.0926
 1241SOL    HW115185   0.698   3.261   3.819  0.4325 -1.7643  2.3234
 1241SOL    HW215186   0.759   3.212   3.693 -0.5609  0.0049 -0.5745
 1242SOL     OW15187   0.275   4.209  10.265  0.7786 -0.0685  0.9190
 1242SOL    HW115188   0.181   4.196  10.252  1.2011 -0.3617 -1.7796
 1242SOL    HW215189   0.288   4.295  10.225 -0.1638 -0.4958 -0.3011
 1243SOL     OW15190   2.233   1.645   6.420  0.3942  0.1283  0.6019
 1243SOL    HW115191   2.273   1.665   6.335 -1.0244  0.1955 -0.0609
 1243SOL    HW215192   2.138   1.647   6.409  0.5203  0.6963 -0.3528
 1244SOL     OW15193   4.125   0.528   6.466  0.1994  0.2086 -0.7742
 1244SOL    HW115194   4.127   0.433   6.474 -0.4422  0.2867  0.3590
 1244SOL    HW215195   4.212   0.541   6.429  1.1508  0.0010  1.4108
 1245SOL     OW15196   3.864   2.974   3.600 -0.2755 -0.1689 -0.3818
 1245SOL    HW115197   3.944   2.975   3.653 -0.1570  0.1752 -0.5694
 1245SOL    HW215198   3.843   3.063   3.572 -0.6938 -0.9512 -2.5476
 1246SOL     OW15199   2.078   3.196   7.464 -0.1756  0.1242  0.1172
 1246SOL    HW115200   2.063   3.144   7.385 -1.2958  0.8803 -0.1674
 1246SOL    HW215201   2.137   3.263   7.429  3.4712 -2.9980  0.2655
 1247SOL     OW15202   1.794   1.775   1.769 -0.5592  0.1692  0.2263
 1247SOL    HW115203   1.859   1.753   1.836  0.8857 -0.0628 -1.2394
 1247SOL    HW215204   1.721   1.819   1.812 -0.8747 -0.8683  0.7314
 1248SOL     OW15205   4.073   0.607   2.918 -0.1928 -0.0948  0.1493
 1248SOL    HW115206   4.075   0.692   2.962  0.0731  0.6223 -1.2516
 1248SOL    HW215207   4.165   0.621   2.897 -0.3338  0.4937 -0.0631
 1249SOL     OW15208   2.178   0.138   3.574  0.0847 -0.3834 -0.4082
 1249SOL    HW115209   2.227   0.073   3.624 -2.1355  0.2252  2.6094
 1249SOL    HW215210   2.101   0.094   3.539  0.3930 -0.5063 -0.9147
 1250SOL     OW15211   2.040   4.446  17.479  0.4624  0.1493  0.1929
 1250SOL    HW115212   2.110   4.509  17.498  1.8038 -1.9259  2.2878
 1250SOL    HW215213   2.026   4.477  17.390 -1.2631  1.6790  0.9887
 1251SOL     OW15214   2.156   2.486  17.653  0.4659 -0.1674  0.3809
 1251SOL    HW115215   2.155   2.521  17.563 -0.4806  2.1141  1.2727
 1251SOL    HW215216   2.148   2.563  17.709  2.0216 -0.1859  0.6248
 1252SOL     OW15217   1.600   4.684   2.875 -0.2684  0.2926 -0.0664
 1252SOL    HW115218   1.512   4.668   2.841  0.2322 -1.0791 -0.7059
 1252SOL    HW215219   1.580   0.024   2.939 -1.8837  0.7122 -1.0203
 1253SOL     OW15220   2.344   0.317   4.097  0.1098 -0.1077 -0.3099
 1253SOL    HW115221   2.433   0.347   4.079  0.4821 -3.5686 -4.3552
 1253SOL    HW215222   2.309   0.390   4.149 -0.2059  0.6286 -1.5442
 1254SOL     OW15223   1.345   3.643   7.733  0.1590  0.1618  0.0440
 1254SOL    HW115224   1.318   3.554   7.713 -2.3839  0.7636  0.8107
 1254SOL    HW215225   1.329   3.693   7.653 -2.0804 -1.3304 -0.4444
 1255SOL     OW15226   3.624   2.388   2.324 -0.2406 -0.1095  0.1702
 1255SOL    HW115227   3.551   2.335   2.292 -2.6521  2.0805  2.0953
 1255SOL    HW215228   3.616   2.462   2.264 -1.0445  1.0619  1.7188
 1256SOL     OW15229   1.272   3.518   0.561 -0.0992  0.0863 -0.1540
 1256SOL    HW115230   1.344   3.469   0.599 -0.9271 -0.3757  0.8124
 1256SOL    HW215231   1.310   3.536   0.475 -0.5265 -1.7206 -0.7207
 1257SOL     OW15232   2.390   3.384   7.078 -0.2714  0.2728 -0.1806
 1257SOL    HW115233   2.438   3.301   7.078  0.3738  0.6462  0.0911
 1257SOL    HW215234   2.448   3.457   7.057  0.0912  0.5164  1.6127
 1258SOL     OW15235   1.271   2.208   1.903 -0.6145 -0.2362 -0.0445
 1258SOL    HW115236   1.193   2.250   1.866 -1.0822  0.1874  1.4528
 1258SOL    HW215237   1.265   2.122   1.861 -1.6510 -1.2325  2.1454
 1259SOL     OW15238   1.586   1.825   1.075 -0.6772 -0.1169 -0.0806
 1259SOL    HW115239   1.535   1.906   1.070  2.7064  2.0671  0.8149
 1259SOL    HW215240   1.535   1.763   1.126 -0.4309 -0.2553 -0.0039
 1260SOL     OW15241   1.992   1.019  12.464  0.3218 -0.3227 -0.5246
 1260SOL    HW115242   1.947   1.073  12.399 -0.0541  0.7017  0.5648
 1260SOL    HW215243   1.962   0.934  12.434 -1.2375 -0.4963  1.5227
 1261SOL     OW15244   2.949   0.171   2.149  0.0147 -0.1976 -0.0849
 1261SOL    HW115245   2.965   0.264   2.163 -1.5960 -0.2802  2.2443
 1261SOL    HW215246   2.913   0.172   2.061  1.2785  1.8324 -0.5760
 1262SOL     OW15247   4.607   0.731  13.082 -0.1706 -0.1570 -0.0839
 1262SOL    HW115248   4.700   0.748  13.096 -0.4701  1.2465  0.1680
 1262SOL    HW215249   4.600   0.638  13.059  2.2521 -0.3765  0.0655
 1263SOL     OW15250   2.915   4.709   9.042  0.5545 -0.1487 -0.6133
 1263SOL    HW115251   2.950   0.013   8.959  2.4038  2.9517  1.3652
 1263SOL    HW215252   2.831   0.020   9.019  1.4466  1.8879 -0.4725
 1264SOL     OW15253   1.478   1.388  13.420  0.0866  0.0613 -0.1557
 1264SOL    HW115254   1.515   1.305  13.391  0.1439  0.0432 -0.0282
 1264SOL    HW215255   1.410   1.408  13.355  0.5476  1.5273 -0.1869
 1265SOL     OW15256   3.174   1.731  13.292 -0.2383 -0.7649 -0.0284
 1265SOL    HW115257   3.170   1.685  13.208 -0.1587  1.9057 -1.4918
 1265SOL    HW215258   3.196   1.818  13.260 -2.9056 -0.1168 -0.1198
 1266SOL     OW15259   3.386   3.719   7.560  0.1792 -0.4251 -0.4455
 1266SOL    HW115260   3.433   3.668   7.627 -0.4954 -0.7207 -0.1918
 1266SOL    HW215261   3.297   3.723   7.594  0.3494  0.2901 -0.0746
 1267SOL     OW15262   2.646   1.827   7.263 -0.4434 -0.0782  0.3108
 1267SOL    HW115263   2.658   1.796   7.174  1.0665 -1.8477  1.1381
 1267SOL    HW215264   2.633   1.921   7.248  1.8116 -0.0851 -1.6763
 1268SOL     OW15265   1.525   3.060   7.593 -0.1477 -0.4014  0.2217
 1268SOL    HW115266   1.438   3.045   7.556  1.4022  0.0494 -3.6211
 1268SOL    HW215267   1.574   3.103   7.523  0.5258 -1.2927  0.1576
 1269SOL     OW15268   1.050   1.827  17.189  0.5018  0.1584  0.2842
 1269SOL    HW115269   1.049   1.884  17.267 -2.6962  0.1130  0.2749
 1269SOL    HW215270   0.958   1.818  17.167  0.6576 -0.5949 -0.0457
 1270SOL     OW15271   0.426   1.263   0.843  0.2037  0.1506  0.4428
 1270SOL    HW115272   0.348   1.313   0.867 -0.6264  0.1728 -2.2281
 1270SOL    HW215273   0.442   1.301   0.757 -0.6242  1.6586  0.9625
 1271SOL     OW15274   2.400   2.309   7.109  0.3454 -0.1623 -0.6462
 1271SOL    HW115275   2.473   2.357   7.069  0.8314 -1.0476 -0.8204
 1271SOL    HW215276   2.369   2.252   7.039  1.4393  0.2449 -1.4697
 1272SOL     OW15277   4.477   4.349   7.993  0.2661  0.6570 -0.0059
 1272SOL    HW115278   4.468   4.392   7.908  3.0452  3.4065  1.1090
 1272SOL    HW215279   4.536   4.278   7.968  0.2737  0.1035  1.5940
 1273SOL     OW15280   2.233   3.734  11.080 -0.3168 -0.7156 -0.3414
 1273SOL    HW115281   2.150   3.701  11.047 -0.1947 -0.8006 -0.5658
 1273SOL    HW215282   2.258   3.798  11.013 -1.4807 -0.2571 -0.3389
 1274SOL     OW15283   4.298   4.158   4.785  0.1881  0.6920  0.1497
 1274SOL    HW115284   4.347   4.236   4.757  0.8211  0.0139 -0.6021
 1274SOL    HW215285   4.206   4.184   4.778 -0.4280 -1.3448  0.6019
 1275SOL     OW15286   1.721   2.151   6.751 -0.0894 -0.1677 -0.1914
 1275SOL    HW115287   1.688   2.197   6.829 -1.1830 -0.3059 -0.5758
 1275SOL    HW215288   1.714   2.063   6.787 -1.4502 -0.7095 -1.8143
 1276SOL     OW15289   2.925   1.136   0.345 -0.1530  0.5286  0.3318
 1276SOL    HW115290   2.982   1.073   0.301  0.7779  1.3098  0.4139
 1276SOL    HW215291   2.891   1.075   0.411  0.9521 -0.1005  0.3198
 1277SOL     OW15292   1.473   1.952   4.823 -0.2028 -0.3963 -0.1852
 1277SOL    HW115293   1.488   1.860   4.802 -1.3611 -0.4198 -0.8714
 1277SOL    HW215294   1.423   1.949   4.904 -0.1612  0.5357 -0.1207
 1278SOL     OW15295   2.214   3.090   5.865  0.1026 -0.0533  0.1350
 1278SOL    HW115296   2.272   3.150   5.912  0.5810  1.0314 -1.8126
 1278SOL    HW215297   2.253   3.083   5.778 -2.1943  1.0635 -0.9865
 1279SOL     OW15298   3.662   2.919   5.894 -0.7244 -0.3383 -0.4673
 1279SOL    HW115299   3.642   2.936   5.986 -2.4263 -2.0520 -0.5143
 1279SOL    HW215300   3.701   2.832   5.894  0.2730  0.1183  0.2732
 1280SOL     OW15301   1.569   0.528   5.469  0.2719 -0.0410 -0.0825
 1280SOL    HW115302   1.539   0.503   5.382 -1.3034 -0.2210  0.5035
 1280SOL    HW215303   1.651   0.569   5.441 -0.0504  2.6365  2.8404
 1281SOL     OW15304   0.263   4.319   3.436 -0.6718 -0.5013 -0.4417
 1281SOL    HW115305   0.239   4.262   3.363  2.1903 -1.6287 -0.4738
 1281SOL    HW215306   0.178   4.316   3.481 -0.6906 -1.0045 -0.5080
 1282SOL     OW15307   0.040   0.038   4.304  0.6331  0.3017  0.2290
 1282SOL    HW115308   4.701   4.699   4.292  0.3509  0.6443 -0.0948
 1282SOL    HW215309   0.034   0.068   4.394 -3.5739 -2.8346  0.9889
 1283SOL     OW15310   3.436   3.693  15.667  0.2457  0.0111  0.4316
 1283SOL    HW115311   3.420   3.722  15.577 -0.5308  0.9363  0.8674
 1283SOL    HW215312   3.500   3.624  15.650 -0.5457 -0.2515 -1.4982
 1284SOL     OW15313   2.908   4.122   9.383  0.3977  0.2082  0.0104
 1284SOL    HW115314   2.879   4.031   9.394 -0.3598  0.4720  0.1988
 1284SOL    HW215315   3.002   4.119   9.399  0.3711  3.5282  0.7006
 1285SOL     OW15316   3.997   0.059  10.755 -0.0713  0.0247  0.3238
 1285SOL    HW115317   4.052   0.045  10.832  1.5558 -1.6516 -1.1126
 1285SOL    HW215318   3.910   0.048  10.793  0.1468 -2.3861  0.1481
 1286SOL     OW15319   4.444   3.994   6.294  0.3229 -0.3718  0.3238
 1286SOL    HW115320   4.513   4.016   6.232  0.1328  1.8187  0.8903
 1286SOL    HW215321   4.470   4.047   6.370 -0.0570 -1.0577  0.9337
 1287SOL     OW15322   3.733   3.818   7.826 -0.1664 -0.7487  0.2197
 1287SOL    HW115323   3.788   3.772   7.762 -1.4304 -0.6830 -0.9220
 1287SOL    HW215324   3.716   3.742   7.881  0.9624 -0.5651  0.8192
 1288SOL     OW15325   2.744   1.403   7.650  0.3545 -0.0339  0.1964
 1288SOL    HW115326   2.768   1.315   7.622  1.8429  0.1449  0.8884
 1288SOL    HW215327   2.744   1.450   7.567 -0.3166  0.7526  0.6376
 1289SOL     OW15328   2.028   0.009   4.946 -0.0000 -0.4804 -0.1062
 1289SOL    HW115329   2.054   4.651   4.977  2.8891  0.5353  0.3612
 1289SOL    HW215330   2.008   0.060   5.025 -1.1022 -0.4317 -0.4251
 1290SOL     OW15331   0.894   4.459   5.195  0.5930  0.0076 -0.1155
 1290SOL    HW115332   0.936   4.544   5.207 -0.1787  0.2064  1.1706
 1290SOL    HW215333   0.907   4.444   5.101 -1.9226  3.5820 -1.0075
 1291SOL     OW15334   3.259   1.560   3.189  0.5131  0.1837 -0.4225
 1291SOL    HW115335   3.323   1.565   3.118  0.8618  0.6223 -0.0776
 1291SOL    HW215336   3.313   1.528   3.261 -2.3693  1.0049  2.0736
 1292SOL     OW15337   4.192   2.064   9.680  0.3311  0.4937 -0.4077
 1292SOL    HW115338   4.263   2.125   9.658  0.5923 -0.5507 -2.4756
 1292SOL    HW215339   4.243   2.009   9.738  0.0990  0.1652 -0.5112
 1293SOL     OW15340   4.478   3.662   8.106 -0.0777 -0.2933 -0.5271
 1293SOL    HW115341   4.519   3.747   8.126 -1.2224  0.5429 -1.6982
 1293SOL    HW215342   4.552   3.602   8.103 -0.2994 -0.6634  1.8787
 1294SOL     OW15343   0.957   1.415  11.750  0.0143 -0.0945 -0.2175
 1294SOL    HW115344   1.014   1.346  11.784  0.1045 -0.6147 -1.4067
 1294SOL    HW215345   1.020   1.486  11.762  0.5190 -0.8083  1.3021
 1295SOL     OW15346   1.099   3.175   8.678  0.2259  0.5262 -0.3774
 1295SOL    HW115347   1.019   3.165   8.729  1.3736 -0.7314  1.1703
 1295SOL    HW215348   1.074   3.141   8.592  0.7642 -1.7712  0.3659
 1296SOL     OW15349   1.739   4.614   2.115  0.3757  0.0982  0.0223
 1296SOL    HW115350   1.814   4.651   2.162  0.5367  2.1146 -1.7980
 1296SOL    HW215351   1.690   4.696   2.112  3.3707  1.8335 -1.7155
 1297SOL     OW15352   2.972   2.119   3.426 -0.0235  0.2515  0.3734
 1297SOL    HW115353   2.916   2.169   3.485  1.0230  1.4028  0.4033
 1297SOL    HW215354   2.914   2.047   3.402 -0.3121 -0.0455  1.9851
 1298SOL     OW15355   4.715   1.322  16.649  0.2356 -0.1580 -0.7652
 1298SOL    HW115356   4.644   1.345  16.709 -0.6827 -2.8411 -0.8230
 1298SOL    HW215357   0.055   1.376  16.690 -1.4672  1.1023  0.4118
 1299SOL     OW15358   3.017   3.491   5.064 -0.0777  0.4905 -0.1383
 1299SOL    HW115359   2.989   3.411   5.020  1.7604  0.5732 -1.4441
 1299SOL    HW215360   3.087   3.458   5.119 -0.1263 -0.0433 -0.3999
 1300SOL     OW15361   0.373   0.881   1.379  0.1417 -0.3697 -0.3204
 1300SOL    HW115362   0.327   0.808   1.421  0.2989  0.0578  0.5900
 1300SOL    HW215363   0.344   0.951   1.438  1.6550 -0.4275  0.4812
 1301SOL     OW15364   2.265   0.377  12.452 -0.6490  0.2774 -0.1194
 1301SOL    HW115365   2.200   0.334  12.397  0.9037  0.6985 -2.2859
 1301SOL    HW215366   2.223   0.462  12.456 -1.4207 -0.1643  1.0723
 1302SOL     OW15367   4.092   0.246  16.214 -0.4154  0.0020  0.5412
 1302SOL    HW115368   4.184   0.244  16.190  0.1569  1.7174  2.6963
 1302SOL    HW215369   4.097   0.239  16.309 -0.2833 -0.8951  0.4735
 1303SOL     OW15370   1.342   3.518   1.375  0.5872  0.4884 -0.9735
 1303SOL    HW115371   1.334   3.491   1.467  0.7033 -0.4275 -1.2308
 1303SOL    HW215372   1.364   3.429   1.347  0.3111  0.1755 -0.1819
 1304SOL     OW15373   4.507   1.852   3.498 -0.5995 -0.3027 -0.5349
 1304SOL    HW115374   4.417   1.836   3.526 -0.5078 -1.8046 -1.0945
 1304SOL    HW215375   4.525   1.927   3.554  1.0304 -1.2851  0.2672
 1305SOL     OW15376   0.294   0.414   6.914 -0.6715 -0.3245 -0.2157
 1305SOL    HW115377   0.355   0.468   6.963  1.0987 -2.4689 -0.0725
 1305SOL    HW215378   0.346   0.358   6.857 -1.8132  1.1983 -2.7706
 1306SOL     OW15379   1.601   0.754   5.917  0.4456 -0.1158 -0.1964
 1306SOL    HW115380   1.671   0.689   5.917 -1.8712 -2.5856  1.2734
 1306SOL    HW215381   1.637   0.842   5.902  1.1014 -0.3603 -0.0731
 1307SOL     OW15382   0.756   0.695   4.364 -0.4985  0.1158  0.1502
 1307SOL    HW115383   0.746   0.607   4.400 -0.3666  0.1545  0.2768
 1307SOL    HW215384   0.813   0.677   4.290  0.6241  3.4178  0.2254
 1308SOL     OW15385   1.972   4.581  16.968  0.0880 -0.7127 -0.2637
 1308SOL    HW115386   2.030   4.529  16.913 -0.9622  0.0724 -2.1180
 1308SOL    HW215387   1.989   4.671  16.942 -2.0132 -0.4918 -0.8801
 1309SOL     OW15388   3.779   4.718   6.057 -0.2654 -0.6391 -0.0177
 1309SOL    HW115389   3.811   4.657   5.992  3.0586  1.3570 -0.2270
 1309SOL    HW215390   3.842   0.061   6.045 -2.0179  1.2129  1.6933
 1310SOL     OW15391   1.401   3.173   3.788 -0.3581 -0.3027  0.0878
 1310SOL    HW115392   1.327   3.208   3.838 -1.1905 -0.1256 -1.2643
 1310SOL    HW215393   1.422   3.100   3.846  2.7434 -0.2350 -0.9863
 1311SOL     OW15394   3.367   4.581   3.013  0.9725  0.5968 -0.3819
 1311SOL    HW115395   3.417   4.624   2.943 -1.2889  1.3911 -1.4847
 1311SOL    HW215396   3.411   4.497   3.020 -1.2503 -0.5609 -0.4298
 1312SOL     OW15397   2.377   0.858   3.278  0.1101 -0.4783  0.0812
 1312SOL    HW115398   2.439   0.817   3.218 -0.1144 -1.2305  0.3732
 1312SOL    HW215399   2.300   0.850   3.221  0.0758 -1.3140  0.2534
 1313SOL     OW15400   4.225   3.076   5.640 -0.0219  0.5351  0.6581
 1313SOL    HW115401   4.169   3.138   5.687  0.5742  1.4748  0.1402
 1313SOL    HW215402   4.162   3.030   5.584  1.2093  0.2845 -0.5203
 1314SOL     OW15403   1.895   3.899  16.118 -0.1396 -0.1343 -0.0511
 1314SOL    HW115404   1.854   3.829  16.169 -2.4398  1.2040 -0.0638
 1314SOL    HW215405   1.970   3.920  16.174  1.7187 -3.9253 -1.1397
 1315SOL     OW15406   2.752   4.283  10.401  0.0787  0.6048  0.8390
 1315SOL    HW115407   2.669   4.240  10.381 -0.1869  0.8990  1.3080
 1315SOL    HW215408   2.731   4.370  10.368  0.6649 -0.2051 -1.6852
 1316SOL     OW15409   1.081   2.922  15.882 -0.1244  0.2436 -0.2866
 1316SOL    HW115410   1.113   3.002  15.925 -0.9306  0.3358  0.1300
 1316SOL    HW215411   1.159   2.895  15.833 -0.6165 -0.1939 -0.8192
 1317SOL     OW15412   0.313   2.728  17.306 -0.2700 -0.1942 -0.0859
 1317SOL    HW115413   0.274   2.644  17.328  1.1203  0.0298  3.1185
 1317SOL    HW215414   0.349   2.714  17.218 -0.1203  1.6126 -0.3193
 1318SOL     OW15415   0.752   4.490   9.972 -0.1860 -0.6106  0.5782
 1318SOL    HW115416   0.831   4.503  10.025 -0.9259  1.7973  1.0884
 1318SOL    HW215417   0.689   4.536  10.027 -0.0518 -1.6860  1.6476
 1319SOL     OW15418   4.410   0.490   8.487 -0.2589 -0.5495 -0.2080
 1319SOL    HW115419   4.427   0.557   8.420  0.3010 -2.4268 -1.9449
 1319SOL    HW215420   4.484   0.432   8.472  1.1708  1.1188  0.4495
 1320SOL     OW15421   0.091   1.149   3.567  0.3311 -0.2783  0.0937
 1320SOL    HW115422   0.150   1.223   3.550 -0.0184 -0.1167 -0.4119
 1320SOL    HW215423   0.047   1.132   3.484  0.6479  1.9197 -0.5174
 1321SOL     OW15424   2.631   4.474   8.079 -0.2759  0.2835 -1.0049
 1321SOL    HW115425   2.551   4.427   8.058 -0.4830 -1.6241  4.1202
 1321SOL    HW215426   2.591   4.540   8.135  1.7716  0.0876  0.7025
 1322SOL     OW15427   1.417   3.432   4.728 -0.0118  0.2687  0.0096
 1322SOL    HW115428   1.447   3.506   4.674  2.5720 -0.5909  0.2740
 1322SOL    HW215429   1.422   3.359   4.666  2.9728 -1.0527  1.8384
 1323SOL     OW15430   4.153   1.578   5.400  0.4447  0.3758 -0.1216
 1323SOL    HW115431   4.157   1.647   5.334 -1.9623  1.4445  0.8432
 1323SOL    HW215432   4.229   1.526   5.374  0.0013 -0.2377 -0.2146
 1324SOL     OW15433   3.187   3.216   4.151  0.1261  0.0751 -0.0359
 1324SOL    HW115434   3.261   3.226   4.090 -1.3120 -0.1613 -1.8209
 1324SOL    HW215435   3.122   3.177   4.093  1.9955 -2.4710 -0.4290
 1325SOL     OW15436   1.618   1.387   1.988  0.1999 -0.2123  0.2303
 1325SOL    HW115437   1.619   1.293   1.969  0.5999 -0.0837 -0.3747
 1325SOL    HW215438   1.639   1.388   2.082 -0.6706  0.8046  0.4098
 1326SOL     OW15439   2.137   4.167  10.747 -0.0010  0.3444 -0.2368
 1326SOL    HW115440   2.062   4.168  10.688 -1.3206  2.8569  1.4637
 1326SOL    HW215441   2.126   4.254  10.785  0.5183  0.2454  0.1481
 1327SOL     OW15442   0.503   2.643   5.855 -0.7647  0.5902 -0.0206
 1327SOL    HW115443   0.498   2.732   5.821 -0.0445  1.0804  1.1640
 1327SOL    HW215444   0.596   2.630   5.872 -0.9705  0.6207  1.1606
 1328SOL     OW15445   1.042   0.695   3.766  0.1990 -0.2993 -0.3959
 1328SOL    HW115446   1.118   0.673   3.712  0.6310  1.1509 -0.3988
 1328SOL    HW215447   0.998   0.752   3.703 -2.7534 -0.8616  1.1664
 1329SOL     OW15448   2.489   0.849   8.491 -0.1564  0.5696  0.0952
 1329SOL    HW115449   2.423   0.912   8.463  0.7924  1.7371  0.4649
 1329SOL    HW215450   2.544   0.848   8.413  0.5146 -2.9008  0.6027
 1330SOL     OW15451   3.249   3.019   8.569 -0.0541 -0.0754  0.4183
 1330SOL    HW115452   3.160   2.989   8.589 -0.2874  0.1605 -0.2612
 1330SOL    HW215453   3.278   3.052   8.654  0.5141  1.1069 -0.2444
 1331SOL     OW15454   1.289   1.899   2.779  0.0213  0.2903 -0.1039
 1331SOL    HW115455   1.244   1.904   2.863  2.1751  1.7956  0.9693
 1331SOL    HW215456   1.371   1.932   2.815 -0.0106  0.2906 -0.0316
 1332SOL     OW15457   3.220   0.967   7.768  0.2488 -0.2879  0.0724
 1332SOL    HW115458   3.141   0.999   7.811  0.0227  0.8934 -1.2545
 1332SOL    HW215459   3.224   0.876   7.796 -1.5213 -0.4420 -0.1792
 1333SOL     OW15460   1.026   1.972   2.202  0.5224 -0.4149  0.0553
 1333SOL    HW115461   1.070   1.917   2.137  1.1866  1.7928 -1.3646
 1333SOL    HW215462   0.935   1.940   2.200  0.0261  0.9358  1.3711
 1334SOL     OW15463   1.550   4.005   0.792  0.3159  0.3827 -0.2674
 1334SOL    HW115464   1.503   3.967   0.866  0.2826  0.1268 -0.4203
 1334SOL    HW215465   1.528   4.097   0.811  0.2059 -0.0882  1.8326
 1335SOL     OW15466   2.244   0.266  11.780  0.3930  0.1121  0.4859
 1335SOL    HW115467   2.283   0.342  11.736  0.6871  1.0530  2.3493
 1335SOL    HW215468   2.263   0.287  11.872 -3.8247  2.7618  0.7454
 1336SOL     OW15469   1.096   3.718   6.172  0.3031  0.5173  0.1888
 1336SOL    HW115470   1.098   3.645   6.233  0.1910 -0.3619 -0.8559
 1336SOL    HW215471   1.153   3.683   6.103  0.8624  2.3154 -0.2784
 1337SOL     OW15472   3.294   4.170   0.574  0.2892 -0.3099  0.3544
 1337SOL    HW115473   3.242   4.180   0.495 -0.8058  1.3463  1.2819
 1337SOL    HW215474   3.301   4.074   0.572 -2.1314 -0.4387 -0.8083
 1338SOL     OW15475   1.644   1.850   5.940 -0.7420 -0.6998  0.5777
 1338SOL    HW115476   1.700   1.926   5.956  0.1837 -1.1151 -0.6844
 1338SOL    HW215477   1.640   1.858   5.845  1.8246 -0.8363  0.4420
 1339SOL     OW15478   2.099   1.726   7.743 -0.5530  0.0220 -0.0183
 1339SOL    HW115479   2.073   1.655   7.685  0.1845 -1.5476  1.5509
 1339SOL    HW215480   2.067   1.801   7.693  1.6296 -0.0300 -1.4966
 1340SOL     OW15481   2.876   3.224   7.743 -0.4625 -0.5496  0.2392
 1340SOL    HW115482   2.924   3.192   7.819  0.7338 -1.5082 -0.9223
 1340SOL    HW215483   2.793   3.179   7.760  0.4176 -2.6444 -1.0592
 1341SOL     OW15484   3.230   0.147   7.375 -0.0615 -0.0073 -0.0848
 1341SOL    HW115485   3.185   0.214   7.324  2.7628  2.5356  0.7505
 1341SOL    HW215486   3.152   0.096   7.398  0.3143 -0.2649  0.6169
 1342SOL     OW15487   1.095   4.364   6.051 -0.7372 -0.1074  0.4572
 1342SOL    HW115488   1.093   4.304   6.126  0.6886 -0.8189 -0.0747
 1342SOL    HW215489   1.100   4.307   5.974 -1.2258 -2.4975  2.1697
 1343SOL     OW15490   0.549   0.226   0.304 -0.2740  0.0869  0.0483
 1343SOL    HW115491   0.560   0.203   0.212 -1.1451 -0.3659  0.0531
 1343SOL    HW215492   0.539   0.139   0.342  0.2220  0.3122  0.6746
 1344SOL     OW15493   0.979   4.033   4.115  0.0340 -0.5938  0.5243
 1344SOL    HW115494   1.018   4.017   4.029 -0.3505  0.3475  0.1692
 1344SOL    HW215495   0.930   3.951   4.122 -2.3330  0.6098 -1.7987
 1345SOL     OW15496   1.955   0.260   4.276  0.0414  0.1601  0.1491
 1345SOL    HW115497   1.871   0.221   4.300  1.3228 -3.8487 -1.9590
 1345SOL    HW215498   1.958   0.251   4.181  0.4442 -0.2155  0.1971
 1346SOL     OW15499   1.913   4.534   4.486 -0.2230  0.4586 -0.0493
 1346SOL    HW115500   1.888   4.538   4.394  0.9661 -1.7510 -0.4655
 1346SOL    HW215501   1.905   4.627   4.509  2.0429  0.2556  1.5271
 1347SOL     OW15502   0.887   2.141   9.641 -0.3503 -0.2737  0.1009
 1347SOL    HW115503   0.835   2.077   9.688 -0.8452  1.3046  1.7253
 1347SOL    HW215504   0.932   2.172   9.719 -0.5146 -0.5112  0.2882
 1348SOL     OW15505   2.548   1.699   2.414  0.2920  0.1420  0.6705
 1348SOL    HW115506   2.475   1.700   2.475  0.0757  1.7913  0.3634
 1348SOL    HW215507   2.602   1.765   2.457  0.4485 -0.5994  1.6083
 1349SOL     OW15508   4.556   1.369   7.955  0.1774  0.2216  0.6789
 1349SOL    HW115509   4.588   1.452   7.989  0.8898  0.6740 -1.0720
 1349SOL    HW215510   4.573   1.304   8.023 -2.8868 -0.6266  0.6269
 1350SOL     OW15511   3.197   3.775   8.432  0.4031 -0.0458  0.5992
 1350SOL    HW115512   3.207   3.772   8.527 -0.8924  1.5666  0.7883
 1350SOL    HW215513   3.115   3.726   8.422  0.5337  0.0061 -0.7360
 1351SOL     OW15514   1.447   2.505   7.295  0.0718  0.4582  0.0766
 1351SOL    HW115515   1.525   2.482   7.345  0.4621  1.1825 -0.1951
 1351SOL    HW215516   1.491   2.516   7.210 -0.4549 -1.0466 -0.3890
 1352SOL     OW15517   0.959   0.287   3.985 -0.0586 -0.1851  0.1185
 1352SOL    HW115518   1.002   0.300   3.901 -2.8390 -1.6548 -1.5455
 1352SOL    HW215519   0.898   0.213   3.978  1.3292 -1.2580 -0.5509
 1353SOL     OW15520   4.154   3.936   9.553 -0.1585 -0.3742 -0.2850
 1353SOL    HW115521   4.080   3.963   9.499 -0.7199 -3.3729 -1.0220
 1353SOL    HW215522   4.105   3.902   9.628 -0.6020 -0.8802 -0.8083
 1354SOL     OW15523   4.403   0.366   4.008  0.1810  0.5049  0.2753
 1354SOL    HW115524   4.356   0.448   3.993 -3.5861 -1.3711  1.6762
 1354SOL    HW215525   4.462   0.393   4.079  2.1241 -0.6803 -0.9210
 1355SOL     OW15526   1.865   1.073  15.120  0.0927  0.8756 -0.7301
 1355SOL    HW115527   1.810   0.997  15.099  0.5775  1.2692 -3.3048
 1355SOL    HW215528   1.879   1.116  15.036 -1.0685  2.6771  0.0028
 1356SOL     OW15529   1.360   4.596   2.170  0.2948  0.0302 -0.5144
 1356SOL    HW115530   1.405   4.680   2.184 -0.4304  0.6288 -1.7433
 1356SOL    HW215531   1.360   4.558   2.258  0.2435 -2.6470 -1.6741
 1357SOL     OW15532   2.812   3.512  15.543 -0.2413  0.5948 -0.1118
 1357SOL    HW115533   2.900   3.476  15.534  0.3753  2.6444 -2.5618
 1357SOL    HW215534   2.781   3.502  15.453 -1.6210 -0.6854  0.4996
 1358SOL     OW15535   2.635   0.139   1.960 -0.0647  0.1516 -0.5211
 1358SOL    HW115536   2.543   0.113   1.972 -0.1628  0.0939 -1.4069
 1358SOL    HW215537   2.649   0.157   1.867  0.0457 -1.5560 -0.8371
 1359SOL     OW15538   4.510   3.254   6.532  0.4458  0.4826  0.4650
 1359SOL    HW115539   4.523   3.341   6.571 -0.2536  0.4690  0.7339
 1359SOL    HW215540   4.559   3.273   6.452  1.1063 -1.3022  0.4465
 1360SOL     OW15541   1.588   0.566   4.866  0.2445 -0.3980 -0.0220
 1360SOL    HW115542   1.663   0.595   4.814 -0.1449  0.2260 -0.2325
 1360SOL    HW215543   1.586   0.474   4.842  2.5021 -0.4567 -0.0184
 1361SOL     OW15544   3.991   0.927   5.255 -0.1832  0.1275  0.0834
 1361SOL    HW115545   3.962   1.009   5.214  3.2936  0.7756 -1.1116
 1361SOL    HW215546   3.942   0.862   5.205  0.7021 -0.9837  0.6626
 1362SOL     OW15547   2.699   2.715   9.165  0.1677 -0.3794 -0.0397
 1362SOL    HW115548   2.619   2.682   9.205  0.5279 -2.1297 -0.7213
 1362SOL    HW215549   2.761   2.708   9.238 -0.0199 -1.0443  0.0602
 1363SOL     OW15550   4.212   2.452   7.729  0.1130 -0.0031  0.0250
 1363SOL    HW115551   4.120   2.476   7.723  0.3173  0.8880  0.4083
 1363SOL    HW215552   4.219   2.387   7.659 -0.2451  0.1928 -0.1937
 1364SOL     OW15553   2.962   1.898  13.685  0.1695 -0.0079  0.4920
 1364SOL    HW115554   3.037   1.941  13.645 -0.4821  1.4892  0.8815
 1364SOL    HW215555   3.002   1.826  13.733  1.1125  0.1264 -0.0991
 1365SOL     OW15556   0.966   0.672   4.199  0.3421  0.4216 -0.2598
 1365SOL    HW115557   1.000   0.724   4.126  0.2117 -0.4660 -0.9474
 1365SOL    HW215558   1.016   0.591   4.204 -0.7535 -0.1679  1.0738
 1366SOL     OW15559   3.781   1.697   5.941 -0.2454  0.0041  0.1070
 1366SOL    HW115560   3.697   1.706   5.986 -0.8851 -0.9375 -0.9006
 1366SOL    HW215561   3.760   1.634   5.872 -1.2679  0.8316 -0.3349
 1367SOL     OW15562   1.456   1.667   1.280 -0.3365 -0.5019 -0.3682
 1367SOL    HW115563   1.484   1.578   1.300 -1.3407 -0.5609  0.7200
 1367SOL    HW215564   1.362   1.668   1.299 -0.3717  0.6608 -0.5888
 1368SOL     OW15565   0.084   3.203   4.547 -0.4891 -0.5602 -0.2949
 1368SOL    HW115566   0.169   3.165   4.571 -0.9709  0.2723  2.7182
 1368SOL    HW215567   0.108   3.289   4.513  0.0687 -0.6210 -0.0596
 1369SOL     OW15568   0.771   3.673   5.054  0.2103  0.3772 -0.3388
 1369SOL    HW115569   0.807   3.661   5.142  0.2479 -2.2058 -0.7043
 1369SOL    HW215570   0.689   3.721   5.068  1.3093  1.6322  1.7989
 1370SOL     OW15571   4.135   2.236   1.664 -0.1588 -0.8374 -0.0813
 1370SOL    HW115572   4.177   2.255   1.580  1.0588 -0.3647  0.6447
 1370SOL    HW215573   4.197   2.166   1.685  0.0019 -1.2811 -2.0162
 1371SOL     OW15574   4.418   4.337   7.357  0.0072  0.3000  0.4047
 1371SOL    HW115575   4.363   4.262   7.380  1.1620 -0.2698  1.2802
 1371SOL    HW215576   4.409   4.401   7.428 -0.1131  0.3503  0.3451
 1372SOL     OW15577   0.678   1.718  14.907 -0.0513 -0.4121 -0.2103
 1372SOL    HW115578   0.762   1.762  14.918  0.7052 -1.7434 -0.7434
 1372SOL    HW215579   0.681   1.651  14.976  1.4739 -0.4176 -0.2873
 1373SOL     OW15580   2.081   0.948   4.920 -0.1837  0.0026  0.5706
 1373SOL    HW115581   2.003   0.898   4.895  0.1293 -1.2788  2.1295
 1373SOL    HW215582   2.101   1.007   4.847 -1.1658 -0.5107 -0.1160
 1374SOL     OW15583   1.723   0.653  10.300  0.2247  0.6548 -0.2559
 1374SOL    HW115584   1.695   0.724  10.242 -3.0684  1.6675  2.6050
 1374SOL    HW215585   1.643   0.641  10.351  1.6266 -1.8255  1.3619
 1375SOL     OW15586   0.974   3.256   4.409 -0.6003  0.3190  0.4613
 1375SOL    HW115587   0.922   3.194   4.357 -1.1354  0.5328  0.7488
 1375SOL    HW215588   1.011   3.316   4.344  1.7268 -0.8959  0.6456
 1376SOL     OW15589   4.683   3.499   8.447  0.6177 -0.5160  0.4753
 1376SOL    HW115590   0.050   3.500   8.447  0.6131 -0.0159  0.2774
 1376SOL    HW215591   4.666   3.566   8.381  1.4407  0.0180  0.7996
 1377SOL     OW15592   3.447   3.574   8.391 -0.0318 -0.0341 -0.2082
 1377SOL    HW115593   3.399   3.497   8.421 -1.7186  1.9464  2.1749
 1377SOL    HW215594   3.394   3.646   8.425  0.0871  0.1840 -0.4823
 1378SOL     OW15595   0.662   2.443   6.285 -0.5728 -0.4513  0.1054
 1378SOL    HW115596   0.602   2.418   6.214  2.2913 -0.6287 -2.2484
 1378SOL    HW215597   0.743   2.411   6.245 -0.2289  1.3459 -0.6470
 1379SOL     OW15598   3.230   1.751   8.317 -0.2534  0.0139  0.0857
 1379SOL    HW115599   3.276   1.720   8.239 -0.3670  0.1993 -0.0544
 1379SOL    HW215600   3.301   1.744   8.381 -1.0217  0.7432  1.0207
 1380SOL     OW15601   2.814   1.911   6.611 -0.2178  0.1171  0.5182
 1380SOL    HW115602   2.868   1.878   6.540 -1.4347 -2.2292  0.6677
 1380SOL    HW215603   2.866   1.893   6.689  1.7111 -3.8817 -1.6935
 1381SOL     OW15604   3.741   0.358   6.316 -0.2747 -0.5662 -0.1699
 1381SOL    HW115605   3.736   0.291   6.384 -0.8898  0.2130  0.5409
 1381SOL    HW215606   3.698   0.431   6.360 -0.3614 -0.2512 -0.7687
 1382SOL     OW15607   2.605   1.084   9.177 -0.0710 -0.3829 -0.0046
 1382SOL    HW115608   2.647   1.048   9.256  2.0895 -0.1417 -1.0432
 1382SOL    HW215609   2.617   1.006   9.123 -0.0710 -0.0277 -0.5197
 1383SOL     OW15610   4.402   2.192   5.760  0.0737  0.1092 -0.5368
 1383SOL    HW115611   4.384   2.261   5.696  1.9928  1.3146  0.2246
 1383SOL    HW215612   4.496   2.212   5.762  0.1286 -0.1474 -0.5978
 1384SOL     OW15613   0.777   3.784  12.948  0.2576  0.3796  0.1463
 1384SOL    HW115614   0.815   3.856  12.897  0.1804 -1.1351 -2.0476
 1384SOL    HW215615   0.734   3.734  12.879 -0.9908  0.8372  0.5931
 1385SOL     OW15616   4.495   3.532   2.807 -0.0661  0.3845  0.4450
 1385SOL    HW115617   4.500   3.624   2.781  0.3013  0.4915  0.8980
 1385SOL    HW215618   4.426   3.546   2.872 -0.7295 -1.9876  0.2444
 1386SOL     OW15619   0.967   2.817   6.375 -0.1373  0.1136 -0.1783
 1386SOL    HW115620   1.006   2.827   6.462  1.5306  2.0500 -1.1418
 1386SOL    HW215621   0.875   2.823   6.400  0.0303  1.5146  0.1550
 1387SOL     OW15622   1.985   4.067   4.406  0.1993  0.5161  0.1031
 1387SOL    HW115623   1.959   4.158   4.415 -0.3218  0.7462 -3.5522
 1387SOL    HW215624   1.926   4.029   4.341  0.9389  0.2597 -0.4290
 1388SOL     OW15625   0.702   3.557   2.170  0.2242  0.3166 -0.2113
 1388SOL    HW115626   0.654   3.601   2.240  1.3546  3.2942 -1.3169
 1388SOL    HW215627   0.791   3.558   2.205  0.7234 -1.4012 -1.4400
 1389SOL     OW15628   1.768   0.027   1.018 -0.4457 -0.0966 -0.0307
 1389SOL    HW115629   1.775   4.716   0.931  0.4157 -1.6953  0.7593
 1389SOL    HW215630   1.835   4.700   1.058  1.2176  1.8426 -0.1374
 1390SOL     OW15631   2.511   3.747   3.700 -0.1173 -0.4616 -0.7529
 1390SOL    HW115632   2.424   3.714   3.675 -0.9574  0.2309  1.3072
 1390SOL    HW215633   2.479   3.801   3.772 -0.6007 -1.2471 -0.3743
 1391SOL     OW15634   2.450   0.211  15.131 -0.1890  0.5855 -0.0590
 1391SOL    HW115635   2.423   0.263  15.055  1.6504 -0.8044 -1.6798
 1391SOL    HW215636   2.520   0.158  15.093 -0.0166  1.4977 -1.0196
 1392SOL     OW15637   4.286   4.335   1.349 -0.3050 -0.3227  0.1097
 1392SOL    HW115638   4.196   4.302   1.342  0.4841 -2.4168 -0.2909
 1392SOL    HW215639   4.330   4.262   1.392  0.5362  1.6491  2.5706
 1393SOL     OW15640   1.272   2.093   3.015 -0.3776 -0.2728 -0.1298
 1393SOL    HW115641   1.195   2.127   3.061 -1.5819 -2.3457 -0.5920
 1393SOL    HW215642   1.312   2.175   2.986  0.3729 -0.9928 -1.1246
 1394SOL     OW15643   0.108   1.710  12.274  0.2981 -0.0651 -0.3332
 1394SOL    HW115644   0.150   1.624  12.268  2.1378  0.9712 -2.4370
 1394SOL    HW215645   0.156   1.758  12.207  0.9708 -1.5867 -0.9486
 1395SOL     OW15646   3.119   3.169   5.813 -0.1765 -0.7904 -0.0164
 1395SOL    HW115647   3.101   3.160   5.907 -0.0153  0.9634  0.1831
 1395SOL    HW215648   3.214   3.154   5.810 -0.1213  0.2025 -2.8053
 1396SOL     OW15649   0.593   0.415   5.454 -0.0515  0.3352  0.3149
 1396SOL    HW115650   0.629   0.415   5.543  0.4984 -0.0361  0.0940
 1396SOL    HW215651   0.524   0.348   5.457 -0.1568  0.4043 -0.5780
 1397SOL     OW15652   0.269   0.156   1.304  0.2398 -0.8403 -0.4411
 1397SOL    HW115653   0.334   0.225   1.288  1.7933 -1.7850  1.7011
 1397SOL    HW215654   0.306   0.103   1.233  2.1240  0.7456 -0.6432
 1398SOL     OW15655   2.571   0.469   7.080 -0.0500 -0.4471  0.4489
 1398SOL    HW115656   2.633   0.485   7.009  0.2241  0.2279  0.8425
 1398SOL    HW215657   2.559   0.558   7.112  0.9201  0.4331 -1.6177
 1399SOL     OW15658   0.116   0.805   2.582 -0.2245 -0.1283  0.4874
 1399SOL    HW115659   0.136   0.804   2.489 -0.0197  0.6603  0.5208
 1399SOL    HW215660   0.065   0.886   2.584  0.5567  0.3481  1.0650
 1400SOL     OW15661   3.823   4.379   2.762 -0.0633  0.5936 -0.1291
 1400SOL    HW115662   3.735   4.407   2.789 -0.4011  1.3545 -2.0290
 1400SOL    HW215663   3.802   4.289   2.736 -1.9107  0.1260  3.0060
 1401SOL     OW15664   0.384   1.325  11.148 -0.1465  0.5435  0.7138
 1401SOL    HW115665   0.409   1.238  11.181 -1.4792  0.0126  0.3155
 1401SOL    HW215666   0.288   1.317  11.150 -0.3575  2.6545 -2.0629
 1402SOL     OW15667   0.817   2.161   0.911 -0.0146  0.1116 -0.4917
 1402SOL    HW115668   0.744   2.222   0.909  0.4516  0.6413 -1.9490
 1402SOL    HW215669   0.825   2.117   0.996  2.3731  0.6820 -0.4138
 1403SOL     OW15670   1.639   0.986   5.258 -0.8916 -0.0055  0.1948
 1403SOL    HW115671   1.559   0.987   5.207 -0.2896 -1.5115 -0.7499
 1403SOL    HW215672   1.692   0.931   5.202 -0.8343 -0.8386  1.0631
 1404SOL     OW15673   1.853   0.019   2.692 -0.8903  0.0845  0.1224
 1404SOL    HW115674   1.792   0.042   2.762 -0.8686  0.6307 -0.0425
 1404SOL    HW215675   1.933   0.019   2.746  0.6235 -1.0447 -2.0920
 1405SOL     OW15676   2.676   2.483   4.339  0.1570  0.4971 -0.1008
 1405SOL    HW115677   2.591   2.443   4.358 -0.6947  1.2151 -2.3642
 1405SOL    HW215678   2.698   2.532   4.417  0.6636 -1.2580  0.8534
 1406SOL     OW15679   3.877   1.643   6.238  0.4376  0.6490  0.3174
 1406SOL    HW115680   3.866   1.585   6.163 -1.1646  0.2063  0.8929
 1406SOL    HW215681   3.967   1.675   6.238  1.2347 -1.6266  0.4014
 1407SOL     OW15682   3.387   3.554  17.592 -0.2553  0.0406 -0.3663
 1407SOL    HW115683   3.417   3.643  17.577  0.1555  0.3462  2.3798
 1407SOL    HW215684   3.473   3.516  17.573  0.2006  0.5639  0.6271
 1408SOL     OW15685   4.093   4.668   0.230  0.3008 -0.1957  0.2507
 1408SOL    HW115686   4.137   0.016   0.269  0.3791 -0.8758  1.5014
 1408SOL    HW215687   4.006   4.668   0.272  0.0448 -0.1522 -0.2896
 1409SOL     OW15688   3.714   1.575   4.096 -0.0219  0.2389 -0.2299
 1409SOL    HW115689   3.705   1.487   4.132  2.0923  0.5197  1.0078
 1409SOL    HW215690   3.635   1.579   4.042 -0.3556  0.8424  0.3010
 1410SOL     OW15691   2.199   2.927   3.273 -0.6841  0.8038 -0.3008
 1410SOL    HW115692   2.157   2.953   3.191  0.1575 -1.1021 -1.3341
 1410SOL    HW215693   2.254   3.002   3.297 -0.4399 -0.4974  3.1027
 1411SOL     OW15694   4.265   4.662  16.342  0.0609  0.2304  0.3216
 1411SOL    HW115695   4.216   4.602  16.285 -0.6032  1.1642 -0.0846
 1411SOL    HW215696   4.223   4.642  16.425 -0.1219  1.2281  0.4646
 1412SOL     OW15697   4.452   1.922   8.493  0.5620 -0.1239  0.3108
 1412SOL    HW115698   4.447   1.857   8.564 -0.1737  0.3999  0.7342
 1412SOL    HW215699   4.482   1.996   8.546  0.0241  0.2636  0.0721
 1413SOL     OW15700   3.589   3.452   6.278  0.2611  0.1516 -0.4301
 1413SOL    HW115701   3.570   3.360   6.259  0.8920 -0.5311  2.3141
 1413SOL    HW215702   3.678   3.444   6.312  0.7083  2.0056 -1.1746
 1414SOL     OW15703   2.531   0.452  15.194  0.4709 -0.5780 -0.3403
 1414SOL    HW115704   2.627   0.452  15.190  0.3839  1.3133 -2.4091
 1414SOL    HW215705   2.509   0.360  15.180 -0.2658 -0.6565  1.3863
 1415SOL     OW15706   0.359   4.509   6.612  0.8065 -0.4763 -0.2952
 1415SOL    HW115707   0.381   4.496   6.704  0.5964 -0.1502 -0.1965
 1415SOL    HW215708   0.302   4.433   6.602 -1.0767  0.7580  1.2718
 1416SOL     OW15709   2.382   2.589  11.725  0.2521  0.5376 -0.0013
 1416SOL    HW115710   2.457   2.629  11.681  0.0403  1.0369  0.0981
 1416SOL    HW215711   2.427   2.561  11.804 -0.5456  1.6616  0.8391
 1417SOL     OW15712   1.055   0.607   4.852  0.4954  0.4182 -0.0407
 1417SOL    HW115713   1.002   0.642   4.780  1.5430 -0.1829 -1.0791
 1417SOL    HW215714   1.137   0.596   4.806  1.5423  0.4112  1.8130
 1418SOL     OW15715   3.967   2.591   9.780 -0.1648  0.2967  0.2343
 1418SOL    HW115716   4.045   2.550   9.744 -0.0704  1.3113 -0.7358
 1418SOL    HW215717   3.967   2.556   9.868  0.9339 -0.2206  0.0251
 1419SOL     OW15718   1.360   0.439   6.341  0.4080  0.2435  0.1375
 1419SOL    HW115719   1.362   0.430   6.245 -1.2388  0.1943  0.0992
 1419SOL    HW215720   1.281   0.386   6.352 -1.3826  2.6571 -1.0928
 1420SOL     OW15721   2.169   0.365   4.882  0.3046  0.0953  0.2805
 1420SOL    HW115722   2.216   0.447   4.868 -0.2623  0.4811  0.6439
 1420SOL    HW215723   2.209   0.337   4.964 -1.6363 -0.4122  1.0546
 1421SOL     OW15724   0.452   2.948   7.647 -0.1839  0.1888  0.5139
 1421SOL    HW115725   0.393   2.874   7.636 -1.1627  0.7691  1.7808
 1421SOL    HW215726   0.530   2.918   7.601 -0.7919  3.4281 -2.6556
 1422SOL     OW15727   1.141   2.931  15.588  0.4194 -0.1275 -0.2587
 1422SOL    HW115728   1.222   2.981  15.585 -0.3339  1.0677 -0.5630
 1422SOL    HW215729   1.149   2.854  15.531 -3.8308 -1.6027  1.1946
 1423SOL     OW15730   1.138   2.182   6.178 -0.1045  0.0888 -0.1136
 1423SOL    HW115731   1.162   2.209   6.089  0.7940 -0.9579 -0.1870
 1423SOL    HW215732   1.121   2.089   6.167 -0.8626  0.3619 -1.2870
 1424SOL     OW15733   1.259   3.595   2.989 -0.2291  0.8368 -0.4061
 1424SOL    HW115734   1.185   3.535   3.001  0.7494 -0.1397  0.8163
 1424SOL    HW215735   1.318   3.566   3.059 -0.1847  0.6356 -0.5258
 1425SOL     OW15736   3.106   1.989  16.937  0.1247  0.2994 -0.3686
 1425SOL    HW115737   3.022   1.947  16.955  1.6230 -2.0518  1.1877
 1425SOL    HW215738   3.097   2.069  16.990 -2.0159 -0.6884  0.7521
 1426SOL     OW15739   1.134   1.361   5.077  0.0353  0.0339 -0.6878
 1426SOL    HW115740   1.066   1.334   5.015  0.1114 -1.2938 -0.1965
 1426SOL    HW215741   1.210   1.308   5.052  1.6553  2.4139 -0.8056
 1427SOL     OW15742   0.478   0.577   7.899 -0.2940 -0.1597  0.4513
 1427SOL    HW115743   0.519   0.493   7.920 -0.4773 -1.0097 -2.7679
 1427SOL    HW215744   0.532   0.637   7.952  1.9627  0.2504 -2.2937
 1428SOL     OW15745   3.269   4.226   6.290 -0.4834  0.6983  0.3844
 1428SOL    HW115746   3.221   4.217   6.207  1.0571  3.1370 -0.7597
 1428SOL    HW215747   3.300   4.316   6.293 -0.3288  0.6930 -0.8557
 1429SOL     OW15748   3.034   3.515  10.147 -0.2359  0.1602 -0.0994
 1429SOL    HW115749   3.008   3.522  10.239 -1.7211  1.0186 -0.5918
 1429SOL    HW215750   3.129   3.524  10.157 -0.2460  1.2585 -1.0972
 1430SOL     OW15751   1.306   3.221   5.751  0.1767  0.5252  0.0588
 1430SOL    HW115752   1.312   3.135   5.792 -2.4292  0.5789  0.5595
 1430SOL    HW215753   1.310   3.278   5.828 -1.7320 -0.9215  1.2062
 1431SOL     OW15754   3.804   1.735   4.579  0.1439  0.0042 -0.1677
 1431SOL    HW115755   3.834   1.744   4.669  0.1700 -0.3413 -0.1420
 1431SOL    HW215756   3.888   1.730   4.535 -0.8703 -0.9646 -1.9873
 1432SOL     OW15757   4.156   2.969   6.546 -0.1304 -0.4052 -0.5258
 1432SOL    HW115758   4.066   2.945   6.525 -0.3370 -0.2823  0.2089
 1432SOL    HW215759   4.207   2.900   6.505 -1.4744 -2.8531  1.9019
 1433SOL     OW15760   2.248   1.928   6.423  0.5284  0.2233  0.0986
 1433SOL    HW115761   2.270   1.974   6.504 -0.3200  0.8917 -0.0549
 1433SOL    HW215762   2.284   1.840   6.428 -0.5715 -0.1692  1.0112
 1434SOL     OW15763   4.266   4.028   4.346  0.2226 -0.7244 -0.0178
 1434SOL    HW115764   4.259   3.981   4.263 -1.1613  3.5636 -2.3334
 1434SOL    HW215765   4.263   4.123   4.335 -2.9373 -0.7891  0.3749
 1435SOL     OW15766   2.377   4.216   6.246 -0.3953 -0.2485 -0.0596
 1435SOL    HW115767   2.307   4.282   6.247 -0.9736 -0.8587 -0.3142
 1435SOL    HW215768   2.404   4.226   6.155 -1.2759  0.2665 -0.2687
 1436SOL     OW15769   4.677   2.228   5.716 -0.0849  0.8353  0.1240
 1436SOL    HW115770   0.044   2.220   5.722 -0.5087 -1.2965  3.7286
 1436SOL    HW215771   4.677   2.313   5.672  0.3184  0.4647 -0.5951
 1437SOL     OW15772   1.858   4.474  14.870  0.1891 -0.4023 -0.3646
 1437SOL    HW115773   1.825   4.496  14.958  1.8437 -2.8858  0.8899
 1437SOL    HW215774   1.946   4.441  14.885  0.7807  0.6013 -1.7342
 1438SOL     OW15775   1.040   1.759   7.254  0.3401 -0.5243  0.3066
 1438SOL    HW115776   1.028   1.811   7.175 -1.4655  0.6165  1.3376
 1438SOL    HW215777   1.120   1.790   7.296  0.2552  0.2654 -0.1121
 1439SOL     OW15778   0.293   3.518  15.911  0.4148 -0.3774  0.0156
 1439SOL    HW115779   0.315   3.540  15.821  1.2272  0.2302  0.3584
 1439SOL    HW215780   0.255   3.431  15.913 -0.0389 -0.1545  1.1769
 1440SOL     OW15781   0.135   4.297   4.973  0.1483 -0.2209 -0.4432
 1440SOL    HW115782   0.071   4.359   4.939  2.4385  2.2519 -0.2294
 1440SOL    HW215783   0.210   4.355   4.963  0.7399 -0.8447  0.3577
 1441SOL     OW15784   0.104   2.110  15.301 -0.6048  0.1835  0.1331
 1441SOL    HW115785   0.144   2.193  15.327 -0.0802  0.8585 -2.9247
 1441SOL    HW215786   0.175   2.066  15.254  0.6435  0.4859  1.6996
 1442SOL     OW15787   0.519   1.975   6.025  0.2663  0.2418 -0.2120
 1442SOL    HW115788   0.560   1.890   6.009 -1.1994 -0.6047  0.5486
 1442SOL    HW215789   0.425   1.956   6.027  0.3028  0.2716  1.3817
 1443SOL     OW15790   1.547   2.170  13.677  0.1137 -0.1983 -0.5591
 1443SOL    HW115791   1.500   2.090  13.698 -0.8355  0.3038 -0.7445
 1443SOL    HW215792   1.638   2.148  13.657  0.3730  0.9663 -0.6815
 1444SOL     OW15793   2.089   0.508  16.159 -0.3849 -0.0415 -0.2109
 1444SOL    HW115794   2.016   0.477  16.106 -2.1883  1.0729  1.6019
 1444SOL    HW215795   2.167   0.455  16.144 -1.6446 -1.6293 -1.0764
 1445SOL     OW15796   0.040   0.649  11.770  0.4632 -0.1606  0.2605
 1445SOL    HW115797   0.055   0.641  11.864 -2.7318 -0.9110  0.7239
 1445SOL    HW215798   0.007   0.561  11.751 -0.4888  0.8813 -3.0663
 1446SOL     OW15799   3.291   2.154  11.635  0.7804  0.0537  0.3900
 1446SOL    HW115800   3.263   2.082  11.691  0.3598  0.4568  0.7027
 1446SOL    HW215801   3.366   2.114  11.592 -0.1938 -1.0082 -0.3207
 1447SOL     OW15802   1.747   4.056   5.555 -0.5699 -0.4830  0.5278
 1447SOL    HW115803   1.683   4.101   5.500  0.3045  0.9031  0.6245
 1447SOL    HW215804   1.689   4.036   5.629 -2.0765 -1.4261 -0.8999
 1448SOL     OW15805   2.064   4.491   9.292 -0.2186  0.2028 -0.4332
 1448SOL    HW115806   2.079   4.446   9.376 -2.6993  0.6535  0.2485
 1448SOL    HW215807   2.028   4.574   9.322  1.5800  0.6394  0.5379
 1449SOL     OW15808   0.914   1.154   3.799 -0.2147  0.4126  0.2998
 1449SOL    HW115809   0.936   1.213   3.727 -0.4918 -0.6590 -0.6563
 1449SOL    HW215810   0.961   1.195   3.872 -1.4139 -0.7975  1.7716
 1450SOL     OW15811   3.221   2.604   9.177  0.0504  0.4865  0.7729
 1450SOL    HW115812   3.273   2.543   9.228 -0.3934  0.1035  0.7734
 1450SOL    HW215813   3.270   2.686   9.186 -0.2371  0.8890 -1.2976
 1451SOL     OW15814   4.569   0.322   5.506 -0.2829  0.3079 -0.3953
 1451SOL    HW115815   4.473   0.321   5.509 -0.2417 -0.4536  1.0274
 1451SOL    HW215816   4.597   0.365   5.587  1.9067  2.9768 -2.5941
 1452SOL     OW15817   1.993   4.132   3.536 -0.4944  0.0574 -0.0616
 1452SOL    HW115818   1.980   4.219   3.498 -1.7402 -0.2186 -0.2599
 1452SOL    HW215819   1.908   4.091   3.523 -0.6923  0.4237  0.0777
 1453SOL     OW15820   2.750   1.855   4.227 -0.1698  0.0331  0.1168
 1453SOL    HW115821   2.701   1.862   4.309 -1.1002 -1.9651 -0.2694
 1453SOL    HW215822   2.691   1.879   4.155  1.4225  2.2458 -0.4524
 1454SOL     OW15823   2.551   0.726   5.845 -0.0583 -0.6448  0.6194
 1454SOL    HW115824   2.593   0.812   5.835  0.2690 -0.9243 -0.3532
 1454SOL    HW215825   2.478   0.749   5.902  0.3515  2.0347  0.0853
 1455SOL     OW15826   0.016   1.136  13.121 -0.0959  0.0021 -0.1672
 1455SOL    HW115827   0.098   1.175  13.091 -0.1576  0.3356  0.0871
 1455SOL    HW215828   0.035   1.043  13.127 -4.2226 -0.8862 -0.9550
 1456SOL     OW15829   2.640   0.894   0.018 -0.3378 -0.7378 -0.2068
 1456SOL    HW115830   2.710   0.887   0.084  0.4890 -3.4615 -1.3668
 1456SOL    HW215831   2.673   0.842  17.658 -0.2152 -1.8561  0.6411
 1457SOL     OW15832   3.507   0.975   7.544  0.0029  0.1102 -0.3252
 1457SOL    HW115833   3.488   0.884   7.567 -1.0251  0.1947 -0.8468
 1457SOL    HW215834   3.418   0.997   7.516  0.1705  0.3662 -0.6588
 1458SOL     OW15835   1.951   1.999   5.373 -0.3612 -0.0163 -0.4761
 1458SOL    HW115836   1.985   1.941   5.442 -1.6136  3.1968  2.8472
 1458SOL    HW215837   2.020   2.065   5.381  2.5576 -3.3871  2.1728
 1459SOL     OW15838   4.334   3.169   4.282 -0.1528  0.1085  0.4191
 1459SOL    HW115839   4.306   3.260   4.293  0.0077  0.1521  0.4667
 1459SOL    HW215840   4.399   3.156   4.351  0.0481 -0.2527  0.1634
 1460SOL     OW15841   2.724   2.506   2.262 -0.0173  0.4422 -0.8216
 1460SOL    HW115842   2.726   2.599   2.287  1.2226  0.2084 -0.0223
 1460SOL    HW215843   2.786   2.503   2.189  0.8138  2.2511 -0.2160
 1461SOL     OW15844   0.041   0.093   5.194  0.1772  0.1719  0.2288
 1461SOL    HW115845   0.057   0.150   5.119 -1.1035 -0.9429 -0.8904
 1461SOL    HW215846   0.103   0.128   5.258 -0.0673  0.9965  0.0186
 1462SOL     OW15847   0.984   3.488   2.744 -0.2085  1.1126  0.2678
 1462SOL    HW115848   0.969   3.583   2.740 -0.5951  1.0485  0.1915
 1462SOL    HW215849   0.895   3.458   2.764  0.9665 -1.2051  1.9970
 1463SOL     OW15850   0.564   2.094   5.687  0.2201  0.5739  0.3165
 1463SOL    HW115851   0.551   2.088   5.592  0.2940 -0.4138  0.3708
 1463SOL    HW215852   0.560   2.002   5.715 -2.0656  0.4368 -0.4399
 1464SOL     OW15853   0.700   0.640  10.243  0.0417  0.1388 -0.0600
 1464SOL    HW115854   0.653   0.559  10.261  0.6502 -0.1948  0.0485
 1464SOL    HW215855   0.659   0.677  10.165  1.2387  1.4219 -0.0861
 1465SOL     OW15856   1.939   2.158   8.549  0.2810  0.2563  0.2602
 1465SOL    HW115857   1.982   2.122   8.471 -1.9582 -2.1986  0.1841
 1465SOL    HW215858   2.014   2.204   8.587  0.9861 -1.5563  1.0336
 1466SOL     OW15859   3.555   0.677   4.785  0.4728 -0.0588  0.5291
 1466SOL    HW115860   3.475   0.685   4.733  2.2029 -0.1301 -2.1697
 1466SOL    HW215861   3.537   0.730   4.862 -0.0774  0.4637  0.0447
 1467SOL     OW15862   2.369   0.550  11.737  0.6272  0.0636 -0.1705
 1467SOL    HW115863   2.434   0.497  11.784  0.3332  0.5034  0.7247
 1467SOL    HW215864   2.406   0.635  11.760  0.2570  0.4548 -1.0345
 1468SOL     OW15865   4.200   1.498   9.867  0.1683 -0.0511 -0.3177
 1468SOL    HW115866   4.183   1.500   9.773  0.7616 -0.5589 -0.4301
 1468SOL    HW215867   4.108   1.511   9.893  0.4667  3.2807 -0.8999
 1469SOL     OW15868   4.571   2.999   6.086  0.1761 -0.0639 -0.7121
 1469SOL    HW115869   4.541   2.929   6.027 -1.8232  0.9894 -0.9502
 1469SOL    HW215870   4.495   3.055   6.099 -0.4624 -0.7261 -1.5552
 1470SOL     OW15871   3.115   1.690  13.826  0.4338 -0.5785 -0.5804
 1470SOL    HW115872   3.103   1.723  13.915 -1.1966 -1.8333 -0.3409
 1470SOL    HW215873   3.184   1.626  13.843 -0.8361 -2.2210 -1.6690
 1471SOL     OW15874   0.988   2.163   5.602  0.2115  0.9531 -0.8161
 1471SOL    HW115875   0.936   2.095   5.560 -0.0414 -1.6901  3.7778
 1471SOL    HW215876   0.936   2.243   5.603 -3.8918 -1.7908  0.7456
 1472SOL     OW15877   3.953   4.118   8.000  0.0583  0.6172 -0.2080
 1472SOL    HW115878   4.006   4.180   8.050  0.6881  0.5017 -0.7220
 1472SOL    HW215879   3.879   4.117   8.060  1.3687 -1.1639  1.3956
 1473SOL     OW15880   3.624   0.051   8.150 -0.2780  0.1895  0.4327
 1473SOL    HW115881   3.626   0.130   8.204 -1.4740  2.2726 -2.5723
 1473SOL    HW215882   3.544   0.011   8.184 -1.4566  1.5315 -0.7528
 1474SOL     OW15883   3.428   0.256  14.311  0.0626  0.5316 -0.8308
 1474SOL    HW115884   3.481   0.298  14.379 -1.9186  0.8260  0.5576
 1474SOL    HW215885   3.362   0.216  14.367 -1.2028  0.6420 -2.2384
 1475SOL     OW15886   2.184   0.001  11.214  0.2552  0.0284 -0.2732
 1475SOL    HW115887   2.094   4.727  11.246  0.3826 -0.5691  0.0571
 1475SOL    HW215888   2.216   0.091  11.225  3.2314 -1.0702  0.2400
 1476SOL     OW15889   2.096   4.392  10.944 -0.7731 -0.1799 -0.1002
 1476SOL    HW115890   2.176   4.442  10.959 -1.3263  0.1527  1.7833
 1476SOL    HW215891   2.018   4.448  10.948 -0.0801  0.8051 -0.4138
 1477SOL     OW15892   0.290   0.896   4.885 -0.0800 -0.1041 -0.9576
 1477SOL    HW115893   0.262   0.824   4.829 -2.3577  1.2105 -1.5267
 1477SOL    HW215894   0.215   0.955   4.877  0.9198  1.2323 -0.5976
 1478SOL     OW15895   4.497   1.975  14.465  0.0406  0.0243  0.2098
 1478SOL    HW115896   4.476   1.896  14.515 -1.0400  1.0581  1.4007
 1478SOL    HW215897   4.583   1.987  14.506 -0.2227  0.4145  0.6513
 1479SOL     OW15898   0.401   3.013   8.534  0.1795 -0.7032 -0.1939
 1479SOL    HW115899   0.464   3.033   8.603  0.2345  0.1370 -0.4904
 1479SOL    HW215900   0.358   2.942   8.581  0.4275 -1.4111 -1.0436
 1480SOL     OW15901   0.181   1.671  15.840  0.1691 -0.1436 -0.1874
 1480SOL    HW115902   0.170   1.757  15.801  0.0602  0.7002  1.6725
 1480SOL    HW215903   0.275   1.662  15.825  0.0163 -0.3259 -1.0249
 1481SOL     OW15904   0.387   4.295  15.860 -0.0254  0.4713  0.4554
 1481SOL    HW115905   0.451   4.356  15.825  0.9347 -1.1533 -0.6400
 1481SOL    HW215906   0.384   4.238  15.783 -2.3299  0.3002  0.6774
 1482SOL     OW15907   0.880   0.419   2.360  0.1181 -0.4198 -0.8458
 1482SOL    HW115908   0.821   0.352   2.393 -0.3999  1.4938  2.1708
 1482SOL    HW215909   0.842   0.407   2.273  1.4236  1.7820 -1.7272
 1483SOL     OW15910   1.869   0.401  12.886 -0.6697  0.0431  0.0856
 1483SOL    HW115911   1.847   0.492  12.906 -0.7765  0.4572 -2.0069
 1483SOL    HW215912   1.843   0.377  12.976 -1.4837  0.3811 -0.0555
 1484SOL     OW15913   2.913   4.315  13.711  0.7012  0.1395  0.2801
 1484SOL    HW115914   2.829   4.329  13.755  0.9361  4.4597 -0.6491
 1484SOL    HW215915   2.967   4.260  13.769  1.0358  0.1918  0.0140
 1485SOL     OW15916   3.155   0.407   4.119 -0.2437  0.1093  0.3673
 1485SOL    HW115917   3.105   0.367   4.190 -0.7842  1.5132  0.7726
 1485SOL    HW215918   3.193   0.484   4.161  2.6691 -0.5912 -0.9766
 1486SOL     OW15919   1.949   2.214   5.133  0.1158 -0.5256 -0.0902
 1486SOL    HW115920   1.962   2.184   5.223  0.2549 -2.2035 -0.6657
 1486SOL    HW215921   1.988   2.299   5.153 -0.6895  0.1853 -1.5492
 1487SOL     OW15922   3.688   2.802   4.463  0.0532  0.1872  0.3286
 1487SOL    HW115923   3.746   2.863   4.417 -1.7946  2.3740  0.9191
 1487SOL    HW215924   3.621   2.783   4.398 -0.1222 -1.1813  0.9216
 1488SOL     OW15925   2.454   1.604  12.193 -0.0959  0.0460  0.0273
 1488SOL    HW115926   2.470   1.659  12.116  2.5335  2.5604  2.3739
 1488SOL    HW215927   2.524   1.634  12.251 -0.1094  2.8078 -1.3772
 1489SOL     OW15928   4.069   2.892   8.686 -0.0309  0.3086 -0.2121
 1489SOL    HW115929   4.014   2.911   8.763  0.8496 -0.9185  0.7220
 1489SOL    HW215930   4.005   2.857   8.624  0.9092  0.6344 -1.3723
 1490SOL     OW15931   0.456   4.186  15.602  0.0413 -0.0645  0.5714
 1490SOL    HW115932   0.393   4.134  15.554 -0.7611  2.4427 -1.1120
 1490SOL    HW215933   0.481   4.250  15.535 -0.0119 -1.5916 -0.9097
 1491SOL     OW15934   2.031   0.973  13.076 -0.3593 -0.4907 -0.1549
 1491SOL    HW115935   2.024   0.907  13.145 -0.7729  0.8974  1.1459
 1491SOL    HW215936   2.115   1.018  13.082  0.5796 -2.1175 -1.0374
 1492SOL     OW15937   0.471   2.561  14.804 -1.1713  0.3311  0.3763
 1492SOL    HW115938   0.500   2.546  14.715  0.5687  1.2548  0.7873
 1492SOL    HW215939   0.554   2.547  14.849 -1.3621 -0.3267  0.5311
 1493SOL     OW15940   1.220   0.950   8.754  0.6900 -0.1233 -0.3442
 1493SOL    HW115941   1.222   0.863   8.795 -2.2602 -0.9676 -2.0114
 1493SOL    HW215942   1.205   1.004   8.832 -0.5932 -0.3131 -0.4627
 1494SOL     OW15943   1.911   3.560   9.373 -0.0479 -0.1534  0.2379
 1494SOL    HW115944   1.862   3.616   9.312 -1.1108 -0.9965  0.3192
 1494SOL    HW215945   1.844   3.512   9.422  1.6058 -2.8603 -0.1849
 1495SOL     OW15946   2.863   0.283   2.890  0.5659  0.0014 -0.5021
 1495SOL    HW115947   2.872   0.218   2.959 -0.7101 -0.3801 -0.6841
 1495SOL    HW215948   2.911   0.247   2.815 -0.6893 -0.4706 -1.0770
 1496SOL     OW15949   0.185   3.489  11.238 -0.0450  0.6067  0.6228
 1496SOL    HW115950   0.143   3.496  11.152 -1.2695  1.2595  1.2760
 1496SOL    HW215951   0.144   3.567  11.274  0.9102  1.0017  0.8484
 1497SOL     OW15952   2.828   1.563  10.297  0.2979  0.4736 -0.5149
 1497SOL    HW115953   2.863   1.604  10.376 -0.8440  1.4061 -0.4873
 1497SOL    HW215954   2.840   1.475  10.331 -3.9295 -0.4072 -1.3212
 1498SOL     OW15955   1.233   2.661   2.168 -0.0664  0.1974 -0.0385
 1498SOL    HW115956   1.312   2.620   2.204 -0.3846  2.0154  2.7441
 1498SOL    HW215957   1.255   2.673   2.076  0.1888 -0.7566 -0.1058
 1499SOL     OW15958   0.339   3.097   6.698  0.5338  0.4101  0.5313
 1499SOL    HW115959   0.281   3.087   6.623  1.9427 -2.2568 -0.2152
 1499SOL    HW215960   0.395   3.156   6.648  0.8641 -0.3267  0.0352
 1500SOL     OW15961   4.077   2.592  14.064 -0.3393  0.1520  0.2555
 1500SOL    HW115962   4.145   2.540  14.105  0.4213  1.7882  1.0936
 1500SOL    HW215963   4.005   2.598  14.127 -0.4309 -2.6060  0.4043
 1501SOL     OW15964   4.383   2.020   1.941  0.7098 -0.4062  0.4581
 1501SOL    HW115965   4.396   2.019   1.846 -1.1307  1.0314  0.2022
 1501SOL    HW215966   4.343   2.106   1.944  1.7879  0.0904  0.7212
 1502SOL     OW15967   4.414   1.173   7.780  0.0901  0.3454  0.3738
 1502SOL    HW115968   4.416   1.229   7.703  1.3148  1.0573  0.9353
 1502SOL    HW215969   4.456   1.229   7.845 -0.0598  0.7162  0.1533
 1503SOL     OW15970   4.415   3.513  11.830  0.0385 -0.0978 -0.4107
 1503SOL    HW115971   4.432   3.462  11.909 -0.6748  0.6947  0.2491
 1503SOL    HW215972   4.336   3.487  11.783  0.2086 -0.3267 -0.5754
 1504SOL     OW15973   4.721   0.529   3.583 -0.1027 -0.2953  0.2315
 1504SOL    HW115974   4.655   0.460   3.580  0.0269 -0.4254  0.3609
 1504SOL    HW215975   4.696   0.585   3.657 -1.2998  0.0311 -0.4194
 1505SOL     OW15976   4.138   4.172   5.154 -0.4381  0.0295 -0.1557
 1505SOL    HW115977   4.188   4.149   5.232 -1.3843 -1.7128 -0.0623
 1505SOL    HW215978   4.122   4.086   5.116 -0.4032  0.4249 -1.0728
 1506SOL     OW15979   3.599   1.602   1.849  0.0482 -0.3396 -0.0110
 1506SOL    HW115980   3.640   1.600   1.762 -0.8724 -1.9745 -0.4182
 1506SOL    HW215981   3.572   1.511   1.861 -1.1264 -0.2239 -1.7324
 1507SOL     OW15982   3.324   1.097   6.650  0.5289  0.1863 -0.1254
 1507SOL    HW115983   3.265   1.167   6.677 -3.0823 -2.4829 -1.0804
 1507SOL    HW215984   3.365   1.092   6.736  0.6034 -0.1180 -0.1775
 1508SOL     OW15985   1.926   3.585   8.897 -0.6340 -0.1981  0.0183
 1508SOL    HW115986   1.946   3.660   8.952 -1.1005 -0.0108 -0.0681
 1508SOL    HW215987   1.839   3.557   8.927 -0.6181 -0.8814 -0.5515
 1509SOL     OW15988   3.113   4.111  13.785  0.1906 -0.1814 -1.0976
 1509SOL    HW115989   3.202   4.078  13.793 -1.3330 -3.5908  1.5924
 1509SOL    HW215990   3.123   4.168  13.709 -0.8420 -0.8680 -1.7399
 1510SOL     OW15991   1.317   3.994   5.615  0.8939 -0.4490  0.6703
 1510SOL    HW115992   1.332   3.910   5.660 -1.1879 -1.8346 -1.2414
 1510SOL    HW215993   1.234   3.974   5.572  1.3292  0.9032 -0.8136
 1511SOL     OW15994   0.381   1.688  11.128  0.0281 -0.1380 -0.1476
 1511SOL    HW115995   0.330   1.628  11.073  0.8866 -1.4209  0.4698
 1511SOL    HW215996   0.418   1.729  11.049 -1.1946 -0.2432 -0.7727
 1512SOL     OW15997   0.865   2.127  14.630 -0.0437  0.1960 -0.0105
 1512SOL    HW115998   0.782   2.085  14.606  0.8678 -0.8113 -1.4679
 1512SOL    HW215999   0.929   2.058  14.648 -0.6287 -0.6242 -1.0514
 1513SOL     OW16000   1.092   2.675  10.608 -0.4003  0.4223 -0.0855
 1513SOL    HW116001   1.042   2.742  10.655  0.2489  0.9428 -0.1385
 1513SOL    HW216002   1.155   2.651  10.676 -3.6118 -1.3097  2.2989
 1514SOL     OW16003   0.555   4.717   0.408  0.1210  0.2376 -0.3641
 1514SOL    HW116004   0.585   4.640   0.359 -0.9258  0.7749 -1.8278
 1514SOL    HW216005   0.544   4.665   0.488 -0.0057 -0.6403 -0.9560
 1515SOL     OW16006   2.854   2.835   3.096  0.4409 -0.3074  0.7614
 1515SOL    HW116007   2.827   2.747   3.070  1.2127 -0.3613  0.1383
 1515SOL    HW216008   2.941   2.849   3.057 -0.3559 -0.7914 -1.2208
 1516SOL     OW16009   3.748   0.801  14.562  0.2523 -0.1540  0.3483
 1516SOL    HW116010   3.726   0.751  14.484  2.0032  2.4022 -1.7691
 1516SOL    HW216011   3.708   0.740  14.624 -1.0556 -0.4803 -0.8164
 1517SOL     OW16012   0.371   0.070   2.673  0.5244  0.3329  0.3501
 1517SOL    HW116013   0.298   0.130   2.688  0.4186  0.5038 -0.8742
 1517SOL    HW216014   0.325   4.717   2.651  0.1272  0.6350  0.0668
 1518SOL     OW16015   0.644   4.236   0.256  0.4497 -0.3458  0.3305
 1518SOL    HW116016   0.666   4.172   0.324 -1.0953  0.6859  1.7969
 1518SOL    HW216017   0.648   4.171   0.186  1.7632  1.4464 -1.2421
 1519SOL     OW16018   3.459   3.196   4.085  0.2164  0.3055 -0.4867
 1519SOL    HW116019   3.466   3.258   4.158  2.2116  0.7535 -1.0408
 1519SOL    HW216020   3.552   3.173   4.087 -0.0985 -0.8107  0.7651
 1520SOL     OW16021   1.379   3.122   4.085  0.1342 -0.7259 -0.1809
 1520SOL    HW116022   1.414   3.162   4.164  2.3726 -3.2063  0.0967
 1520SOL    HW216023   1.414   3.033   4.080  2.1243  0.0538 -0.0545
 1521SOL     OW16024   1.655   3.090   0.984  0.0405  0.4038 -0.3043
 1521SOL    HW116025   1.631   3.155   1.049 -0.8823 -0.7763  0.5359
 1521SOL    HW216026   1.724   3.046   1.035 -0.7920 -1.0824 -0.4623
 1522SOL     OW16027   0.120   3.969   2.847 -0.1369  0.0011  0.4066
 1522SOL    HW116028   0.191   4.000   2.791 -0.6244 -0.0385 -0.2352
 1522SOL    HW216029   0.050   4.011   2.797  0.1401 -1.1388 -0.9069
 1523SOL     OW16030   0.607   3.447   6.462  0.5542 -0.1855  0.1215
 1523SOL    HW116031   0.620   3.420   6.371  0.1018 -0.7012  0.2086
 1523SOL    HW216032   0.586   3.541   6.458 -1.3495 -0.6679 -1.4203
 1524SOL     OW16033   1.625   3.805  14.269 -0.1337 -0.2075  1.1672
 1524SOL    HW116034   1.560   3.769  14.330 -1.8267 -0.2309 -0.6539
 1524SOL    HW216035   1.666   3.869  14.327 -0.0620  2.2936 -1.6805
 1525SOL     OW16036   1.198   1.709   8.714  0.1523  0.1496  0.1152
 1525SOL    HW116037   1.260   1.746   8.777 -2.0495  0.0865  2.2931
 1525SOL    HW216038   1.239   1.626   8.686 -2.2772 -0.7724 -0.6702
 1526SOL     OW16039   1.597   4.477   8.731  0.3510  0.6156  0.3994
 1526SOL    HW116040   1.632   4.532   8.661  2.4048  2.1644  2.6451
 1526SOL    HW216041   1.675   4.421   8.737 -0.8433 -1.2018 -1.1072
 1527SOL     OW16042   4.456   0.324   8.184  0.0589 -0.3728 -0.0091
 1527SOL    HW116043   4.541   0.306   8.143  0.5765 -0.4310  1.0789
 1527SOL    HW216044   4.488   0.308   8.273 -1.0451  0.6422  0.5674
 1528SOL     OW16045   2.453   4.579   6.705  0.0582 -0.1369 -0.0395
 1528SOL    HW116046   2.391   4.526   6.755  1.6530 -0.3814  1.6582
 1528SOL    HW216047   2.483   4.634   6.777 -2.6127  2.5399 -0.9685
 1529SOL     OW16048   0.112   2.147   7.190  0.0040 -0.1014 -0.0848
 1529SOL    HW116049   0.150   2.084   7.129  1.3773  1.8080 -1.1826
 1529SOL    HW216050   0.096   2.219   7.130  1.4886 -2.2307 -3.0415
 1530SOL     OW16051   2.067   0.860  13.975  0.0582 -0.4034  0.3572
 1530SOL    HW116052   2.025   0.842  13.890  0.0701  0.3748  0.1901
 1530SOL    HW216053   2.158   0.884  13.957 -0.3825  1.9016  1.2602
 1531SOL     OW16054   2.075   2.636   2.313  0.0355  0.3515  0.4361
 1531SOL    HW116055   2.075   2.705   2.379  2.5968  1.1880 -0.4330
 1531SOL    HW216056   2.058   2.553   2.357  0.9585 -0.1115 -0.0819
 1532SOL     OW16057   3.969   0.343  16.487  0.2877 -0.2212 -0.7714
 1532SOL    HW116058   4.042   0.361  16.545 -0.1443 -0.6904 -0.0757
 1532SOL    HW216059   3.938   0.256  16.514 -0.7851  0.7796  1.1795
 1533SOL     OW16060   1.366   3.311   9.826 -0.5604  0.4356  0.5950
 1533SOL    HW116061   1.373   3.286   9.734 -1.1418  0.2113  0.6099
 1533SOL    HW216062   1.440   3.371   9.835  0.9666 -0.8653 -3.2288
 1534SOL     OW16063   1.496   3.197   7.112  0.2265 -0.4503 -0.1379
 1534SOL    HW116064   1.463   3.107   7.109 -1.5113  0.1530  0.5730
 1534SOL    HW216065   1.564   3.198   7.179  2.2825 -1.7803 -2.2218
 1535SOL     OW16066   0.749   4.329  15.321 -0.7277  0.4317 -0.2730
 1535SOL    HW116067   0.834   4.344  15.280 -0.5549  0.8804  0.2555
 1535SOL    HW216068   0.750   4.234  15.311  1.4060  0.4376 -0.1198
 1536SOL     OW16069   2.278   1.245   2.110  0.0888 -0.0508 -0.1241
 1536SOL    HW116070   2.282   1.323   2.165 -1.3573 -1.0514  1.4424
 1536SOL    HW216071   2.300   1.179   2.176 -1.2177 -0.0620  0.3157
 1537SOL     OW16072   0.454   4.179   2.147  0.3956  0.1432 -0.6444
 1537SOL    HW116073   0.481   4.211   2.061  0.7195  1.2049 -0.1523
 1537SOL    HW216074   0.369   4.139   2.130  0.1754  1.9287 -3.8142
 1538SOL     OW16075   0.945   2.705  15.316 -0.2493 -0.2732  0.1903
 1538SOL    HW116076   0.925   2.632  15.376 -0.7367 -0.4921 -0.2371
 1538SOL    HW216077   1.038   2.725  15.330 -0.4895  1.1920 -0.3329
 1539SOL     OW16078   2.976   1.606   1.386 -0.2215  0.6981 -0.2122
 1539SOL    HW116079   2.958   1.523   1.431  2.0367 -0.0294 -0.6415
 1539SOL    HW216080   2.889   1.630   1.356 -0.4906  1.2745  1.0191
 1540SOL     OW16081   1.141   0.121   8.277  0.3879 -0.6505  0.0134
 1540SOL    HW116082   1.106   0.053   8.219  0.4705  0.9326 -1.8658
 1540SOL    HW216083   1.156   0.181   8.204  2.4606  0.4337  1.3074
 1541SOL     OW16084   0.800   2.436   7.380 -0.0709 -0.0888 -0.2707
 1541SOL    HW116085   0.888   2.470   7.369  0.3743 -1.1206  0.0677
 1541SOL    HW216086   0.755   2.445   7.296 -1.9644  0.0437  0.7528
 1542SOL     OW16087   0.893   0.958   1.641  0.0196  0.4258 -0.3374
 1542SOL    HW116088   0.842   0.979   1.562  3.5947  0.7603 -2.5780
 1542SOL    HW216089   0.909   1.042   1.684 -0.0728  0.3692 -0.1953
 1543SOL     OW16090   2.609   1.777   2.983  0.0302  0.3015 -0.0436
 1543SOL    HW116091   2.635   1.710   2.919 -1.0428 -0.6305  0.5059
 1543SOL    HW216092   2.682   1.837   2.968  0.1402  0.3571  0.6925
 1544SOL     OW16093   1.277   3.928   7.856  0.0770  0.3940  0.5446
 1544SOL    HW116094   1.256   3.943   7.764  0.9676  0.1154  0.2938
 1544SOL    HW216095   1.188   3.926   7.891  0.3610 -0.4145  1.2270
 1545SOL     OW16096   2.617   3.962  14.074 -0.2121 -0.1109 -0.0120
 1545SOL    HW116097   2.543   4.015  14.103  2.7163  3.3224  1.2769
 1545SOL    HW216098   2.617   3.989  13.982  2.0492 -0.1429 -0.0284
 1546SOL     OW16099   0.424   1.007   4.353 -1.0958 -0.5371 -0.7047
 1546SOL    HW116100   0.334   0.974   4.344 -1.8734  1.4266 -0.0683
 1546SOL    HW216101   0.401   1.099   4.362  1.2488  0.0898 -1.1330
 1547SOL     OW16102   3.517   2.561   3.186  0.0349 -0.0074  0.4418
 1547SOL    HW116103   3.438   2.594   3.144 -0.2021 -1.3307 -0.1428
 1547SOL    HW216104   3.526   2.476   3.142  0.5558 -0.4154  1.3209
 1548SOL     OW16105   2.843   4.484  15.467  0.0151  0.3981 -0.0687
 1548SOL    HW116106   2.796   4.561  15.433  2.2498  2.0863  0.6596
 1548SOL    HW216107   2.850   4.511  15.558 -3.9384 -0.6055  0.5297
 1549SOL     OW16108   3.160   0.016  13.574  0.3621 -0.3737  0.2438
 1549SOL    HW116109   3.163   0.100  13.619 -0.7830  0.2273 -0.7997
 1549SOL    HW216110   3.068   4.718  13.573  0.8025 -1.9242 -1.1784
 1550SOL     OW16111   2.201   2.751   4.428  0.1451 -0.2336 -0.0084
 1550SOL    HW116112   2.219   2.834   4.473 -0.5217 -0.3427  0.4635
 1550SOL    HW216113   2.199   2.778   4.336  1.0520 -3.5850 -0.9967
 1551SOL     OW16114   4.606   4.596   2.624 -0.2118  0.1929 -0.4968
 1551SOL    HW116115   4.524   4.645   2.615  0.9732  2.1668 -0.6264
 1551SOL    HW216116   4.659   4.650   2.682  0.2545 -0.4098 -0.3727
 1552SOL     OW16117   0.501   2.891   5.486  0.6209 -0.6131 -0.3922
 1552SOL    HW116118   0.482   2.985   5.486 -0.8766 -0.9160  0.8170
 1552SOL    HW216119   0.507   2.876   5.392  1.0600 -0.9445 -0.3108
 1553SOL     OW16120   4.033   4.349   2.192 -0.3056 -0.4652  0.3220
 1553SOL    HW116121   3.980   4.294   2.250  0.4357 -1.7228 -0.2078
 1553SOL    HW216122   4.016   4.321   2.102 -3.0229  1.3097  0.2673
 1554SOL     OW16123   2.845   4.526   2.798 -0.6275  0.3743  0.0683
 1554SOL    HW116124   2.888   4.484   2.873 -1.5221  1.7410  1.3426
 1554SOL    HW216125   2.846   4.458   2.730  1.2378  0.1069  0.3544
 1555SOL     OW16126   3.426   0.662  17.374 -0.4707  0.2402 -0.0221
 1555SOL    HW116127   3.383   0.710  17.444  0.0217  0.3761  0.1838
 1555SOL    HW216128   3.488   0.732  17.354  2.2229 -2.3108 -0.6982
 1556SOL     OW16129   4.377   2.051   2.865  0.3934 -0.8053  0.1010
 1556SOL    HW116130   4.301   2.012   2.821  0.1844  0.9602 -1.1194
 1556SOL    HW216131   4.426   2.089   2.793  1.0610 -1.8532  0.0051
 1557SOL     OW16132   0.772   2.455   2.007  0.0166  0.1031  0.3874
 1557SOL    HW116133   0.791   2.540   1.965  0.8158  0.9652  2.5249
 1557SOL    HW216134   0.828   2.408   1.945  0.4880  1.2150 -0.0450
 1558SOL     OW16135   0.770   3.607   8.371 -0.6652  0.1156  0.5489
 1558SOL    HW116136   0.683   3.566   8.368 -0.4720 -0.2819  0.3277
 1558SOL    HW216137   0.760   3.701   8.384  0.8000  0.4711 -0.8542
 1559SOL     OW16138   2.077   4.409   8.268  0.1808 -0.5902 -0.1271
 1559SOL    HW116139   2.023   4.331   8.253  0.4623 -0.5952 -1.1192
 1559SOL    HW216140   2.155   4.365   8.300  0.7606  1.5112  1.3194
 1560SOL     OW16141   2.884   1.498   0.123  0.2215  0.1472  0.3805
 1560SOL    HW116142   2.828   1.543   0.187 -0.7514 -1.5692  0.7338
 1560SOL    HW216143   2.882   1.561   0.051  0.9891 -1.6045 -1.1842
 1561SOL     OW16144   3.036   4.053  10.563 -0.6106  0.1471  0.3251
 1561SOL    HW116145   2.967   4.060  10.497  0.4187 -0.0452 -0.7637
 1561SOL    HW216146   2.980   4.064  10.640 -2.2143 -1.9518 -0.5480
 1562SOL     OW16147   4.535   0.180  10.774  0.2027 -0.1608  0.2208
 1562SOL    HW116148   4.505   0.150  10.688 -0.0101 -1.2122  0.6617
 1562SOL    HW216149   4.581   0.263  10.760  0.4109  0.0765  2.2292
 1563SOL     OW16150   3.273   2.399   2.762 -0.8377 -0.5776 -0.0506
 1563SOL    HW116151   3.321   2.407   2.679 -1.3415 -2.0417 -0.4907
 1563SOL    HW216152   3.179   2.405   2.744 -1.5023  0.3508  3.8942
 1564SOL     OW16153   2.602   3.939   8.212  0.1293  0.6627 -0.0039
 1564SOL    HW116154   2.672   3.937   8.277  1.4789 -2.2850 -1.5341
 1564SOL    HW216155   2.542   3.870   8.241  1.8371 -1.5062 -1.5697
 1565SOL     OW16156   3.644   2.044   4.567  0.5810 -0.7221 -0.1513
 1565SOL    HW116157   3.610   1.997   4.491  0.9532  0.3723 -0.9969
 1565SOL    HW216158   3.626   1.974   4.630 -0.3941  0.6043  1.0550
 1566SOL     OW16159   1.020   2.332   4.396  0.3994 -0.3603  0.1281
 1566SOL    HW116160   1.033   2.278   4.318  1.0034  0.7471 -0.5350
 1566SOL    HW216161   0.968   2.262   4.438  0.0283  0.1391  0.4955
 1567SOL     OW16162   0.256   2.946   7.849 -0.4622 -0.0050  0.3712
 1567SOL    HW116163   0.319   2.924   7.781 -0.2344  0.7237  0.3428
 1567SOL    HW216164   0.229   3.032   7.818  0.3128  0.0803 -0.0745
 1568SOL     OW16165   3.162   0.065   6.900  0.1826 -0.1069 -0.9478
 1568SOL    HW116166   3.227   0.132   6.876  1.6220 -1.1408  0.0752
 1568SOL    HW216167   3.089   0.124   6.919  0.0711 -0.2570 -0.9073
 1569SOL     OW16168   1.675   0.739   8.155  0.1907 -0.4333 -0.2904
 1569SOL    HW116169   1.596   0.778   8.117 -0.3615 -1.8351 -0.5548
 1569SOL    HW216170   1.742   0.731   8.086 -2.2664  2.6954 -3.0452
 1570SOL     OW16171   3.246   3.888   0.566  0.5287  0.0775  0.2066
 1570SOL    HW116172   3.307   3.838   0.511  0.7905  2.5624 -1.7579
 1570SOL    HW216173   3.248   3.840   0.649  2.2522 -0.8664 -0.3770
 1571SOL     OW16174   0.663   4.221   9.452 -0.5950  0.0305  0.3505
 1571SOL    HW116175   0.577   4.202   9.488 -1.4973 -0.3653 -2.0363
 1571SOL    HW216176   0.633   4.298   9.403  0.1040 -0.0333 -0.1836
 1572SOL     OW16177   3.719   1.135   7.597  0.1654 -0.3684 -0.0986
 1572SOL    HW116178   3.629   1.105   7.580 -0.2733  1.3221 -0.8220
 1572SOL    HW216179   3.746   1.079   7.669  1.2294  0.3627  0.0541
 1573SOL     OW16180   0.142   3.074  13.386 -0.0403 -0.2735 -0.3522
 1573SOL    HW116181   0.190   3.009  13.439 -2.8808 -0.3547  2.1027
 1573SOL    HW216182   0.118   3.016  13.314  0.5963  1.4427 -1.9326
 1574SOL     OW16183   1.842   2.333   6.105  0.6265 -0.2840  0.1019
 1574SOL    HW116184   1.815   2.422   6.124  2.3400 -0.0142  1.1945
 1574SOL    HW216185   1.859   2.346   6.011 -0.6126  1.1910  0.0877
 1575SOL     OW16186   2.711   4.498   3.222 -0.1924 -0.4774 -0.2395
 1575SOL    HW116187   2.717   4.564   3.292 -3.2957 -1.0423  0.5832
 1575SOL    HW216188   2.696   4.424   3.280 -0.9491  0.4470  0.7555
 1576SOL     OW16189   0.235   4.135   2.434 -0.6580 -0.4046  0.5353
 1576SOL    HW116190   0.146   4.107   2.456  0.2848 -2.3245  1.8675
 1576SOL    HW216191   0.225   4.164   2.343 -0.1642  0.3632  0.7263
 1577SOL     OW16192   0.013   1.818   2.629  0.6384 -0.1058 -0.3112
 1577SOL    HW116193   0.061   1.735   2.625 -2.7280 -2.1860  1.4746
 1577SOL    HW216194   0.002   1.826   2.534 -1.8972  2.1480  0.1690
 1578SOL     OW16195   2.818   1.262   0.010 -0.3303  0.2463 -0.2405
 1578SOL    HW116196   2.844   1.345   0.049 -3.3893  0.6213  1.0034
 1578SOL    HW216197   2.908   1.238  17.701 -0.5172 -1.4106  0.7370
 1579SOL     OW16198   0.314   1.137   5.618 -0.0993  0.0282 -0.7988
 1579SOL    HW116199   0.405   1.123   5.592  0.1073 -1.1379  0.5813
 1579SOL    HW216200   0.338   1.205   5.681 -2.2882 -0.1360  0.1995
 1580SOL     OW16201   4.257   0.590   4.012  0.1591  0.7719 -0.1466
 1580SOL    HW116202   4.281   0.580   4.104  0.0417  0.1034 -0.1877
 1580SOL    HW216203   4.239   0.684   4.015 -2.5767  0.2905 -1.2486
 1581SOL     OW16204   2.250   4.605  17.510  0.4216 -0.3739  0.0085
 1581SOL    HW116205   2.338   4.568  17.517  0.7924  0.4174 -0.4939
 1581SOL    HW216206   2.272   4.687  17.466  0.7492  0.2184  1.2812
 1582SOL     OW16207   1.202   1.815   2.531 -0.5826  0.2644 -0.2399
 1582SOL    HW116208   1.235   1.725   2.525 -1.7964 -0.2432  0.5848
 1582SOL    HW216209   1.223   1.832   2.623 -1.2719  1.7079 -0.3517
 1583SOL     OW16210   0.674   4.482   2.059  0.2271  0.1789 -0.1236
 1583SOL    HW116211   0.711   4.460   1.974  2.7327  0.4810  0.9100
 1583SOL    HW216212   0.666   4.399   2.106 -0.1447 -0.1909 -0.8318
 1584SOL     OW16213   2.890   3.209  12.121  0.1925  0.3016 -0.3436
 1584SOL    HW116214   2.810   3.157  12.121  0.8176 -0.7087  4.1917
 1584SOL    HW216215   2.913   3.177  12.209 -0.1933 -3.6898 -1.6722
 1585SOL     OW16216   2.699   2.834   8.911 -0.1145  0.4306  0.0430
 1585SOL    HW116217   2.689   2.782   8.991  0.2264  0.6372  0.2208
 1585SOL    HW216218   2.751   2.909   8.941  1.5685 -1.6474  2.3186
 1586SOL     OW16219   2.264   0.508  15.228  0.1745  0.4060 -0.2681
 1586SOL    HW116220   2.357   0.485  15.233 -0.3708 -1.2957  1.8155
 1586SOL    HW216221   2.256   0.553  15.312  0.5917 -0.2601  0.1287
 1587SOL     OW16222   4.051   1.557   2.365 -0.4131 -0.7482 -0.5647
 1587SOL    HW116223   4.097   1.610   2.431 -1.4883 -1.3908  0.7006
 1587SOL    HW216224   3.999   1.629   2.330 -2.6850 -3.0602 -1.9026
 1588SOL     OW16225   2.643   0.643   0.205  0.6037  0.9068 -0.0541
 1588SOL    HW116226   2.678   0.613   0.121  0.6771  1.1316 -0.1021
 1588SOL    HW216227   2.664   0.736   0.199  1.2815  0.7489 -0.1098
 1589SOL     OW16228   3.222   2.232   8.647 -0.2093 -0.5772  0.5997
 1589SOL    HW116229   3.249   2.306   8.702 -0.2294  0.0274 -0.2070
 1589SOL    HW216230   3.215   2.158   8.707 -0.5943 -1.5813 -0.6851
 1590SOL     OW16231   3.288   0.926   9.881 -0.4239  0.2086 -0.0752
 1590SOL    HW116232   3.196   0.940   9.903 -0.3124 -3.1595  2.5023
 1590SOL    HW216233   3.323   1.012   9.860  2.3609 -1.1757 -1.2021
 1591SOL     OW16234   1.010   4.330   8.985 -0.5032  0.1139 -0.0982
 1591SOL    HW116235   0.997   4.245   8.943  0.5735  0.4017 -1.0168
 1591SOL    HW216236   0.956   4.307   9.061 -2.2474 -0.4352 -1.5127
 1592SOL     OW16237   0.022   2.017   8.466  0.3747  0.2453  0.1804
 1592SOL    HW116238   0.029   1.928   8.502  0.0047 -0.3068 -1.1275
 1592SOL    HW216239   4.666   2.042   8.505  0.3527 -3.3001  2.5213
 1593SOL     OW16240   0.718   4.253   2.235 -0.2089  0.0131 -0.0492
 1593SOL    HW116241   0.738   4.170   2.192  1.2861  1.2373 -1.7282
 1593SOL    HW216242   0.630   4.237   2.270  0.7655 -1.7994  1.5288
 1594SOL     OW16243   0.911   2.697   1.905 -0.2735  0.3507  0.3341
 1594SOL    HW116244   0.962   2.754   1.962 -0.0208  0.1546  0.3058
 1594SOL    HW216245   0.977   2.663   1.845 -0.7690  1.2643 -0.7369
 1595SOL     OW16246   3.311   3.123   2.096  0.3238 -0.2121 -0.5026
 1595SOL    HW116247   3.377   3.154   2.158  0.0610  1.8127 -1.2404
 1595SOL    HW216248   3.309   3.029   2.118 -1.0064  0.0061  0.2673
 1596SOL     OW16249   3.718   0.360   1.140  0.1179  0.3421  0.0628
 1596SOL    HW116250   3.652   0.397   1.198 -2.1125 -0.1890 -2.1562
 1596SOL    HW216251   3.659   0.338   1.068 -2.1587 -0.2734  2.1372
 1597SOL     OW16252   4.327   0.864   0.135 -0.5359 -0.2784  0.3223
 1597SOL    HW116253   4.347   0.814   0.214 -2.2114 -1.6253 -0.1156
 1597SOL    HW216254   4.250   0.914   0.160 -0.8289 -0.4011 -0.3397
 1598SOL     OW16255   1.062   4.659   8.071  0.1656  0.0244  0.3764
 1598SOL    HW116256   0.986   4.610   8.040 -0.7064 -0.0637  2.6378
 1598SOL    HW216257   1.102   4.690   7.990  0.2414  0.4063  0.5557
 1599SOL     OW16258   3.394   2.748  17.227  0.4148 -0.4021  0.0677
 1599SOL    HW116259   3.463   2.798  17.271 -2.0172 -0.3159  3.8152
 1599SOL    HW216260   3.351   2.824  17.188 -0.2547  0.4316  2.4077
 1600SOL     OW16261   0.670   2.231   5.901  0.9260 -0.6636  0.3570
 1600SOL    HW116262   0.616   2.169   5.852  2.5710 -0.1707 -2.1354
 1600SOL    HW216263   0.634   2.239   5.989 -1.7434 -0.7434 -0.7447
 1601SOL     OW16264   3.555   0.414  13.844 -0.2947 -0.3498  0.1189
 1601SOL    HW116265   3.564   0.436  13.936 -1.3748 -1.5119  0.4958
 1601SOL    HW216266   3.572   0.320  13.847  1.8666  0.1837  4.4134
 1602SOL     OW16267   0.418   0.111   4.049  0.3271  0.0939  0.5507
 1602SOL    HW116268   0.464   0.175   3.994 -0.8549  1.6421  1.3521
 1602SOL    HW216269   0.331   0.149   4.056 -0.2038 -0.6354 -2.0739
 1603SOL     OW16270   0.456   0.187   4.556  0.1198 -0.7665 -0.8254
 1603SOL    HW116271   0.392   0.208   4.488 -0.7750  0.0420  0.2680
 1603SOL    HW216272   0.446   0.253   4.624 -0.9548 -2.1511  0.3844
 1604SOL     OW16273   4.551   2.392  13.444 -0.1800 -0.3646 -0.0161
 1604SOL    HW116274   4.502   2.437  13.513 -0.1972 -3.2936  1.8376
 1604SOL    HW216275   4.492   2.318  13.429  0.7579 -1.3589  1.2245
 1605SOL     OW16276   0.125   2.876  13.151  0.2155  0.1892  0.3699
 1605SOL    HW116277   0.056   2.824  13.111  0.9628 -2.0420  1.9471
 1605SOL    HW216278   0.204   2.826  13.128  0.1747  0.2235  0.1584
 1606SOL     OW16279   3.581   1.520  13.254 -0.0667  0.0800  0.1371
 1606SOL    HW116280   3.673   1.536  13.277 -0.6270  2.1946  0.9407
 1606SOL    HW216281   3.589   1.429  13.225 -1.0953  1.2192 -3.6821
 1607SOL     OW16282   1.393   3.309  17.118  0.0456  0.0469  0.3346
 1607SOL    HW116283   1.425   3.394  17.088  0.2078  0.0797  0.6053
 1607SOL    HW216284   1.460   3.277  17.178 -0.4611 -0.1870  0.7722
 1608SOL     OW16285   1.130   1.853   8.469 -0.2657 -0.3447 -0.3326
 1608SOL    HW116286   1.150   1.836   8.561 -0.5920 -0.4242 -0.2789
 1608SOL    HW216287   1.194   1.919   8.439 -0.9076 -0.1446 -1.2732
 1609SOL     OW16288   3.507   3.793  13.694 -0.2864 -0.7603  0.0758
 1609SOL    HW116289   3.483   3.885  13.697  0.6097 -0.5617  1.0059
 1609SOL    HW216290   3.555   3.792  13.776  0.0674 -2.4853 -0.1496
 1610SOL     OW16291   4.343   2.388  17.304 -0.1923 -0.0113 -0.3983
 1610SOL    HW116292   4.375   2.388  17.214  1.1209 -0.7223  0.0649
 1610SOL    HW216293   4.251   2.392  17.281  0.0159 -1.4371 -1.4968
 1611SOL     OW16294   3.317   3.972   7.718 -0.0596 -0.4027  0.2600
 1611SOL    HW116295   3.407   3.997   7.741 -0.4776  1.0900  0.2120
 1611SOL    HW216296   3.344   3.892   7.671  0.5727  1.4619 -2.5527
 1612SOL     OW16297   3.991   2.617   4.481 -0.0762 -0.0057  0.6270
 1612SOL    HW116298   3.981   2.695   4.426 -2.0112 -0.2804  0.5994
 1612SOL    HW216299   4.035   2.557   4.421 -4.0681  0.5455 -2.8490
 1613SOL     OW16300   3.668   0.476   0.644 -0.0011 -0.1049  0.1107
 1613SOL    HW116301   3.723   0.402   0.668  1.5100  0.8197 -0.5294
 1613SOL    HW216302   3.577   0.445   0.646 -0.3737  0.8643 -1.3692
 1614SOL     OW16303   3.050   2.557   7.843 -0.2933  0.5037  0.0925
 1614SOL    HW116304   2.955   2.564   7.849 -0.2502  0.9428  0.2714
 1614SOL    HW216305   3.078   2.526   7.930 -0.3710 -0.5079 -0.2346
 1615SOL     OW16306   0.669   1.420   1.751 -0.1073  0.1521  0.1445
 1615SOL    HW116307   0.666   1.407   1.656  0.3338 -0.3480  0.1992
 1615SOL    HW216308   0.577   1.401   1.767  0.1605  0.2767  1.8438
 1616SOL     OW16309   3.405   0.341   6.291 -0.2789  0.2605 -0.0627
 1616SOL    HW116310   3.355   0.346   6.372  0.9728  0.1329  0.7101
 1616SOL    HW216311   3.488   0.308   6.324  0.4449 -0.0717 -2.1947
 1617SOL     OW16312   3.709   4.012   8.526  0.3503 -0.1448 -0.0928
 1617SOL    HW116313   3.674   3.990   8.440  1.9606  0.4712 -0.9109
 1617SOL    HW216314   3.677   4.102   8.535  0.8861 -0.1110  1.4594
 1618SOL     OW16315   3.502   3.213   2.287  0.2768 -0.6512  0.1747
 1618SOL    HW116316   3.588   3.225   2.327  0.4661  0.2891 -0.5115
 1618SOL    HW216317   3.464   3.158   2.355 -0.5329  0.4402  0.6054
 1619SOL     OW16318   4.657   3.598   4.275  0.5357 -0.3772 -0.3065
 1619SOL    HW116319   4.575   3.581   4.228  0.1204  1.4906 -0.2628
 1619SOL    HW216320   4.620   3.564   4.357 -1.3928  1.5443 -0.4023
 1620SOL     OW16321   1.523   3.795   8.986  0.4167 -0.5282  0.3204
 1620SOL    HW116322   1.482   3.711   8.965 -2.1994  0.6750  0.6611
 1620SOL    HW216323   1.458   3.831   9.046 -0.9377  2.0195 -2.6478
 1621SOL     OW16324   0.800   3.210   9.153  0.9082 -0.3146  0.1372
 1621SOL    HW116325   0.854   3.231   9.229  1.3477 -0.1548 -0.2195
 1621SOL    HW216326   0.777   3.290   9.107 -3.4106 -0.9307  1.2733
 1622SOL     OW16327   3.178   3.550  14.242  0.5412 -0.1857 -0.3663
 1622SOL    HW116328   3.182   3.549  14.147  0.9784 -2.5213 -0.3356
 1622SOL    HW216329   3.159   3.457  14.257 -1.6536  0.3434  0.1050
 1623SOL     OW16330   0.133   0.632   5.889 -0.6290  0.1331 -0.1645
 1623SOL    HW116331   0.214   0.606   5.932 -1.5613 -1.1078  0.8368
 1623SOL    HW216332   0.150   0.597   5.801  0.3125  0.1722  0.0001
 1624SOL     OW16333   4.654   3.924  10.952 -0.1931  0.2410  0.1864
 1624SOL    HW116334   4.564   3.955  10.963 -0.8493 -1.2527 -1.0323
 1624SOL    HW216335   4.704   4.006  10.960  0.0822  0.2779 -1.9763
 1625SOL     OW16336   3.600   2.659   8.462  0.5280 -0.0449  0.2008
 1625SOL    HW116337   3.532   2.715   8.501  1.3094  0.4738  0.8188
 1625SOL    HW216338   3.580   2.586   8.520 -1.5396  0.8857  0.6527
 1626SOL     OW16339   1.312   4.323   9.898  0.7682  0.4345  0.1407
 1626SOL    HW116340   1.236   4.372   9.867  0.1865 -0.6763 -0.2224
 1626SOL    HW216341   1.267   4.249   9.939 -3.7041  1.3806 -3.0515
 1627SOL     OW16342   2.559   3.336   1.587  0.1099  0.0604 -0.0657
 1627SOL    HW116343   2.582   3.243   1.587  2.6804  0.7274 -2.2995
 1627SOL    HW216344   2.620   3.372   1.523 -1.2035  0.3424 -1.1662
 1628SOL     OW16345   2.627   2.731   2.520 -0.2637 -0.2361 -0.0629
 1628SOL    HW116346   2.580   2.770   2.447 -1.8195 -1.6929  0.1566
 1628SOL    HW216347   2.704   2.706   2.468 -0.4631  0.0128 -0.4814
 1629SOL     OW16348   3.272   1.941   4.561 -0.3763  0.0237  0.2805
 1629SOL    HW116349   3.251   1.958   4.469 -0.3386  0.5523  0.3751
 1629SOL    HW216350   3.354   1.989   4.566 -0.4053 -0.0970  1.8419
 1630SOL     OW16351   0.015   3.406   2.673  0.2571 -0.1754 -0.0127
 1630SOL    HW116352   4.724   3.479   2.732  2.4602 -0.3968  0.9823
 1630SOL    HW216353   4.668   3.405   2.614 -0.0681 -3.1694  0.4489
 1631SOL     OW16354   1.003   4.207   4.538  0.0206  1.0860  0.1630
 1631SOL    HW116355   1.007   4.297   4.571 -3.5962 -0.0808  3.7717
 1631SOL    HW216356   1.057   4.153   4.596  0.6753 -0.2835 -1.7308
 1632SOL     OW16357   0.988   3.356   5.723  0.0664 -0.2397 -0.4208
 1632SOL    HW116358   0.939   3.275   5.734  0.7873 -0.5898  0.2254
 1632SOL    HW216359   1.005   3.382   5.814 -0.9462  0.1400 -0.3426
 1633SOL     OW16360   3.506   4.619   6.903  0.6403  0.2936 -0.0477
 1633SOL    HW116361   3.572   4.551   6.917 -1.1773 -1.2074  1.2322
 1633SOL    HW216362   3.426   4.568   6.912 -0.6605  1.9501 -2.2313
 1634SOL     OW16363   1.113   2.273   8.040  0.1220 -0.6457  0.6955
 1634SOL    HW116364   1.067   2.241   8.117 -0.8621 -1.6707 -0.3237
 1634SOL    HW216365   1.188   2.214   8.028 -0.1977 -0.8761 -0.2059
 1635SOL     OW16366   2.391   1.387   2.774 -0.0683  0.1069 -0.0862
 1635SOL    HW116367   2.316   1.374   2.831  0.5904  0.7456  0.9300
 1635SOL    HW216368   2.441   1.306   2.787  0.7428  0.4994 -0.7070
 1636SOL     OW16369   0.632   4.436   5.775 -0.5431  0.2007 -0.2860
 1636SOL    HW116370   0.674   4.504   5.827 -1.4189  1.1298 -0.7984
 1636SOL    HW216371   0.541   4.466   5.779  0.1685  1.8383  3.4143
 1637SOL     OW16372   0.018   1.148  15.863 -0.2305  0.6515 -0.2038
 1637SOL    HW116373   0.083   1.218  15.851  0.9122 -0.3419  0.1517
 1637SOL    HW216374   4.663   1.187  15.887 -0.1834 -0.6999  2.1267
 1638SOL     OW16375   4.601   4.115   6.482 -0.5638 -0.2654  0.0273
 1638SOL    HW116376   4.697   4.120   6.487 -0.5367  2.0395 -2.9460
 1638SOL    HW216377   4.580   4.207   6.497  0.3517  0.0300 -0.4713
 1639SOL     OW16378   0.793   0.145  17.385  0.0408  0.9091  0.7559
 1639SOL    HW116379   0.808   0.238  17.370  2.0040  0.2809 -1.1286
 1639SOL    HW216380   0.702   0.132  17.357 -0.2258  1.4565  1.3781
 1640SOL     OW16381   0.473   3.529  14.474  0.4551 -0.7482  0.1399
 1640SOL    HW116382   0.503   3.474  14.547 -0.7504 -1.9634 -0.2748
 1640SOL    HW216383   0.533   3.511  14.402 -1.7502  0.4809 -1.9988
 1641SOL     OW16384   4.006   2.809  11.814 -0.3314  0.0081  0.0918
 1641SOL    HW116385   3.958   2.752  11.875  3.8277 -1.8497  1.6439
 1641SOL    HW216386   4.096   2.775  11.820 -0.3666 -0.1639 -0.3671
 1642SOL     OW16387   1.742   0.351   1.259 -0.2154 -0.3993  0.4036
 1642SOL    HW116388   1.738   0.373   1.352  2.2353  1.3239  0.1050
 1642SOL    HW216389   1.672   0.285   1.258  0.5420 -1.2137  1.1803
 1643SOL     OW16390   0.649   3.439   5.678  0.5864 -0.3328  0.2106
 1643SOL    HW116391   0.656   3.518   5.732 -2.5892 -0.1031  0.3082
 1643SOL    HW216392   0.697   3.462   5.599 -1.0832  1.8679 -0.1775
 1644SOL     OW16393   0.785   3.417   8.076 -0.5374 -0.1957 -0.0397
 1644SOL    HW116394   0.815   3.357   8.143 -2.6293 -1.2115 -0.0257
 1644SOL    HW216395   0.862   3.474   8.087 -1.2888  0.9928 -0.8353
 1645SOL     OW16396   3.210   3.449   8.907 -0.8985  0.3965  0.0871
 1645SOL    HW116397   3.122   3.451   8.870 -1.0629  1.0055  0.5060
 1645SOL    HW216398   3.239   3.540   8.913  0.4570 -0.0499  0.2479
 1646SOL     OW16399   1.253   3.273   6.752 -0.3426 -0.4663  0.2799
 1646SOL    HW116400   1.284   3.351   6.706  1.1083  0.0855  2.2222
 1646SOL    HW216401   1.260   3.298   6.844  0.3992  1.1235 -0.2113
 1647SOL     OW16402   3.072   4.506   6.153  0.2741  0.0722  0.0668
 1647SOL    HW116403   3.127   4.551   6.218 -0.8695  2.0619 -0.3521
 1647SOL    HW216404   3.099   4.533   6.065 -1.9882 -2.7418 -1.4628
 1648SOL     OW16405   2.537   0.019   5.312  0.4360 -0.5281 -0.4601
 1648SOL    HW116406   2.490   0.093   5.350 -1.2431 -1.7542 -0.1435
 1648SOL    HW216407   2.473   4.676   5.316 -0.2025 -0.0852 -2.7000
 1649SOL     OW16408   1.241   3.739   7.159 -0.2068 -0.3497  0.2228
 1649SOL    HW116409   1.152   3.733   7.124  0.4716  0.0241 -1.5374
 1649SOL    HW216410   1.291   3.781   7.090  0.0127 -0.6535  0.1950
 1650SOL     OW16411   0.336   4.695   6.157  0.1655 -0.4835 -0.1824
 1650SOL    HW116412   0.312   0.055   6.184  0.5290 -1.0634  2.0084
 1650SOL    HW216413   0.253   4.649   6.169  0.7672 -0.9970  1.9982
 1651SOL     OW16414   2.587   3.695   6.058 -0.2638  0.0055  0.3493
 1651SOL    HW116415   2.522   3.625   6.056 -0.7184  0.4760 -1.5895
 1651SOL    HW216416   2.662   3.664   6.007 -0.2207  0.0207  0.4032
 1652SOL     OW16417   1.090   1.779   5.651 -0.1993 -0.3104 -0.1450
 1652SOL    HW116418   1.163   1.769   5.591  0.3752 -0.2761  0.5469
 1652SOL    HW216419   1.121   1.730   5.727  0.5418 -1.2374 -1.0431
 1653SOL     OW16420   3.654   4.680  11.423 -0.3428  0.3020 -0.8882
 1653SOL    HW116421   3.676   0.045  11.433 -2.0531  1.0582 -4.3536
 1653SOL    HW216422   3.643   4.682  11.328 -1.9866 -1.4878 -0.7232
 1654SOL     OW16423   3.355   0.865  12.808  0.1276 -0.0977  0.1683
 1654SOL    HW116424   3.387   0.955  12.800  1.0353 -0.3435  1.0231
 1654SOL    HW216425   3.264   0.880  12.782 -0.4333 -0.7587  1.7527
 1655SOL     OW16426   2.944   0.148   6.365 -0.6091  0.4624  1.1442
 1655SOL    HW116427   3.027   0.135   6.412 -0.3203  0.3345  0.5950
 1655SOL    HW216428   2.950   0.232   6.320 -1.2749  0.5731  1.2686
 1656SOL     OW16429   4.298   2.682   7.440 -0.3500 -0.2935  0.2569
 1656SOL    HW116430   4.345   2.679   7.524 -0.8714 -1.5862  0.5020
 1656SOL    HW216431   4.320   2.594   7.409 -0.8366 -0.8908  1.6454
 1657SOL     OW16432   4.618   2.379   3.713 -0.1434  0.2052 -0.1173
 1657SOL    HW116433   4.711   2.371   3.734 -0.0481 -0.5467 -0.8337
 1657SOL    HW216434   4.617   2.443   3.642  1.6787 -1.4219 -1.6102
 1658SOL     OW16435   1.973   4.075   4.912  0.0213 -0.2331 -0.6324
 1658SOL    HW116436   1.937   4.001   4.961 -1.3031  1.3308  0.7734
 1658SOL    HW216437   1.932   4.059   4.827 -2.4431 -2.0184  0.9099
 1659SOL     OW16438   0.936   0.193  10.028 -0.8375  0.3535 -0.4678
 1659SOL    HW116439   0.890   0.135   9.968  0.7268  0.5120 -1.8119
 1659SOL    HW216440   0.991   0.133  10.078 -0.8645  0.0434 -0.8169
 1660SOL     OW16441   2.509   4.607   4.955 -0.3862 -0.1311  0.0065
 1660SOL    HW116442   2.591   4.618   5.003 -0.8757  0.5717  0.6865
 1660SOL    HW216443   2.456   4.686   4.961 -0.9063 -0.5203  0.5748
 1661SOL     OW16444   0.826   4.044   2.825 -0.5609  0.1648 -0.6321
 1661SOL    HW116445   0.864   3.972   2.876 -0.7125  0.2757 -0.3611
 1661SOL    HW216446   0.870   4.022   2.743  0.0792 -0.9762  0.0123
 1662SOL     OW16447   2.570   0.759   3.099  0.2913 -0.0104  0.1314
 1662SOL    HW116448   2.618   0.695   3.046 -2.5672 -0.4588 -1.9079
 1662SOL    HW216449   2.633   0.829   3.117  1.9900 -0.8520 -2.5392
 1663SOL     OW16450   3.022   0.330  17.518  0.2641 -0.0191  0.2291
 1663SOL    HW116451   3.095   0.393  17.516  0.0913  0.2031  0.7991
 1663SOL    HW216452   2.999   0.333  17.611  0.1357 -1.7193  0.2509
 1664SOL     OW16453   0.607   4.404   8.002 -0.0121  0.7051  0.0601
 1664SOL    HW116454   0.546   4.345   8.043 -0.7664  0.0780 -1.9444
 1664SOL    HW216455   0.586   4.400   7.908 -0.0056 -0.3199  0.1074
 1665SOL     OW16456   2.965   0.947   6.335 -0.1099 -0.4155  0.6574
 1665SOL    HW116457   2.953   1.006   6.261 -3.4968 -1.0453  0.6989
 1665SOL    HW216458   2.889   0.954   6.393  0.5086 -1.1548  1.5640
 1666SOL     OW16459   1.147   0.287   6.344  0.2330  0.0288  0.0080
 1666SOL    HW116460   1.176   0.197   6.363 -1.6831 -0.7866 -0.8656
 1666SOL    HW216461   1.097   0.261   6.266 -0.4599 -1.6629  1.0186
 1667SOL     OW16462   1.706   1.445   4.017  0.3663 -0.4568  0.0439
 1667SOL    HW116463   1.747   1.367   4.054  0.3874 -0.9061 -0.9121
 1667SOL    HW216464   1.772   1.508   4.046  1.2501 -0.2782 -2.3532
 1668SOL     OW16465   1.994   4.213   6.372 -0.0306  0.3531 -0.0160
 1668SOL    HW116466   1.960   4.189   6.458 -1.5559 -0.3816 -0.8119
 1668SOL    HW216467   2.037   4.131   6.350 -0.1802 -0.0690  1.2644
 1669SOL     OW16468   2.132   1.142  13.693 -0.3803  0.1622  0.0168
 1669SOL    HW116469   2.087   1.132  13.777 -0.4674  0.2031 -0.0250
 1669SOL    HW216470   2.086   1.075  13.643 -2.5575 -0.3165  2.6777
 1670SOL     OW16471   0.981   0.700  15.313 -0.6279 -0.5150 -0.3941
 1670SOL    HW116472   0.911   0.684  15.376 -0.7603 -0.1064 -0.4420
 1670SOL    HW216473   0.948   0.646  15.242 -2.5179 -0.6255  0.5752
 1671SOL     OW16474   0.615   2.418   8.766  0.2760  0.2015  0.0727
 1671SOL    HW116475   0.694   2.472   8.764  0.6094 -0.1834  2.3066
 1671SOL    HW216476   0.617   2.394   8.674  0.6050  0.8278 -0.0840
 1672SOL     OW16477   4.247   2.688   8.637 -0.3453 -0.0914 -0.5233
 1672SOL    HW116478   4.252   2.699   8.542  0.3494 -1.2952 -0.6206
 1672SOL    HW216479   4.181   2.621   8.654 -0.1851 -0.4937 -1.4954
 1673SOL     OW16480   3.880   0.056   9.839  0.4612 -0.7972  0.0854
 1673SOL    HW116481   3.909   4.693   9.840  0.7211 -0.6960  1.4103
 1673SOL    HW216482   3.951   0.093   9.892  1.4331 -0.3828 -1.4879
 1674SOL     OW16483   4.526   0.413  14.419  0.3127 -0.9937  0.0926
 1674SOL    HW116484   4.613   0.416  14.379 -0.3779 -0.0144 -1.3200
 1674SOL    HW216485   4.501   0.505  14.416  1.2951 -0.7922 -2.0262
 1675SOL     OW16486   2.172   0.754   3.139 -0.4628 -0.0115 -0.0234
 1675SOL    HW116487   2.107   0.820   3.113 -0.2965 -0.2395 -1.0252
 1675SOL    HW216488   2.127   0.676   3.105  3.3244 -2.6764  1.1530
 1676SOL     OW16489   4.513   0.191   2.904  0.2627  0.0977 -0.0856
 1676SOL    HW116490   4.429   0.233   2.923  1.4175  3.0674 -1.5116
 1676SOL    HW216491   4.535   0.240   2.825  0.5486 -1.2157 -0.8247
 1677SOL     OW16492   4.180   1.320  14.663  0.3526 -0.0508  0.1574
 1677SOL    HW116493   4.264   1.316  14.618 -0.2469 -1.3797 -0.8334
 1677SOL    HW216494   4.172   1.414  14.678 -1.3486 -0.5583  2.4495
 1678SOL     OW16495   3.229   4.522   6.944  0.3766 -0.2035 -0.3852
 1678SOL    HW116496   3.189   4.604   6.916  0.0531 -0.4567 -0.6634
 1678SOL    HW216497   3.192   4.506   7.031 -1.1283 -0.1972 -1.0402
 1679SOL     OW16498   3.095   0.273   4.347  0.0904  0.1440 -0.6873
 1679SOL    HW116499   3.105   0.200   4.408 -1.9709 -0.4722 -1.0796
 1679SOL    HW216500   3.169   0.331   4.367  0.8361 -1.4484  1.1519
 1680SOL     OW16501   3.494   4.457   9.219 -0.7082 -0.0364  0.6897
 1680SOL    HW116502   3.489   4.362   9.211 -1.9542  0.1543 -0.8441
 1680SOL    HW216503   3.407   4.485   9.190 -0.8815 -0.6186  0.6520
 1681SOL     OW16504   1.937   4.463   5.752 -0.0186 -0.1766 -0.0110
 1681SOL    HW116505   1.924   4.423   5.667  0.3244 -0.6590  0.1639
 1681SOL    HW216506   1.844   4.477   5.772  0.6661  0.3349  2.9487
 1682SOL     OW16507   2.957   0.317   0.063 -0.2219 -0.3278  0.1638
 1682SOL    HW116508   2.863   0.309   0.048 -0.1826  0.7702 -0.6809
 1682SOL    HW216509   2.965   0.358   0.149 -0.3756 -0.4059  0.2143
 1683SOL     OW16510   0.746   2.336   7.632  0.5624  0.1473  0.5939
 1683SOL    HW116511   0.753   2.359   7.539  1.0374 -2.0815  0.0906
 1683SOL    HW216512   0.736   2.243   7.615  1.1868 -0.1026  1.6011
 1684SOL     OW16513   4.182   3.755   1.535  0.7797 -0.1528  0.3791
 1684SOL    HW116514   4.089   3.776   1.544  0.7357  0.0345 -0.5569
 1684SOL    HW216515   4.225   3.824   1.586  0.3605 -0.9251  1.7788
 1685SOL     OW16516   0.027   0.793  12.311 -0.1772 -0.0042 -0.1764
 1685SOL    HW116517   0.035   0.836  12.226  0.3825 -1.9202 -1.1152
 1685SOL    HW216518   0.019   0.704  12.276 -1.0010 -0.1921  0.5234
 1686SOL     OW16519   1.527   0.106   1.870  0.4041 -0.8180 -0.0342
 1686SOL    HW116520   1.574   0.120   1.952 -1.8867  2.7946  0.6439
 1686SOL    HW216521   1.445   0.066   1.900  0.2448 -0.5791 -0.1463
 1687SOL     OW16522   1.414   2.432   4.507  0.1886  0.5425 -0.4185
 1687SOL    HW116523   1.377   2.392   4.586 -0.3808  0.6706 -0.6263
 1687SOL    HW216524   1.402   2.369   4.436 -0.8735  1.0315 -0.6780
 1688SOL     OW16525   0.783   2.564   2.265 -0.4683  0.3723  0.5167
 1688SOL    HW116526   0.763   2.513   2.187  2.9310  0.9329 -0.7314
 1688SOL    HW216527   0.722   2.523   2.327  0.0094  1.0764  1.4633
 1689SOL     OW16528   2.732   4.725  11.301 -0.0184  0.9170  0.1530
 1689SOL    HW116529   2.686   0.035  11.377  0.0669 -0.6709  1.0033
 1689SOL    HW216530   2.779   4.659  11.352 -0.8373  0.0241 -0.2428
 1690SOL     OW16531   1.753   0.752   6.542 -0.3958  0.0022 -0.4748
 1690SOL    HW116532   1.767   0.697   6.619  0.4822  1.2422  0.2353
 1690SOL    HW216533   1.698   0.706   6.478 -0.2403  1.2686 -1.5148
 1691SOL     OW16534   2.171   2.300  12.708  0.1873 -0.4307  0.0956
 1691SOL    HW116535   2.259   2.315  12.743  0.0854 -0.5369  0.4010
 1691SOL    HW216536   2.125   2.373  12.750  1.5440  1.2143 -1.3139
 1692SOL     OW16537   1.348   0.910   0.540  0.1238  0.2097 -0.4619
 1692SOL    HW116538   1.338   0.891   0.634 -0.7582  0.6259 -0.4699
 1692SOL    HW216539   1.400   0.832   0.520 -2.2093 -1.0551 -1.6665
 1693SOL     OW16540   0.009   0.275   9.148  0.0204 -0.0887  0.0174
 1693SOL    HW116541   0.009   0.183   9.173  0.3879 -0.0504  0.1528
 1693SOL    HW216542   4.708   0.273   9.057 -1.9680 -1.0727  0.6847
 1694SOL     OW16543   2.896   2.594   6.303 -0.3455  0.2097 -0.8199
 1694SOL    HW116544   2.893   2.680   6.344  0.6837 -0.0289 -0.2304
 1694SOL    HW216545   2.963   2.591   6.235  2.1004 -1.8323  1.6511
 1695SOL     OW16546   1.681   3.517  13.256  0.2069 -0.3157  0.1048
 1695SOL    HW116547   1.749   3.574  13.221  1.1971 -2.8184 -2.0892
 1695SOL    HW216548   1.609   3.532  13.194  0.9872  0.5069 -0.5859
 1696SOL     OW16549   2.233   0.464   4.365 -0.1290 -0.3311 -0.5981
 1696SOL    HW116550   2.281   0.476   4.447  1.7849 -3.8861 -1.2120
 1696SOL    HW216551   2.203   0.373   4.365  2.4754 -1.1696  0.2898
 1697SOL     OW16552   4.583   1.511   5.996  0.6951  0.6682 -0.2683
 1697SOL    HW116553   4.547   1.449   5.932 -1.8442 -0.4822  2.2743
 1697SOL    HW216554   4.516   1.579   5.989  1.1659  1.0079 -1.5766
 1698SOL     OW16555   4.226   2.745   1.949  0.0426  0.1912  0.0224
 1698SOL    HW116556   4.262   2.742   2.037 -0.6789  0.1886  0.3179
 1698SOL    HW216557   4.135   2.766   1.968 -1.1069 -2.9856 -2.0288
 1699SOL     OW16558   0.157   1.265   1.180  0.3664 -0.6854  0.4831
 1699SOL    HW116559   0.124   1.177   1.199  0.4766 -0.7468  0.3946
 1699SOL    HW216560   0.147   1.302   1.267 -0.3786  0.2360  0.0025
 1700SOL     OW16561   0.327   4.483   5.773  0.1869 -0.2867 -0.6066
 1700SOL    HW116562   0.302   4.573   5.797  0.2441  0.1058 -2.0427
 1700SOL    HW216563   0.283   4.434   5.843  0.3390 -0.0019 -0.3084
 1701SOL     OW16564   1.580   3.524   7.896 -0.5887  0.4362 -0.2666
 1701SOL    HW116565   1.618   3.541   7.809  1.5876 -0.4382  0.5204
 1701SOL    HW216566   1.496   3.569   7.889 -0.8875 -0.0453  0.2683
 1702SOL     OW16567   4.213   3.243   4.921  0.1161 -0.3139  1.4725
 1702SOL    HW116568   4.226   3.336   4.900  0.8356 -0.8145 -0.2447
 1702SOL    HW216569   4.298   3.221   4.959 -0.0797 -1.1480  1.4182
 1703SOL     OW16570   2.796   3.959  15.720  0.3665  0.7826 -0.2841
 1703SOL    HW116571   2.863   3.912  15.770  0.1151  0.0746 -0.6063
 1703SOL    HW216572   2.770   4.023  15.785 -1.4322  0.0083 -0.2546
 1704SOL     OW16573   2.565   1.289   8.043  0.2148  0.5137  0.5142
 1704SOL    HW116574   2.582   1.337   8.124 -0.2681  0.9967  0.3283
 1704SOL    HW216575   2.570   1.356   7.974 -0.6716 -0.0201 -0.0594
 1705SOL     OW16576   3.734   0.021   8.634  0.0482 -0.7018  0.4848
 1705SOL    HW116577   3.777   0.062   8.709 -2.3377  0.5172  1.2093
 1705SOL    HW216578   3.797   0.042   8.565 -1.0184 -2.4852 -1.0056
 1706SOL     OW16579   1.927   3.980   8.835  0.2393  0.1023  0.2554
 1706SOL    HW116580   1.910   3.948   8.923  0.3178 -0.9042 -0.0851
 1706SOL    HW216581   1.843   4.015   8.804 -0.5221  0.8438  3.1507
 1707SOL     OW16582   1.881   2.094  16.627 -0.1991 -0.0378  0.5754
 1707SOL    HW116583   1.855   2.044  16.704 -0.3935  0.5853  0.9068
 1707SOL    HW216584   1.972   2.065  16.621 -0.0575  0.4319  0.5038
 1708SOL     OW16585   1.127   3.670  11.683  0.4793  0.2066  0.9590
 1708SOL    HW116586   1.128   3.583  11.644  1.1794  0.2974  0.7936
 1708SOL    HW216587   1.185   3.720  11.626 -2.0915  0.9931 -0.9896
 1709SOL     OW16588   1.911   3.276   2.010  0.7777 -0.8220  0.2433
 1709SOL    HW116589   1.909   3.328   2.090 -1.2192 -0.5419  0.0205
 1709SOL    HW216590   1.991   3.303   1.966 -1.6281  0.0679 -3.5463
 1710SOL     OW16591   4.536   2.950   9.008  0.2128  0.0565  0.0838
 1710SOL    HW116592   4.540   3.015   8.938 -2.4282 -0.9801 -1.0269
 1710SOL    HW216593   4.595   2.880   8.979  1.8227  0.6739  1.8787
 1711SOL     OW16594   2.880   2.348   7.142 -0.1153  0.1461 -0.4969
 1711SOL    HW116595   2.954   2.407   7.128  0.6200 -0.4611  0.7869
 1711SOL    HW216596   2.878   2.319   7.234  1.2696 -2.7833 -1.3844
 1712SOL     OW16597   3.062   3.732   3.731  0.1639  0.0589  0.0175
 1712SOL    HW116598   3.006   3.810   3.728  1.0546  0.6377 -1.2837
 1712SOL    HW216599   3.128   3.765   3.671  2.6073  1.5162  3.5052
 1713SOL     OW16600   0.885   0.760   4.667  0.2032 -1.1929  0.1608
 1713SOL    HW116601   0.815   0.823   4.651  0.0448 -0.2245  4.6638
 1713SOL    HW216602   0.943   0.754   4.590  1.9532  1.1057  1.3005
 1714SOL     OW16603   1.354   0.226  11.039 -0.0538  0.0586 -0.2235
 1714SOL    HW116604   1.292   0.167  10.994  0.0470 -1.0166  1.0439
 1714SOL    HW216605   1.348   0.296  10.974 -0.0496  0.7102  0.4742
 1715SOL     OW16606   1.388   4.233   9.177  0.1240  0.4845  0.0617
 1715SOL    HW116607   1.480   4.208   9.171  0.1050  0.5735 -0.6681
 1715SOL    HW216608   1.344   4.147   9.178  0.7383  0.1870  1.4809
 1716SOL     OW16609   0.236   1.495   9.165 -0.1207  0.2359  0.0338
 1716SOL    HW116610   0.253   1.587   9.147 -1.1639  0.1102 -1.5407
 1716SOL    HW216611   0.150   1.481   9.126  0.4559 -1.1352 -0.7619
 1717SOL     OW16612   0.945   1.020   2.172  0.6542  0.0636 -0.2296
 1717SOL    HW116613   1.023   1.020   2.116  2.3445  0.3374  2.1434
 1717SOL    HW216614   0.974   1.015   2.263 -1.6502 -1.4975  0.4060
 1718SOL     OW16615   2.682   4.705   9.421  0.6792  0.1451  0.6002
 1718SOL    HW116616   2.718   0.053   9.375 -2.5302  0.7594 -0.9006
 1718SOL    HW216617   2.607   4.687   9.365  0.3817  0.7757  0.7969
 1719SOL     OW16618   3.003   1.556   3.918 -0.4840  0.1366  0.0915
 1719SOL    HW116619   3.030   1.619   3.985  1.0231 -0.3787 -0.0218
 1719SOL    HW216620   2.985   1.622   3.851  2.8588  1.7714  0.7915
 1720SOL     OW16621   2.563   3.032   2.486 -0.4532  0.3371 -0.5014
 1720SOL    HW116622   2.533   2.987   2.408 -0.3849  1.4914 -1.1862
 1720SOL    HW216623   2.510   3.111   2.487  1.7094  1.7973 -2.3627
 1721SOL     OW16624   0.157   2.946   1.731 -0.2982 -0.2334 -0.0030
 1721SOL    HW116625   0.156   2.869   1.674  2.0144 -0.4864  0.2725
 1721SOL    HW216626   0.072   2.934   1.773  1.0277 -1.3218  2.3741
 1722SOL     OW16627   0.531   2.876   4.110  0.4308 -0.3962 -0.0227
 1722SOL    HW116628   0.521   2.786   4.079  0.4098  0.3654 -2.2907
 1722SOL    HW216629   0.530   2.925   4.028  1.3842 -2.0674 -1.0461
 1723SOL     OW16630   2.623   1.289  12.292  0.2639 -0.0814 -0.0334
 1723SOL    HW116631   2.577   1.329  12.217  0.2822 -0.3690 -0.1955
 1723SOL    HW216632   2.593   1.336  12.370  3.5809 -1.6262  2.1440
 1724SOL     OW16633   3.758   0.522   5.638 -0.0034  0.2416 -0.3480
 1724SOL    HW116634   3.797   0.470   5.568 -1.6600 -0.8832 -0.4303
 1724SOL    HW216635   3.824   0.513   5.707 -0.3803  0.2552  0.0137
 1725SOL     OW16636   3.780   2.499  13.409 -0.7473 -0.1016 -0.0429
 1725SOL    HW116637   3.865   2.513  13.368 -0.8410 -1.7148 -0.7879
 1725SOL    HW216638   3.735   2.462  13.333  1.8451 -1.7582 -0.7634
 1726SOL     OW16639   1.575   2.027   4.139  0.7135 -0.7431  0.1703
 1726SOL    HW116640   1.532   1.942   4.144 -0.4676 -0.1497  0.1627
 1726SOL    HW216641   1.641   2.014   4.071 -0.4485 -2.1194 -0.6688
 1727SOL     OW16642   3.564   4.470   5.578 -0.5091  0.2045  0.4359
 1727SOL    HW116643   3.562   4.508   5.490 -0.8653 -0.6665  0.0737
 1727SOL    HW216644   3.653   4.437   5.576 -0.3077  0.7339  0.6358
 1728SOL     OW16645   2.357   0.505   1.381 -0.5343 -0.0713 -0.2082
 1728SOL    HW116646   2.347   0.420   1.422  0.6789 -1.1649 -2.1880
 1728SOL    HW216647   2.362   0.570   1.451  0.7026  1.7853 -2.0372
 1729SOL     OW16648   2.472   1.475   4.117 -0.0599  0.0589 -0.1217
 1729SOL    HW116649   2.442   1.531   4.046 -2.2464 -3.1378 -1.6883
 1729SOL    HW216650   2.392   1.430   4.143  0.3905 -1.4772 -1.4141
 1730SOL     OW16651   4.117   0.555   1.612  0.0611 -0.0464 -0.1024
 1730SOL    HW116652   4.107   0.461   1.598 -1.2026 -0.1893  1.8118
 1730SOL    HW216653   4.177   0.588   1.545 -0.5690 -1.3019 -1.2751
 1731SOL     OW16654   0.011   4.198   7.943 -0.0908 -0.1939 -0.1957
 1731SOL    HW116655   4.712   4.119   7.895 -2.9724 -0.6289  2.1472
 1731SOL    HW216656   0.012   4.164   8.033  0.3127 -0.9608 -0.4931
 1732SOL     OW16657   2.292   4.688   9.613 -0.4013 -0.6226 -0.1351
 1732SOL    HW116658   2.226   4.627   9.645 -0.5488 -1.2391 -1.6656
 1732SOL    HW216659   2.239   0.040   9.608  0.6802  0.1909  1.3562
 1733SOL     OW16660   2.535   0.642   1.811  0.4078  0.0647 -0.7699
 1733SOL    HW116661   2.474   0.617   1.881  0.3820  1.4387 -0.3067
 1733SOL    HW216662   2.476   0.679   1.745  0.2638 -1.4015 -1.4759
 1734SOL     OW16663   4.498   0.890   2.853 -0.1957  0.0847  0.1825
 1734SOL    HW116664   4.576   0.847   2.889 -0.8132 -1.1153  0.1120
 1734SOL    HW216665   4.448   0.815   2.821 -0.0411  0.0228  0.0803
 1735SOL     OW16666   3.006   0.179   5.252  0.2372  1.2788  0.1994
 1735SOL    HW116667   2.919   0.178   5.293  0.5014 -1.6154  0.7234
 1735SOL    HW216668   3.063   0.209   5.323 -0.6262  0.3828  1.2654
 1736SOL     OW16669   2.843   0.675  14.273 -0.2864 -0.6478 -0.1899
 1736SOL    HW116670   2.889   0.728  14.338  0.8076 -0.9330 -0.7257
 1736SOL    HW216671   2.870   0.589  14.304 -0.2056 -1.5897 -2.8425
 1737SOL     OW16672   0.511   3.744   7.211 -0.6939  0.5912 -0.5851
 1737SOL    HW116673   0.474   3.656   7.207  0.2048  0.1528  0.7435
 1737SOL    HW216674   0.606   3.733   7.207 -0.6176  0.9261  0.2921
 1738SOL     OW16675   1.255   2.787  12.611 -0.9707  0.2142 -0.1723
 1738SOL    HW116676   1.175   2.815  12.565  0.5942  2.5349 -1.5017
 1738SOL    HW216677   1.254   2.846  12.687  0.4489  0.8618 -0.6641
 1739SOL     OW16678   0.202   3.770   8.568  0.5871  0.6658  0.1685
 1739SOL    HW116679   0.146   3.723   8.629  0.5401  3.0734  2.0409
 1739SOL    HW216680   0.286   3.724   8.569  0.5428  0.5791 -0.1248
 1740SOL     OW16681   3.913   0.974  14.836  0.0273 -0.3830  0.4118
 1740SOL    HW116682   3.905   1.020  14.752 -0.9125 -0.6042  0.3852
 1740SOL    HW216683   3.972   1.037  14.878  0.6540 -0.0576 -0.9728
 1741SOL     OW16684   1.387   1.047   9.642  0.3028  0.9041 -0.2510
 1741SOL    HW116685   1.383   1.066   9.735 -1.2180  0.2430 -0.1814
 1741SOL    HW216686   1.373   0.953   9.650 -0.5664  1.1252  0.7584
 1742SOL     OW16687   2.141   1.343   3.358 -0.0156 -0.5028  0.7235
 1742SOL    HW116688   2.118   1.284   3.430 -0.8305 -0.1627  0.7330
 1742SOL    HW216689   2.212   1.296   3.313 -1.1884 -0.1362 -1.5024
 1743SOL     OW16690   3.324   3.023   8.910  0.3609  0.3524 -0.0157
 1743SOL    HW116691   3.352   3.054   8.997 -0.2182  0.6441  0.0662
 1743SOL    HW216692   3.363   2.936   8.910 -0.3786  0.0236 -0.0490
 1744SOL     OW16693   1.260   2.164   9.411  0.2077  0.3089  0.1626
 1744SOL    HW116694   1.340   2.112   9.400 -0.4443 -0.7770  0.5188
 1744SOL    HW216695   1.286   2.211   9.490  0.7476  0.0409  0.1457
 1745SOL     OW16696   2.420   4.555  13.906 -0.0494  0.5095 -0.2076
 1745SOL    HW116697   2.372   4.637  13.891 -3.2364 -0.9106  2.1192
 1745SOL    HW216698   2.472   4.585  13.980  1.5013 -0.4512 -0.9104
 1746SOL     OW16699   1.237   1.833  11.121  0.1305  0.3850 -0.1978
 1746SOL    HW116700   1.161   1.891  11.118  1.4247  2.1783  1.5103
 1746SOL    HW216701   1.264   1.842  11.213 -1.6846  2.3130  0.1328
 1747SOL     OW16702   1.371   4.100   2.299 -0.2852  0.2451 -0.5037
 1747SOL    HW116703   1.415   4.175   2.259  0.2774  0.7060  0.9769
 1747SOL    HW216704   1.309   4.080   2.229 -1.4745  2.1442  0.0079
 1748SOL     OW16705   3.927   3.525  15.171  0.5849 -0.8551  0.0341
 1748SOL    HW116706   3.984   3.466  15.121  3.4454  3.4790 -1.8653
 1748SOL    HW216707   3.961   3.614  15.172 -0.2888 -0.5002 -1.3704
 1749SOL     OW16708   0.138   4.554   5.154  0.8305 -0.2462  0.0841
 1749SOL    HW116709   0.085   4.634   5.163  0.8658 -0.3048  0.8235
 1749SOL    HW216710   0.148   4.543   5.060 -0.4129  0.8342 -0.1837
 1750SOL     OW16711   3.728   0.717   0.536  0.0721 -0.5548  0.7321
 1750SOL    HW116712   3.744   0.633   0.578 -1.5183  0.1659  2.7645
 1750SOL    HW216713   3.813   0.763   0.542 -0.9621  1.2455  1.6899
 1751SOL     OW16714   3.130   2.964   6.704  0.2360 -0.0663  0.2546
 1751SOL    HW116715   3.076   2.957   6.783  0.9643 -0.9100  0.6722
 1751SOL    HW216716   3.137   2.870   6.685 -2.7388 -0.2229 -0.1523
 1752SOL     OW16717   3.253   0.475   1.264 -0.2161 -0.1404  0.7897
 1752SOL    HW116718   3.344   0.452   1.282  1.1655  2.9945 -2.3126
 1752SOL    HW216719   3.212   0.388   1.270 -0.6940  0.1318  1.5511
 1753SOL     OW16720   3.440   2.180   2.293 -0.1589  0.0134  0.0428
 1753SOL    HW116721   3.488   2.101   2.315 -1.6649 -0.9506 -0.1489
 1753SOL    HW216722   3.390   2.160   2.214 -0.6932 -1.6997  0.8137
 1754SOL     OW16723   4.270   1.832   8.978 -0.2227 -0.1279 -0.0797
 1754SOL    HW116724   4.198   1.795   9.028 -0.6545  1.1132  0.2325
 1754SOL    HW216725   4.345   1.803   9.030  0.6833  1.2468 -0.5943
 1755SOL     OW16726   2.780   1.401   3.131  0.5877 -0.5306  0.3270
 1755SOL    HW116727   2.869   1.366   3.131  0.1142 -1.7077 -0.5257
 1755SOL    HW216728   2.785   1.470   3.065  0.4323  0.1134  0.9832
 1756SOL     OW16729   0.927   1.702   4.188 -0.2698  0.3527 -0.2857
 1756SOL    HW116730   0.850   1.679   4.137 -1.3341  3.5849 -0.1332
 1756SOL    HW216731   0.888   1.729   4.271 -1.4152 -0.2243 -0.6341
 1757SOL     OW16732   0.686   3.363   4.483 -0.3821 -0.3353  0.1529
 1757SOL    HW116733   0.652   3.415   4.556 -3.4217 -0.8742 -0.8459
 1757SOL    HW216734   0.703   3.279   4.524  1.2834  0.3551  0.8757
 1758SOL     OW16735   4.201   4.039   8.355 -0.3456  0.5322  0.0821
 1758SOL    HW116736   4.192   4.042   8.260  2.1648  0.7547 -0.1265
 1758SOL    HW216737   4.295   4.037   8.371 -0.2442  1.8214 -0.3335
 1759SOL     OW16738   4.586   1.944  12.815 -0.6306  0.3948 -0.3540
 1759SOL    HW116739   4.653   1.919  12.753  1.8815  0.7011  2.2121
 1759SOL    HW216740   4.598   2.038  12.829 -0.6777  0.2899  0.4070
 1760SOL     OW16741   0.216   2.183   5.701  0.4320 -0.1024  0.5802
 1760SOL    HW116742   0.274   2.107   5.705  0.1823 -0.3474 -0.3607
 1760SOL    HW216743   0.254   2.235   5.630 -1.6118 -0.3570 -0.7055
 1761SOL     OW16744   3.373   3.834   0.192  0.0424 -0.5098 -0.9289
 1761SOL    HW116745   3.315   3.790   0.254 -0.9659  1.1528 -0.6671
 1761SOL    HW216746   3.386   3.768   0.124 -0.5316 -2.2628  0.6733
 1762SOL     OW16747   1.211   0.621  15.518 -0.3737  0.2242  0.2814
 1762SOL    HW116748   1.150   0.620  15.591  0.3970 -2.8164  0.8664
 1762SOL    HW216749   1.241   0.531  15.526  0.2051  0.4330  0.4850
 1763SOL     OW16750   4.055   4.208   1.299  0.3904 -0.1786  0.1426
 1763SOL    HW116751   4.038   4.223   1.206 -0.1965 -0.7121  0.1612
 1763SOL    HW216752   4.048   4.114   1.313  1.2781 -0.4856 -1.5566
 1764SOL     OW16753   1.187   1.186   5.669  0.4396  0.3402 -0.7999
 1764SOL    HW116754   1.250   1.232   5.724 -0.0134  1.0482 -0.8754
 1764SOL    HW216755   1.104   1.234   5.676  1.0577  0.8671  2.6955
 1765SOL     OW16756   1.416   2.095  14.012 -0.1573 -0.9094  0.3289
 1765SOL    HW116757   1.396   2.047  13.932 -0.1175  0.0529 -0.2564
 1765SOL    HW216758   1.333   2.143  14.017  0.2412 -0.1617 -0.1485
 1766SOL     OW16759   2.403   4.337   6.830 -0.2605 -0.7261  0.5096
 1766SOL    HW116760   2.437   4.248   6.838  0.8474 -0.3905 -0.4530
 1766SOL    HW216761   2.405   4.366   6.921  0.3211 -1.2284  0.6524
 1767SOL     OW16762   3.073   1.984   8.312 -0.0173 -0.0865  0.1403
 1767SOL    HW116763   3.122   2.046   8.258 -1.9048 -0.7942 -2.3602
 1767SOL    HW216764   3.124   1.903   8.310  0.3196  0.1900 -2.1970
 1768SOL     OW16765   0.746   3.048   3.396  0.0191 -0.0397 -0.2696
 1768SOL    HW116766   0.804   3.089   3.332  0.5041 -1.0978 -0.5052
 1768SOL    HW216767   0.812   3.059   3.464  0.5862  1.2520 -1.0290
 1769SOL     OW16768   2.044   1.656  17.232 -0.0062 -0.9958  0.4392
 1769SOL    HW116769   2.107   1.650  17.304  0.8700  0.6041 -0.2058
 1769SOL    HW216770   1.981   1.587  17.255 -0.3692 -0.6401  0.5152
 1770SOL     OW16771   4.666   3.971   2.051  0.0033 -0.1067 -0.7274
 1770SOL    HW116772   4.656   3.876   2.046  1.4676 -0.3248  0.7599
 1770SOL    HW216773   4.676   4.000   1.960  1.0195 -1.3387 -1.0053
 1771SOL     OW16774   0.265   2.435   2.463  0.3023  0.1401 -0.0000
 1771SOL    HW116775   0.285   2.526   2.486 -2.5455  0.2673  1.9898
 1771SOL    HW216776   0.283   2.392   2.547  1.2898 -0.1913 -0.3811
 1772SOL     OW16777   4.577   0.593   5.995  0.2945  0.4007  0.3739
 1772SOL    HW116778   4.666   0.611   5.967  0.5602 -0.3347  0.7385
 1772SOL    HW216779   4.553   0.680   6.027  0.4438  0.8436 -0.7133
 1773SOL     OW16780   3.201   3.403   7.010 -0.3013  0.2587  0.0221
 1773SOL    HW116781   3.116   3.437   7.038 -0.3932 -1.1903  1.5256
 1773SOL    HW216782   3.261   3.464   7.053  0.9491  0.5686 -2.1662
 1774SOL     OW16783   0.486   0.568  16.873 -0.3055 -0.1563 -0.4006
 1774SOL    HW116784   0.508   0.517  16.951  0.8163 -0.2809 -0.7978
 1774SOL    HW216785   0.400   0.602  16.896 -0.1492  0.6030 -0.9541
 1775SOL     OW16786   2.418   3.294   5.419 -0.0912  0.3288  0.0435
 1775SOL    HW116787   2.439   3.212   5.374 -1.3588 -0.7269  1.3825
 1775SOL    HW216788   2.383   3.342   5.344 -0.9079 -0.8134 -0.3031
 1776SOL     OW16789   2.591   2.775  16.701  0.4119 -0.7496 -0.2188
 1776SOL    HW116790   2.535   2.846  16.669 -0.7542 -1.3555  0.4660
 1776SOL    HW216791   2.627   2.818  16.779  0.2236  0.0899 -0.5880
 1777SOL     OW16792   0.954   0.366   2.996  0.5676 -0.2050  0.0790
 1777SOL    HW116793   0.887   0.416   2.950  2.7050  2.8740  0.3571
 1777SOL    HW216794   0.915   0.354   3.083  0.5587 -0.0106  0.1013
 1778SOL     OW16795   0.543   0.477  13.681  0.1212  0.0805 -0.2975
 1778SOL    HW116796   0.545   0.522  13.597  0.7231  2.1251  0.7906
 1778SOL    HW216797   0.515   0.553  13.732 -1.3422  1.4789 -3.2435
 1779SOL     OW16798   2.279   4.451   3.697  0.8175  0.2059 -0.1307
 1779SOL    HW116799   2.191   4.486   3.712  0.6993  0.4356 -1.3196
 1779SOL    HW216800   2.282   4.392   3.772  1.1377 -1.4398 -1.4175
 1780SOL     OW16801   2.075   4.350  12.983 -0.5041  0.3859  0.7397
 1780SOL    HW116802   2.060   4.255  12.980  2.1464 -0.1157  3.9141
 1780SOL    HW216803   1.994   4.362  13.034 -1.6710  1.5403 -1.3918
 1781SOL     OW16804   1.786   1.551   4.938  0.4197  0.0594 -0.3105
 1781SOL    HW116805   1.833   1.634   4.925 -0.4497  0.9042  1.8946
 1781SOL    HW216806   1.838   1.514   5.008  0.5035  2.8197  1.0776
 1782SOL     OW16807   4.589   3.072   4.422  0.0320 -0.5304 -0.6830
 1782SOL    HW116808   4.680   3.095   4.441  0.0930 -0.2385 -1.3553
 1782SOL    HW216809   4.558   3.052   4.511 -0.7161  2.3241 -0.3104
 1783SOL     OW16810   0.472   2.381  11.438 -0.2458 -0.4761 -0.0920
 1783SOL    HW116811   0.400   2.342  11.389  0.5883  0.7841 -2.3430
 1783SOL    HW216812   0.448   2.472  11.424 -2.2816 -1.0319 -0.1100
 1784SOL     OW16813   4.558   2.705  12.812 -0.3109  0.1974 -0.1245
 1784SOL    HW116814   4.482   2.747  12.854 -0.9590 -2.1132  0.9975
 1784SOL    HW216815   4.513   2.639  12.759  2.6449 -1.3839 -0.6206
 1785SOL     OW16816   4.005   2.326   8.154 -0.0682  0.0445 -0.0977
 1785SOL    HW116817   4.036   2.382   8.225  2.5850 -0.0131 -1.1989
 1785SOL    HW216818   3.935   2.272   8.189  0.1140  0.1121  0.3710
 1786SOL     OW16819   3.634   0.028   8.897  0.2212  0.1553  1.1036
 1786SOL    HW116820   3.632   4.678   8.841  1.0603  0.7002  0.3041
 1786SOL    HW216821   3.548   0.068   8.889  0.2138 -0.4550 -1.9368
 1787SOL     OW16822   1.418   0.543   2.974 -0.2388 -0.1252  0.0292
 1787SOL    HW116823   1.459   0.481   2.914  0.6566  0.7149 -0.2240
 1787SOL    HW216824   1.350   0.489   3.013  0.0793 -1.0723 -0.7397
 1788SOL     OW16825   1.098   1.024  10.516 -0.5076  0.1197  0.3553
 1788SOL    HW116826   1.155   0.948  10.528  1.2066  1.5586  1.2327
 1788SOL    HW216827   1.016   0.985  10.486 -0.4232 -1.6529  2.4439
 1789SOL     OW16828   3.968   2.112   6.806  0.2810 -0.1354  0.3432
 1789SOL    HW116829   3.908   2.038   6.800  0.5244 -0.1569 -1.7538
 1789SOL    HW216830   4.046   2.074   6.766 -1.3634 -1.5183 -1.5753
 1790SOL     OW16831   1.182   1.219   0.856 -0.5735 -0.0184  0.4939
 1790SOL    HW116832   1.100   1.247   0.898 -0.1742 -0.5572  1.6312
 1790SOL    HW216833   1.170   1.125   0.868 -1.1269  0.2694  2.1247
 1791SOL     OW16834   4.093   4.023  12.129 -0.2150 -0.1848  0.2716
 1791SOL    HW116835   4.121   4.112  12.109 -0.2731 -0.4603 -0.9818
 1791SOL    HW216836   4.171   3.979  12.162 -0.6707 -2.4318 -1.6911
 1792SOL     OW16837   1.775   3.367   8.008  0.0551  0.1164 -0.5526
 1792SOL    HW116838   1.718   3.428   7.962  0.8888 -0.3116 -2.1306
 1792SOL    HW216839   1.735   3.367   8.095  0.1495 -0.8699 -0.5087
 1793SOL     OW16840   1.671   3.886   8.462 -0.4824 -0.9594  0.3350
 1793SOL    HW116841   1.655   3.806   8.412  1.5596 -0.7752 -0.5948
 1793SOL    HW216842   1.638   3.855   8.546 -0.4720 -2.0100 -0.0509
 1794SOL     OW16843   2.900   4.125   6.276  0.0942 -0.5563 -0.1389
 1794SOL    HW116844   2.819   4.119   6.327  1.1582 -0.4499  1.5481
 1794SOL    HW216845   2.950   4.201   6.306 -2.1546  0.5281  0.8829
 1795SOL     OW16846   2.052   4.060  13.245  0.5237  0.1693  0.3234
 1795SOL    HW116847   2.037   4.088  13.155 -0.1592 -2.4767 -0.3952
 1795SOL    HW216848   2.067   4.146  13.285  0.0308  0.8772 -1.0181
 1796SOL     OW16849   3.832   4.531  11.847  0.4052  0.1987 -0.5713
 1796SOL    HW116850   3.927   4.521  11.855  0.4859  2.0424  0.7855
 1796SOL    HW216851   3.803   4.465  11.910  1.9058 -0.1568 -0.2527
 1797SOL     OW16852   2.740   3.438   8.267  0.0716 -0.3829 -0.2868
 1797SOL    HW116853   2.695   3.382   8.330 -0.1580 -1.8576 -1.7740
 1797SOL    HW216854   2.678   3.478   8.204 -1.0954 -1.6768  0.0429
 1798SOL     OW16855   2.700   0.313  17.710  0.3097  0.1977  0.1535
 1798SOL    HW116856   2.670   0.287  17.623 -0.2964 -0.6462  0.6124
 1798SOL    HW216857   2.692   0.408  17.703 -0.6866  0.0854 -0.2065
 1799SOL     OW16858   3.676   3.421   4.896 -0.4267 -0.1327 -0.0036
 1799SOL    HW116859   3.740   3.459   4.837 -0.4286 -0.8166 -0.4403
 1799SOL    HW216860   3.702   3.458   4.981  1.1059 -0.6321 -0.2542
 1800SOL     OW16861   2.589   1.150   0.076  0.0121  0.0685  0.0102
 1800SOL    HW116862   2.673   1.188   0.049 -1.1628  0.8436 -2.6169
 1800SOL    HW216863   2.619   1.060   0.068  1.8410  0.8889 -2.3581
 1801SOL     OW16864   2.247   4.009  15.221  0.0449  0.3768 -0.1270
 1801SOL    HW116865   2.338   3.986  15.239 -0.2961 -2.2075 -1.5938
 1801SOL    HW216866   2.190   3.946  15.266  0.8214 -1.0070 -1.0564
 1802SOL     OW16867   4.216   2.292   2.197 -0.2884  0.1230 -0.1427
 1802SOL    HW116868   4.209   2.305   2.103 -3.8614 -0.6591 -0.0175
 1802SOL    HW216869   4.255   2.377   2.214  3.7207 -1.7597  0.1545
 1803SOL     OW16870   2.490   4.402  11.192 -0.7726  0.0798  0.3213
 1803SOL    HW116871   2.492   4.479  11.136  1.6656  1.2017  1.9166
 1803SOL    HW216872   2.585   4.399  11.207 -0.6061 -1.4191 -1.0117
 1804SOL     OW16873   0.552   1.078   5.504  0.0312  0.8630 -0.6067
 1804SOL    HW116874   0.643   1.052   5.490 -0.2545 -0.8013  0.6541
 1804SOL    HW216875   0.511   1.019   5.441  0.3682 -0.6034  0.5515
 1805SOL     OW16876   3.361   2.692   6.175 -0.0532  0.3056  1.1192
 1805SOL    HW116877   3.435   2.632   6.176  0.0851  0.4709 -0.0818
 1805SOL    HW216878   3.362   2.745   6.255  0.0884  0.7893  0.7948
 1806SOL     OW16879   1.591   1.751  11.868  0.3277  0.4897 -0.0133
 1806SOL    HW116880   1.685   1.744  11.883  0.2455 -0.9082 -0.1414
 1806SOL    HW216881   1.558   1.767  11.957  1.3313 -2.6747  0.9366
 1807SOL     OW16882   2.981   0.209   8.794  0.3103 -0.5404 -0.0818
 1807SOL    HW116883   2.908   0.212   8.733 -0.6581  0.6027  1.1393
 1807SOL    HW216884   3.023   0.125   8.773  2.0916  0.1805  0.5903
 1808SOL     OW16885   3.036   1.380   0.304 -0.8308  0.5582  0.5404
 1808SOL    HW116886   2.983   1.300   0.312 -0.3044  0.4376  2.6572
 1808SOL    HW216887   2.997   1.432   0.234  2.0376 -0.8012 -2.0999
 1809SOL     OW16888   0.080   1.088  14.852 -0.0159  0.5124  0.2143
 1809SOL    HW116889   0.063   1.000  14.817  1.3436  1.2820 -2.4266
 1809SOL    HW216890   0.124   1.126  14.775  0.9572 -2.4319 -0.6828
 1810SOL     OW16891   0.604   2.098  13.736  0.5133  0.3362  0.1819
 1810SOL    HW116892   0.592   2.009  13.703 -0.4210  0.8395 -0.8165
 1810SOL    HW216893   0.684   2.079  13.786  1.3419 -2.1534 -2.1016
 1811SOL     OW16894   3.552   2.706  10.482  0.5898  0.4523  0.5718
 1811SOL    HW116895   3.612   2.759  10.535  0.6188  1.4609 -0.4957
 1811SOL    HW216896   3.493   2.775  10.452 -0.8874 -0.5020  1.2819
 1812SOL     OW16897   1.892   2.573   8.576  0.4591 -0.3118  0.0636
 1812SOL    HW116898   1.818   2.633   8.586  0.7464  0.1442 -0.6046
 1812SOL    HW216899   1.867   2.515   8.504 -0.1622 -1.2540  1.0283
 1813SOL     OW16900   1.314   2.987   8.842 -0.1589  0.4006 -0.1367
 1813SOL    HW116901   1.329   2.988   8.747 -1.8383  0.2626 -0.4045
 1813SOL    HW216902   1.270   2.905   8.865  1.2037 -1.0248 -2.6145
 1814SOL     OW16903   0.676   1.876   5.246 -0.3818  0.0878 -0.2062
 1814SOL    HW116904   0.636   1.959   5.272 -1.0386 -0.4384  0.4647
 1814SOL    HW216905   0.620   1.807   5.283  2.4057 -0.8397  2.2861
 1815SOL     OW16906   4.034   3.065  15.263  0.0147 -0.3364 -0.1497
 1815SOL    HW116907   4.009   2.973  15.252  0.3932 -0.5104  0.4286
 1815SOL    HW216908   3.967   3.109  15.210  1.6232  1.5554 -0.6253
 1816SOL     OW16909   1.228   4.362   2.895  0.3273  0.1340  0.2489
 1816SOL    HW116910   1.220   4.269   2.914  1.3345  0.1458  0.7714
 1816SOL    HW216911   1.146   4.393   2.934  0.2730  0.5650 -0.2077
 1817SOL     OW16912   4.573   2.653   2.869  0.3487 -0.2626 -0.3976
 1817SOL    HW116913   4.498   2.703   2.837  0.3160 -1.2806 -1.8916
 1817SOL    HW216914   4.610   2.607   2.793  0.9483  0.0337 -0.2870
 1818SOL     OW16915   3.315   2.319   3.309 -0.2754  0.0248  0.0166
 1818SOL    HW116916   3.406   2.349   3.306  0.0910 -1.3319 -2.3819
 1818SOL    HW216917   3.315   2.262   3.232  2.3711 -0.5302  0.4260
 1819SOL     OW16918   4.233   1.016   7.241  0.1860  0.3081  0.2399
 1819SOL    HW116919   4.189   1.060   7.313 -2.0658  0.7687 -1.4274
 1819SOL    HW216920   4.299   0.978   7.298  1.6060  1.8005 -0.4072
 1820SOL     OW16921   2.478   0.439  13.950  0.0685  0.0137 -0.1070
 1820SOL    HW116922   2.455   0.379  14.021 -2.6172  1.4952  0.2899
 1820SOL    HW216923   2.539   0.499  13.994  0.1555  0.1803 -0.4556
 1821SOL     OW16924   2.580   1.444   2.160 -0.0608  0.3100  0.1912
 1821SOL    HW116925   2.485   1.446   2.144 -0.5356  0.1691  2.9729
 1821SOL    HW216926   2.581   1.436   2.255  0.2257 -1.5099  0.0380
 1822SOL     OW16927   2.527   4.250   7.150 -0.4798 -0.0738 -0.1962
 1822SOL    HW116928   2.616   4.227   7.124 -0.6933 -1.4271  0.2741
 1822SOL    HW216929   2.487   4.165   7.130 -0.8270 -0.1283  0.7192
 1823SOL     OW16930   0.514   0.586  15.548  0.6344 -0.2388 -0.3533
 1823SOL    HW116931   0.439   0.579  15.489  2.1297 -1.6422 -2.1030
 1823SOL    HW216932   0.534   0.493  15.558 -0.2805 -0.2983  0.9249
 1824SOL     OW16933   3.796   4.456   7.411 -0.0960  0.4891  0.4471
 1824SOL    HW116934   3.766   4.410   7.333  2.7055  3.4848 -2.4028
 1824SOL    HW216935   3.732   4.527   7.414  1.3064  1.8370 -2.1469
 1825SOL     OW16936   4.088   2.190   6.552  0.0884 -0.4428  0.3155
 1825SOL    HW116937   4.076   2.097   6.569 -2.3347 -0.3541 -0.9301
 1825SOL    HW216938   4.173   2.183   6.508 -0.0762 -1.0378  0.0892
 1826SOL     OW16939   3.328   0.205  15.175 -0.6288  0.5046  0.0069
 1826SOL    HW116940   3.400   0.267  15.158  0.4676  0.0737  3.0195
 1826SOL    HW216941   3.258   0.267  15.154 -2.7680 -1.5022  1.2102
 1827SOL     OW16942   1.957   3.222   5.162  0.9377  0.0542  0.1956
 1827SOL    HW116943   1.868   3.253   5.172  0.4378 -1.3750  0.1766
 1827SOL    HW216944   1.961   3.166   5.240 -3.5499 -1.3388 -0.6156
 1828SOL     OW16945   3.719   2.862  13.518 -0.2849 -0.3386 -0.0106
 1828SOL    HW116946   3.787   2.825  13.462 -1.9538 -0.7677 -1.7286
 1828SOL    HW216947   3.636   2.848  13.473 -0.8024  2.6673  0.0599
 1829SOL     OW16948   1.278   2.178  11.312 -0.2920  0.4831 -0.3533
 1829SOL    HW116949   1.194   2.141  11.339 -0.2211  1.0855  0.6896
 1829SOL    HW216950   1.322   2.094  11.318 -1.1463  0.1063  0.7106
 1830SOL     OW16951   0.327   2.033   0.928  0.1261 -0.3887  0.0694
 1830SOL    HW116952   0.237   2.057   0.904  0.9539  1.2803 -1.3928
 1830SOL    HW216953   0.379   2.032   0.848 -0.2926 -3.5974 -0.1504
 1831SOL     OW16954   4.202   4.092   3.777  0.0772 -0.0245  0.6002
 1831SOL    HW116955   4.225   4.085   3.685  0.6443 -0.3933  0.7680
 1831SOL    HW216956   4.128   4.032   3.787 -0.6175  0.9239  1.2113
 1832SOL     OW16957   1.689   0.637   7.024 -0.4420  0.1909 -0.0948
 1832SOL    HW116958   1.596   0.654   7.032 -0.1985  1.0868  0.8244
 1832SOL    HW216959   1.687   0.543   7.042 -2.8744  0.6150  1.8690
 1833SOL     OW16960   0.785   1.409  15.749 -0.5797 -0.2019  0.1215
 1833SOL    HW116961   0.827   1.450  15.673 -0.3926 -3.9043 -1.7709
 1833SOL    HW216962   0.742   1.485  15.789 -2.6396 -0.0500 -2.3749
 1834SOL     OW16963   0.505   3.147   8.780 -0.1579  0.2187  0.1262
 1834SOL    HW116964   0.424   3.198   8.774  2.9188  4.8501 -2.1185
 1834SOL    HW216965   0.567   3.216   8.801 -0.8498  1.2642 -1.2654
 1835SOL     OW16966   1.288   3.230   1.949 -0.1978 -0.2008  0.1535
 1835SOL    HW116967   1.272   3.314   1.907 -1.2190  0.3854  1.7136
 1835SOL    HW216968   1.300   3.156   1.890  0.2752 -0.7311  0.9144
 1836SOL     OW16969   3.837   2.518   3.868  0.3955 -0.1412  0.0583
 1836SOL    HW116970   3.864   2.481   3.784  2.0445 -0.8154  0.8733
 1836SOL    HW216971   3.829   2.611   3.848  3.0286 -0.2966 -1.7083
 1837SOL     OW16972   1.527   1.074   7.717  0.2882  0.0575  0.3696
 1837SOL    HW116973   1.520   1.006   7.784  0.0536 -1.5823 -1.3202
 1837SOL    HW216974   1.620   1.090   7.729  0.1492  0.5753  0.7619
 1838SOL     OW16975   0.879   3.512   4.700  0.4988  0.0307  0.5112
 1838SOL    HW116976   0.859   3.463   4.780  0.7787 -1.6785 -0.4651
 1838SOL    HW216977   0.797   3.556   4.676  0.0446 -2.0019 -1.6919
 1839SOL     OW16978   1.334   0.346   7.612  0.7143  0.2039  0.2214
 1839SOL    HW116979   1.376   0.412   7.668  1.9051  0.0094 -0.4520
 1839SOL    HW216980   1.284   0.409   7.561  0.5567 -1.2188 -1.3648
 1840SOL     OW16981   3.909   4.278   4.307  0.0162  0.1612  0.4496
 1840SOL    HW116982   3.868   4.345   4.253  0.7146 -0.2943 -0.6395
 1840SOL    HW216983   3.926   4.314   4.395  0.6213 -1.4280  0.9811
 1841SOL     OW16984   0.408   2.146   4.968  0.0403 -0.2793 -0.1891
 1841SOL    HW116985   0.426   2.202   4.892 -0.2853 -0.4490 -0.3906
 1841SOL    HW216986   0.446   2.063   4.938 -2.2927 -0.9589 -1.2534
 1842SOL     OW16987   1.194   3.613   2.393 -0.0474  0.3374  0.3265
 1842SOL    HW116988   1.246   3.576   2.321 -1.7705 -0.0403 -0.7456
 1842SOL    HW216989   1.104   3.604   2.360 -0.8003 -2.0318  3.0428
 1843SOL     OW16990   0.556   1.362   5.485  0.3733  0.1556  0.1212
 1843SOL    HW116991   0.529   1.392   5.572 -2.4072 -0.0297 -0.6636
 1843SOL    HW216992   0.576   1.271   5.505  0.3352 -0.5085 -2.8742
 1844SOL     OW16993   3.072   0.433   6.148  0.4408  0.7299  0.1213
 1844SOL    HW116994   3.112   0.407   6.066  0.6556  0.3834  0.3365
 1844SOL    HW216995   3.133   0.489   6.196  0.0856 -0.0649  1.5088
 1845SOL     OW16996   2.467   2.375  12.477  0.2044 -0.1054  0.1974
 1845SOL    HW116997   2.463   2.449  12.538 -0.8269 -0.0422  0.0418
 1845SOL    HW216998   2.515   2.315  12.535 -1.7627 -0.4557  1.4601
 1846SOL     OW16999   3.533   0.773   8.998  0.2207 -0.0665 -0.0321
 1846SOL    HW117000   3.514   0.755   8.905 -2.3532 -2.7404  0.9998
 1846SOL    HW217001   3.522   0.867   8.989  0.6478  0.0797  1.0625
 1847SOL     OW17002   1.311   2.314   3.407 -0.2936  0.5690  0.4932
 1847SOL    HW117003   1.302   2.379   3.476  2.2749  1.3439  0.0771
 1847SOL    HW217004   1.234   2.341   3.357 -0.5877 -0.7631  0.2272
 1848SOL     OW17005   0.100   1.542  17.167 -0.6229 -0.0235  0.1435
 1848SOL    HW117006   0.192   1.518  17.176  0.0765  2.1942 -0.9380
 1848SOL    HW217007   0.123   1.633  17.146 -0.9641 -0.5640 -2.6629
 1849SOL     OW17008   2.554   2.199  12.688  0.2449  0.0701 -0.5507
 1849SOL    HW117009   2.621   2.149  12.735  1.3844  1.3659 -0.8048
 1849SOL    HW217010   2.561   2.278  12.742  1.6611 -0.5209  0.1297
 1850SOL     OW17011   3.723   2.195   5.985 -0.1751  0.5700  0.2282
 1850SOL    HW117012   3.694   2.194   6.076 -0.8951  0.7371 -0.0003
 1850SOL    HW217013   3.781   2.271   5.984  1.7497 -0.9395 -0.7412
 1851SOL     OW17014   1.543   1.951  13.384  0.1358  0.0925  0.2577
 1851SOL    HW117015   1.586   1.922  13.305  0.8935  0.5460  0.5051
 1851SOL    HW217016   1.523   1.872  13.433 -1.8325  0.2131 -0.3489
 1852SOL     OW17017   3.064   1.799   7.790 -0.1193 -0.2141 -0.4776
 1852SOL    HW117018   3.048   1.869   7.853  0.0957  0.2479 -0.9322
 1852SOL    HW217019   2.992   1.738   7.804  0.6149 -1.3915 -1.7993
 1853SOL     OW17020   3.854   0.917  15.125  0.5076 -0.2837 -0.3411
 1853SOL    HW117021   3.887   0.923  15.035  4.3958  2.8232  1.3351
 1853SOL    HW217022   3.763   0.941  15.106 -0.0638 -2.5229 -0.4669
 1854SOL     OW17023   1.534   3.793   5.327 -0.1839 -0.6616  0.3766
 1854SOL    HW117024   1.499   3.764   5.242  1.4737 -0.4394 -0.3774
 1854SOL    HW217025   1.539   3.714   5.382  0.1204 -0.8753  0.0445
 1855SOL     OW17026   3.441   1.063  10.195 -0.2217  0.1042  0.1606
 1855SOL    HW117027   3.499   1.076  10.119 -0.6463 -2.4301 -0.5701
 1855SOL    HW217028   3.456   0.971  10.215 -1.8681 -0.0280  0.8040
 1856SOL     OW17029   4.261   0.456   5.001  0.7380  0.1019  0.3212
 1856SOL    HW117030   4.292   0.367   5.020 -0.2459 -0.0659  1.1622
 1856SOL    HW217031   4.255   0.489   5.091 -1.3484 -0.2275  0.3126
 1857SOL     OW17032   0.333   2.128   4.109 -0.3582 -0.2060 -0.1751
 1857SOL    HW117033   0.374   2.042   4.112 -0.7145 -0.2932  2.9742
 1857SOL    HW217034   0.339   2.147   4.016 -1.9627  0.4012 -0.1507
 1858SOL     OW17035   4.187   0.386   8.939  1.0253 -0.0662 -0.2938
 1858SOL    HW117036   4.153   0.424   9.020 -0.4558  0.1974 -1.0440
 1858SOL    HW217037   4.176   0.464   8.885 -1.4067 -0.3324 -0.2142
 1859SOL     OW17038   1.069   4.016   7.144 -0.1728  0.0139 -0.0005
 1859SOL    HW117039   0.983   4.010   7.185 -0.4332  0.9074 -0.4231
 1859SOL    HW217040   1.050   4.044   7.054 -2.2054  0.9660  0.7270
 1860SOL     OW17041   3.964   0.801   7.239 -0.2440 -0.1117 -0.3914
 1860SOL    HW117042   4.030   0.731   7.241  0.2398  0.3807  0.8182
 1860SOL    HW217043   4.022   0.873   7.214 -0.1855 -0.0465 -0.0613
 1861SOL     OW17044   0.894   4.675   7.229  0.1934 -0.3252 -0.3905
 1861SOL    HW117045   0.817   4.705   7.181  0.4648  2.4948  0.9887
 1861SOL    HW217046   0.914   4.592   7.185  0.3042 -1.6399  2.1867
 1862SOL     OW17047   3.010   1.603   2.492  0.4370  0.4634 -0.5083
 1862SOL    HW117048   3.081   1.622   2.554 -0.7801 -0.2109  1.0864
 1862SOL    HW217049   3.055   1.565   2.417  1.1894  1.7322 -0.6938
 1863SOL     OW17050   0.049   3.318   6.778  0.1431 -0.1174  0.0397
 1863SOL    HW117051   0.115   3.250   6.791 -1.6702 -1.5530  1.8347
 1863SOL    HW217052   0.098   3.395   6.751 -0.3584  0.3873  0.5709
 1864SOL     OW17053   3.494   1.707  13.780 -0.0014 -0.3977  1.0038
 1864SOL    HW117054   3.451   1.625  13.804 -2.8520  0.7555 -0.2566
 1864SOL    HW217055   3.418   1.757  13.750  1.0545 -0.3048 -1.4441
 1865SOL     OW17056   1.155   2.617   6.607 -0.2956  0.3648  0.1183
 1865SOL    HW117057   1.065   2.624   6.575  0.3762  0.7336 -1.6924
 1865SOL    HW217058   1.149   2.534   6.654  0.7357  0.1551 -0.1167
 1866SOL     OW17059   0.742   1.453   8.918 -0.0792  0.3259 -0.1821
 1866SOL    HW117060   0.799   1.527   8.897  1.6230 -1.2634 -1.1547
 1866SOL    HW217061   0.677   1.490   8.978  0.5924 -2.1273  2.0479
 1867SOL     OW17062   2.447   4.015  14.907 -0.1598  0.4806  0.2917
 1867SOL    HW117063   2.541   4.033  14.911 -0.1248  0.1591  1.0162
 1867SOL    HW217064   2.420   4.107  14.905 -1.2383  0.1270 -1.4010
 1868SOL     OW17065   1.634   4.298   3.271 -0.3429 -0.0485 -0.2346
 1868SOL    HW117066   1.625   4.263   3.183  2.7723 -1.7603  0.1279
 1868SOL    HW217067   1.671   4.384   3.249  1.1380 -0.8002 -0.7315
 1869SOL     OW17068   2.902   0.392  14.971 -0.2804  0.0471  0.0174
 1869SOL    HW117069   2.846   0.315  14.967 -1.0465  0.6255 -0.3880
 1869SOL    HW217070   2.905   0.413  14.877 -0.3003 -1.5514 -0.3403
 1870SOL     OW17071   1.802   3.879   9.481  0.0761 -0.0837  0.1079
 1870SOL    HW117072   1.732   3.841   9.534  1.6102 -1.6816  0.9764
 1870SOL    HW217073   1.771   3.969   9.487  0.9113  0.3409 -2.1634
 1871SOL     OW17074   0.233   0.708   6.557  0.4582 -0.1272  0.2425
 1871SOL    HW117075   0.230   0.641   6.489 -1.2956  1.6476 -1.4116
 1871SOL    HW217076   0.152   0.754   6.537  0.7664  0.5946  0.6662
 1872SOL     OW17077   1.466   0.811   2.274  0.2623  0.2111 -0.5674
 1872SOL    HW117078   1.415   0.858   2.340 -1.3754  1.8157 -2.9715
 1872SOL    HW217079   1.548   0.808   2.324  0.2407  2.8959 -0.3549
 1873SOL     OW17080   4.481   1.434   8.326 -0.1891  0.2775  0.6711
 1873SOL    HW117081   4.539   1.509   8.326  1.3551 -0.8957 -0.7263
 1873SOL    HW217082   4.403   1.489   8.333  0.1512  0.4519  2.9955
 1874SOL     OW17083   2.646   3.494   5.765 -0.3639  0.0036  0.0148
 1874SOL    HW117084   2.728   3.466   5.806  0.9780  2.2929 -1.0784
 1874SOL    HW217085   2.644   3.440   5.686 -1.0968  0.6897 -0.4421
 1875SOL     OW17086   1.785   1.246   0.101  0.0542  0.1196  0.0766
 1875SOL    HW117087   1.867   1.296   0.100  1.4921 -2.2183  0.1899
 1875SOL    HW217088   1.773   1.247   0.196  0.7676  3.2593  0.1536
 1876SOL     OW17089   1.501   0.728  12.917  1.0150 -0.2994 -0.2428
 1876SOL    HW117090   1.427   0.724  12.857 -1.9620 -0.0657  3.3959
 1876SOL    HW217091   1.471   0.777  12.993 -0.4774 -0.5775 -0.6657
 1877SOL     OW17092   2.282   3.659   7.992 -0.0941 -0.1667  0.2908
 1877SOL    HW117093   2.232   3.689   7.916  0.4911  2.7986  1.0763
 1877SOL    HW217094   2.309   3.742   8.032  2.2174 -0.7742 -0.0497
 1878SOL     OW17095   3.738   3.258   2.445  0.3157 -0.2954  0.5134
 1878SOL    HW117096   3.756   3.350   2.426  0.7228 -0.3511  0.6468
 1878SOL    HW217097   3.782   3.245   2.529  2.3169 -0.2461 -0.5394
 1879SOL     OW17098   3.945   3.715   5.305  0.0116  0.0699  0.2942
 1879SOL    HW117099   3.975   3.751   5.389  2.1955  0.9465 -0.8684
 1879SOL    HW217100   3.933   3.625   5.333 -3.0701  0.2178 -0.5601
 1880SOL     OW17101   1.590   2.082   2.248  0.1214 -0.1071  0.0493
 1880SOL    HW117102   1.535   2.156   2.274  1.9946  0.9624  0.9613
 1880SOL    HW217103   1.537   2.006   2.273 -1.0191  0.5174 -0.4162
 1881SOL     OW17104   0.785   0.516  10.561 -1.0731  0.2451 -0.0204
 1881SOL    HW117105   0.876   0.536  10.585 -1.0899  0.7603 -0.3713
 1881SOL    HW217106   0.813   0.441  10.508 -1.3749  0.7606 -0.9179
 1882SOL     OW17107   2.397   2.813  10.429 -0.2601 -0.1519  0.4448
 1882SOL    HW117108   2.390   2.739  10.370  2.7717 -0.5075  0.5352
 1882SOL    HW217109   2.414   2.773  10.515  0.2349 -2.2601 -0.6518
 1883SOL     OW17110   0.505   3.352   7.432 -0.3138  0.1511  0.2967
 1883SOL    HW117111   0.428   3.315   7.388 -0.4932 -0.2149  0.9141
 1883SOL    HW217112   0.564   3.364   7.359  1.6056 -0.4354  1.7466
 1884SOL     OW17113   3.845   2.512   0.431  0.4203  0.0441 -0.0380
 1884SOL    HW117114   3.868   2.472   0.347 -3.1439 -0.3347 -0.8409
 1884SOL    HW217115   3.753   2.529   0.412  0.0390 -1.8906  0.0601
 1885SOL     OW17116   0.253   2.611  13.315 -0.0917 -0.0317 -0.1457
 1885SOL    HW117117   0.241   2.705  13.301  1.2637  0.5240  2.3348
 1885SOL    HW217118   0.332   2.590  13.265  0.3310  0.9359  0.1190
 1886SOL     OW17119   4.275   0.185   5.094 -0.3647 -0.3457  0.1639
 1886SOL    HW117120   4.337   0.186   5.168  1.0217  0.9455 -1.0066
 1886SOL    HW217121   4.190   0.180   5.136 -0.7382  0.1115 -0.5415
 1887SOL     OW17122   0.475   0.007   6.502 -0.2686  0.3887 -0.1699
 1887SOL    HW117123   0.448   0.072   6.567 -0.8284  1.9224 -1.9535
 1887SOL    HW217124   0.456   4.655   6.552 -1.0332 -1.2441 -3.0949
 1888SOL     OW17125   1.172   1.758  14.892 -0.5405 -0.3392  0.0861
 1888SOL    HW117126   1.177   1.833  14.951 -0.3801 -0.2089 -0.0906
 1888SOL    HW217127   1.209   1.691  14.949  0.9692 -1.2967 -2.0302
 1889SOL     OW17128   2.960   4.146   9.043  0.4045  0.2986 -0.2712
 1889SOL    HW117129   2.947   4.114   9.133  0.6193 -0.6196 -0.5668
 1889SOL    HW217130   2.902   4.087   8.995  0.2854  1.1566 -1.1899
 1890SOL     OW17131   4.044   2.399   1.251  0.1536  0.1366 -0.3994
 1890SOL    HW117132   4.004   2.419   1.335  1.4085 -1.1979  0.5075
 1890SOL    HW217133   3.968   2.383   1.195 -0.7832  2.3988  0.2366
 1891SOL     OW17134   0.238   3.450   8.528 -0.0971  0.2623 -0.2152
 1891SOL    HW117135   0.235   3.499   8.610  3.1779 -0.0980  0.1422
 1891SOL    HW217136   0.219   3.365   8.569 -0.5358  0.1202 -0.7209
 1892SOL     OW17137   2.828   2.220   4.084  0.1820  0.5106 -0.1012
 1892SOL    HW117138   2.737   2.193   4.097  0.1393  0.9041  0.4113
 1892SOL    HW217139   2.823   2.297   4.027  1.1557  0.5434 -0.1349
 1893SOL     OW17140   2.250   1.314   4.187 -0.1564 -0.1813  0.1125
 1893SOL    HW117141   2.173   1.283   4.140 -1.6379 -0.2786  2.6010
 1893SOL    HW217142   2.268   1.232   4.233  1.1791  0.4975  0.8003
 1894SOL     OW17143   0.911   0.458   6.066  0.1907 -0.0007  0.3095
 1894SOL    HW117144   0.930   0.392   6.000 -0.2591 -0.9193  1.0995
 1894SOL    HW217145   0.992   0.508   6.069  0.1581  0.1183 -0.8538
 1895SOL     OW17146   4.269   0.938   5.834 -0.5627  0.2889 -0.4163
 1895SOL    HW117147   4.342   0.983   5.792  0.4868  2.0293  3.2506
 1895SOL    HW217148   4.220   0.898   5.763  2.3053 -0.4014 -2.0110
 1896SOL     OW17149   4.674   4.126   0.542  0.0457  0.5214 -0.5335
 1896SOL    HW117150   4.630   4.049   0.505  0.8075 -0.3945  0.4624
 1896SOL    HW217151   4.615   4.188   0.583 -0.9039  1.0636 -2.7303
 1897SOL     OW17152   3.993   1.975   5.454  0.2948  0.2553  0.1596
 1897SOL    HW117153   4.078   1.945   5.487 -0.3134 -1.6226  0.0331
 1897SOL    HW217154   3.952   2.023   5.526 -0.6053  1.6426 -1.3107
 1898SOL     OW17155   2.603   0.363   2.965  0.0978 -0.1960 -0.4015
 1898SOL    HW117156   2.612   0.450   2.926 -0.3769  0.1104  0.1683
 1898SOL    HW217157   2.687   0.328   2.937 -0.4835 -1.1873 -0.8999
 1899SOL     OW17158   1.165   2.454   5.058 -0.2651  0.1349  0.3665
 1899SOL    HW117159   1.080   2.437   5.097  1.2837 -2.8769  2.4282
 1899SOL    HW217160   1.144   2.483   4.969 -0.7413  1.1468  0.8121
 1900SOL     OW17161   0.093   0.360   2.059  0.7387  0.0163  0.3451
 1900SOL    HW117162   4.727   0.359   2.078  0.1640  1.6058 -2.5021
 1900SOL    HW217163   0.137   0.373   2.143  0.2703 -1.4628  0.8207
 1901SOL     OW17164   3.675   0.979   7.158 -0.4300  0.0662 -0.0878
 1901SOL    HW117165   3.760   1.019   7.179 -0.6028  0.4058 -0.0267
 1901SOL    HW217166   3.685   0.895   7.203 -0.9732  0.2744  0.4321
 1902SOL     OW17167   1.332   1.688   5.503 -0.0267 -0.1414 -0.1310
 1902SOL    HW117168   1.297   1.654   5.420 -0.7139 -1.1317  0.5764
 1902SOL    HW217169   1.405   1.739   5.466 -0.0677  1.7247  2.3739
 1903SOL     OW17170   3.265   4.639   6.284 -0.4587 -0.1148 -0.2385
 1903SOL    HW117171   3.340   4.668   6.232  0.2488 -1.4825  0.0207
 1903SOL    HW217172   3.238   4.715   6.336 -0.2051 -0.4346  0.3650
 1904SOL     OW17173   0.398   0.412   7.667  0.0061  0.2590 -0.2608
 1904SOL    HW117174   0.355   0.337   7.709  1.1226  0.5050  1.3018
 1904SOL    HW217175   0.395   0.471   7.742 -0.2770 -1.3308  0.9698
 1905SOL     OW17176   2.375   2.664   2.778 -0.1585 -0.5023  0.0053
 1905SOL    HW117177   2.286   2.679   2.745  0.0222 -0.4499 -0.4577
 1905SOL    HW217178   2.426   2.726   2.727 -0.7899 -0.6461 -0.8047
 1906SOL     OW17179   3.989   3.195   3.331  0.0001 -0.2103 -0.1721
 1906SOL    HW117180   3.944   3.142   3.265 -2.5883 -1.5941  2.7565
 1906SOL    HW217181   3.928   3.206   3.404 -2.1686  2.1213 -2.3090
 1907SOL     OW17182   3.976   2.824  10.811  0.4464  0.5676  0.0783
 1907SOL    HW117183   4.051   2.849  10.865  0.5740  1.9011 -0.7277
 1907SOL    HW217184   3.933   2.909  10.799 -0.9273  0.1737  2.3119
 1908SOL     OW17185   0.155   4.457   5.999  0.0202 -0.1310  0.0690
 1908SOL    HW117186   0.117   4.527   5.946 -0.4490 -0.9173 -0.6385
 1908SOL    HW217187   0.144   4.495   6.086 -1.3770  0.9015 -0.5523
 1909SOL     OW17188   1.824   4.136   7.409 -0.5012 -0.1210  0.6963
 1909SOL    HW117189   1.788   4.204   7.351  1.1345 -2.3336 -2.9188
 1909SOL    HW217190   1.917   4.152   7.393 -1.0965  1.7279 -1.0492
 1910SOL     OW17191   4.366   1.684  12.065  0.4674 -0.4187 -0.0193
 1910SOL    HW117192   4.296   1.636  12.019 -1.8596  3.0104 -0.0474
 1910SOL    HW217193   4.360   1.775  12.038  1.1483 -0.8584 -1.6651
 1911SOL     OW17194   0.457   2.611   4.076 -0.0687  0.0007  0.1138
 1911SOL    HW117195   0.480   2.518   4.084 -2.7028 -0.6992 -0.2941
 1911SOL    HW217196   0.365   2.602   4.050 -0.0323  1.5890 -0.5770
 1912SOL     OW17197   3.685   0.916   5.990  0.1772  0.0141  0.0174
 1912SOL    HW117198   3.668   0.843   5.931 -0.7462  0.7556 -0.6273
 1912SOL    HW217199   3.654   0.988   5.934 -1.0190  0.6023  1.4310
 1913SOL     OW17200   0.570   1.778  11.959  0.5399  0.0134 -0.5471
 1913SOL    HW117201   0.538   1.695  11.922 -2.4584  0.5749  0.8043
 1913SOL    HW217202   0.616   1.756  12.040 -0.6994 -0.8161 -0.0688
 1914SOL     OW17203   0.952   1.340   9.268 -0.5210 -0.1008  0.4030
 1914SOL    HW117204   0.921   1.288   9.194  1.2219  0.1275 -0.5036
 1914SOL    HW217205   0.976   1.426   9.233 -0.5209  0.4029  1.6564
 1915SOL     OW17206   1.963   0.180   0.601  0.1748 -0.0027  0.0343
 1915SOL    HW117207   1.940   0.181   0.694  0.8205  0.3899  0.1931
 1915SOL    HW217208   1.927   0.265   0.577 -0.4485 -0.6029 -1.1326
 1916SOL     OW17209   0.428   4.158   5.803  0.6513 -0.1489  0.3381
 1916SOL    HW117210   0.415   4.209   5.723  1.4107  2.2445  1.7511
 1916SOL    HW217211   0.406   4.072   5.767 -2.4821  0.4416  0.8050
 1917SOL     OW17212   3.552   2.213   6.506 -0.6717 -0.3733 -0.8384
 1917SOL    HW117213   3.521   2.248   6.589  3.1098 -1.0322  0.8283
 1917SOL    HW217214   3.644   2.193   6.523 -0.6419 -0.5701 -1.2154
 1918SOL     OW17215   1.934   2.552   9.550  0.0724  0.0958 -0.5796
 1918SOL    HW117216   1.966   2.462   9.544  0.6605  0.1869  1.1389
 1918SOL    HW217217   1.875   2.561   9.625  1.3836  2.0013  0.2490
 1919SOL     OW17218   3.067   3.876  13.333  0.1168  0.2538 -0.1895
 1919SOL    HW117219   3.100   3.946  13.390  3.1722 -1.9620  0.7605
 1919SOL    HW217220   2.990   3.841  13.376  0.9765 -1.0633  0.2682
 1920SOL     OW17221   0.079   3.599   7.470 -0.7008  0.0010 -0.0647
 1920SOL    HW117222   0.054   3.519   7.516  1.4919 -0.1533  0.8555
 1920SOL    HW217223   0.009   3.596   7.405 -2.0473  1.3651  1.3182
 1921SOL     OW17224   0.127   0.783   6.933 -1.1651  0.9228  0.0066
 1921SOL    HW117225   0.040   0.777   6.973 -1.8787 -2.0937 -2.0663
 1921SOL    HW217226   0.177   0.779   7.014  0.2790 -1.3400 -1.0285
 1922SOL     OW17227   0.999   1.871   9.287 -0.3666  0.1369  0.1637
 1922SOL    HW117228   1.045   1.788   9.283 -0.7596 -0.2079  2.6624
 1922SOL    HW217229   1.023   1.893   9.377  0.8862  0.6772 -0.3054
 1923SOL     OW17230   3.136   2.113  16.457  0.3210 -0.1191  0.6750
 1923SOL    HW117231   3.178   2.053  16.518 -0.7335  0.6933  2.1980
 1923SOL    HW217232   3.049   2.124  16.495 -0.1517 -2.4475  0.2577
 1924SOL     OW17233   3.452   1.035  13.218 -0.1554  0.9810 -0.2494
 1924SOL    HW117234   3.506   0.959  13.192 -0.6673 -0.3718  2.6310
 1924SOL    HW217235   3.452   1.039  13.313 -2.4897  0.3396 -0.2239
 1925SOL     OW17236   3.533   1.862   5.149 -0.4424 -0.1116  0.0597
 1925SOL    HW117237   3.580   1.922   5.207 -0.8182 -0.1217  0.3712
 1925SOL    HW217238   3.546   1.777   5.193 -3.4929 -1.1147 -0.9966
 1926SOL     OW17239   2.530   1.748  13.355 -0.1765  0.7657 -0.1984
 1926SOL    HW117240   2.483   1.755  13.439 -0.4742  0.1138 -0.3149
 1926SOL    HW217241   2.621   1.758  13.383 -0.5546  2.0802  0.5796
 1927SOL     OW17242   1.666   0.263   0.251 -0.0090 -0.1189  0.2464
 1927SOL    HW117243   1.701   0.285   0.337  1.5077 -2.7017  0.2653
 1927SOL    HW217244   1.610   0.337   0.226  1.0466  1.4224  2.4624
 1928SOL     OW17245   1.981   1.461   5.142  0.0613  0.3709 -0.2917
 1928SOL    HW117246   2.014   1.548   5.166  0.1462 -0.0614  1.1620
 1928SOL    HW217247   1.966   1.423   5.229 -0.7564  2.2228  0.3644
 1929SOL     OW17248   2.796   2.615   1.535  0.1609 -0.0741  0.1677
 1929SOL    HW117249   2.715   2.580   1.496  0.1600  1.5611 -1.2814
 1929SOL    HW217250   2.854   2.564   1.479  0.7356  0.0747  0.6380
 1930SOL     OW17251   2.362   0.019   7.931  0.3524  0.4473 -0.1560
 1930SOL    HW117252   2.389   0.055   8.015 -2.1355 -0.1082  0.8649
 1930SOL    HW217253   2.288   4.692   7.957  0.5731 -0.0846 -0.6715
 1931SOL     OW17254   2.871   2.970   4.584 -0.7599  0.1958  0.4979
 1931SOL    HW117255   2.840   3.031   4.517 -0.2949  2.5937  2.4299
 1931SOL    HW217256   2.809   2.979   4.657  1.1943  1.0151  2.0786
 1932SOL     OW17257   2.539   3.859   8.953 -0.3868  0.4795  0.1902
 1932SOL    HW117258   2.459   3.860   8.901 -1.8234  0.4965  2.4036
 1932SOL    HW217259   2.565   3.767   8.951  1.9465  1.1249  0.3952
 1933SOL     OW17260   2.925   2.748   8.789  0.5429 -0.0912 -0.4464
 1933SOL    HW117261   2.926   2.691   8.866 -2.2129  2.9039  1.8453
 1933SOL    HW217262   2.839   2.788   8.806 -0.9621 -2.0313 -3.6150
 1934SOL     OW17263   3.345   1.877  10.045  0.2977  0.2893  0.3707
 1934SOL    HW117264   3.397   1.878  10.125  0.9587 -0.8905 -0.0393
 1934SOL    HW217265   3.412   1.905   9.983  1.0650 -4.3865 -0.9104
 1935SOL     OW17266   1.427   1.933  17.536 -0.6945  0.1690  0.0575
 1935SOL    HW117267   1.521   1.931  17.515 -0.7991  0.5273 -0.4481
 1935SOL    HW217268   1.408   1.985  17.458  4.0876 -1.2754 -2.1099
 1936SOL     OW17269   4.306   1.482   8.909  0.6390  0.1365 -1.1735
 1936SOL    HW117270   4.342   1.419   8.971  1.4383  2.0172  0.2797
 1936SOL    HW217271   4.338   1.563   8.950 -0.0488  0.0191 -0.4005
 1937SOL     OW17272   0.016   2.748   6.593  0.0778  0.8240  0.4341
 1937SOL    HW117273   0.075   2.687   6.638 -1.4204 -1.0656 -0.1465
 1937SOL    HW217274   0.014   2.713   6.504  0.1387 -1.8354  1.4555
 1938SOL     OW17275   3.324   3.269  16.893 -0.3469 -0.4080  0.1714
 1938SOL    HW117276   3.401   3.240  16.942 -0.8442 -1.4366  0.3484
 1938SOL    HW217277   3.261   3.295  16.960  0.3141  0.7966  0.3214
 1939SOL     OW17278   3.215   4.022   3.254  0.3149 -0.1985  0.0560
 1939SOL    HW117279   3.194   3.953   3.190  1.8762 -0.6456  0.0391
 1939SOL    HW217280   3.304   4.030   3.220  0.0526  0.0989 -0.5570
 1940SOL     OW17281   1.015   2.059  10.740  0.3876  0.6091 -0.2834
 1940SOL    HW117282   1.099   2.016  10.753  0.6754  0.1584 -3.7382
 1940SOL    HW217283   1.034   2.153  10.747 -3.5938  1.5048 -1.6543
 1941SOL     OW17284   0.919   3.598   2.373 -0.0702  0.3796 -0.3233
 1941SOL    HW117285   0.907   3.624   2.465 -1.0593 -1.6186  0.0986
 1941SOL    HW217286   0.923   3.503   2.378 -0.1244  0.3622 -0.6209
 1942SOL     OW17287   4.113   1.259   9.153  0.3797 -0.5235 -1.0051
 1942SOL    HW117288   4.151   1.346   9.150  1.5094 -0.8541  3.5210
 1942SOL    HW217289   4.028   1.279   9.114 -0.0902  0.9070  0.7660
 1943SOL     OW17290   1.790   1.177  11.759 -0.5469 -0.0980  0.0986
 1943SOL    HW117291   1.810   1.129  11.679  0.9173 -0.9685  0.9855
 1943SOL    HW217292   1.708   1.219  11.734 -0.2803 -0.4574 -1.3830
 1944SOL     OW17293   0.849   3.968   8.595 -0.6688 -0.1345  0.4963
 1944SOL    HW117294   0.790   3.906   8.637 -1.2292  0.3318  0.4002
 1944SOL    HW217295   0.819   4.054   8.624 -1.4221  0.1596 -1.1695
 1945SOL     OW17296   4.559   3.130   6.953  0.5039  0.1685  0.0722
 1945SOL    HW117297   4.511   3.062   6.999  0.6271 -0.4646 -0.7386
 1945SOL    HW217298   4.585   3.186   7.026  0.3030  0.2596  0.0748
 1946SOL     OW17299   3.054   0.679   6.614 -0.4588  0.1716  0.0129
 1946SOL    HW117300   3.034   0.671   6.521  0.1218 -2.5312  0.1163
 1946SOL    HW217301   2.997   0.613   6.652 -1.8464  0.4676 -1.5573
 1947SOL     OW17302   3.116   2.710  13.783  1.1032  0.4067 -1.3842
 1947SOL    HW117303   3.166   2.791  13.781 -0.4304  1.3907  0.4833
 1947SOL    HW217304   3.054   2.720  13.711 -0.9697 -2.2395  0.0444
 1948SOL     OW17305   3.741   4.695   3.446 -0.2320  0.3193 -0.1103
 1948SOL    HW117306   3.795   4.624   3.411  1.2948  1.6768 -0.5093
 1948SOL    HW217307   3.709   4.644   3.521 -0.3429  0.9111  0.2374
 1949SOL     OW17308   0.457   2.822  11.032  0.4745  0.5538 -0.0578
 1949SOL    HW117309   0.479   2.758  11.100  1.1453  1.1469  0.2865
 1949SOL    HW217310   0.396   2.878  11.081  0.3686 -0.3230  0.8197
 1950SOL     OW17311   0.261   3.646   3.582 -0.1188  0.2088  0.3784
 1950SOL    HW117312   0.208   3.716   3.620 -1.6534 -1.2925  1.0129
 1950SOL    HW217313   0.351   3.669   3.607 -0.0146 -1.5306  1.5985
 1951SOL     OW17314   3.583   3.671  10.201  0.0251  0.4334  0.2054
 1951SOL    HW117315   3.670   3.662  10.160  0.1236  0.4586  0.4103
 1951SOL    HW217316   3.532   3.693  10.123 -0.3053 -0.7213  0.0995
 1952SOL     OW17317   4.393   3.301   3.160  0.1120  0.0441 -0.1573
 1952SOL    HW117318   4.452   3.303   3.085  1.5690 -0.2725  0.9822
 1952SOL    HW217319   4.435   3.225   3.202  1.1698  1.1241  0.7407
 1953SOL     OW17320   1.307   4.646  17.200 -0.3070  0.3484  0.3736
 1953SOL    HW117321   1.342   4.590  17.270  1.4224 -0.1497 -0.9012
 1953SOL    HW217322   1.238   4.584  17.176  0.2678  0.1078 -0.6528
 1954SOL     OW17323   0.549   3.932   2.342  0.1788 -0.1324  0.5032
 1954SOL    HW117324   0.628   3.922   2.290  0.4249 -3.4100  1.5080
 1954SOL    HW217325   0.515   4.008   2.294 -1.9907  1.2430  4.2096
 1955SOL     OW17326   1.659   4.344   7.300 -0.6069  0.0783 -0.1105
 1955SOL    HW117327   1.564   4.341   7.312 -0.1953 -2.0832  2.7906
 1955SOL    HW217328   1.673   4.408   7.230  1.5175  1.2357  1.3262
 1956SOL     OW17329   0.307   2.219  16.618  0.6040 -0.1657 -0.0709
 1956SOL    HW117330   0.281   2.308  16.594  0.8274 -0.2651 -0.6694
 1956SOL    HW217331   0.258   2.162  16.559 -0.4610  0.6824 -0.0162
 1957SOL     OW17332   3.497   4.470   8.572 -0.2791  0.0281  0.6521
 1957SOL    HW117333   3.574   4.438   8.524  1.4196  0.4146  3.1215
 1957SOL    HW217334   3.518   4.441   8.661  3.1767 -3.2843 -1.2141
 1958SOL     OW17335   2.342   2.079  16.904 -0.3139 -0.8053  0.5287
 1958SOL    HW117336   2.414   2.066  16.842 -0.1623 -1.4471  0.8510
 1958SOL    HW217337   2.381   2.114  16.984 -0.5158 -0.0809  0.3079
 1959SOL     OW17338   3.536   1.291   6.914 -0.1491 -0.2984  0.0066
 1959SOL    HW117339   3.589   1.348   6.970 -1.8447  0.8292  0.4795
 1959SOL    HW217340   3.551   1.335   6.830 -0.4466  0.5984  0.4214
 1960SOL     OW17341   4.442   0.679   8.276 -0.0042 -0.5280 -0.1012
 1960SOL    HW117342   4.453   0.769   8.306 -3.4649 -0.3680  0.7766
 1960SOL    HW217343   4.359   0.694   8.231 -0.1102  1.0925  0.6271
 1961SOL     OW17344   2.928   3.557   6.653  0.7303 -0.2878 -0.9833
 1961SOL    HW117345   2.926   3.462   6.660 -0.3560 -0.1818  0.1324
 1961SOL    HW217346   2.974   3.560   6.569  1.9351 -0.1228 -0.3266
 1962SOL     OW17347   2.495   2.000   5.695  0.1410 -0.0163  0.1550
 1962SOL    HW117348   2.465   2.028   5.782  0.1652 -0.4032  0.2890
 1962SOL    HW217349   2.586   1.997   5.725 -0.6088  3.2449  2.7906
 1963SOL     OW17350   2.727   2.051   5.381 -1.0392 -0.1954 -0.1264
 1963SOL    HW117351   2.743   2.004   5.299  1.4748 -0.7373  0.6876
 1963SOL    HW217352   2.813   2.030   5.417 -0.8252  1.2097  0.1780
 1964SOL     OW17353   1.802   0.394   9.179 -0.3982  0.2675 -0.1127
 1964SOL    HW117354   1.740   0.395   9.252  1.7651 -1.2449  1.7576
 1964SOL    HW217355   1.856   0.472   9.185 -1.3768  0.8433  1.0822
 1965SOL     OW17356   1.523   3.504   9.692 -0.7794  0.6813 -0.1629
 1965SOL    HW117357   1.567   3.582   9.727  1.4372  0.4964 -2.5096
 1965SOL    HW217358   1.436   3.541   9.676 -2.3958 -2.3078  1.7489
 1966SOL     OW17359   3.841   1.140   2.428 -0.0099 -0.1887  0.2882
 1966SOL    HW117360   3.822   1.048   2.411  0.6976 -0.1633 -0.5986
 1966SOL    HW217361   3.894   1.169   2.354 -0.8220 -0.1292 -0.2696
 1967SOL     OW17362   4.609   1.519   2.606 -0.2250  0.0908  0.2587
 1967SOL    HW117363   4.524   1.482   2.631  0.8927 -2.4419  0.3033
 1967SOL    HW217364   4.601   1.604   2.649  0.3735  0.4830 -0.4092
 1968SOL     OW17365   3.455   1.365   0.728 -0.6822  0.3392  0.1270
 1968SOL    HW117366   3.446   1.420   0.651 -1.7355  0.0464  0.0461
 1968SOL    HW217367   3.382   1.304   0.720 -0.2081  0.0033 -1.6268
 1969SOL     OW17368   0.784   0.763  14.042 -0.0250  0.0414 -0.2520
 1969SOL    HW117369   0.847   0.812  14.095 -0.5804  1.1718 -0.6348
 1969SOL    HW217370   0.837   0.692  14.006  0.2791  0.1424  0.0016
 1970SOL     OW17371   4.280   1.161  13.843 -0.3524 -0.4148  0.1318
 1970SOL    HW117372   4.334   1.135  13.918  0.1243  1.6503  0.5308
 1970SOL    HW217373   4.202   1.201  13.882  0.3770  1.3147 -0.1790
 1971SOL     OW17374   2.584   3.928  13.465 -0.9587  0.3579  0.3122
 1971SOL    HW117375   2.585   4.009  13.516 -3.0806 -1.1216  2.7528
 1971SOL    HW217376   2.527   3.867  13.512 -0.3324 -0.7692 -0.3946
 1972SOL     OW17377   3.143   1.290   6.719 -0.5152 -0.1736 -0.0335
 1972SOL    HW117378   3.076   1.247   6.665 -0.6301 -1.8746  1.4470
 1972SOL    HW217379   3.108   1.249   6.798 -1.4585  0.5067 -0.0948
 1973SOL     OW17380   0.381   2.225   5.246 -0.2056 -0.0790 -0.1361
 1973SOL    HW117381   0.447   2.272   5.195 -0.2718  1.2632  1.0144
 1973SOL    HW217382   0.345   2.177   5.171  0.1777 -0.1508 -0.2706
 1974SOL     OW17383   0.288   1.389   1.844 -0.2039 -0.6815  0.6830
 1974SOL    HW117384   0.321   1.351   1.763 -2.5044  0.2617 -0.7088
 1974SOL    HW217385   0.213   1.333   1.863 -0.8492 -0.1067 -0.1645
 1975SOL     OW17386   1.976   4.262   2.895  0.5540  0.1826  0.3658
 1975SOL    HW117387   1.982   4.305   2.981  1.7413  0.8779 -0.0537
 1975SOL    HW217388   2.062   4.220   2.896  1.0264  1.0926 -1.9064
 1976SOL     OW17389   4.413   3.407  14.670  0.1898 -0.1620  0.3871
 1976SOL    HW117390   4.436   3.495  14.638 -2.5496  0.7556  0.9121
 1976SOL    HW217391   4.450   3.414  14.758 -0.1672 -0.7531  0.5866
 1977SOL     OW17392   3.510   1.727   8.037 -0.1703 -0.1866 -0.2895
 1977SOL    HW117393   3.475   1.669   8.105 -0.4898  0.7300  0.3449
 1977SOL    HW217394   3.603   1.705   8.040 -0.0510  0.0063 -2.6427
 1978SOL     OW17395   3.146   0.441   8.712  0.1610 -0.3855  0.1040
 1978SOL    HW117396   3.095   0.453   8.632 -0.5219 -0.4409  0.5300
 1978SOL    HW217397   3.086   0.382   8.758  2.7043 -1.6878  1.7265
 1979SOL     OW17398   1.116   4.520  10.365  0.3513  0.1782 -0.1128
 1979SOL    HW117399   1.154   4.582  10.427  0.9938  0.8201 -1.1487
 1979SOL    HW217400   1.195   4.516  10.311  0.0151  0.5169 -0.6202
 1980SOL     OW17401   3.606   0.482  15.415  0.2948  0.1065  0.1703
 1980SOL    HW117402   3.627   0.545  15.346 -1.0492 -1.4505 -1.6563
 1980SOL    HW217403   3.529   0.448  15.371 -0.2083  1.0987  0.2953
 1981SOL     OW17404   4.028   1.159   4.504 -0.0846  0.4356 -0.2990
 1981SOL    HW117405   4.123   1.159   4.494 -0.0372 -2.6985  0.1895
 1981SOL    HW217406   4.023   1.181   4.597  0.9700 -0.7932  0.0402
 1982SOL     OW17407   2.632   4.430  14.115  0.3006 -0.1330  0.0350
 1982SOL    HW117408   2.659   4.502  14.171 -0.6935  1.0818 -1.0603
 1982SOL    HW217409   2.600   4.370  14.182 -1.9024  1.0260  0.0172
 1983SOL     OW17410   3.474   2.653   1.430  0.0211  0.1209  0.3079
 1983SOL    HW117411   3.512   2.722   1.485  0.2189  1.2343 -1.2381
 1983SOL    HW217412   3.408   2.621   1.491  0.1211 -1.8900 -0.6297
 1984SOL     OW17413   1.391   1.943  16.284 -0.3314 -0.2000  0.3697
 1984SOL    HW117414   1.433   1.960  16.201 -0.2118  2.1089  0.9118
 1984SOL    HW217415   1.319   2.006  16.283  1.0843  1.3544 -1.9221
 1985SOL     OW17416   2.070   4.428   5.093 -0.1072 -0.4200  0.4510
 1985SOL    HW117417   2.102   4.338   5.096  0.0639 -0.4211 -1.3060
 1985SOL    HW217418   2.149   4.456   5.046 -0.6344  0.5032  0.1202
 1986SOL     OW17419   2.688   1.481   9.185 -0.0796  0.1949 -0.0738
 1986SOL    HW117420   2.681   1.531   9.103 -1.9843  3.3177  1.9920
 1986SOL    HW217421   2.614   1.421   9.172  0.4347 -0.2201 -1.1000
 1987SOL     OW17422   3.861   1.650  14.581  0.0067  0.7288 -0.5424
 1987SOL    HW117423   3.905   1.569  14.557 -1.6619 -0.6149  0.9144
 1987SOL    HW217424   3.807   1.608  14.649 -0.5100  3.6571  0.8640
 1988SOL     OW17425   1.696   1.249   7.052  0.4196  0.0383 -0.3284
 1988SOL    HW117426   1.631   1.191   7.014 -0.0146 -1.0798  2.1520
 1988SOL    HW217427   1.728   1.289   6.971  0.5065  2.0134  0.6602
 1989SOL     OW17428   4.129   0.658   1.854 -0.6497 -0.2846 -1.0042
 1989SOL    HW117429   4.153   0.750   1.844 -0.9033  0.2553  3.4589
 1989SOL    HW217430   4.105   0.633   1.765  0.6301  0.2662 -1.5083
 1990SOL     OW17431   4.591   1.345   9.542 -0.0839 -0.0268 -0.3046
 1990SOL    HW117432   4.616   1.432   9.576 -1.6127  0.7844 -1.2435
 1990SOL    HW217433   4.496   1.350   9.549 -0.0778  1.0362 -1.0553
 1991SOL     OW17434   3.011   2.025   7.302 -0.1899 -0.4552  0.3700
 1991SOL    HW117435   3.018   2.075   7.220 -1.1502 -1.5430 -0.3635
 1991SOL    HW217436   3.011   1.937   7.265 -2.4992 -0.8903  1.4254
 1992SOL     OW17437   3.470   4.135   0.212 -0.3119  0.1365 -0.0154
 1992SOL    HW117438   3.507   4.140   0.125 -0.9693 -0.0309 -0.3064
 1992SOL    HW217439   3.425   4.051   0.204 -1.2532  0.6638 -0.2646
 1993SOL     OW17440   1.487   2.687   4.536 -0.1811  0.4018  0.0178
 1993SOL    HW117441   1.478   2.593   4.549  2.0950  0.1631 -0.1634
 1993SOL    HW217442   1.578   2.696   4.509 -0.1673  0.8107  0.2027
 1994SOL     OW17443   2.554   1.606   6.830  0.0804 -0.0476  0.1211
 1994SOL    HW117444   2.460   1.596   6.847  0.0531  1.9160  1.0448
 1994SOL    HW217445   2.561   1.665   6.755  0.7696  1.2634  1.2379
 1995SOL     OW17446   2.460   4.506  15.367 -0.7507  0.8525  0.4479
 1995SOL    HW117447   2.537   4.559  15.389  0.1306  0.1173 -0.8287
 1995SOL    HW217448   2.381   4.557  15.384 -1.7033  0.3977 -2.5962
 1996SOL     OW17449   0.084   1.963   7.844 -0.0336  0.2485  0.7522
 1996SOL    HW117450   0.025   1.905   7.893 -1.3770 -1.9628 -3.4562
 1996SOL    HW217451   0.088   2.039   7.902 -0.2944  1.3320 -0.6516
 1997SOL     OW17452   0.590   4.179   4.208  0.6536 -0.0858  0.2515
 1997SOL    HW117453   0.668   4.171   4.263  2.7950 -0.4281 -2.8641
 1997SOL    HW217454   0.584   4.087   4.182 -1.2771  0.4525 -1.2305
 1998SOL     OW17455   1.595   2.840   4.982 -0.4025 -0.0993  0.1766
 1998SOL    HW117456   1.635   2.812   4.900  0.7631 -0.8980  1.0164
 1998SOL    HW217457   1.512   2.878   4.953  1.2554  1.8931 -1.8741
 1999SOL     OW17458   3.851   4.079  11.986  0.3785  0.0904  0.0074
 1999SOL    HW117459   3.922   4.024  12.020  1.3956 -0.0469 -2.3462
 1999SOL    HW217460   3.771   4.068  12.037  1.8100  1.2991  2.5111
 2000SOL     OW17461   2.024   2.809   8.495 -0.5681  0.5752  0.0516
 2000SOL    HW117462   1.969   2.808   8.417 -1.6667  0.1453  0.8278
 2000SOL    HW217463   2.011   2.723   8.535  1.5794 -0.5751 -1.7075
 2001SOL     OW17464   0.200   4.272   6.282  0.0991  0.2206 -0.3659
 2001SOL    HW117465   0.134   4.230   6.226 -0.6083 -0.0305  0.6501
 2001SOL    HW217466   0.278   4.270   6.226  0.2336 -0.6626 -0.1445
 2002SOL     OW17467   3.991   2.931   4.824  0.4270 -0.2062 -0.1680
 2002SOL    HW117468   3.996   2.943   4.730 -0.2464 -1.4990 -0.3753
 2002SOL    HW217469   4.084   2.921   4.846 -0.0302  1.2753  2.5195
 2003SOL     OW17470   4.178   1.930  16.051 -0.1164  0.3557 -0.3551
 2003SOL    HW117471   4.082   1.923  16.052 -0.1834  1.3273 -0.1863
 2003SOL    HW217472   4.197   1.855  16.107  0.2460  0.4312 -0.3772
 2004SOL     OW17473   0.970   1.575   6.033 -0.0635 -0.1904  0.5409
 2004SOL    HW117474   1.000   1.590   6.122  0.4154  1.3888  0.1136
 2004SOL    HW217475   0.902   1.512   6.056  0.6710 -0.9129  0.7512
 2005SOL     OW17476   1.332   1.282   4.115 -0.0473 -0.0450  0.2752
 2005SOL    HW117477   1.316   1.231   4.194 -1.0277 -0.5346 -0.2414
 2005SOL    HW217478   1.358   1.367   4.151  1.5973 -1.0608  1.5177
 2006SOL     OW17479   4.374   0.738  17.580 -0.0474 -0.1745 -0.1920
 2006SOL    HW117480   4.333   0.769  17.661 -0.0872  2.4776 -1.2292
 2006SOL    HW217481   4.450   0.795  17.573  0.0119 -0.3530 -0.9753
 2007SOL     OW17482   1.538   1.820   5.383 -0.1656 -0.0493 -0.3587
 2007SOL    HW117483   1.535   1.907   5.344 -2.0822 -0.4461 -1.0678
 2007SOL    HW217484   1.606   1.774   5.334  1.1062  1.0284  0.3985
 2008SOL     OW17485   1.363   2.855   4.707  0.5458  0.2426  0.0708
 2008SOL    HW117486   1.278   2.824   4.673 -0.2866 -0.3531  2.7170
 2008SOL    HW217487   1.413   2.790   4.657 -0.6217 -0.3822 -0.3005
 2009SOL     OW17488   3.458   0.579   6.774 -0.3748 -0.3945  0.4191
 2009SOL    HW117489   3.386   0.570   6.836 -0.0469  0.9071  0.9935
 2009SOL    HW217490   3.422   0.638   6.708 -0.9900 -0.4291  0.7308
 2010SOL     OW17491   3.336   2.839   9.247  0.2193  0.1295  0.6126
 2010SOL    HW117492   3.391   2.918   9.249  0.8899 -0.3286  0.3101
 2010SOL    HW217493   3.406   2.777   9.265  1.6782  1.2804 -1.0070
 2011SOL     OW17494   4.219   2.319   4.618  0.4576 -0.4813  0.4744
 2011SOL    HW117495   4.258   2.356   4.697  1.3466  1.5979 -0.9568
 2011SOL    HW217496   4.188   2.396   4.572  0.2470  0.8561  2.8425
 2012SOL     OW17497   2.793   1.710  14.939  0.2920  0.3275 -0.4957
 2012SOL    HW117498   2.716   1.656  14.926  0.8512 -0.8845  1.3238
 2012SOL    HW217499   2.797   1.778  14.870 -0.7704  0.6205 -0.2648
 2013SOL     OW17500   2.892   1.614   6.300  0.5234 -0.3641  0.4691
 2013SOL    HW117501   2.902   1.521   6.322 -0.7395 -0.2125  1.7340
 2013SOL    HW217502   2.876   1.619   6.206 -2.7087  1.5259  1.1329
 2014SOL     OW17503   0.433   1.854   1.641  0.0700  0.5309  0.2314
 2014SOL    HW117504   0.339   1.855   1.660 -0.2426 -0.4343 -1.2029
 2014SOL    HW217505   0.467   1.937   1.673 -0.5174  1.1162 -0.6335
 2015SOL     OW17506   3.248   4.507   9.150  0.0006  0.0814  0.1198
 2015SOL    HW117507   3.186   4.473   9.085  1.0384 -1.6579  0.0532
 2015SOL    HW217508   3.200   4.507   9.232 -0.4545 -1.8705 -0.1400
 2016SOL     OW17509   1.541   4.198   1.423 -0.3198  0.2197  0.1994
 2016SOL    HW117510   1.535   4.209   1.328 -1.2532  1.6189  0.4139
 2016SOL    HW217511   1.494   4.118   1.442 -0.2159 -0.4277 -2.2865
 2017SOL     OW17512   4.447   3.567   5.297 -0.5201 -0.4174 -0.5204
 2017SOL    HW117513   4.379   3.592   5.359  0.6806  2.4308 -0.3727
 2017SOL    HW217514   4.484   3.652   5.272  0.7766 -0.6716  0.4987
 2018SOL     OW17515   3.629   3.971   9.956  0.3548  0.0300  0.2638
 2018SOL    HW117516   3.710   3.983  10.005  0.1992  0.7324  0.3406
 2018SOL    HW217517   3.640   4.008   9.868 -0.6591 -0.8311 -0.2337
 2019SOL     OW17518   1.936   1.107  14.845 -0.2619  0.7090 -0.0645
 2019SOL    HW117519   2.030   1.122  14.843 -0.2021  0.2412 -0.5351
 2019SOL    HW217520   1.902   1.177  14.790 -0.5071  0.7267  0.1052
 2020SOL     OW17521   1.144   1.498  11.518  0.6883  0.2795 -0.6034
 2020SOL    HW117522   1.200   1.456  11.583  0.5976  1.6659  0.3590
 2020SOL    HW217523   1.187   1.469  11.437  0.5204 -1.6586  0.0151
 2021SOL     OW17524   1.796   2.132  11.754 -0.1221 -0.4478 -0.1748
 2021SOL    HW117525   1.837   2.218  11.759  0.5716 -0.6750 -2.0341
 2021SOL    HW217526   1.829   2.085  11.831 -1.6021  0.2084  0.8460
 2022SOL     OW17527   2.283   0.294  16.303 -0.2846  0.4949 -0.1699
 2022SOL    HW117528   2.267   0.203  16.280 -0.2764  0.8224 -1.4400
 2022SOL    HW217529   2.355   0.281  16.365 -2.0315  0.7474  1.9001
 2023SOL     OW17530   0.422   0.196   6.299 -1.1193 -0.9028 -0.0261
 2023SOL    HW117531   0.432   0.124   6.360  2.2304 -0.5720 -0.2027
 2023SOL    HW217532   0.361   0.255   6.344  1.7578  1.8933  0.1676
 2024SOL     OW17533   2.119   1.753   1.114  0.3408  0.3861 -0.0223
 2024SOL    HW117534   2.105   1.768   1.020  1.2567  0.4939 -0.1379
 2024SOL    HW217535   2.214   1.745   1.107  0.1940  0.3274 -2.2553
 2025SOL     OW17536   3.782   2.089   6.531 -0.2100  0.6269  0.1234
 2025SOL    HW117537   3.833   2.013   6.502 -3.4326 -1.1735 -0.8140
 2025SOL    HW217538   3.807   2.072   6.622 -0.1713  0.5407  0.0964
 2026SOL     OW17539   2.818   0.482  15.215 -0.1980  0.1822 -0.3155
 2026SOL    HW117540   2.874   0.542  15.265 -0.7010  0.8343 -0.5388
 2026SOL    HW217541   2.843   0.496  15.123 -3.6058 -0.1095 -1.2942
 2027SOL     OW17542   2.458   0.043  16.020  0.0477  0.3905 -0.4563
 2027SOL    HW117543   2.436   0.000  15.936  2.1121 -1.6516  0.0461
 2027SOL    HW217544   2.366   0.053  16.046  0.4387  1.4015  0.5118
 2028SOL     OW17545   3.244   0.814  15.391  0.1241  0.4572  0.0494
 2028SOL    HW117546   3.240   0.832  15.297 -0.6133  1.4399  0.2696
 2028SOL    HW217547   3.307   0.883  15.411  0.5594  0.7466 -2.3053
 2029SOL     OW17548   2.253   2.361   2.893  0.2813  0.1871 -0.1114
 2029SOL    HW117549   2.346   2.384   2.899  0.0261  1.2123 -0.0287
 2029SOL    HW217550   2.237   2.349   2.987  1.1043  0.9563  0.1282
 2030SOL     OW17551   4.619   3.376   4.728 -0.2273 -0.6585 -0.0079
 2030SOL    HW117552   4.704   3.332   4.724  0.2012  0.3719 -2.6854
 2030SOL    HW217553   4.560   3.301   4.736  0.0835 -1.1307 -2.1151
 2031SOL     OW17554   2.785   3.370   4.845 -0.3594  0.7627 -0.1284
 2031SOL    HW117555   2.841   3.389   4.770 -1.5937  1.4611 -0.8714
 2031SOL    HW217556   2.815   3.280   4.861 -0.8100  0.1979 -2.4344
 2032SOL     OW17557   0.443   1.130   4.057  0.1717  0.4584  0.5167
 2032SOL    HW117558   0.467   1.038   4.067 -2.5088 -0.4318 -1.0163
 2032SOL    HW217559   0.436   1.136   3.962 -0.7842  2.0541  0.6715
 2033SOL     OW17560   4.387   2.520  13.668  0.4638 -0.1024  0.1816
 2033SOL    HW117561   4.308   2.477  13.634  0.2157 -0.2986  1.0066
 2033SOL    HW217562   4.351   2.584  13.729  1.1653  0.1894  0.2809
 2034SOL     OW17563   3.118   3.931   6.644  0.1667 -0.0130 -0.5125
 2034SOL    HW117564   3.211   3.909   6.641  0.2051 -0.1588  1.7838
 2034SOL    HW217565   3.097   3.945   6.552 -0.7572 -1.8271 -0.5855
 2035SOL     OW17566   4.370   2.369   6.746 -0.0320 -0.1931  0.4182
 2035SOL    HW117567   4.382   2.282   6.785 -0.0868 -0.4779 -0.1985
 2035SOL    HW217568   4.408   2.440   6.797 -2.6312  2.6191 -1.5736
 2036SOL     OW17569   0.382   3.848   9.363 -0.2349 -0.1439  0.0811
 2036SOL    HW117570   0.386   3.937   9.329 -0.4118 -0.3506 -0.4734
 2036SOL    HW217571   0.476   3.827   9.363 -0.5405 -1.5416  0.0053
 2037SOL     OW17572   0.367   0.728   9.770  0.9943 -0.2140 -0.2227
 2037SOL    HW117573   0.322   0.644   9.780 -1.0543  1.0124  0.7225
 2037SOL    HW217574   0.453   0.701   9.802  0.1371 -0.8735  1.5242
 2038SOL     OW17575   1.012   4.062   6.891  0.7156  0.0542 -0.4380
 2038SOL    HW117576   0.971   4.031   6.810  0.8515 -0.2358 -0.3949
 2038SOL    HW217577   1.051   4.140   6.853 -0.5650  1.6210  1.4676
 2039SOL     OW17578   3.592   0.617   4.507  0.0907  0.2027 -0.5199
 2039SOL    HW117579   3.569   0.694   4.456 -1.8938 -0.0191  0.0501
 2039SOL    HW217580   3.606   0.668   4.586 -0.1345 -3.1855  1.7247
 2040SOL     OW17581   3.003   1.249   4.756 -0.3436 -0.1169 -0.4099
 2040SOL    HW117582   2.914   1.276   4.778  0.2310  0.7422  0.8465
 2040SOL    HW217583   2.986   1.187   4.685 -0.7832  2.2869 -2.4075
 2041SOL     OW17584   2.174   1.635   0.352  0.2500  0.0776  0.5264
 2041SOL    HW117585   2.247   1.674   0.305 -0.3538  1.0043  0.3637
 2041SOL    HW217586   2.222   1.561   0.390 -1.0383 -0.9010  0.2701
 2042SOL     OW17587   1.571   0.850  17.158  0.1943  0.5999 -0.2091
 2042SOL    HW117588   1.520   0.786  17.108  2.1932  0.2393 -1.8040
 2042SOL    HW217589   1.575   0.922  17.095 -0.1118  0.2140 -0.6752
 2043SOL     OW17590   0.995   2.268   3.834  0.1138 -0.6168 -0.2297
 2043SOL    HW117591   0.899   2.261   3.837  0.1469 -1.1808 -0.7372
 2043SOL    HW217592   1.020   2.183   3.869 -1.5011 -0.3940  1.5127
 2044SOL     OW17593   4.349   2.198   5.039 -0.1508  0.3842  0.0308
 2044SOL    HW117594   4.355   2.105   5.017  0.8904  0.7555 -1.2945
 2044SOL    HW217595   4.388   2.208   5.126  0.2358 -2.6224  0.1804
 2045SOL     OW17596   1.594   0.200  11.128  0.4578 -0.0976 -0.0842
 2045SOL    HW117597   1.499   0.198  11.118  0.3480  0.1970  0.8838
 2045SOL    HW217598   1.607   0.282  11.178  5.1221 -0.1309 -1.2813
 2046SOL     OW17599   3.190   0.111   6.461 -0.0494  0.3498 -0.3450
 2046SOL    HW117600   3.254   0.065   6.514 -2.3328 -2.7428 -0.2611
 2046SOL    HW217601   3.222   0.198   6.487 -1.4604  1.1933 -1.3744
 2047SOL     OW17602   3.118   0.554   0.429  0.1424  0.0540 -0.2161
 2047SOL    HW117603   3.111   0.621   0.362 -2.6125 -0.4217 -0.3864
 2047SOL    HW217604   3.062   0.484   0.396  1.3092 -2.4941  3.0956
 2048SOL     OW17605   2.306   3.994   5.522  0.5665 -0.7541  0.2536
 2048SOL    HW117606   2.397   4.009   5.496  1.1185 -0.3723  2.3980
 2048SOL    HW217607   2.257   4.050   5.462  1.0303 -0.2363  0.3545
 2049SOL     OW17608   1.587   1.478  17.311  0.0447 -0.2866  0.2123
 2049SOL    HW117609   1.539   1.400  17.281 -0.9338 -0.5498  2.4460
 2049SOL    HW217610   1.518   1.544  17.306  1.6738  1.3927  0.0481
 2050SOL     OW17611   0.347   0.334   5.190 -0.2650  0.0572 -0.1346
 2050SOL    HW117612   0.359   0.244   5.219 -1.2567  0.0636  0.2869
 2050SOL    HW217613   0.340   0.382   5.273  0.7051 -0.0382  0.0009
 2051SOL     OW17614   3.715   0.843  13.088  0.2486 -0.2258 -0.6443
 2051SOL    HW117615   3.768   0.773  13.049 -1.6166 -2.7933  1.4355
 2051SOL    HW217616   3.731   0.827  13.181 -1.7861 -0.6849 -0.3735
 2052SOL     OW17617   2.733   3.713   3.968  0.1618 -0.4353  0.4354
 2052SOL    HW117618   2.686   3.638   4.004 -0.7827 -0.1731 -0.2425
 2052SOL    HW217619   2.716   3.784   4.030  0.5110 -0.1140  0.1626
 2053SOL     OW17620   1.289   1.244   2.059  0.4205  0.1614 -0.2974
 2053SOL    HW117621   1.370   1.194   2.066 -0.0803 -0.5688  0.1404
 2053SOL    HW217622   1.288   1.303   2.134  0.1053  2.2438 -1.9178
 2054SOL     OW17623   0.577   0.730   3.138  0.1506  0.0134  1.4426
 2054SOL    HW117624   0.562   0.824   3.134 -2.6794 -0.5017 -0.6743
 2054SOL    HW217625   0.490   0.705   3.170 -0.3373 -2.7969 -2.0297
 2055SOL     OW17626   3.535   3.418   3.760 -0.8385  0.1753  0.4403
 2055SOL    HW117627   3.540   3.347   3.696  1.2061  1.3576 -0.7034
 2055SOL    HW217628   3.571   3.486   3.703 -0.1638 -1.1406 -0.7101
 2056SOL     OW17629   1.761   3.966  16.521  0.0337 -0.1761  0.0657
 2056SOL    HW117630   1.782   4.012  16.439  0.2080 -0.5338 -0.0935
 2056SOL    HW217631   1.847   3.952  16.560  0.3600 -2.1444 -1.3716
 2057SOL     OW17632   4.705   2.990   6.719  0.0202 -0.3162 -0.2718
 2057SOL    HW117633   4.697   2.902   6.681 -0.5218 -0.3491 -0.0769
 2057SOL    HW217634   0.000   2.957   6.805  3.0050  0.0314 -0.9607
 2058SOL     OW17635   0.753   3.729   5.768 -0.2458 -0.0300  0.7301
 2058SOL    HW117636   0.689   3.741   5.838 -0.5078 -0.4825  0.5642
 2058SOL    HW217637   0.698   3.736   5.690 -0.6572 -1.9594  0.8435
 2059SOL     OW17638   0.577   1.111  12.436 -0.1098 -0.1155 -0.6656
 2059SOL    HW117639   0.616   1.092  12.350 -1.6158 -0.5689 -1.2473
 2059SOL    HW217640   0.537   1.026  12.456  0.0389  0.4380  1.8896
 2060SOL     OW17641   2.280   1.554   3.463 -0.0972 -0.4713 -0.5606
 2060SOL    HW117642   2.247   1.474   3.423 -3.8863  0.2806  1.0471
 2060SOL    HW217643   2.306   1.516   3.547 -0.6420 -1.4368 -0.8397
 2061SOL     OW17644   1.056   3.514   5.124 -0.5626 -0.5802  0.3464
 2061SOL    HW117645   1.092   3.564   5.197  0.0895 -2.4962  1.3430
 2061SOL    HW217646   1.123   3.530   5.057 -0.9108 -2.1669 -0.3829
 2062SOL     OW17647   1.545   1.453   6.167 -0.5643 -0.5664 -0.4274
 2062SOL    HW117648   1.563   1.525   6.226 -2.9580 -0.6177  0.3568
 2062SOL    HW217649   1.562   1.373   6.217 -0.1624 -0.6234 -0.6569
 2063SOL     OW17650   2.227   3.784   6.234 -0.3528  0.0439  0.1200
 2063SOL    HW117651   2.293   3.745   6.176 -2.1355 -1.3636 -0.9897
 2063SOL    HW217652   2.242   3.736   6.315  1.6579  2.9317  1.4358
 2064SOL     OW17653   3.894   0.358  10.431 -0.3590  0.3615 -0.7056
 2064SOL    HW117654   3.831   0.324  10.495 -0.1649  1.5146  0.0965
 2064SOL    HW217655   3.925   0.278  10.388  0.4734  0.2256  0.1342
 2065SOL     OW17656   0.251   0.295   4.391  0.1787  0.1968 -0.0285
 2065SOL    HW117657   0.213   0.284   4.304 -0.9002  0.1222  0.4555
 2065SOL    HW217658   0.175   0.278   4.446  0.1741  0.3983  0.0277
 2066SOL     OW17659   2.398   4.204   3.254 -0.0716  0.4009 -0.0141
 2066SOL    HW117660   2.377   4.262   3.327  1.4529  0.7736  0.1397
 2066SOL    HW217661   2.493   4.201   3.264 -0.0694  1.5099  0.2506
 2067SOL     OW17662   0.888   3.097  13.626 -0.2078  0.0492  0.0932
 2067SOL    HW117663   0.902   3.007  13.597  0.1573 -0.0257  0.4968
 2067SOL    HW217664   0.878   3.145  13.543 -0.0315  1.0970  0.6774
 2068SOL     OW17665   0.189   2.411   6.327  0.3540 -0.0385 -0.1901
 2068SOL    HW117666   0.257   2.346   6.347  0.3613  0.0875  0.2023
 2068SOL    HW217667   0.114   2.354   6.341 -1.4374  2.1378 -0.8111
 2069SOL     OW17668   3.403   2.542   4.889  0.3914 -0.5598 -0.1974
 2069SOL    HW117669   3.459   2.468   4.866  0.9654  0.3496 -1.7561
 2069SOL    HW217670   3.325   2.520   4.839  0.2164 -2.1572  0.7845
 2070SOL     OW17671   4.147   0.476   8.317  0.0259 -0.8123 -0.2846
 2070SOL    HW117672   4.216   0.486   8.383 -1.4101  1.2848  0.8912
 2070SOL    HW217673   4.082   0.530   8.362  1.6123  0.5723  0.3424
 2071SOL     OW17674   3.946   3.740   2.740 -0.1716 -0.4491 -0.0455
 2071SOL    HW117675   3.961   3.665   2.683  2.1538 -0.6561  0.8245
 2071SOL    HW217676   4.032   3.751   2.781 -0.4255  0.2352  0.2956
 2072SOL     OW17677   3.370   0.927   6.438 -0.4507 -0.2505  0.1917
 2072SOL    HW117678   3.359   0.993   6.506  0.5494  0.8691 -0.7551
 2072SOL    HW217679   3.342   0.971   6.358 -1.1802 -0.7920  0.1451
 2073SOL     OW17680   2.537   2.512   8.294 -0.2523 -0.7412  0.6045
 2073SOL    HW117681   2.465   2.492   8.354 -2.0486  0.6312 -1.1257
 2073SOL    HW217682   2.489   2.499   8.213  0.1117  2.3024 -0.1347
 2074SOL     OW17683   1.908   0.762   7.980 -0.1223 -0.1156  0.3776
 2074SOL    HW117684   1.913   0.858   7.977  1.1067 -0.1513  1.2918
 2074SOL    HW217685   1.999   0.740   7.961 -0.5561 -0.3806 -1.3510
 2075SOL     OW17686   1.426   0.067   5.585  0.8562 -0.0819  0.3728
 2075SOL    HW117687   1.330   0.068   5.585  0.8725  1.4093 -1.8582
 2075SOL    HW217688   1.442   4.724   5.647 -0.3342  0.3248  1.1558
 2076SOL     OW17689   4.199   1.588   9.216 -0.2555  0.0596 -0.2834
 2076SOL    HW117690   4.266   1.629   9.271  0.3333  0.3882 -1.2433
 2076SOL    HW217691   4.135   1.659   9.214 -1.7519 -1.3390 -1.5112
 2077SOL     OW17692   3.111   0.968  12.827 -0.2887  0.3205  0.3000
 2077SOL    HW117693   3.041   1.005  12.774  1.5699  0.1913 -2.2549
 2077SOL    HW217694   3.094   1.008  12.912 -0.3075 -0.4603  0.6709
 2078SOL     OW17695   2.597   0.132   6.250  0.0223 -0.2158 -0.0563
 2078SOL    HW117696   2.539   0.145   6.175 -0.5599 -2.9038 -0.0724
 2078SOL    HW217697   2.652   0.210   6.241 -0.0111 -0.1662  0.1690
 2079SOL     OW17698   4.296   1.085   6.130 -1.0546  0.2871 -0.4026
 2079SOL    HW117699   4.216   1.106   6.082 -1.1516  0.0380 -0.3484
 2079SOL    HW217700   4.278   1.118   6.218 -0.7039  0.1492 -0.2820
 2080SOL     OW17701   3.794   0.391   1.869 -0.2601  0.2934 -0.2468
 2080SOL    HW117702   3.710   0.424   1.900  0.1150  1.6881 -0.6965
 2080SOL    HW217703   3.852   0.461   1.899  0.4866 -0.0133 -0.9472
 2081SOL     OW17704   1.820   2.500   5.853 -0.5585 -0.0783  0.5426
 2081SOL    HW117705   1.798   2.591   5.873  1.5051  1.0217 -2.1678
 2081SOL    HW217706   1.749   2.470   5.798 -0.6378  0.8244  0.1437
 2082SOL     OW17707   1.371   0.597   5.865 -0.6015  0.3133  0.1231
 2082SOL    HW117708   1.444   0.658   5.861 -1.0992  0.8854 -0.3060
 2082SOL    HW217709   1.377   0.561   5.776  0.1417 -0.8864  0.6622
 2083SOL     OW17710   0.579   4.587   9.733 -0.3907 -0.5274  0.0810
 2083SOL    HW117711   0.595   4.495   9.715  3.3398 -0.0084  0.7788
 2083SOL    HW217712   0.564   4.599   9.827 -2.8784  0.1299 -0.3714
 2084SOL     OW17713   1.687   4.355   6.243 -0.2140  0.3216  0.0031
 2084SOL    HW117714   1.640   4.353   6.160  0.1598 -0.3534 -0.1941
 2084SOL    HW217715   1.632   4.295   6.294 -2.0769 -0.6982 -3.2304
 2085SOL     OW17716   0.781   2.604  17.625 -0.2335  0.3001 -0.6045
 2085SOL    HW117717   0.863   2.555  17.633 -0.7352 -0.3851  0.4139
 2085SOL    HW217718   0.773   2.609  17.530  0.1215  0.9645 -0.6004
 2086SOL     OW17719   1.327   3.580   9.408  0.2478  0.3714 -0.3566
 2086SOL    HW117720   1.250   3.599   9.354 -1.6168 -0.1448  2.1430
 2086SOL    HW217721   1.355   3.497   9.369 -0.7717  0.1737 -0.6533
 2087SOL     OW17722   1.973   0.065  16.168  0.1601  0.8091  0.1475
 2087SOL    HW117723   1.903   0.001  16.187  0.0568  0.5410 -1.1420
 2087SOL    HW217724   1.974   0.116  16.249  0.9927 -0.6490  1.0456
 2088SOL     OW17725   0.191   2.381   1.527  0.2707 -0.1718  0.1669
 2088SOL    HW117726   0.265   2.392   1.586  1.1706 -1.6542 -0.6996
 2088SOL    HW217727   0.223   2.447   1.466  0.8493  0.1455  0.8180
 2089SOL     OW17728   3.366   2.959   1.827  0.4258  0.3944 -0.1516
 2089SOL    HW117729   3.340   3.009   1.904  1.8828  2.7270 -1.1643
 2089SOL    HW217730   3.441   2.909   1.860  0.2290 -0.6843 -1.3715
 2090SOL     OW17731   0.608   1.287   5.963  0.1752 -0.2989 -0.3854
 2090SOL    HW117732   0.702   1.284   5.944  0.2851  0.8838 -0.0001
 2090SOL    HW217733   0.613   1.342   6.042  0.7497 -2.3328  1.0063
 2091SOL     OW17734   0.934   2.413   3.021 -0.6350 -0.0057  0.0670
 2091SOL    HW117735   0.920   2.324   3.054  3.1466 -0.4443  0.4635
 2091SOL    HW217736   0.846   2.438   2.991 -0.0832 -0.1399 -1.6170
 2092SOL     OW17737   2.064   4.492  13.789 -0.5177  0.1212  0.2910
 2092SOL    HW117738   2.041   4.415  13.737  2.7192  0.8793 -2.2992
 2092SOL    HW217739   2.138   4.450  13.834  0.0648  1.0208  0.1700
 2093SOL     OW17740   2.174   0.600   5.198  0.3454 -0.4735  0.2111
 2093SOL    HW117741   2.240   0.653   5.154 -0.5223  1.7123  1.5337
 2093SOL    HW217742   2.228   0.531   5.236  0.4026 -1.1194 -1.0643
 2094SOL     OW17743   1.163   0.958   5.195  0.7279 -0.1628 -0.4929
 2094SOL    HW117744   1.150   0.873   5.236 -2.2487  0.2755 -0.5168
 2094SOL    HW217745   1.178   1.017   5.270 -0.2819  0.9978 -1.1923
 2095SOL     OW17746   4.490   3.123  16.507 -0.0510  0.2323  0.0223
 2095SOL    HW117747   4.558   3.076  16.555 -0.4185  1.6313  1.8891
 2095SOL    HW217748   4.421   3.057  16.496 -0.4076  0.5025  0.6554
 2096SOL     OW17749   2.267   1.226   7.103  0.4855  0.5212 -0.2725
 2096SOL    HW117750   2.231   1.309   7.135 -1.3002  0.7114 -2.7531
 2096SOL    HW217751   2.343   1.262   7.057  0.8827 -0.1621 -0.1452
 2097SOL     OW17752   2.155   0.874   8.316 -0.4357 -0.4218  0.6070
 2097SOL    HW117753   2.093   0.814   8.357  1.2040 -2.6286 -0.1724
 2097SOL    HW217754   2.194   0.910   8.395 -0.9538 -1.5425  1.3572
 2098SOL     OW17755   2.380   1.213   4.973 -0.1355  0.3675  0.4577
 2098SOL    HW117756   2.288   1.237   4.961 -0.6211 -1.6553 -0.0065
 2098SOL    HW217757   2.421   1.298   4.961 -0.4520  0.3393 -0.8831
 2099SOL     OW17758   0.832   4.609   2.576 -0.1869  0.1854 -0.5893
 2099SOL    HW117759   0.836   4.520   2.540  0.6098  0.0941 -0.2632
 2099SOL    HW217760   0.846   4.590   2.668  0.1046  2.3151 -0.1940
 2100SOL     OW17761   0.246   2.019  14.918 -0.6098  0.0839  0.7063
 2100SOL    HW117762   0.302   2.097  14.917  1.0698 -1.0791  4.0959
 2100SOL    HW217763   0.249   1.992  15.010 -0.2855 -0.8925  0.4022
 2101SOL     OW17764   2.585   3.978  12.438 -0.2398 -0.6633 -0.4378
 2101SOL    HW117765   2.595   3.969  12.344  1.5608  0.4066 -0.3516
 2101SOL    HW217766   2.540   3.895  12.455 -0.0842 -0.7559 -0.4875
 2102SOL     OW17767   0.828   4.017   6.671 -0.0256  0.3037  0.0893
 2102SOL    HW117768   0.809   3.923   6.669 -2.1478  0.7489 -0.1605
 2102SOL    HW217769   0.748   4.047   6.629  1.4817 -0.9047 -3.6485
 2103SOL     OW17770   2.566   2.995   5.543  0.0812  0.6923 -0.0809
 2103SOL    HW117771   2.621   2.941   5.600  0.3433  0.3479 -0.6639
 2103SOL    HW217772   2.545   2.936   5.471 -0.2010  0.4327  0.2129
 2104SOL     OW17773   0.896   2.150   9.956  0.9352 -0.4843 -0.2620
 2104SOL    HW117774   0.881   2.060   9.984  2.3592 -1.1091 -1.5089
 2104SOL    HW217775   0.986   2.137   9.927  0.7079 -2.6447  0.0335
 2105SOL     OW17776   4.288   1.621   1.799 -0.2240  0.4011  0.1861
 2105SOL    HW117777   4.295   1.682   1.725  1.4243  1.1060  0.9179
 2105SOL    HW217778   4.204   1.580   1.779 -0.6186  1.6297 -0.6692
 2106SOL     OW17779   0.679   1.983   8.982  0.6513 -0.6282  0.5248
 2106SOL    HW117780   0.695   1.889   8.988  1.2926 -0.8134 -3.9229
 2106SOL    HW217781   0.762   2.021   9.012  0.6029 -0.9408  1.0411
 2107SOL     OW17782   3.467   3.537  16.482 -0.7144  0.2741 -0.2135
 2107SOL    HW117783   3.554   3.542  16.523  0.2507  0.9625 -2.3804
 2107SOL    HW217784   3.433   3.459  16.525 -1.3091  0.7843  0.2395
 2108SOL     OW17785   0.711   1.599   4.059 -0.5434  0.7324 -0.0178
 2108SOL    HW117786   0.641   1.534   4.049  0.0785 -0.1334  1.2897
 2108SOL    HW217787   0.690   1.657   3.986  1.7258 -0.5715 -1.6848
 2109SOL     OW17788   2.995   0.360  14.652 -0.7968 -0.2411 -0.1514
 2109SOL    HW117789   3.055   0.416  14.602  0.1938  0.2919  1.6246
 2109SOL    HW217790   2.939   0.426  14.693 -0.5136 -0.4326  0.5388
 2110SOL     OW17791   2.097   3.275  16.302 -0.1579  0.1847 -0.3898
 2110SOL    HW117792   2.136   3.362  16.311  0.7320 -0.2548  0.0467
 2110SOL    HW217793   2.013   3.295  16.343  0.2317  2.2822 -0.6227
 2111SOL     OW17794   4.417   1.771   8.725 -0.0245 -0.1731 -0.2404
 2111SOL    HW117795   4.362   1.784   8.802 -0.6580  2.1965 -1.0965
 2111SOL    HW217796   4.503   1.783   8.766 -0.1486  0.4868 -0.1733
 2112SOL     OW17797   1.149   1.306   2.448  0.2363  0.8109  0.0846
 2112SOL    HW117798   1.173   1.267   2.532 -0.5203  0.4660  0.1410
 2112SOL    HW217799   1.061   1.269   2.440  0.0556  1.1276  0.5930
 2113SOL     OW17800   0.022   3.774   2.391 -0.4089  0.3745 -0.1751
 2113SOL    HW117801   4.700   3.693   2.380  1.3296 -0.5765 -1.0137
 2113SOL    HW217802   0.089   3.781   2.323 -0.7451  0.7823 -0.4719
 2114SOL     OW17803   2.044   1.925   3.416  0.4841  0.8192  0.5786
 2114SOL    HW117804   2.120   1.932   3.359 -0.3290  3.0362 -0.2282
 2114SOL    HW217805   2.045   1.832   3.438  1.0691  1.3239  2.6477
 2115SOL     OW17806   0.794   4.499   6.327 -0.0781  0.1631 -0.7967
 2115SOL    HW117807   0.867   4.554   6.300 -0.4991  1.2599  0.2957
 2115SOL    HW217808   0.724   4.544   6.280  1.0221  2.4887 -0.2296
 2116SOL     OW17809   0.545   1.154  14.509  0.3727 -0.4643 -0.3540
 2116SOL    HW117810   0.456   1.121  14.493  0.2881 -0.2926 -0.2422
 2116SOL    HW217811   0.537   1.197  14.594 -1.6940 -0.3853 -0.5708
 2117SOL     OW17812   1.797   2.129   9.956  0.3644  0.0506  0.4603
 2117SOL    HW117813   1.819   2.061   9.892 -0.0326 -1.2950  1.7499
 2117SOL    HW217814   1.854   2.204   9.938  1.5276 -0.6775  1.1330
 2118SOL     OW17815   0.618   0.861   4.523 -0.7646 -0.3751  0.0960
 2118SOL    HW117816   0.672   0.823   4.454  0.5905  0.9021  0.4588
 2118SOL    HW217817   0.563   0.922   4.474 -1.3071 -0.8721  0.0772
 2119SOL     OW17818   4.053   3.069  16.805  0.1602  0.3077  0.3183
 2119SOL    HW117819   4.120   3.049  16.870 -1.6002 -1.8144  1.4948
 2119SOL    HW217820   4.111   3.116  16.745  0.0948  1.5526  1.2274
 2120SOL     OW17821   2.297   4.611   7.417  0.1642  0.2298  0.0216
 2120SOL    HW117822   2.205   4.615   7.393 -0.0566  0.8516  0.9343
 2120SOL    HW217823   2.334   4.534   7.375 -2.0201 -0.4081 -0.6883
 2121SOL     OW17824   3.737   4.233  11.551  0.1681  0.9283 -0.0172
 2121SOL    HW117825   3.781   4.181  11.619  0.2595  0.1806 -0.6543
 2121SOL    HW217826   3.669   4.283  11.597  0.2159  0.2183  0.8246
 2122SOL     OW17827   0.618   2.488  12.226 -0.5791  0.1539  0.1744
 2122SOL    HW117828   0.669   2.542  12.165 -0.5536 -0.2708 -0.1810
 2122SOL    HW217829   0.695   2.456  12.272 -1.9732 -1.8367  1.0882
 2123SOL     OW17830   4.203   3.982   5.682 -0.2092  0.2315 -0.3478
 2123SOL    HW117831   4.230   4.073   5.676 -0.4383  0.4547  2.2174
 2123SOL    HW217832   4.145   4.006   5.754 -0.5185  0.0302 -0.5314
 2124SOL     OW17833   0.905   0.113  12.419  0.0519  0.2026 -0.4709
 2124SOL    HW117834   0.870   0.037  12.464 -0.1886  2.0888  2.5892
 2124SOL    HW217835   0.864   0.096  12.335  0.1242 -1.6556 -0.1156
 2125SOL     OW17836   0.421   1.488   3.131 -0.4157 -0.1500 -0.3099
 2125SOL    HW117837   0.491   1.550   3.110 -0.8331  0.5711  0.3779
 2125SOL    HW217838   0.368   1.544   3.188  0.6803 -0.8713  1.4156
 2126SOL     OW17839   0.137   3.310   9.946  0.1520 -0.1437 -0.5338
 2126SOL    HW117840   0.162   3.356  10.026  0.3806  0.3387 -0.8878
 2126SOL    HW217841   0.130   3.218   9.973  0.8815 -1.2072 -4.0526
 2127SOL     OW17842   4.671   2.736   8.872  0.0187  1.0750 -0.0310
 2127SOL    HW117843   4.634   2.674   8.935  0.1692  0.4551 -0.5563
 2127SOL    HW217844   0.023   2.691   8.846 -1.3277 -1.0446 -0.5062
 2128SOL     OW17845   2.443   1.445   4.547  0.2187  0.5308 -0.0801
 2128SOL    HW117846   2.461   1.360   4.588 -1.9302 -0.4834 -1.2882
 2128SOL    HW217847   2.481   1.437   4.460 -0.8990 -1.8264 -0.3334
 2129SOL     OW17848   3.865   2.188   8.792 -0.4296  0.0907 -0.1502
 2129SOL    HW117849   3.899   2.240   8.865  2.7314 -1.7459 -0.2963
 2129SOL    HW217850   3.773   2.213   8.789 -1.4147 -3.2817  1.0221
 2130SOL     OW17851   2.503   4.400  13.032 -0.4646 -0.0267  0.6749
 2130SOL    HW117852   2.586   4.383  12.988 -1.4446 -1.4273 -0.6543
 2130SOL    HW217853   2.497   4.318  13.081  1.7102  0.3923  1.6396
 2131SOL     OW17854   4.602   1.560   3.639  0.0430 -0.3519  0.2291
 2131SOL    HW117855   4.545   1.497   3.684 -0.5416  0.8199  1.1345
 2131SOL    HW217856   4.537   1.610   3.590  1.3575  2.5561  1.4558
 2132SOL     OW17857   0.410   1.353   0.580 -0.0036 -0.0644 -0.0033
 2132SOL    HW117858   0.503   1.373   0.570 -0.1017  1.4324  2.1587
 2132SOL    HW217859   0.370   1.429   0.538  0.7574  1.5211  2.1771
 2133SOL     OW17860   1.476   1.308   7.944  0.5458  0.6161  0.0873
 2133SOL    HW117861   1.388   1.282   7.918  0.2518  1.2941  0.4018
 2133SOL    HW217862   1.502   1.254   8.018  1.8527  1.3110  0.1432
 2134SOL     OW17863   1.394   3.445   6.965 -0.4161  0.9533  0.3336
 2134SOL    HW117864   1.452   3.382   7.007  0.7719  2.6611  1.2660
 2134SOL    HW217865   1.340   3.466   7.041 -2.3009 -1.4334 -0.3550
 2135SOL     OW17866   3.613   1.754  13.088  0.4903 -0.0536  0.1680
 2135SOL    HW117867   3.616   1.684  13.153 -0.0369 -0.4110 -0.1963
 2135SOL    HW217868   3.587   1.827  13.144 -2.4205 -0.5564 -0.5525
 2136SOL     OW17869   2.839   0.553   8.609 -0.2004 -0.3260 -0.1073
 2136SOL    HW117870   2.824   0.550   8.514  0.8955  0.4704 -0.3092
 2136SOL    HW217871   2.812   0.644   8.623  1.6356  0.1281  0.4776
 2137SOL     OW17872   1.592   2.965   3.074  0.0863 -0.2291 -0.3638
 2137SOL    HW117873   1.622   2.912   3.148 -0.5136 -0.9426 -0.6245
 2137SOL    HW217874   1.604   2.902   3.003  0.6720 -1.7065  1.0370
 2138SOL     OW17875   0.885   0.470   6.982  0.3952 -0.4557  0.2684
 2138SOL    HW117876   0.944   0.398   6.958  0.5621 -0.5387  0.9315
 2138SOL    HW217877   0.880   0.521   6.901  0.9100 -0.5534  0.1731
 2139SOL     OW17878   1.738   2.588   5.536 -0.3410  0.2634  0.2186
 2139SOL    HW117879   1.658   2.606   5.586 -0.3478  0.0521  0.2822
 2139SOL    HW217880   1.765   2.506   5.577  1.4711  1.1590  0.8359
 2140SOL     OW17881   0.049   3.852   6.477 -0.4339  0.1171  0.3493
 2140SOL    HW117882   0.030   3.835   6.570 -0.9463 -1.0690  0.0220
 2140SOL    HW217883   4.689   3.840   6.442 -0.1162 -0.7612 -0.1645
 2141SOL     OW17884   4.619   3.609   6.088 -0.1095  0.9282 -0.3213
 2141SOL    HW117885   4.618   3.624   5.994  0.0843  0.3133 -0.4181
 2141SOL    HW217886   4.525   3.602   6.108  0.2739  0.6415  1.4481
 2142SOL     OW17887   2.336   0.953   1.616 -0.4929 -0.1154  0.0093
 2142SOL    HW117888   2.328   0.923   1.526  1.8411 -1.8771  0.4003
 2142SOL    HW217889   2.431   0.945   1.627 -0.4867 -1.4783 -1.1403
 2143SOL     OW17890   0.246   0.165   3.244 -0.4389  0.1617  0.2367
 2143SOL    HW117891   0.254   0.259   3.263  0.4352 -0.1325  1.3501
 2143SOL    HW217892   0.250   0.130   3.333  2.5125  2.3184  0.9655
 2144SOL     OW17893   1.909   0.209   4.005 -0.0615 -0.4981 -0.2231
 2144SOL    HW117894   1.997   0.242   3.985  0.1819 -1.7963 -1.2754
 2144SOL    HW217895   1.878   0.196   3.915 -0.3738 -0.1054 -0.1724
 2145SOL     OW17896   3.453   2.016  10.473 -0.4611 -0.1570  0.3176
 2145SOL    HW117897   3.437   2.073  10.549 -1.1322  0.2656 -0.1356
 2145SOL    HW217898   3.444   2.083  10.406 -2.0531  0.4653  1.1452
 2146SOL     OW17899   2.660   4.228   3.234 -0.3246  0.2757  0.1415
 2146SOL    HW117900   2.676   4.235   3.139  1.3034  1.5023  0.5115
 2146SOL    HW217901   2.731   4.168   3.255  1.8097  2.2962 -1.3334
 2147SOL     OW17902   0.315   2.387  10.130 -0.2560 -0.5067 -0.3616
 2147SOL    HW117903   0.368   2.329  10.185 -0.8194 -0.1556  0.5565
 2147SOL    HW217904   0.393   2.429  10.093 -0.7286  0.3297 -0.4101
 2148SOL     OW17905   1.713   2.823  11.474 -0.1511 -0.6387  0.1203
 2148SOL    HW117906   1.722   2.728  11.473 -2.0644 -0.8263  0.2326
 2148SOL    HW217907   1.638   2.838  11.417  0.9876  0.9742 -0.9718
 2149SOL     OW17908   2.961   3.337  13.059  0.3829 -0.0979  0.0688
 2149SOL    HW117909   2.972   3.391  13.138  2.2891  0.7475 -0.7774
 2149SOL    HW217910   2.890   3.383  13.014  0.3948 -0.5072 -0.3623
 2150SOL     OW17911   1.397   4.404  17.616 -0.0233 -0.2711 -0.6786
 2150SOL    HW117912   1.379   4.312  17.635  2.4667 -0.3536  1.2764
 2150SOL    HW217913   1.465   4.433  17.678 -2.5326 -1.2585  2.5014
 2151SOL     OW17914   1.620   4.346   4.206 -0.1619 -0.9311  0.1366
 2151SOL    HW117915   1.597   4.418   4.148 -1.6478 -1.1822  0.4093
 2151SOL    HW217916   1.550   4.346   4.272  0.7042  4.3923  1.0909
 2152SOL     OW17917   3.183   3.278   3.301  0.2218  0.4672  0.0638
 2152SOL    HW117918   3.120   3.217   3.339 -0.7987  1.0170 -0.7213
 2152SOL    HW217919   3.256   3.223   3.273 -1.6627 -1.3318 -1.3272
 2153SOL     OW17920   3.515   2.536   5.161  0.0757 -0.0919  0.2036
 2153SOL    HW117921   3.466   2.574   5.088  0.3735 -0.8817 -0.4051
 2153SOL    HW217922   3.512   2.448   5.123 -1.5855  0.0748 -0.0289
 2154SOL     OW17923   1.688   0.768   0.725 -0.0068  0.4461 -0.1480
 2154SOL    HW117924   1.724   0.790   0.811 -1.1995  0.3652  0.3713
 2154SOL    HW217925   1.772   0.736   0.694 -0.2953  1.0547 -1.5487
 2155SOL     OW17926   0.896   4.417   7.092 -0.0539  0.4212 -0.4457
 2155SOL    HW117927   0.917   4.462   7.010  0.8782  0.4614 -0.1884
 2155SOL    HW217928   0.810   4.376   7.081  0.6227 -0.9779 -0.4931
 2156SOL     OW17929   4.079   1.114   5.922  0.0212 -0.7168  0.5509
 2156SOL    HW117930   4.023   1.065   5.983  1.1021 -1.7345  0.7182
 2156SOL    HW217931   4.135   1.041   5.896  0.3363 -0.7925  1.4400
 2157SOL     OW17932   4.363   1.094   4.491  0.3086  0.2749  0.2539
 2157SOL    HW117933   4.454   1.069   4.476  0.4729  1.6355 -1.0290
 2157SOL    HW217934   4.315   1.013   4.474  3.0368 -1.7507  2.1660
 2158SOL     OW17935   2.173   0.190   3.896 -0.0010 -0.0177  0.0323
 2158SOL    HW117936   2.220   0.221   3.818  1.3255 -0.2302  0.7554
 2158SOL    HW217937   2.234   0.221   3.963 -0.1462 -1.8873  1.0131
 2159SOL     OW17938   3.328   4.023   3.738 -0.2525 -0.7519  0.3367
 2159SOL    HW117939   3.243   4.030   3.694  0.5174  0.7095 -0.9151
 2159SOL    HW217940   3.370   3.973   3.668  0.2257  0.3878 -0.1915
 2160SOL     OW17941   1.232   0.782   2.709 -0.8270  0.4294  0.6155
 2160SOL    HW117942   1.260   0.821   2.792 -1.1902  0.5294  0.6933
 2160SOL    HW217943   1.143   0.750   2.726 -0.2329 -1.1023  0.8671
 2161SOL     OW17944   3.669   4.196   7.309 -0.0178 -0.4959 -0.3758
 2161SOL    HW117945   3.653   4.117   7.257 -2.0452  0.4604 -1.1861
 2161SOL    HW217946   3.752   4.180   7.354 -0.1413  0.6104  0.2264
 2162SOL     OW17947   0.475   1.013   8.057  0.1512  0.0411  0.0406
 2162SOL    HW117948   0.437   1.034   7.972 -1.7241 -0.5935  0.7196
 2162SOL    HW217949   0.523   1.096   8.062 -0.6498  0.5114 -0.1406
 2163SOL     OW17950   0.166   3.178   7.728  0.8941  0.1001 -0.1373
 2163SOL    HW117951   0.116   3.231   7.789  0.6339  1.4892 -1.5671
 2163SOL    HW217952   0.246   3.230   7.726  1.0241 -0.0564  1.1713
 2164SOL     OW17953   0.487   0.209  11.364 -0.0771  0.3925  0.8831
 2164SOL    HW117954   0.467   0.118  11.343 -0.2646 -0.1861  3.6330
 2164SOL    HW217955   0.574   0.202  11.404 -0.7377 -0.6837  2.1089
 2165SOL     OW17956   4.532   0.443   8.728  0.6506 -0.3719  0.0548
 2165SOL    HW117957   4.530   0.464   8.635 -4.1181  0.5927  0.3827
 2165SOL    HW217958   4.478   0.364   8.726 -1.8609  1.3118  1.9348
 2166SOL     OW17959   4.134   1.214   5.604 -0.5605  0.9417 -0.3434
 2166SOL    HW117960   4.157   1.301   5.637  1.4684  0.3038 -0.0508
 2166SOL    HW217961   4.110   1.232   5.513 -0.9738  3.2186  0.2028
 2167SOL     OW17962   0.619   3.971   9.347  0.3495  0.1178 -0.3509
 2167SOL    HW117963   0.606   4.050   9.400  0.1878  1.2270 -2.0193
 2167SOL    HW217964   0.657   4.009   9.267  0.6335  0.7120  0.0601
 2168SOL     OW17965   3.743   4.582  10.766 -0.4172  0.2047 -0.6636
 2168SOL    HW117966   3.663   4.544  10.728 -1.0968  2.0872 -1.1233
 2168SOL    HW217967   3.752   4.528  10.844  0.5599 -1.9784 -2.2773
 2169SOL     OW17968   1.161   1.066   8.052 -0.6844 -0.5434 -0.2051
 2169SOL    HW117969   1.220   1.011   8.000 -0.7417 -1.2957  0.5381
 2169SOL    HW217970   1.077   1.053   8.007 -1.2514  2.3491 -0.0135
 2170SOL     OW17971   2.889   0.950  10.729 -0.2165 -0.0573  0.4614
 2170SOL    HW117972   2.867   0.914  10.815 -0.8772 -0.1624  0.2449
 2170SOL    HW217973   2.985   0.955  10.735 -0.2833 -2.0121  3.3397
 2171SOL     OW17974   0.075   3.265   3.311  1.1199  0.2416 -0.5103
 2171SOL    HW117975   0.028   3.318   3.247 -0.1065  1.9676  1.8276
 2171SOL    HW217976   0.139   3.334   3.332 -1.0279  1.6270  1.3899
 2172SOL     OW17977   0.490   0.999   5.033 -0.0828 -0.0227 -0.2234
 2172SOL    HW117978   0.420   0.949   4.991  0.5448 -1.8114  0.8980
 2172SOL    HW217979   0.457   1.088   5.017 -0.4830 -0.2339 -0.5620
 2173SOL     OW17980   2.202   3.437   0.545  0.2675  0.0547 -0.4700
 2173SOL    HW117981   2.176   3.463   0.634  0.9551  1.0903 -0.5712
 2173SOL    HW217982   2.255   3.358   0.554  1.0702  0.4707 -1.5646
 2174SOL     OW17983   4.474   3.823   3.944 -0.4100 -0.5444 -0.2466
 2174SOL    HW117984   4.384   3.822   3.977 -1.1188  0.2844 -2.1258
 2174SOL    HW217985   4.453   3.778   3.862  0.0523  0.6212 -1.0058
 2175SOL     OW17986   3.613   2.485   9.465  0.1371 -0.2966 -0.1211
 2175SOL    HW117987   3.699   2.466   9.426 -0.1572  2.2348 -2.0394
 2175SOL    HW217988   3.615   2.414   9.529  0.7267  1.4508  1.7955
 2176SOL     OW17989   0.609   2.235  15.173 -0.1708  0.4214 -0.0091
 2176SOL    HW117990   0.575   2.311  15.220  0.5200  0.6339  0.1512
 2176SOL    HW217991   0.668   2.277  15.110  1.7365 -1.5402  0.4576
 2177SOL     OW17992   4.557   1.221  13.779 -0.2067 -0.3943 -0.0059
 2177SOL    HW117993   4.477   1.173  13.802 -1.7542  1.9457 -0.3868
 2177SOL    HW217994   4.509   1.295  13.742  0.5154  0.3545  0.5624
 2178SOL     OW17995   4.075   2.444   6.695  0.4623  0.0577 -0.1228
 2178SOL    HW117996   4.018   2.412   6.764 -0.0475 -0.0863 -0.6169
 2178SOL    HW217997   4.161   2.404   6.710  0.2989  0.7862  2.7386
 2179SOL     OW17998   2.372   3.887  15.500 -0.4252 -0.2145 -0.8562
 2179SOL    HW117999   2.376   3.925  15.588 -1.6079 -1.2493 -0.3736
 2179SOL    HW218000   2.279   3.868  15.494 -0.0658 -1.8953 -0.8992
 2180SOL     OW18001   2.513   2.260   2.877  0.1088 -0.0101  0.3030
 2180SOL    HW118002   2.549   2.316   2.809 -0.2331 -0.7024 -0.4512
 2180SOL    HW218003   2.457   2.204   2.823 -2.2829  2.1768  0.4940
 2181SOL     OW18004   4.395   3.010   6.689 -0.0839 -0.0747  0.3571
 2181SOL    HW118005   4.313   3.029   6.643  1.0362 -0.3408 -1.7811
 2181SOL    HW218006   4.362   2.937   6.741  0.6780  0.4993  1.6533
 2182SOL     OW18007   0.346   1.849   4.029  0.2826  1.0916  0.6478
 2182SOL    HW118008   0.366   1.821   3.939 -1.4423  0.5530  0.4294
 2182SOL    HW218009   0.250   1.848   4.031  0.2870  0.7046  0.7761
 2183SOL     OW18010   2.753   3.808  15.507  0.0593  0.2464 -0.7763
 2183SOL    HW118011   2.769   3.863  15.584  0.5047 -1.4683  0.3618
 2183SOL    HW218012   2.806   3.730  15.525 -0.7871  0.1381  1.2956
 2184SOL     OW18013   3.520   4.082   5.536 -0.6808 -0.5352  0.3060
 2184SOL    HW118014   3.433   4.108   5.505 -0.8408  0.1446  1.3307
 2184SOL    HW218015   3.522   3.988   5.517 -2.1582 -0.4796 -0.1803
 2185SOL     OW18016   3.084   3.041  13.321 -0.5148  0.0055  0.1285
 2185SOL    HW118017   3.127   3.021  13.238 -0.4503 -0.2999  0.2324
 2185SOL    HW218018   3.146   3.101  13.362  0.0261 -1.3600  1.3278
 2186SOL     OW18019   3.240   4.494   4.309 -0.5090  0.3075  0.1426
 2186SOL    HW118020   3.312   4.542   4.348 -0.6185  2.7916 -2.7563
 2186SOL    HW218021   3.186   4.479   4.387  0.1713 -1.0665  0.3478
 2187SOL     OW18022   3.256   1.930   9.710 -0.3753  0.3477 -0.6521
 2187SOL    HW118023   3.184   1.874   9.739  0.0315  0.5469  0.7047
 2187SOL    HW218024   3.306   1.861   9.666  1.0945  0.1281  1.3871
 2188SOL     OW18025   2.903   3.624   4.406 -0.2364  0.4958 -0.2628
 2188SOL    HW118026   2.965   3.563   4.366  1.4795  0.7563  2.0010
 2188SOL    HW218027   2.962   3.700   4.404  2.2741 -1.4801 -0.7147
 2189SOL     OW18028   0.613   3.497  10.496  0.1705 -0.3440 -0.2203
 2189SOL    HW118029   0.687   3.551  10.468 -1.9436  2.9781  0.6021
 2189SOL    HW218030   0.650   3.414  10.467  1.1735  0.1065 -0.2199
 2190SOL     OW18031   3.220   0.403   3.474  0.0772  0.2458  0.3503
 2190SOL    HW118032   3.213   0.455   3.394  2.7145 -1.8930 -1.2742
 2190SOL    HW218033   3.275   0.333   3.439  1.3379  0.5209  1.7984
 2191SOL     OW18034   4.024   1.561   4.739 -0.3758  0.2719 -0.2616
 2191SOL    HW118035   4.032   1.581   4.645 -2.2417 -3.3329 -1.1928
 2191SOL    HW218036   4.112   1.588   4.767 -1.6750  1.6802  2.4175
 2192SOL     OW18037   0.157   1.835   1.682 -0.2922  0.3665 -0.0504
 2192SOL    HW118038   0.107   1.755   1.696  1.2081 -0.5665 -0.0387
 2192SOL    HW218039   0.087   1.887   1.643  0.6642  0.3357 -1.8009
 2193SOL     OW18040   2.214   1.589   3.079 -0.4263 -0.0993  0.0042
 2193SOL    HW118041   2.162   1.662   3.043  0.8374  1.9636  2.3350
 2193SOL    HW218042   2.202   1.512   3.024 -2.3369  0.2961 -0.1257
 2194SOL     OW18043   2.104   0.044   4.673 -0.0344 -0.1115  0.2839
 2194SOL    HW118044   2.138   4.683   4.680  0.6631  0.2850  1.9888
 2194SOL    HW218045   2.074   0.049   4.764 -1.6503  0.3760 -0.2776
 2195SOL     OW18046   0.699   1.134   6.344 -0.0878  0.3099 -0.1551
 2195SOL    HW118047   0.649   1.111   6.266  2.5058 -0.5332 -1.5854
 2195SOL    HW218048   0.792   1.126   6.320 -0.5534 -0.1875 -1.8469
 2196SOL     OW18049   1.627   4.412   2.873 -0.5878 -0.4385 -0.2241
 2196SOL    HW118050   1.627   4.508   2.875 -2.0401 -0.4690  2.1457
 2196SOL    HW218051   1.679   4.400   2.794 -0.6756 -3.1555  0.1491
 2197SOL     OW18052   4.686   0.334   7.991 -0.5627  0.0756 -0.0107
 2197SOL    HW118053   4.673   0.266   7.926 -0.6988  0.8733 -0.8259
 2197SOL    HW218054   0.045   0.369   7.971  0.2212 -1.6810  0.3528
 2198SOL     OW18055   0.913   3.921   8.332 -0.2731  0.3019  0.7883
 2198SOL    HW118056   0.837   3.944   8.279  0.6220  0.6270 -0.3493
 2198SOL    HW218057   0.864   3.943   8.410  0.7401  0.8390  1.2693
 2199SOL     OW18058   4.124   0.900  16.023 -0.3772 -0.3187  0.1400
 2199SOL    HW118059   4.093   0.988  16.043 -0.4118 -0.3430  0.1932
 2199SOL    HW218060   4.047   0.843  16.023 -0.5444 -0.0625 -2.4347
 2200SOL     OW18061   4.536   2.404   2.426  0.1607 -0.5552  0.5306
 2200SOL    HW118062   4.568   2.348   2.497 -0.0768  1.6304  2.3528
 2200SOL    HW218063   4.610   2.461   2.405  1.1266 -0.5768  3.8915
 2201SOL     OW18064   3.908   2.353  13.891 -0.4303  0.1512  0.1997
 2201SOL    HW118065   3.965   2.416  13.935 -0.2274 -0.6847  1.1292
 2201SOL    HW218066   3.897   2.284  13.956  0.2550  1.0248  1.2506
 2202SOL     OW18067   0.575   4.349   4.474  0.1574  0.0703 -0.3687
 2202SOL    HW118068   0.568   4.292   4.398 -0.0086 -2.2486  1.3938
 2202SOL    HW218069   0.563   4.437   4.437  0.6545  0.2611 -0.0737
 2203SOL     OW18070   3.412   2.025   4.940  0.2301  0.5581 -0.5419
 2203SOL    HW118071   3.445   1.981   5.018  1.3627 -0.0854 -1.4045
 2203SOL    HW218072   3.416   1.955   4.875  1.3440 -1.5386  1.7882
 2204SOL     OW18073   4.708   0.810   6.476 -0.6178 -0.1737  0.3355
 2204SOL    HW118074   4.624   0.776   6.508  0.6258 -1.5820  2.1094
 2204SOL    HW218075   4.718   0.784   6.385  1.3978  0.5057  0.3792
 2205SOL     OW18076   1.613   1.409   7.727  0.5540  0.1048 -0.7591
 2205SOL    HW118077   1.595   1.398   7.634 -2.7761 -0.0655 -0.1100
 2205SOL    HW218078   1.548   1.353   7.770  1.6479 -0.5000  0.1249
 2206SOL     OW18079   2.406   1.311   2.493 -0.1211  0.1798  0.7005
 2206SOL    HW118080   2.474   1.379   2.495  0.4173 -0.3417 -0.0186
 2206SOL    HW218081   2.417   1.273   2.580  0.6551 -0.3174  0.3879
 2207SOL     OW18082   1.059   1.458   7.284 -0.3294  0.3941  0.3417
 2207SOL    HW118083   0.980   1.462   7.338  1.4238 -1.8339  3.0736
 2207SOL    HW218084   1.059   1.551   7.259  0.9950  0.5680  0.9992
 2208SOL     OW18085   1.784   2.260   8.949  0.0043 -0.0451  0.8672
 2208SOL    HW118086   1.879   2.250   8.961 -0.0336 -0.5888  0.7027
 2208SOL    HW218087   1.767   2.216   8.866 -1.6508  0.4788  0.9391
 2209SOL     OW18088   0.628   1.200   8.409  0.3059 -0.2894 -0.1683
 2209SOL    HW118089   0.541   1.207   8.372 -0.1760 -1.5183  0.7289
 2209SOL    HW218090   0.624   1.267   8.476 -1.3612  0.1904 -0.7495
 2210SOL     OW18091   3.619   0.784   1.782 -0.0865 -0.3954  0.3612
 2210SOL    HW118092   3.706   0.817   1.760 -1.1183  2.0046 -0.1937
 2210SOL    HW218093   3.595   0.850   1.847 -0.2309 -0.4893  0.4045
 2211SOL     OW18094   2.098   2.259   6.192  0.6268  0.1971  0.2603
 2211SOL    HW118095   2.016   2.282   6.148  0.9849 -2.1457 -1.6589
 2211SOL    HW218096   2.072   2.179   6.239  0.1858 -0.7215 -1.5364
 2212SOL     OW18097   4.701   2.573   1.609 -0.2157  0.4386 -0.0850
 2212SOL    HW118098   4.635   2.531   1.554  2.7088  0.4300 -3.5694
 2212SOL    HW218099   0.020   2.495   1.634  2.3118  1.6072 -1.2427
 2213SOL     OW18100   1.331   4.551   8.530 -0.7371  0.3730 -0.6003
 2213SOL    HW118101   1.257   4.603   8.496 -1.0880  0.7380  0.7431
 2213SOL    HW218102   1.400   4.568   8.466 -0.4034  2.9978  0.4422
 2214SOL     OW18103   0.343   3.981   6.442 -0.3697  0.4093  0.1104
 2214SOL    HW118104   0.279   3.964   6.373  0.8400 -0.2954 -0.8413
 2214SOL    HW218105   0.340   3.904   6.499 -1.3238 -0.1705 -0.7256
 2215SOL     OW18106   2.013   4.310   4.642 -0.9231  0.3017 -0.1512
 2215SOL    HW118107   1.944   4.253   4.677 -1.9772  0.2298 -2.3872
 2215SOL    HW218108   1.971   4.386   4.603 -0.5710  0.1997 -0.7207
 2216SOL     OW18109   2.615   4.461  14.982 -0.2448  0.6729 -0.1905
 2216SOL    HW118110   2.608   4.490  14.891 -0.2524 -1.6977 -0.9634
 2216SOL    HW218111   2.536   4.410  14.999  0.9800 -0.6682  1.4484
 2217SOL     OW18112   2.788   3.816   5.594 -0.4124 -0.1382 -0.0641
 2217SOL    HW118113   2.706   3.793   5.637 -1.1259 -0.0054 -1.3244
 2217SOL    HW218114   2.796   3.907   5.623  2.2313 -0.6334  0.7487
 2218SOL     OW18115   4.421   3.511   4.134 -0.4679  0.6656  0.6149
 2218SOL    HW118116   4.343   3.458   4.120  1.0148 -0.9098 -1.6413
 2218SOL    HW218117   4.440   3.544   4.046  0.4221 -2.5170 -0.4002
 2219SOL     OW18118   0.204   1.886   9.589  0.2689  0.2693 -0.2397
 2219SOL    HW118119   0.223   1.971   9.628  0.5091  0.3570 -0.5482
 2219SOL    HW218120   0.255   1.832   9.650 -2.5632 -0.1741  1.7608
 2220SOL     OW18121   1.400   2.330   2.968  0.7496  0.4479  0.2592
 2220SOL    HW118122   1.438   2.357   3.052 -0.0491 -0.8417  1.0236
 2220SOL    HW218123   1.319   2.380   2.968  0.6242  0.2452  1.6073
 2221SOL     OW18124   1.362   2.959   5.824  0.2019  0.2974  0.0519
 2221SOL    HW118125   1.287   2.919   5.778  0.1085 -0.6718  1.0438
 2221SOL    HW218126   1.430   2.963   5.757 -0.5454  1.0901 -0.6531
 2222SOL     OW18127   1.311   1.380   7.321  0.3148 -0.0991  0.7969
 2222SOL    HW118128   1.216   1.388   7.306  0.3743  0.1586  0.5543
 2222SOL    HW218129   1.332   1.406   7.231  0.0995  0.2116  0.8358
 2223SOL     OW18130   2.361   1.925   6.661  0.3655 -0.2591  0.0880
 2223SOL    HW118131   2.304   1.854   6.689  1.1663 -0.8676  0.1562
 2223SOL    HW218132   2.437   1.884   6.620 -0.9625 -0.4245 -2.2327
 2224SOL     OW18133   4.155   3.289   2.517 -0.6536 -0.4128 -0.1524
 2224SOL    HW118134   4.225   3.319   2.459  0.0741 -3.4848 -0.8272
 2224SOL    HW218135   4.152   3.195   2.501 -1.5324 -0.6017  1.1625
 2225SOL     OW18136   1.904   2.309  13.520 -0.2749 -0.2433  0.2064
 2225SOL    HW118137   1.973   2.289  13.584  0.2902 -1.1494 -0.6797
 2225SOL    HW218138   1.949   2.298  13.437  1.9301  0.3399  1.3149
 2226SOL     OW18139   2.889   4.345  15.007 -0.1730  0.1333 -0.1376
 2226SOL    HW118140   2.949   4.404  14.962 -0.2879  1.4921  1.4890
 2226SOL    HW218141   2.807   4.392  15.021  0.9628  1.1100  3.1424
 2227SOL     OW18142   2.512   1.444   7.376  0.1618 -0.2658  0.4119
 2227SOL    HW118143   2.429   1.409   7.408  0.3869  0.3662  1.6836
 2227SOL    HW218144   2.554   1.489   7.449  3.2704  0.1464 -1.6151
 2228SOL     OW18145   3.604   2.252   8.793 -0.3935 -0.3523 -0.0337
 2228SOL    HW118146   3.547   2.228   8.865  0.2150  0.4173  0.7086
 2228SOL    HW218147   3.581   2.178   8.736 -1.5648 -0.3015  0.3822
 2229SOL     OW18148   2.737   3.107   4.387 -0.3000 -0.1595 -0.1281
 2229SOL    HW118149   2.701   3.066   4.309  0.9394 -1.1497 -0.1802
 2229SOL    HW218150   2.777   3.180   4.339  0.8189  0.4863  1.7924
 2230SOL     OW18151   2.275   1.476   7.578  0.6181 -0.2786 -0.2163
 2230SOL    HW118152   2.208   1.520   7.526  1.3754 -1.4886 -2.2049
 2230SOL    HW218153   2.281   1.547   7.641 -0.3209 -0.0050 -0.4432
 2231SOL     OW18154   0.498   4.538   7.473  0.0414 -0.4493  0.0180
 2231SOL    HW118155   0.514   4.632   7.478  0.6303 -0.4113 -2.7492
 2231SOL    HW218156   0.477   4.521   7.381 -1.6502 -0.1323  0.3350
 2232SOL     OW18157   1.896   4.512   4.191 -0.3545  0.0123 -0.0342
 2232SOL    HW118158   1.805   4.494   4.167  0.2800  0.6457 -2.8882
 2232SOL    HW218159   1.940   4.450   4.134 -0.8143  0.0395 -0.4182
 2233SOL     OW18160   2.828   3.310   4.203 -0.4767 -0.3059 -0.1624
 2233SOL    HW118161   2.876   3.391   4.220 -1.5516  0.1838  0.4873
 2233SOL    HW218162   2.758   3.329   4.140 -0.4209 -0.9547 -0.4214
 2234SOL     OW18163   3.300   3.455   3.470 -0.1253 -0.5482 -0.0411
 2234SOL    HW118164   3.241   3.418   3.404  0.4552  0.3417 -1.0649
 2234SOL    HW218165   3.298   3.404   3.551 -2.8495 -1.7577 -0.8690
 2235SOL     OW18166   4.668   2.242   1.300 -0.3753 -0.3194 -0.3106
 2235SOL    HW118167   4.646   2.315   1.243  2.4990 -0.5131 -1.7080
 2235SOL    HW218168   4.710   2.183   1.237  0.5844  0.1103 -0.0768
 2236SOL     OW18169   4.310   3.367   7.554  0.3207 -0.1574 -0.1748
 2236SOL    HW118170   4.324   3.338   7.464  1.6861 -0.8113  0.2552
 2236SOL    HW218171   4.375   3.314   7.600 -0.3949 -1.0105 -0.1426
 2237SOL     OW18172   1.410   4.309   8.900 -0.1494  0.1135 -0.0500
 2237SOL    HW118173   1.361   4.283   8.978  0.8762  0.9889  0.8848
 2237SOL    HW218174   1.498   4.271   8.907  1.3187  3.6496  0.8214
 2238SOL     OW18175   3.154   0.635   8.895  0.4011 -0.2337  0.3244
 2238SOL    HW118176   3.142   0.550   8.854  0.7079 -0.0639 -0.1202
 2238SOL    HW218177   3.209   0.609   8.969  2.8179  0.7846 -1.1424
 2239SOL     OW18178   2.747   2.407   9.441  0.3715 -0.4779 -0.0581
 2239SOL    HW118179   2.765   2.501   9.429 -0.6770 -0.4084 -1.0241
 2239SOL    HW218180   2.669   2.408   9.495  0.0630  0.6446 -0.5345
 2240SOL     OW18181   4.037   1.262   6.355  0.5280 -0.0467  0.1320
 2240SOL    HW118182   4.043   1.351   6.320 -2.7589 -0.4791 -1.5158
 2240SOL    HW218183   4.130   1.248   6.341  0.4651  3.4352 -3.7530
 2241SOL     OW18184   2.070   4.665   5.899 -0.2436  0.0297 -0.2535
 2241SOL    HW118185   2.038   4.591   5.847 -1.9889  0.5883  0.0068
 2241SOL    HW218186   2.032   0.009   5.848  2.8079  2.3521  0.7803
 2242SOL     OW18187   1.424   3.148   8.308  0.4306  0.3897  0.4691
 2242SOL    HW118188   1.512   3.119   8.287  0.5931  1.0588  0.2345
 2242SOL    HW218189   1.411   3.088   8.381  1.3495  0.0613  0.3609
 2243SOL     OW18190   3.120   0.233   1.008  0.1364  0.4698 -0.0300
 2243SOL    HW118191   3.185   0.297   0.979  1.2674 -0.7711 -0.2320
 2243SOL    HW218192   3.101   0.261   1.097 -1.1579  0.1989 -0.2221
 2244SOL     OW18193   3.370   0.255   3.048 -0.1065 -0.1382 -0.6739
 2244SOL    HW118194   3.460   0.279   3.025 -0.4598 -0.0554 -1.9591
 2244SOL    HW218195   3.366   0.278   3.141 -0.5848 -4.5139  0.4101
 2245SOL     OW18196   3.770   4.704  16.385  0.1040 -0.6690 -0.6354
 2245SOL    HW118197   3.689   4.666  16.350 -0.0709 -3.0946  2.3729
 2245SOL    HW218198   3.827   4.644  16.338  0.9220  0.0822 -0.5992
 2246SOL     OW18199   4.131   0.031  10.975 -0.5535  0.7230 -0.6512
 2246SOL    HW118200   4.119   4.715  11.059  1.5668 -2.0399 -1.7882
 2246SOL    HW218201   4.227   0.039  10.974 -0.5165  0.2246 -0.8018
 2247SOL     OW18202   3.220   1.508  12.679  0.3890  0.2726 -0.0698
 2247SOL    HW118203   3.220   1.528  12.773  2.6530  2.0766 -0.4530
 2247SOL    HW218204   3.295   1.550  12.639 -0.2335  0.3510 -1.1407
 2248SOL     OW18205   4.558   1.901   7.641 -0.0630 -0.1989  0.1477
 2248SOL    HW118206   4.566   1.925   7.733  2.6720 -1.4604  0.2212
 2248SOL    HW218207   4.477   1.849   7.647  0.2943 -0.6673  0.9029
 2249SOL     OW18208   4.286   3.721   6.931  0.0829 -0.2130  0.1678
 2249SOL    HW118209   4.250   3.757   6.849  1.1562 -0.7737 -0.5588
 2249SOL    HW218210   4.227   3.764   6.993  0.6103  0.1575  0.4033
 2250SOL     OW18211   2.890   3.724   1.004  0.1882  0.0727 -0.3712
 2250SOL    HW118212   2.797   3.744   0.996  0.0148 -1.1520 -1.3569
 2250SOL    HW218213   2.915   3.777   1.080 -2.2655  1.4022 -0.4812
 2251SOL     OW18214   1.020   1.370  11.260 -0.3914 -0.0475 -0.1273
 2251SOL    HW118215   1.051   1.280  11.266 -1.0195 -0.2726 -0.2974
 2251SOL    HW218216   0.947   1.380  11.321  1.6670 -1.5668  2.6042
 2252SOL     OW18217   3.293   3.954  13.176  0.0030 -0.7369 -0.7456
 2252SOL    HW118218   3.358   3.925  13.240 -1.5197 -1.8513  0.2928
 2252SOL    HW218219   3.210   3.917  13.206 -0.5326  1.9255  0.9934
 2253SOL     OW18220   2.879   1.206  17.435  0.5515  0.5322 -0.3297
 2253SOL    HW118221   2.827   1.233  17.510  1.0763  1.3516 -0.2528
 2253SOL    HW218222   2.919   1.131  17.477 -2.7394  0.4409  2.5542
 2254SOL     OW18223   3.963   3.672  15.956  0.4153  0.7936 -0.7378
 2254SOL    HW118224   3.939   3.728  15.881 -0.2409  1.4298 -0.0538
 2254SOL    HW218225   3.872   3.657  15.981  0.5381 -2.1918 -2.1276
 2255SOL     OW18226   3.372   1.429   9.330  0.6725 -0.1046 -0.2121
 2255SOL    HW118227   3.374   1.386   9.244  0.2921 -1.8441  0.6478
 2255SOL    HW218228   3.453   1.399   9.372 -0.7068 -0.3064  2.3110
 2256SOL     OW18229   4.573   1.826  13.643  0.4305 -0.4098  1.0033
 2256SOL    HW118230   4.585   1.909  13.598  0.5198 -1.3868 -0.7475
 2256SOL    HW218231   4.613   1.759  13.587 -1.0764  0.2929 -0.9040
 2257SOL     OW18232   4.085   1.332   3.423 -0.1496 -0.2745 -0.3005
 2257SOL    HW118233   4.090   1.259   3.484 -2.4296 -1.2200 -1.2248
 2257SOL    HW218234   4.068   1.398   3.491 -0.3608 -2.4430  1.7590
 2258SOL     OW18235   2.016   3.606  10.996 -0.4653  0.1364 -0.2140
 2258SOL    HW118236   1.999   3.544  10.925  2.1574 -0.0040 -0.7077
 2258SOL    HW218237   1.931   3.627  11.036  0.3812  1.7543  0.7455
 2259SOL     OW18238   4.085   1.740   5.133 -0.5565  0.0924 -0.3797
 2259SOL    HW118239   4.021   1.811   5.124  0.2600  0.5350 -2.4947
 2259SOL    HW218240   4.152   1.797   5.095 -0.2085  2.1121  3.2684
 2260SOL     OW18241   4.485   4.120   4.121  0.0424  0.4164 -0.5968
 2260SOL    HW118242   4.513   4.039   4.163  2.3527  1.0369 -0.9175
 2260SOL    HW218243   4.532   4.191   4.165  0.6329 -0.9356  0.9586
 2261SOL     OW18244   3.597   2.903   4.861  0.1589 -0.3146 -0.0258
 2261SOL    HW118245   3.678   2.949   4.881 -0.3926  0.2579  0.8860
 2261SOL    HW218246   3.583   2.935   4.772  0.1986 -0.2860 -0.0217
 2262SOL     OW18247   2.349   1.640  14.828 -0.5220  0.1328  0.4235
 2262SOL    HW118248   2.437   1.603  14.831 -0.3146  0.4742 -1.7044
 2262SOL    HW218249   2.352   1.714  14.768 -1.2776 -0.1254  0.0791
 2263SOL     OW18250   4.190   4.152   7.160 -0.2640  0.3050 -0.1745
 2263SOL    HW118251   4.210   4.059   7.147  0.0681  0.4782 -0.8866
 2263SOL    HW218252   4.241   4.194   7.090  1.3275 -0.3114  0.6084
 2264SOL     OW18253   2.106   0.089   7.839  0.1560  0.0144  0.7151
 2264SOL    HW118254   2.093   0.019   7.775 -1.5140 -0.8417  1.9688
 2264SOL    HW218255   2.200   0.102   7.837  0.1668  0.0043  1.1194
 2265SOL     OW18256   1.850   4.394  17.662 -0.0514  0.2734 -0.2279
 2265SOL    HW118257   1.910   4.422  17.592  0.3412 -2.4937 -1.0050
 2265SOL    HW218258   1.762   4.428  17.646 -0.5987 -1.9716 -2.0257
 2266SOL     OW18259   1.346   4.089   7.185  0.1642  0.5495  0.3552
 2266SOL    HW118260   1.364   4.115   7.275 -0.7011 -0.6662  0.8776
 2266SOL    HW218261   1.264   4.040   7.194  0.1557  0.4141 -0.3884
 2267SOL     OW18262   2.557   4.364   4.448  0.7104 -0.5050  0.0112
 2267SOL    HW118263   2.469   4.389   4.420  0.4925  0.2227  1.3298
 2267SOL    HW218264   2.563   4.423   4.523  1.1367  0.7881 -1.0424
 2268SOL     OW18265   3.117   0.292   5.008 -0.2790 -0.4259  0.2096
 2268SOL    HW118266   3.175   0.366   5.028 -2.4088  1.1997  0.3993
 2268SOL    HW218267   3.105   0.259   5.097  0.8986 -0.5752  0.3200
 2269SOL     OW18268   2.439   4.707   4.551 -0.4445  0.7819  0.3503
 2269SOL    HW118269   2.421   0.039   4.624 -1.3113  1.6905 -0.6169
 2269SOL    HW218270   2.365   0.008   4.497  0.3537 -0.7710 -1.5661
 2270SOL     OW18271   0.677   4.360  14.987  0.2036 -0.3583 -0.1724
 2270SOL    HW118272   0.716   4.339  15.072 -2.1330  0.5542  1.1350
 2270SOL    HW218273   0.635   4.278  14.960 -0.8125  0.4547 -1.0561
 2271SOL     OW18274   0.638   0.568   3.374 -0.6502 -0.5476  0.3152
 2271SOL    HW118275   0.633   0.586   3.280 -2.8752 -1.6038  0.2305
 2271SOL    HW218276   0.629   0.662   3.393  1.5677 -0.0342 -1.1719
 2272SOL     OW18277   2.209   2.933   2.284 -0.0612  0.2237 -0.0987
 2272SOL    HW118278   2.267   2.867   2.247  1.3923  0.6823  1.3894
 2272SOL    HW218279   2.131   2.921   2.229  0.0477 -0.5834 -0.0801
 2273SOL     OW18280   0.959   3.376   3.847  0.1587 -0.1945 -0.5351
 2273SOL    HW118281   1.021   3.307   3.869  0.1865 -0.8282 -2.6621
 2273SOL    HW218282   0.950   3.414   3.935 -1.0585  0.4299 -0.9287
 2274SOL     OW18283   1.415   3.783  16.861 -0.1274  0.3166  0.2912
 2274SOL    HW118284   1.374   3.856  16.816  0.1541 -0.1061 -0.6386
 2274SOL    HW218285   1.506   3.809  16.846 -0.5896  2.1810  0.7113
 2275SOL     OW18286   1.482   2.504  10.988 -0.0031  0.6185  0.0568
 2275SOL    HW118287   1.436   2.473  11.066  0.4399 -2.9393 -1.1079
 2275SOL    HW218288   1.503   2.418  10.953 -0.4854  0.1900  0.8242
 2276SOL     OW18289   0.526   1.939  14.967 -0.2971 -0.2807  0.4700
 2276SOL    HW118290   0.553   1.865  14.913 -1.9711  0.2637 -1.1044
 2276SOL    HW218291   0.472   1.983  14.901  1.5830  1.2984 -0.0021
 2277SOL     OW18292   3.703   0.258   2.140  0.0387  0.7169 -0.3413
 2277SOL    HW118293   3.637   0.263   2.071  0.1970  0.7456 -0.4913
 2277SOL    HW218294   3.669   0.207   2.214 -0.3246  0.7698 -0.4725
 2278SOL     OW18295   0.376   1.304   1.613  0.1173  0.7682 -0.4479
 2278SOL    HW118296   0.323   1.361   1.557 -0.9068  0.0115 -0.2437
 2278SOL    HW218297   0.338   1.230   1.565 -2.0391  1.4544  0.1898
 2279SOL     OW18298   0.279   3.449  10.967 -0.2010 -0.4284 -0.0353
 2279SOL    HW118299   0.331   3.408  10.898  1.5970  1.1718  0.3842
 2279SOL    HW218300   0.327   3.531  10.980  0.0860 -0.9106  1.8541
 2280SOL     OW18301   0.134   3.756  12.603  0.1525 -0.0775 -0.1722
 2280SOL    HW118302   0.094   3.813  12.538 -0.7097  2.8534  2.9120
 2280SOL    HW218303   0.166   3.819  12.668 -3.3114  0.1764  1.3023
 2281SOL     OW18304   2.083   3.819   7.507  0.2601  0.0851  0.3410
 2281SOL    HW118305   1.992   3.798   7.488  0.1053  0.1684  0.9624
 2281SOL    HW218306   2.081   3.903   7.553 -3.0753 -0.8729  1.9824
 2282SOL     OW18307   1.616   0.763   1.831 -0.2053 -0.7560  0.2095
 2282SOL    HW118308   1.554   0.834   1.811  0.2326 -0.7383 -1.0570
 2282SOL    HW218309   1.641   0.732   1.744  1.5732  1.1264  0.0500
 2283SOL     OW18310   1.435   2.834   0.009 -0.0852  0.5911  0.2207
 2283SOL    HW118311   1.347   2.822   0.045  0.1958  0.2209  0.7922
 2283SOL    HW218312   1.441   2.757  17.666  2.4322 -0.6598  2.2267
 2284SOL     OW18313   2.418   0.380  16.082 -0.3425 -0.0657  0.2845
 2284SOL    HW118314   2.357   0.354  16.151  1.2687  0.1558  1.7972
 2284SOL    HW218315   2.371   0.355  16.003 -0.2836 -0.4816  0.3849
 2285SOL     OW18316   3.921   1.872   6.456 -0.1269  0.4364  0.3283
 2285SOL    HW118317   4.000   1.924   6.435  0.4780 -0.3831  0.5752
 2285SOL    HW218318   3.925   1.806   6.387 -2.1252 -0.4685  1.1082
 2286SOL     OW18319   2.168   1.336   2.944  0.3687  0.1793 -0.0769
 2286SOL    HW118320   2.156   1.273   3.015 -0.1289 -2.0016 -2.0988
 2286SOL    HW218321   2.108   1.309   2.874  2.5019 -1.9477 -1.1251
 2287SOL     OW18322   0.954   0.832  10.351  0.0856 -0.1589  0.2128
 2287SOL    HW118323   0.992   0.745  10.362 -0.7986 -0.3267  2.0191
 2287SOL    HW218324   1.001   0.856  10.271  0.5071 -1.6296  0.0290
 2288SOL     OW18325   4.042   2.511   8.695 -0.8242 -0.2760 -0.8121
 2288SOL    HW118326   4.008   2.433   8.739 -0.6185 -0.0614 -0.2772
 2288SOL    HW218327   3.973   2.577   8.704 -0.5931 -0.1086 -0.2767
 2289SOL     OW18328   0.670   0.848   3.377  0.1011 -0.2746 -0.0049
 2289SOL    HW118329   0.609   0.920   3.395 -0.3739 -1.4341  3.0014
 2289SOL    HW218330   0.711   0.891   3.302  0.8634  0.2084  0.6987
 2290SOL     OW18331   4.599   2.047   6.576 -0.5915 -0.1961 -0.1293
 2290SOL    HW118332   4.614   1.953   6.589 -0.6139 -0.4861 -2.1694
 2290SOL    HW218333   4.630   2.078   6.660  0.6659 -2.1444  0.1349
 2291SOL     OW18334   0.453   0.357   1.253  0.2248  0.7369 -0.1608
 2291SOL    HW118335   0.515   0.416   1.295  1.0433  0.8998 -1.6067
 2291SOL    HW218336   0.469   0.390   1.165 -0.6613  0.6372 -0.3637
 2292SOL     OW18337   0.985   1.441   6.844 -0.5031  0.0546 -0.6314
 2292SOL    HW118338   1.027   1.515   6.801  2.5142 -1.3144 -0.0781
 2292SOL    HW218339   0.919   1.480   6.901 -0.7245 -1.0736 -0.1015
 2293SOL     OW18340   3.914   2.859  16.926 -0.2150  0.7568 -0.0602
 2293SOL    HW118341   3.936   2.895  17.012  0.8446 -3.1797  1.2918
 2293SOL    HW218342   3.952   2.930  16.873 -1.6572  0.8211 -0.9944
 2294SOL     OW18343   1.730   0.960   4.391 -0.1687 -0.3127 -0.3907
 2294SOL    HW118344   1.670   1.017   4.344  0.4972  1.0555  0.4185
 2294SOL    HW218345   1.771   0.914   4.318  3.4856  3.0449 -0.3964
 2295SOL     OW18346   2.842   4.352   2.582  0.5131  0.3519  0.0387
 2295SOL    HW118347   2.763   4.378   2.534  0.5165 -0.7346 -0.5576
 2295SOL    HW218348   2.901   4.413   2.536  0.8608 -0.6643 -0.8510
 2296SOL     OW18349   4.502   1.376   6.978  0.3107 -0.2384  0.0774
 2296SOL    HW118350   4.500   1.354   6.885 -0.7093 -2.2833  0.5872
 2296SOL    HW218351   4.497   1.287   7.012 -2.8284 -0.3925 -0.7417
 2297SOL     OW18352   0.693   2.461  16.578 -1.0974 -0.2525  0.9141
 2297SOL    HW118353   0.676   2.379  16.624  0.4292 -1.3843 -0.5524
 2297SOL    HW218354   0.757   2.436  16.511 -1.6410 -2.2650  1.1367
 2298SOL     OW18355   4.621   4.081   5.285 -0.1891  0.0125 -0.2563
 2298SOL    HW118356   4.696   4.140   5.282 -1.0644  1.2761  3.3655
 2298SOL    HW218357   4.632   4.043   5.197 -0.9231 -1.4222  0.2772
 2299SOL     OW18358   3.687   2.521   7.258  0.3698  0.1856  0.3847
 2299SOL    HW118359   3.654   2.603   7.295 -2.0400 -0.2217 -0.8535
 2299SOL    HW218360   3.781   2.536   7.270  0.6278 -0.1047 -1.2936
 2300SOL     OW18361   4.340   3.886   4.815 -0.1434  0.5654  0.0202
 2300SOL    HW118362   4.369   3.860   4.903  0.6442 -0.5839 -0.5700
 2300SOL    HW218363   4.335   3.981   4.810  0.3457  0.5688 -0.4225
 2301SOL     OW18364   4.222   0.259   2.898 -0.1519  0.0953 -0.4498
 2301SOL    HW118365   4.135   0.248   2.934  0.7522 -1.9599  1.1247
 2301SOL    HW218366   4.215   0.213   2.814 -3.7856 -0.5234  0.2103
 2302SOL     OW18367   0.086   1.576   4.483 -0.2741  0.1297  0.0224
 2302SOL    HW118368   0.001   1.614   4.505 -1.2056 -3.0190  1.7909
 2302SOL    HW218369   0.118   1.637   4.416  0.0151  0.8522  0.8269
 2303SOL     OW18370   3.651   1.890   7.222 -0.4782  0.0070  1.0631
 2303SOL    HW118371   3.689   1.893   7.309  2.6198  2.6058 -0.3931
 2303SOL    HW218372   3.558   1.877   7.240 -0.6688 -0.1791 -0.0200
 2304SOL     OW18373   4.302   2.671   0.655  0.2353 -0.4459  0.1407
 2304SOL    HW118374   4.207   2.666   0.647  0.5922  0.0058 -4.4676
 2304SOL    HW218375   4.318   2.589   0.608 -0.8371 -0.6995  0.2165
 2305SOL     OW18376   0.438   2.666   7.541 -0.3419 -0.0474 -0.0994
 2305SOL    HW118377   0.494   2.627   7.608 -1.1685 -0.7805  0.1619
 2305SOL    HW218378   0.411   2.580   7.507  1.5425 -0.4760 -0.5267
 2306SOL     OW18379   0.212   0.205   6.073  0.3671  0.7369 -0.1216
 2306SOL    HW118380   0.206   0.298   6.094  0.3023  0.6744  0.1392
 2306SOL    HW218381   0.126   0.195   6.032  0.8615 -2.0625 -0.5118
 2307SOL     OW18382   3.817   1.029   8.820 -0.7668  0.2384  0.5430
 2307SOL    HW118383   3.887   0.967   8.798 -0.7505 -0.7849  3.4747
 2307SOL    HW218384   3.736   0.982   8.800 -0.9400 -0.1369  2.1199
 2308SOL     OW18385   2.317   2.238  17.284 -0.2908  0.1486  0.8155
 2308SOL    HW118386   2.380   2.221  17.214 -0.5839  6.0324 -0.8079
 2308SOL    HW218387   2.291   2.326  17.259 -0.7867 -0.5114 -0.9528
 2309SOL     OW18388   1.601   0.158  13.725 -1.1250 -0.2564 -0.5569
 2309SOL    HW118389   1.668   0.104  13.766  0.7757  2.8057  0.3537
 2309SOL    HW218390   1.642   0.244  13.739  0.3452 -0.9807 -0.3635
 2310SOL     OW18391   0.362   3.477  10.351 -0.2891  0.2320 -0.3083
 2310SOL    HW118392   0.366   3.565  10.313 -0.6079  0.4007  0.0508
 2310SOL    HW218393   0.439   3.482  10.407  0.5225  1.0364 -1.4913
 2311SOL     OW18394   3.800   0.815  12.710 -0.9885  0.1853  0.1093
 2311SOL    HW118395   3.754   0.789  12.630 -0.3865  0.1560 -0.2276
 2311SOL    HW218396   3.738   0.788  12.778 -2.0252 -1.2747 -1.4296
 2312SOL     OW18397   0.824   1.717  15.743 -0.0814  0.1935 -0.0406
 2312SOL    HW118398   0.894   1.697  15.806 -1.4983  1.8947  2.0947
 2312SOL    HW218399   0.853   1.670  15.666 -1.3162  0.4304 -0.6438
 2313SOL     OW18400   3.902   1.872  14.740 -0.0698  0.6667  0.0532
 2313SOL    HW118401   3.844   1.820  14.685 -0.5067  0.8565  0.3292
 2313SOL    HW218402   3.984   1.875  14.690 -1.2269 -0.4348 -1.9200
 2314SOL     OW18403   3.406   4.364   1.289 -0.2462  0.4006 -0.4457
 2314SOL    HW118404   3.404   4.273   1.317 -3.0204  0.3246 -0.8724
 2314SOL    HW218405   3.488   4.397   1.325  0.3394 -3.7015  1.9775
 2315SOL     OW18406   4.671   3.099   2.842 -0.5418  0.1827 -0.7200
 2315SOL    HW118407   0.021   3.132   2.799 -0.4515  1.8774  0.7647
 2315SOL    HW218408   4.650   3.173   2.899  0.3365  1.4193 -1.9860
 2316SOL     OW18409   4.320   1.081  16.553  0.5260  0.0892 -0.9047
 2316SOL    HW118410   4.383   1.100  16.623  2.1887  0.6342 -2.5211
 2316SOL    HW218411   4.245   1.061  16.608 -2.0453  1.4904 -3.9013
 2317SOL     OW18412   1.826   0.076   4.550 -0.6941 -0.1058 -0.0702
 2317SOL    HW118413   1.755   0.031   4.596  0.8284 -1.9953  0.4411
 2317SOL    HW218414   1.858   0.129   4.623 -0.3020  0.8441 -0.9408
 2318SOL     OW18415   4.291   3.503   4.878 -0.2528  0.0469  0.6025
 2318SOL    HW118416   4.227   3.556   4.925  0.1604 -0.4810  1.7843
 2318SOL    HW218417   4.298   3.538   4.789  1.3330  1.6192  1.3227
 2319SOL     OW18418   4.047   3.271  11.342  0.0786 -0.1290  0.2400
 2319SOL    HW118419   4.043   3.238  11.252 -0.6685 -2.8439  1.2615
 2319SOL    HW218420   4.111   3.341  11.326 -2.5330  2.0829 -0.3651
 2320SOL     OW18421   4.508   1.130  12.956  0.4856  0.0390  0.0896
 2320SOL    HW118422   4.572   1.165  13.018  2.3976 -0.8815 -1.3733
 2320SOL    HW218423   4.553   1.133  12.871 -0.7521 -2.0745 -0.6511
 2321SOL     OW18424   3.014   0.687  17.041  0.1137  0.4861 -0.2978
 2321SOL    HW118425   3.064   0.666  17.120 -0.5727  2.2814  0.6174
 2321SOL    HW218426   3.088   0.707  16.985 -1.8730 -0.8353 -3.4287
 2322SOL     OW18427   3.460   2.178   0.594  0.2595  0.0527 -0.1840
 2322SOL    HW118428   3.483   2.131   0.515  0.9982 -0.5841  0.4071
 2322SOL    HW218429   3.365   2.167   0.599  0.2789  0.4031  1.1695
 2323SOL     OW18430   2.073   0.205   1.740  0.1096 -0.1182  0.4695
 2323SOL    HW118431   2.034   0.118   1.729  1.6129 -0.6309 -0.6514
 2323SOL    HW218432   2.072   0.236   1.650  1.1307 -1.7835 -0.1115
 2324SOL     OW18433   3.680   1.905   1.533 -0.8241 -0.0003  0.5952
 2324SOL    HW118434   3.662   1.949   1.450  2.7165 -0.0838 -0.2330
 2324SOL    HW218435   3.764   1.942   1.561 -0.0651 -0.3992 -1.1639
 2325SOL     OW18436   3.087   1.820   8.595 -0.8430 -0.4393  0.5724
 2325SOL    HW118437   3.013   1.860   8.639  0.2393  2.3778 -0.1636
 2325SOL    HW218438   3.043   1.767   8.528  1.6552 -0.7670 -0.8565
 2326SOL     OW18439   2.115   2.703  10.249  0.4209  0.1207  0.4815
 2326SOL    HW118440   2.205   2.670  10.250 -0.7836 -3.1664  0.1439
 2326SOL    HW218441   2.069   2.637  10.301  0.2856 -1.2531 -1.3718
 2327SOL     OW18442   3.485   0.563   2.246 -0.7327  0.2961 -0.1281
 2327SOL    HW118443   3.423   0.632   2.272 -1.0511 -0.2820  0.6493
 2327SOL    HW218444   3.522   0.606   2.169 -2.1868  1.1225 -0.3651
 2328SOL     OW18445   2.568   1.988   6.919 -0.3311 -0.4897 -0.2478
 2328SOL    HW118446   2.505   1.981   6.847 -0.2547  0.7336 -0.4411
 2328SOL    HW218447   2.624   2.061   6.890  0.1949 -0.7102  0.2200
 2329SOL     OW18448   3.369   3.747  14.066  0.1285 -0.2704 -0.2227
 2329SOL    HW118449   3.320   3.784  13.993  1.7754  0.3700 -0.9891
 2329SOL    HW218450   3.299   3.716  14.125  1.1377 -2.0558  0.0493
 2330SOL     OW18451   2.449   1.712   3.654  0.0324 -0.1492  0.2933
 2330SOL    HW118452   2.500   1.765   3.592  0.4439 -1.2958 -0.3411
 2330SOL    HW218453   2.360   1.716   3.619 -0.0140 -2.7253  0.1604
 2331SOL     OW18454   2.426   1.673   7.235 -0.1988 -0.5750  0.1311
 2331SOL    HW118455   2.503   1.731   7.243  0.6128 -2.1785  4.1352
 2331SOL    HW218456   2.447   1.589   7.275 -3.2676 -1.4073 -0.0406
 2332SOL     OW18457   0.226   2.567  15.673 -0.1019  0.1188 -0.3012
 2332SOL    HW118458   0.273   2.529  15.598  2.7452  0.1386  1.4795
 2332SOL    HW218459   0.288   2.543  15.742 -0.9080 -1.7118 -0.2293
 2333SOL     OW18460   2.904   3.899   7.675 -0.2050 -0.3399 -0.0909
 2333SOL    HW118461   2.870   3.824   7.724 -0.0202  0.7023  1.6271
 2333SOL    HW218462   2.822   3.917   7.628  0.5816  0.9077 -1.0138
 2334SOL     OW18463   0.552   0.155   9.027  0.0993 -0.1121 -0.1506
 2334SOL    HW118464   0.532   0.061   9.022 -1.1348  0.0294  1.8662
 2334SOL    HW218465   0.557   0.190   8.939  0.2818 -0.2338 -0.1883
 2335SOL     OW18466   1.849   3.376  13.423  0.8070 -0.2597 -0.3744
 2335SOL    HW118467   1.860   3.444  13.490  0.7287 -0.1174 -0.5085
 2335SOL    HW218468   1.779   3.414  13.370  1.0634 -0.2311 -0.6914
 2336SOL     OW18469   3.150   3.369   7.306  0.3534  0.1248  0.2232
 2336SOL    HW118470   3.057   3.354   7.289  1.1063 -1.2321 -2.6900
 2336SOL    HW218471   3.142   3.348   7.400  1.4512 -0.0933  0.2718
 2337SOL     OW18472   4.026   2.647   0.586 -0.3034  0.3357 -0.3153
 2337SOL    HW118473   3.957   2.618   0.526  1.5227  3.1690 -3.7793
 2337SOL    HW218474   3.969   2.689   0.651 -0.3152  0.0091 -0.1115
 2338SOL     OW18475   0.403   3.702  11.007 -0.7176 -0.0677  0.0549
 2338SOL    HW118476   0.481   3.754  10.988 -1.6806  0.4967 -2.3545
 2338SOL    HW218477   0.336   3.770  11.002  0.9578  1.4548 -2.0836
 2339SOL     OW18478   0.267   0.449   5.461  0.3130  0.1929  0.0676
 2339SOL    HW118479   0.208   0.376   5.482 -1.1304  0.9141 -1.4881
 2339SOL    HW218480   0.246   0.513   5.529  1.1920  1.6450 -1.0377
 2340SOL     OW18481   3.240   0.478  17.546  0.0445  0.3799  0.2064
 2340SOL    HW118482   3.306   0.546  17.530  0.3219 -0.1505 -0.9524
 2340SOL    HW218483   3.291   0.397  17.550 -1.6348 -0.6413  0.8796
 2341SOL     OW18484   1.383   2.219   7.531  0.8895  0.0036 -0.5798
 2341SOL    HW118485   1.393   2.161   7.606 -1.6748 -0.5318 -0.6529
 2341SOL    HW218486   1.395   2.305   7.571  1.3783  0.4827 -1.7730
 2342SOL     OW18487   4.085   3.463  10.459 -0.2967 -0.1679  0.6420
 2342SOL    HW118488   3.994   3.439  10.477 -0.8631  0.2689 -1.5989
 2342SOL    HW218489   4.135   3.461  10.540 -0.5310  1.8607  0.8290
 2343SOL     OW18490   2.826   1.586   2.025  0.1394 -0.3511 -0.7574
 2343SOL    HW118491   2.743   1.569   2.070 -0.5976 -0.3777 -2.1256
 2343SOL    HW218492   2.817   1.526   1.951  0.9364 -0.0877 -1.0689
 2344SOL     OW18493   3.859   3.311  13.533  0.9397 -0.0777 -0.1964
 2344SOL    HW118494   3.917   3.248  13.490 -0.5784 -0.7065 -1.3450
 2344SOL    HW218495   3.801   3.261  13.590  0.5253 -0.1821 -0.7059
 2345SOL     OW18496   2.768   3.461  15.248 -0.1119 -0.2055 -0.0964
 2345SOL    HW118497   2.768   3.519  15.172 -0.1641  1.7139  1.3673
 2345SOL    HW218498   2.674   3.443  15.250  0.0130 -0.8241  0.3209
 2346SOL     OW18499   0.695   3.015   5.010  0.3872 -0.2055  0.2546
 2346SOL    HW118500   0.761   3.012   4.941  0.5570  2.3637  0.3243
 2346SOL    HW218501   0.750   3.020   5.088 -1.3182  3.2648  1.2080
 2347SOL     OW18502   2.708   1.934  17.685 -0.4974  0.1458 -0.0866
 2347SOL    HW118503   2.690   1.964  17.596  0.5432 -0.1142 -0.3824
 2347SOL    HW218504   2.755   1.852  17.673 -1.7530 -0.5643 -0.0540
 2348SOL     OW18505   0.776   1.812   8.241 -0.1982  0.5159  0.2968
 2348SOL    HW118506   0.815   1.893   8.276  0.5999 -0.2627  1.1918
 2348SOL    HW218507   0.829   1.741   8.277  1.1905  1.9666  1.1504
 2349SOL     OW18508   4.269   3.714   7.939  0.2039  0.3719  0.2759
 2349SOL    HW118509   4.351   3.721   7.988  1.3933  0.6601 -1.7530
 2349SOL    HW218510   4.278   3.628   7.897  1.2652  0.9078 -0.6036
 2350SOL     OW18511   4.676   1.843   8.831  0.0477  0.2559  0.0946
 2350SOL    HW118512   0.016   1.793   8.786 -2.3140 -0.8984 -2.2347
 2350SOL    HW218513   4.698   1.933   8.808  0.9101 -0.5116 -2.0764
 2351SOL     OW18514   2.892   3.293   5.265 -0.5435 -0.2177 -0.2290
 2351SOL    HW118515   2.941   3.252   5.194  0.4453 -1.3840  1.1193
 2351SOL    HW218516   2.961   3.309   5.329 -0.4813  2.3582 -0.9486
 2352SOL     OW18517   0.512   3.730   7.895 -0.3211 -0.5255 -0.0577
 2352SOL    HW118518   0.591   3.714   7.946  0.6276  2.0003 -0.7142
 2352SOL    HW218519   0.550   3.726   7.807 -0.1938  1.5225 -0.1037
 2353SOL     OW18520   0.190   1.308   2.194 -0.4587  0.8806 -0.1893
 2353SOL    HW118521   0.133   1.319   2.118 -0.0760 -2.1364 -0.9272
 2353SOL    HW218522   0.223   1.219   2.187  1.0250  1.5330 -1.4360
 2354SOL     OW18523   2.236   3.400  14.976  0.0979 -0.6697 -0.3332
 2354SOL    HW118524   2.243   3.441  14.890 -0.4836 -0.4431 -0.2746
 2354SOL    HW218525   2.206   3.481  15.018  0.2562 -1.8822  2.1519
 2355SOL     OW18526   3.190   0.054   2.241 -0.2749 -0.3364 -0.2072
 2355SOL    HW118527   3.219   4.691   2.234 -1.1543 -0.5089 -1.5203
 2355SOL    HW218528   3.097   0.047   2.220 -0.0608 -1.9441 -0.7016
 2356SOL     OW18529   3.432   0.715   7.600 -0.0984  0.0819 -0.0110
 2356SOL    HW118530   3.501   0.650   7.616 -1.5097 -1.3518  0.1818
 2356SOL    HW218531   3.360   0.670   7.557 -1.1746  1.8035 -0.0017
 2357SOL     OW18532   2.397   0.813   4.587  0.1501 -0.1800 -0.2257
 2357SOL    HW118533   2.468   0.801   4.524  0.2188 -0.2794 -0.1283
 2357SOL    HW218534   2.425   0.765   4.665  1.3408 -1.3347 -1.3561
 2358SOL     OW18535   1.530   3.844   1.692  0.0986 -0.1051 -0.2634
 2358SOL    HW118536   1.514   3.791   1.770  0.9617  1.2638  0.8559
 2358SOL    HW218537   1.612   3.885   1.722  0.1666 -1.6277  1.6152
 2359SOL     OW18538   1.768   2.269   3.492  0.5609 -0.1280 -0.0713
 2359SOL    HW118539   1.800   2.219   3.417  0.0990 -0.9844  0.3109
 2359SOL    HW218540   1.798   2.359   3.477  0.3187 -0.0829 -0.2821
 2360SOL     OW18541   4.334   1.253  16.340 -0.0484 -0.2706  0.2116
 2360SOL    HW118542   4.340   1.220  16.250 -1.5280  0.6416 -0.2224
 2360SOL    HW218543   4.337   1.175  16.396 -0.9717 -0.1784  0.4015
 2361SOL     OW18544   4.089   3.647  12.276 -0.0271 -0.1083 -0.3288
 2361SOL    HW118545   4.031   3.581  12.315 -0.8980 -0.1358 -1.6633
 2361SOL    HW218546   4.138   3.674  12.354  1.9941  1.0770 -2.0076
 2362SOL     OW18547   3.518   3.842   0.433 -0.4319  0.0002  0.5767
 2362SOL    HW118548   3.563   3.758   0.423  0.0330  0.5234 -1.7353
 2362SOL    HW218549   3.494   3.862   0.343  2.1960 -1.3759 -0.4174
 2363SOL     OW18550   2.009   3.382   4.667 -0.3195  0.1169 -0.2497
 2363SOL    HW118551   2.040   3.426   4.746 -1.2560 -2.1999  1.3852
 2363SOL    HW218552   2.079   3.321   4.644 -0.2443  0.7688 -1.7683
 2364SOL     OW18553   0.861   3.956  10.246  0.5625  0.3250 -0.0923
 2364SOL    HW118554   0.800   3.992  10.310 -2.6831  0.0492 -3.0351
 2364SOL    HW218555   0.915   3.908  10.308 -0.9728  0.5173  1.3957
 2365SOL     OW18556   0.433   1.400  10.608  0.1799  0.3882 -0.2508
 2365SOL    HW118557   0.489   1.478  10.610  1.0733 -0.2814  0.3927
 2365SOL    HW218558   0.440   1.371  10.698  0.7254  1.8864  0.1845
 2366SOL     OW18559   2.158   2.359   9.056 -0.0402 -0.5875 -0.5265
 2366SOL    HW118560   2.100   2.435   9.061  0.5758 -0.0267 -1.9581
 2366SOL    HW218561   2.241   2.397   9.030 -0.6585  1.2039  0.1593
 2367SOL     OW18562   2.044   0.403   6.787  0.0430  0.5499 -0.1752
 2367SOL    HW118563   1.974   0.467   6.795 -1.0295 -0.5988 -0.3273
 2367SOL    HW218564   2.101   0.450   6.726 -0.0450  2.2835  1.0784
 2368SOL     OW18565   1.806   4.321   2.036 -0.2353  0.4430 -0.1418
 2368SOL    HW118566   1.757   4.403   2.040 -1.6826 -0.4660  0.6962
 2368SOL    HW218567   1.886   4.358   2.074  0.0845  0.7505 -1.1109
 2369SOL     OW18568   1.013   2.190   7.084 -0.0788 -0.2196 -0.2246
 2369SOL    HW118569   0.946   2.178   7.152 -1.1110  1.5236 -0.9268
 2369SOL    HW218570   1.087   2.225   7.135  0.2987 -1.3552  0.0008
 2370SOL     OW18571   0.766   3.135   1.806 -0.6110 -1.4804  0.0339
 2370SOL    HW118572   0.820   3.186   1.866  0.9471 -1.6663 -1.2247
 2370SOL    HW218573   0.833   3.070   1.788  0.4138 -0.0993 -1.1094
 2371SOL     OW18574   0.855   1.080   8.394 -0.0217 -0.5457  0.7658
 2371SOL    HW118575   0.903   1.162   8.404 -2.1230  0.9716 -1.5292
 2371SOL    HW218576   0.768   1.119   8.403  0.1266 -0.5555  2.2987
 2372SOL     OW18577   2.615   4.122   6.376  0.2689  0.4106  0.1500
 2372SOL    HW118578   2.617   4.038   6.331  0.3477 -0.1881  1.2688
 2372SOL    HW218579   2.550   4.175   6.331  0.5900 -0.7517 -1.6723
 2373SOL     OW18580   3.578   1.836   4.786 -0.1073 -0.3397 -0.3678
 2373SOL    HW118581   3.658   1.820   4.836 -0.3829 -1.7213 -0.3748
 2373SOL    HW218582   3.571   1.767   4.721  1.4445 -2.1562  1.4038
 2374SOL     OW18583   2.163   1.188   5.701  0.0286 -0.2804  0.2521
 2374SOL    HW118584   2.074   1.218   5.720  0.8187  0.4306  2.9444
 2374SOL    HW218585   2.156   1.171   5.607  0.6214  3.1139 -0.4155
 2375SOL     OW18586   0.799   3.059   5.265 -0.4716  0.0170 -0.0349
 2375SOL    HW118587   0.829   2.979   5.309 -3.1660 -0.3186  1.2000
 2375SOL    HW218588   0.881   3.109   5.272 -1.3825  1.5113 -0.0864
 2376SOL     OW18589   3.064   4.518   8.452  0.0645 -0.0664 -0.5796
 2376SOL    HW118590   2.984   4.475   8.418  0.1820 -0.0076 -0.9331
 2376SOL    HW218591   3.055   4.607   8.419 -0.7665  0.0960  0.0898
 2377SOL     OW18592   4.026   0.783   4.683  0.1416  0.0026 -0.3032
 2377SOL    HW118593   3.947   0.818   4.723  0.2690  0.9196 -0.8695
 2377SOL    HW218594   3.986   0.709   4.635 -1.6975  1.5260 -1.1214
 2378SOL     OW18595   0.149   0.225   4.090  0.4633  0.1340 -0.1165
 2378SOL    HW118596   0.088   0.294   4.116 -1.1049 -0.2669 -2.6492
 2378SOL    HW218597   0.102   0.142   4.082  0.6110  0.1599 -1.2362
 2379SOL     OW18598   4.469   4.481  16.376  0.7901  0.0189  0.2148
 2379SOL    HW118599   4.483   4.446  16.288 -2.3687  1.6165 -0.9312
 2379SOL    HW218600   4.395   4.540  16.361  1.6702  1.0823  0.0271
 2380SOL     OW18601   4.680   2.533   5.023  0.0315  0.4953 -0.0148
 2380SOL    HW118602   0.007   2.542   4.945  2.9422 -1.6152  1.8225
 2380SOL    HW218603   4.594   2.553   4.985 -0.7480 -0.2273  1.3563
 2381SOL     OW18604   0.563   3.744  13.797  0.2718  0.4668 -0.0619
 2381SOL    HW118605   0.546   3.798  13.721 -1.6749  0.2643  0.2205
 2381SOL    HW218606   0.541   3.806  13.867  1.9387  0.0294  0.8349
 2382SOL     OW18607   0.532   3.960   1.851 -0.1043 -0.3666 -0.0242
 2382SOL    HW118608   0.470   3.932   1.783  1.5675  1.2732 -2.2512
 2382SOL    HW218609   0.498   4.046   1.876  1.0046 -1.1480  4.1571
 2383SOL     OW18610   1.010   0.240   5.896  0.4227 -0.4290 -0.1524
 2383SOL    HW118611   0.979   0.199   5.815  0.5632 -0.6377 -0.1011
 2383SOL    HW218612   1.023   0.164   5.953 -0.0333 -1.8535 -1.9231
 2384SOL     OW18613   2.395   4.669   0.234  0.1393  0.0178 -0.1832
 2384SOL    HW118614   2.423   0.014   0.290  0.5916 -0.5764  0.3658
 2384SOL    HW218615   2.453   4.690   0.162  0.5321 -1.8974 -0.4285
 2385SOL     OW18616   3.792   1.436   4.386 -0.2904 -0.5248 -0.1060
 2385SOL    HW118617   3.863   1.499   4.396 -0.8672  0.3730 -1.6959
 2385SOL    HW218618   3.842   1.359   4.358  0.3170  0.0621 -0.6540
 2386SOL     OW18619   2.405   1.903   2.870  0.3021 -0.3777 -0.4669
 2386SOL    HW118620   2.388   1.812   2.845 -0.0656  0.5740 -3.6608
 2386SOL    HW218621   2.487   1.887   2.917 -0.2179 -3.1455 -0.5117
 2387SOL     OW18622   3.235   4.538   3.515 -0.1722 -0.1768  0.3004
 2387SOL    HW118623   3.194   4.613   3.472  0.4085  0.2234  0.4437
 2387SOL    HW218624   3.233   4.564   3.608  0.5567 -0.7687  0.4839
 2388SOL     OW18625   1.724   3.946   9.040  0.8869  0.3386 -0.2817
 2388SOL    HW118626   1.645   3.895   9.026 -0.7925  3.2313 -1.4467
 2388SOL    HW218627   1.761   3.885   9.104 -0.2015  0.3753  0.3785
 2389SOL     OW18628   1.384   4.679   8.818  0.1496 -0.0046  0.1006
 2389SOL    HW118629   1.424   4.710   8.899  0.9391 -0.7016 -0.0248
 2389SOL    HW218630   1.315   0.016   8.811 -0.5387 -0.7376  0.0586
 2390SOL     OW18631   1.046   0.915   5.648  0.6338  0.0866  0.0062
 2390SOL    HW118632   1.113   0.984   5.653  0.7075  0.0093  0.0941
 2390SOL    HW218633   1.069   0.860   5.723  2.1960 -0.9796 -1.2400
 2391SOL     OW18634   0.426   0.135  12.614 -0.4192  0.1381 -0.1711
 2391SOL    HW118635   0.493   0.140  12.682 -0.4498 -1.0476 -0.0472
 2391SOL    HW218636   0.470   0.102  12.536  0.6919 -0.2576  0.6224
 2392SOL     OW18637   0.330   0.319  15.045 -0.2955  0.1726  0.2970
 2392SOL    HW118638   0.343   0.292  14.954  2.1213  0.1474  0.6634
 2392SOL    HW218639   0.291   0.405  15.029  0.4880  0.2221 -1.3385
 2393SOL     OW18640   2.563   3.547  15.677 -0.1559  0.2998 -0.1296
 2393SOL    HW118641   2.509   3.560  15.599 -2.3232  0.6293  1.4017
 2393SOL    HW218642   2.650   3.529  15.641 -0.6316  0.5668 -1.4137
 2394SOL     OW18643   0.351   1.513   4.313  0.0818  0.0725 -0.3171
 2394SOL    HW118644   0.364   1.552   4.399  2.8549 -0.2634 -0.5680
 2394SOL    HW218645   0.360   1.422   4.341 -0.8208  0.0284 -0.1618
 2395SOL     OW18646   1.146   3.890   9.345 -0.0928 -0.5409  0.1410
 2395SOL    HW118647   1.126   3.796   9.350 -0.9026 -0.3483  0.4151
 2395SOL    HW218648   1.130   3.918   9.435 -0.1982  3.3288 -1.0746
 2396SOL     OW18649   3.778   0.715   3.322  0.3066  0.0942 -0.4638
 2396SOL    HW118650   3.796   0.682   3.410  0.6771 -2.4536 -1.4872
 2396SOL    HW218651   3.739   0.636   3.285 -1.5711  1.4518 -1.3403
 2397SOL     OW18652   4.676   3.201  11.802 -0.2570  0.4874 -0.4811
 2397SOL    HW118653   0.027   3.152  11.822  0.9606  1.2061 -3.5947
 2397SOL    HW218654   4.629   3.198  11.886 -0.3519 -2.8936 -0.6524
 2398SOL     OW18655   4.631   0.189   6.726 -0.4012 -0.4337  0.3107
 2398SOL    HW118656   4.646   0.095   6.741 -1.8622 -0.4659  1.6091
 2398SOL    HW218657   4.539   0.186   6.755 -0.5467 -0.9654 -0.2085
 2399SOL     OW18658   3.438   0.492   4.326 -0.1804  0.2223  0.1953
 2399SOL    HW118659   3.371   0.475   4.392  0.0186  0.7276  0.5248
 2399SOL    HW218660   3.499   0.539   4.383  1.6843 -0.4849 -1.2223
 2400SOL     OW18661   0.354   4.255   8.976  0.1809  0.2924 -0.4387
 2400SOL    HW118662   0.345   4.335   8.923  0.1667  1.3040  1.1039
 2400SOL    HW218663   0.268   4.215   8.963  0.4336  0.3612 -2.3210
 2401SOL     OW18664   3.551   4.149   9.496 -0.3660  0.2200 -0.3535
 2401SOL    HW118665   3.496   4.228   9.487  2.1128  2.2986  2.7129
 2401SOL    HW218666   3.488   4.078   9.496  0.4663 -0.5155  1.2001
 2402SOL     OW18667   4.273   4.536   3.874 -0.3503  0.1546  0.4174
 2402SOL    HW118668   4.232   4.462   3.829  0.0740  0.6586 -0.8143
 2402SOL    HW218669   4.207   4.604   3.871  0.6035  1.0504 -0.4028
 2403SOL     OW18670   2.003   1.276   4.019  0.1867 -0.4621 -0.2433
 2403SOL    HW118671   2.035   1.333   3.949  0.2341 -0.5642 -0.3048
 2403SOL    HW218672   1.971   1.206   3.962  0.8867 -0.3806 -0.7342
 2404SOL     OW18673   3.929   1.176   2.812  0.0234  0.5157 -0.6051
 2404SOL    HW118674   4.008   1.187   2.865 -0.0232  0.0784 -0.4441
 2404SOL    HW218675   3.950   1.245   2.749 -0.2110 -0.4786 -1.7806
 2405SOL     OW18676   3.129   1.250  12.638  0.2785 -0.6227  0.0293
 2405SOL    HW118677   3.183   1.324  12.667 -0.2697 -0.0222 -0.4933
 2405SOL    HW218678   3.116   1.264  12.544 -0.6395 -2.2524 -0.0879
 2406SOL     OW18679   0.370   1.318  10.870  0.3806  0.1620 -0.6715
 2406SOL    HW118680   0.429   1.329  10.945 -2.2761  0.4796  1.3549
 2406SOL    HW218681   0.342   1.231  10.901  0.3172  0.4704  0.1501
 2407SOL     OW18682   3.974   0.808   6.835  0.3196 -0.6437  0.0872
 2407SOL    HW118683   4.010   0.725   6.805  2.2266  0.3354 -0.2842
 2407SOL    HW218684   4.048   0.830   6.891 -0.7473  0.1928  1.1853
 2408SOL     OW18685   4.682   0.018   5.984  0.2394  0.1136 -0.1759
 2408SOL    HW118686   4.663   4.678   5.919 -0.2898  0.3898 -0.3095
 2408SOL    HW218687   0.005   4.698   6.049  0.4050  0.8645  0.2543
 2409SOL     OW18688   3.654   1.539   7.026 -0.0531 -0.3443 -0.9234
 2409SOL    HW118689   3.729   1.567   6.974  1.1109 -0.6479  0.5916
 2409SOL    HW218690   3.685   1.560   7.114 -1.8775 -0.3542 -0.2820
 2410SOL     OW18691   0.776   1.077   2.919  0.0946  0.6271  1.1183
 2410SOL    HW118692   0.727   1.039   2.992  0.4701  1.0392  1.5849
 2410SOL    HW218693   0.727   1.157   2.896 -4.2806 -1.6332  2.4615
 2411SOL     OW18694   4.245   0.964   5.522  0.5776 -0.1495 -0.4527
 2411SOL    HW118695   4.328   0.991   5.560  0.4537 -0.8206  0.2951
 2411SOL    HW218696   4.192   1.031   5.563  2.6911 -0.1858  2.3265
 2412SOL     OW18697   1.666   0.828   3.697 -0.3543 -0.2488  0.7871
 2412SOL    HW118698   1.656   0.786   3.611  2.7129 -2.5229  1.5518
 2412SOL    HW218699   1.587   0.808   3.747 -2.0013 -0.4472 -1.9182
 2413SOL     OW18700   2.626   3.618   8.889  0.8718  0.1465 -0.4550
 2413SOL    HW118701   2.579   3.565   8.823 -0.7902  0.5661  0.3940
 2413SOL    HW218702   2.695   3.554   8.909 -0.1127 -1.4977 -2.1978
 2414SOL     OW18703   3.923   1.090  13.215 -0.1408  0.2496 -0.3372
 2414SOL    HW118704   3.897   1.102  13.123 -0.2095 -0.6219 -0.4298
 2414SOL    HW218705   3.918   0.995  13.224 -0.1046  0.1740 -1.1406
 2415SOL     OW18706   0.369   2.389   6.904  0.0233  0.2503 -0.0600
 2415SOL    HW118707   0.405   2.301   6.899 -2.3970 -0.6963 -1.1389
 2415SOL    HW218708   0.380   2.414   6.812  1.6942 -5.1552 -1.3320
 2416SOL     OW18709   0.035   4.619   3.918  0.0224  0.1436  0.5342
 2416SOL    HW118710   0.073   4.566   3.988 -2.3194 -2.3795 -0.0760
 2416SOL    HW218711   4.691   4.557   3.907 -0.5581  0.9807 -0.3591
 2417SOL     OW18712   1.083   4.266  13.105 -0.0105  0.2158  0.0105
 2417SOL    HW118713   1.122   4.180  13.093  2.0354  1.0852  0.3827
 2417SOL    HW218714   0.991   4.239  13.102  0.1527 -0.4056  0.6015
 2418SOL     OW18715   1.885   4.174  10.608  0.3544  0.1244  0.1846
 2418SOL    HW118716   1.834   4.253  10.591  0.8753  0.9795  2.5939
 2418SOL    HW218717   1.821   4.105  10.588 -0.7285  1.0550  0.4439
 2419SOL     OW18718   3.937   3.961   3.761  0.2059  0.0693  0.0296
 2419SOL    HW118719   3.857   3.978   3.811 -1.3686  0.9494 -2.7877
 2419SOL    HW218720   3.910   3.992   3.675 -1.2357  1.1808  0.8686
 2420SOL     OW18721   2.825   4.297  12.253  0.0220  0.1336 -1.1283
 2420SOL    HW118722   2.736   4.285  12.287  0.6581 -2.0443 -0.2929
 2420SOL    HW218723   2.850   4.378  12.299 -2.7110  1.4587 -1.9525
 2421SOL     OW18724   2.583   2.209   1.369  1.0484 -0.5502 -0.1080
 2421SOL    HW118725   2.488   2.218   1.359  1.4040  2.0038 -1.0034
 2421SOL    HW218726   2.609   2.254   1.449 -1.0346  1.0640 -0.3368
 2422SOL     OW18727   2.237   3.604   7.598  0.1721  0.4754  0.5067
 2422SOL    HW118728   2.172   3.571   7.660  1.3924 -3.5615 -0.3203
 2422SOL    HW218729   2.186   3.679   7.570  1.6369  0.1241 -3.1962
 2423SOL     OW18730   3.805   2.162   7.109 -0.0805  0.1112 -0.4312
 2423SOL    HW118731   3.721   2.194   7.076 -0.2047  1.1501  0.8923
 2423SOL    HW218732   3.819   2.084   7.056  0.3980  1.0062 -1.6249
 2424SOL     OW18733   2.840   1.866   4.634  0.4842 -0.5599  0.1636
 2424SOL    HW118734   2.861   1.785   4.587 -0.4099 -1.6095  1.5451
 2424SOL    HW218735   2.867   1.931   4.570 -0.1194 -0.0028  0.4648
 2425SOL     OW18736   4.401   1.923   5.319  0.4642  0.2089  0.4349
 2425SOL    HW118737   4.416   2.014   5.346  4.9453 -1.1848  2.5150
 2425SOL    HW218738   4.427   1.928   5.227  1.6067 -4.6406  0.5274
 2426SOL     OW18739   4.674   1.743   6.904  0.2502  0.5477 -0.0551
 2426SOL    HW118740   4.625   1.707   6.978  0.5771 -0.6049 -0.4069
 2426SOL    HW218741   0.037   1.731   6.930  0.9760 -1.2049 -3.4323
 2427SOL     OW18742   1.276   3.781   6.553 -0.1447 -0.5436  0.5464
 2427SOL    HW118743   1.188   3.764   6.521  0.4697  2.2261 -2.6138
 2427SOL    HW218744   1.297   3.706   6.609  1.6830  0.1152  0.7342
 2428SOL     OW18745   2.632   3.476   9.485 -0.0861 -0.0986 -0.2784
 2428SOL    HW118746   2.559   3.523   9.443  0.4591  0.2082 -0.8756
 2428SOL    HW218747   2.662   3.542   9.548 -0.2397 -0.4660  0.1791
 2429SOL     OW18748   0.952   3.693  16.444 -0.5349  0.1186  0.1555
 2429SOL    HW118749   0.922   3.777  16.478 -2.0600 -1.6069  3.0122
 2429SOL    HW218750   0.883   3.641  16.485  0.7827 -0.7003  1.3222
 2430SOL     OW18751   0.317   2.519   5.661 -0.5590 -0.0157  0.0069
 2430SOL    HW118752   0.393   2.498   5.716 -0.5861 -1.5719 -0.5582
 2430SOL    HW218753   0.314   2.444   5.601  0.7653  0.1633 -0.2864
 2431SOL     OW18754   2.918   3.960  12.867 -0.0571  0.3342 -0.1636
 2431SOL    HW118755   2.997   3.930  12.823  0.9543  1.1537  1.1193
 2431SOL    HW218756   2.850   3.952  12.799 -0.7023  0.5553  0.4557
 2432SOL     OW18757   0.066   4.298   3.624 -0.2276 -0.0850 -0.3839
 2432SOL    HW118758   0.013   4.264   3.552  1.1052  1.2011 -1.9541
 2432SOL    HW218759   0.037   4.389   3.620 -0.6167 -0.2712 -1.6468
 2433SOL     OW18760   0.007   0.849   8.552  0.0860  0.5552  0.5867
 2433SOL    HW118761   0.067   0.775   8.561 -1.1182 -0.5249 -0.3037
 2433SOL    HW218762   4.691   0.817   8.474  3.0691 -0.4027 -0.6999
 2434SOL     OW18763   2.767   0.349  17.389 -0.3868 -0.2587  0.7121
 2434SOL    HW118764   2.843   0.344  17.448 -0.1711  2.4093  0.6578
 2434SOL    HW218765   2.799   0.419  17.332  0.6217 -0.9872  0.3767
 2435SOL     OW18766   1.486   2.218   6.519  0.5649 -0.2254 -0.0401
 2435SOL    HW118767   1.555   2.159   6.490  1.0181  0.1678  0.2174
 2435SOL    HW218768   1.532   2.302   6.514  0.6155 -0.1817  1.0856
 2436SOL     OW18769   1.744   0.347   5.559 -0.0076 -0.4774 -0.1121
 2436SOL    HW118770   1.690   0.424   5.541  0.0513 -0.5623 -0.6474
 2436SOL    HW218771   1.697   0.316   5.636  0.2602  2.9431  1.4408
 2437SOL     OW18772   0.000   0.545  12.200 -0.0245  0.1904  0.0076
 2437SOL    HW118773   4.687   0.460  12.212  1.5100 -0.5061  0.3415
 2437SOL    HW218774   0.023   0.530  12.108  0.1788  2.8197 -0.3676
 2438SOL     OW18775   1.387   4.613   8.282 -0.1112  0.0262 -0.3528
 2438SOL    HW118776   1.334   4.691   8.266 -0.1890 -0.2112 -1.2797
 2438SOL    HW218777   1.474   4.643   8.253 -0.2657  1.4599  0.6637
 2439SOL     OW18778   1.294   1.009   6.647  0.4168 -0.3298 -0.4164
 2439SOL    HW118779   1.387   0.990   6.660  0.3339 -0.0516  0.5909
 2439SOL    HW218780   1.267   0.995   6.738  0.2163 -3.4226 -0.9605
 2440SOL     OW18781   3.477   1.270   8.783 -0.3260 -0.1741  0.0453
 2440SOL    HW118782   3.511   1.234   8.701 -0.6286 -0.9881  0.2697
 2440SOL    HW218783   3.385   1.243   8.778 -0.7524  1.4122 -0.5350
 2441SOL     OW18784   4.558   3.688   5.818 -0.1378 -0.1328 -0.3147
 2441SOL    HW118785   4.644   3.692   5.777  1.4116 -0.5268  2.9292
 2441SOL    HW218786   4.505   3.735   5.754 -0.2811  1.8665  1.2873
 2442SOL     OW18787   3.809   3.299   6.042 -0.1508  0.3208  0.4789
 2442SOL    HW118788   3.713   3.292   6.039  0.0771 -1.4264 -2.8547
 2442SOL    HW218789   3.828   3.240   6.115  0.3197 -0.8497 -0.5967
 2443SOL     OW18790   0.751   0.175   0.497  0.3390 -0.5574  0.0114
 2443SOL    HW118791   0.680   0.132   0.449  1.2455 -1.1661 -0.7701
 2443SOL    HW218792   0.812   0.177   0.423  2.1217  0.4587  1.5124
 2444SOL     OW18793   4.198   1.535   4.005 -0.1343  0.0186  0.1742
 2444SOL    HW118794   4.159   1.530   4.092 -0.1953 -0.1176  0.1392
 2444SOL    HW218795   4.285   1.570   4.025 -0.1125 -0.1514  0.3795
 2445SOL     OW18796   0.521   1.709   6.452 -0.3279 -0.1299  0.5404
 2445SOL    HW118797   0.459   1.653   6.406  0.0644  1.2102 -1.6270
 2445SOL    HW218798   0.587   1.650   6.487 -1.2101 -0.6295  1.3558
 2446SOL     OW18799   3.291   1.297   8.125 -0.0091  0.2091 -0.2401
 2446SOL    HW118800   3.326   1.222   8.174  0.0221  0.9303  0.8565
 2446SOL    HW218801   3.296   1.263   8.036 -0.9475 -0.6498  0.0375
 2447SOL     OW18802   3.388   0.657   6.513 -0.2824 -0.1007  0.2002
 2447SOL    HW118803   3.399   0.744   6.475 -2.7321  0.7107  1.3647
 2447SOL    HW218804   3.295   0.646   6.493  0.2669  0.0137 -2.4139
 2448SOL     OW18805   4.199   1.232   4.139  0.0034 -0.3657 -0.4978
 2448SOL    HW118806   4.208   1.231   4.044 -3.0028  0.0987 -0.7827
 2448SOL    HW218807   4.273   1.179   4.167  0.2994 -0.1781 -0.9250
 2449SOL     OW18808   1.544   4.402   4.833  0.3554 -0.1125 -0.2241
 2449SOL    HW118809   1.461   4.449   4.831 -0.6222 -1.8566 -0.7135
 2449SOL    HW218810   1.608   4.467   4.862  0.8568 -1.5961  2.0149
 2450SOL     OW18811   2.502   4.556   3.043 -0.2633  0.0895 -0.5198
 2450SOL    HW118812   2.444   4.564   3.118 -0.3010  0.5220 -0.5970
 2450SOL    HW218813   2.592   4.550   3.076 -0.4626 -1.5824 -0.2718
 2451SOL     OW18814   3.079   0.386  13.259  0.3173  0.4040  0.0456
 2451SOL    HW118815   3.056   0.303  13.300 -2.9227  0.9488 -0.6403
 2451SOL    HW218816   3.083   0.444  13.335  0.8625  0.2634  0.1250
 2452SOL     OW18817   4.552   4.147   2.240 -0.1540 -0.5619  0.0303
 2452SOL    HW118818   4.478   4.124   2.184  0.5456 -2.0538 -0.2805
 2452SOL    HW218819   4.626   4.117   2.187 -0.4666 -2.1208  0.4792
 2453SOL     OW18820   4.082   0.567   9.223 -0.0954 -0.0788 -0.2952
 2453SOL    HW118821   4.067   0.587   9.315 -0.5517  1.1200 -0.6312
 2453SOL    HW218822   4.147   0.637   9.216  0.3203 -0.4992 -0.6375
 2454SOL     OW18823   3.409   1.871   1.328 -0.0534 -0.2030  0.1960
 2454SOL    HW118824   3.452   1.822   1.257  2.0469 -0.3282  1.5751
 2454SOL    HW218825   3.368   1.943   1.280 -1.9238 -1.2663  0.1888
 2455SOL     OW18826   1.018   2.939   6.122 -0.4145 -0.0508 -0.1708
 2455SOL    HW118827   1.110   2.915   6.118  0.0786  1.6660  1.0289
 2455SOL    HW218828   0.995   2.902   6.207  2.1897 -3.0053 -0.7711
 2456SOL     OW18829   2.054   4.007  12.261  0.1198  0.2145  0.4924
 2456SOL    HW118830   1.962   3.993  12.281  0.8294 -2.3367  1.9967
 2456SOL    HW218831   2.075   3.966  12.177 -1.1708  2.3462 -0.8808
 2457SOL     OW18832   1.899   3.818   2.392  1.0160  0.2859  0.5331
 2457SOL    HW118833   1.957   3.886   2.429 -0.6709  1.2198  1.4748
 2457SOL    HW218834   1.942   3.793   2.310  0.4056 -0.0019  0.3039
 2458SOL     OW18835   0.801   1.801   4.417  0.0322  0.1502 -0.4559
 2458SOL    HW118836   0.772   1.881   4.374 -2.6817  0.3981  1.8163
 2458SOL    HW218837   0.770   1.822   4.505  2.3766  0.3310  0.3052
 2459SOL     OW18838   2.187   1.101   1.894  0.0952 -0.0843 -0.4773
 2459SOL    HW118839   2.230   1.137   1.972 -3.1186 -0.9955  1.6939
 2459SOL    HW218840   2.114   1.159   1.873  0.2097  0.4327  0.5566
 2460SOL     OW18841   2.677   1.732  12.330  0.1359 -0.3046 -0.1273
 2460SOL    HW118842   2.707   1.678  12.403  0.3354 -2.9441 -2.1295
 2460SOL    HW218843   2.706   1.817  12.362 -2.0191  0.2792  0.2595
 2461SOL     OW18844   2.973   1.507  17.236 -0.2591  0.3488 -0.0907
 2461SOL    HW118845   3.061   1.472  17.223 -1.1958 -1.3016 -1.9463
 2461SOL    HW218846   2.935   1.472  17.155  1.0577 -3.2265  0.8075
 2462SOL     OW18847   3.225   0.345   1.894  0.1253  0.0993  0.0746
 2462SOL    HW118848   3.179   0.369   1.975 -0.1640 -1.1385  0.2811
 2462SOL    HW218849   3.229   0.249   1.894  1.2944  0.1444  1.0868
 2463SOL     OW18850   0.197   2.669  13.717  0.5149  0.8037  0.5631
 2463SOL    HW118851   0.233   2.590  13.757  3.0276  1.1292 -1.0411
 2463SOL    HW218852   0.110   2.641  13.689  0.3926  0.4450  1.3045
 2464SOL     OW18853   1.287   3.147  10.347  0.5847  0.0124  0.6082
 2464SOL    HW118854   1.377   3.174  10.329  0.1371  2.0373  1.4469
 2464SOL    HW218855   1.295   3.054  10.325  1.9502  0.4326 -0.6601
 2465SOL     OW18856   0.936   1.429   7.748 -0.1166  0.0507 -0.3525
 2465SOL    HW118857   1.027   1.453   7.732  0.3412 -1.1575  0.5179
 2465SOL    HW218858   0.901   1.420   7.659  1.6862 -1.0538 -0.9516
 2466SOL     OW18859   2.130   4.236  16.193  0.1753 -0.5812  0.4579
 2466SOL    HW118860   2.093   4.175  16.129 -1.1499 -0.5517  1.2029
 2466SOL    HW218861   2.063   4.302  16.212  1.4209  0.7176  0.4363
 2467SOL     OW18862   3.452   2.056   7.585 -0.4169  0.1382 -0.2457
 2467SOL    HW118863   3.489   2.004   7.656  0.8555  1.9308  0.3905
 2467SOL    HW218864   3.371   2.005   7.586  0.0355 -0.6348 -1.7287
 2468SOL     OW18865   3.357   3.125  17.712  0.0344  0.2039 -0.1230
 2468SOL    HW118866   3.371   3.172  17.630 -1.4555 -0.5855 -0.8304
 2468SOL    HW218867   3.340   3.202   0.052  1.7223  0.3728  0.1799
 2469SOL     OW18868   1.293   3.135   4.420  0.4256 -0.1872  0.0801
 2469SOL    HW118869   1.270   3.217   4.376 -0.3272 -0.0313  0.7563
 2469SOL    HW218870   1.204   3.101   4.436  0.6581 -1.0388 -0.4280
 2470SOL     OW18871   2.786   3.292  11.784 -0.6153  0.3386 -0.0943
 2470SOL    HW118872   2.739   3.232  11.843 -0.6712 -2.3045 -2.8177
 2470SOL    HW218873   2.778   3.370  11.839  1.4014  1.8384 -1.9443
 2471SOL     OW18874   3.992   3.378   4.317 -0.1736 -0.0595 -0.2888
 2471SOL    HW118875   3.988   3.312   4.386 -2.0008 -1.7247 -1.9849
 2471SOL    HW218876   3.935   3.448   4.349 -0.7577 -1.1866  1.1370
 2472SOL     OW18877   3.511   3.958   0.906 -0.4249 -0.4734  0.2858
 2472SOL    HW118878   3.458   4.012   0.848 -2.6954  0.1564  2.9536
 2472SOL    HW218879   3.446   3.890   0.925 -1.6916  0.7380  0.2514
 2473SOL     OW18880   4.428   0.054  10.991  0.5046  0.0847 -0.2222
 2473SOL    HW118881   4.427   0.133  11.046  2.0534 -0.0576 -0.0064
 2473SOL    HW218882   4.460   0.095  10.911 -1.2831  0.4706 -0.7325
 2474SOL     OW18883   1.606   1.193   4.149 -0.4023 -0.0345 -0.3551
 2474SOL    HW118884   1.572   1.280   4.125 -3.6006 -1.1711  0.0365
 2474SOL    HW218885   1.564   1.184   4.235 -0.8544  1.2783 -0.4357
 2475SOL     OW18886   4.297   4.696   2.313 -0.2993  0.5268 -0.3283
 2475SOL    HW118887   4.359   4.725   2.381 -1.5499 -0.4394  1.2269
 2475SOL    HW218888   4.280   4.604   2.334 -3.2006  1.3841  1.1378
 2476SOL     OW18889   3.689   4.483  17.519  0.1217 -0.2524  0.3126
 2476SOL    HW118890   3.779   4.472  17.549  0.2291 -1.1834 -0.3376
 2476SOL    HW218891   3.692   4.434  17.437 -0.9085  2.6832 -1.4805
 2477SOL     OW18892   4.610   1.130   4.933  0.8378  0.2310  0.3090
 2477SOL    HW118893   4.633   1.066   4.865  0.9530 -1.4752  1.9734
 2477SOL    HW218894   4.575   1.074   5.002 -0.0030 -1.0292 -1.1342
 2478SOL     OW18895   4.619   2.287   2.872 -0.8497  0.0442  0.0332
 2478SOL    HW118896   4.599   2.232   2.797 -1.5420 -1.9046  1.6383
 2478SOL    HW218897   4.645   2.219   2.934 -2.1221 -1.7503 -1.3860
 2479SOL     OW18898   1.648   1.497   5.306 -0.0881  0.1992  0.3539
 2479SOL    HW118899   1.570   1.493   5.252  2.3640  1.6027 -3.2529
 2479SOL    HW218900   1.680   1.586   5.296 -2.1038  0.7749 -0.8978
 2480SOL     OW18901   2.722   0.621   0.963 -0.4113 -0.2554  0.0544
 2480SOL    HW118902   2.729   0.716   0.966 -0.5667 -0.3236  2.6258
 2480SOL    HW218903   2.660   0.615   0.890 -0.1766 -1.1245 -0.0822
 2481SOL     OW18904   1.539   1.661   4.834 -0.1831 -0.1643  0.8435
 2481SOL    HW118905   1.607   1.631   4.895  0.5050 -0.2840  0.0155
 2481SOL    HW218906   1.468   1.603   4.863  0.2037 -1.1680 -0.2218
 2482SOL     OW18907   4.645   3.021   7.777  0.3386  0.1078 -0.0264
 2482SOL    HW118908   4.673   2.944   7.729 -0.7906 -1.0069  1.1147
 2482SOL    HW218909   0.001   3.066   7.765  0.2496 -0.1553 -1.6771
 2483SOL     OW18910   0.661   2.051   7.057 -0.2157  0.0255 -0.6657
 2483SOL    HW118911   0.750   2.025   7.079 -0.7908  1.4251  3.3435
 2483SOL    HW218912   0.676   2.089   6.971  0.2494  4.4072  1.3553
 2484SOL     OW18913   4.290   3.875  12.299 -0.3805  0.2343  0.4840
 2484SOL    HW118914   4.366   3.835  12.257  0.4553  0.8260  1.4204
 2484SOL    HW218915   4.295   3.836  12.386  0.9906  1.4294  0.9390
 2485SOL     OW18916   3.174   1.533   6.813  0.1404 -0.3015 -0.4352
 2485SOL    HW118917   3.241   1.541   6.881 -0.8817  2.7770  0.1888
 2485SOL    HW218918   3.172   1.441   6.785 -3.4992 -0.8463  1.7024
 2486SOL     OW18919   4.232   2.922   6.091 -0.0327  0.3305  1.1081
 2486SOL    HW118920   4.258   2.910   5.999  0.3406 -2.2125  1.5546
 2486SOL    HW218921   4.294   2.860   6.128 -0.0279 -1.7044 -2.2836
 2487SOL     OW18922   3.662   3.186   8.075  0.0125  0.8397  0.2343
 2487SOL    HW118923   3.746   3.139   8.077  1.0923  2.8170  1.1495
 2487SOL    HW218924   3.619   3.151   7.997  3.9956 -2.6169 -0.4008
 2488SOL     OW18925   2.777   2.182   4.862  0.1731 -0.4021  0.0799
 2488SOL    HW118926   2.847   2.142   4.914 -1.2515 -0.9102  1.5958
 2488SOL    HW218927   2.753   2.254   4.920  1.5359 -0.8242  1.1781
 2489SOL     OW18928   3.072   4.191  12.120  0.2677  0.3768  0.0979
 2489SOL    HW118929   3.005   4.216  12.184 -0.3903 -0.4359 -0.2716
 2489SOL    HW218930   3.135   4.148  12.177 -0.3359 -1.2308 -0.4423
 2490SOL     OW18931   2.289   4.582  10.950  0.1911  0.4334 -0.5453
 2490SOL    HW118932   2.377   4.588  10.988  0.7239 -0.3643 -1.6739
 2490SOL    HW218933   2.270   4.669  10.984 -1.7194 -1.1604  2.4596
 2491SOL     OW18934   2.300   4.355   5.804 -0.3444 -0.5621 -0.3393
 2491SOL    HW118935   2.250   4.275   5.813 -0.5794 -0.5853 -1.7647
 2491SOL    HW218936   2.292   4.400   5.888 -1.7960  0.0542 -0.8139
 2492SOL     OW18937   2.232   0.405  13.818  0.6158  1.0488  0.0066
 2492SOL    HW118938   2.237   0.481  13.760 -1.0115  0.6970 -0.5722
 2492SOL    HW218939   2.312   0.411  13.871 -1.8022 -1.5204  3.9645
 2493SOL     OW18940   2.078   3.998   6.974  0.5659  0.6970 -0.1155
 2493SOL    HW118941   2.173   3.992   6.984  0.6333  3.3301  1.1459
 2493SOL    HW218942   2.067   4.065   6.906 -1.6518 -0.1974 -0.6519
 2494SOL     OW18943   4.109   1.780   3.913  0.0520 -0.2153 -0.4901
 2494SOL    HW118944   4.156   1.702   3.943  1.2673  0.9017  0.5190
 2494SOL    HW218945   4.024   1.740   3.892  1.7557 -2.6827 -2.5665
 2495SOL     OW18946   3.977   3.025   2.740 -0.8576  0.1315 -0.7867
 2495SOL    HW118947   3.990   3.015   2.646  1.6648  2.2232 -0.6738
 2495SOL    HW218948   3.956   2.938   2.774 -0.8899  0.9321  1.2528
 2496SOL     OW18949   3.690   3.628   4.081  0.4107 -0.2218 -0.2174
 2496SOL    HW118950   3.760   3.652   4.141  1.0942 -1.1484 -0.6505
 2496SOL    HW218951   3.670   3.704   4.027  0.1974 -1.2573 -1.5998
 2497SOL     OW18952   3.456   0.820   5.008 -0.0771 -0.5778  0.0333
 2497SOL    HW118953   3.363   0.824   5.028 -0.7766 -1.5216 -3.0922
 2497SOL    HW218954   3.473   0.780   5.093  3.2264  1.0591  0.1561
 2498SOL     OW18955   2.259   3.785   7.285 -0.2441 -0.4713 -0.6083
 2498SOL    HW118956   2.343   3.813   7.322 -0.0511  0.1532 -1.5032
 2498SOL    HW218957   2.201   3.825   7.349  0.9985  0.0316  0.1990
 2499SOL     OW18958   1.069   1.471   4.224  0.1713  0.3734 -0.1241
 2499SOL    HW118959   1.135   1.519   4.274  0.4539  0.4446 -0.5629
 2499SOL    HW218960   1.007   1.542   4.204 -3.7492 -2.3523  2.3731
 2500SOL     OW18961   2.877   0.215  15.272  0.2393 -0.5559 -0.1176
 2500SOL    HW118962   2.811   0.218  15.340  1.6090  0.3975  1.1823
 2500SOL    HW218963   2.875   0.307  15.246  1.0065 -0.4198  0.2853
 2501SOL     OW18964   3.455   1.933   3.975 -0.4033  0.1834  0.0568
 2501SOL    HW118965   3.378   1.893   4.015 -1.7334  1.2495 -1.4176
 2501SOL    HW218966   3.482   1.869   3.909 -2.1508 -1.3780  0.8469
 2502SOL     OW18967   3.250   2.357  17.457  0.2298 -0.0617 -0.0176
 2502SOL    HW118968   3.236   2.331  17.548  0.5852 -0.6202 -0.1206
 2502SOL    HW218969   3.281   2.446  17.474  0.1692  0.2474 -1.4583
 2503SOL     OW18970   0.458   4.152   4.940 -0.4957 -0.5644  0.0773
 2503SOL    HW118971   0.447   4.216   4.870 -1.4562  0.8234  1.4908
 2503SOL    HW218972   0.544   4.119   4.914 -0.0699 -0.6033  1.5128
 2504SOL     OW18973   1.540   0.096   6.475  0.1195  0.3065 -0.0306
 2504SOL    HW118974   1.604   0.070   6.541  0.9739  0.4592 -0.8075
 2504SOL    HW218975   1.585   0.048   6.405 -0.2648  1.3590 -0.9853
 2505SOL     OW18976   4.720   0.832   9.473  0.4358  0.1703  0.1434
 2505SOL    HW118977   4.654   0.788   9.526  1.2075 -2.0314 -0.7486
 2505SOL    HW218978   0.058   0.863   9.535 -1.2676  1.7171  1.1957
 2506SOL     OW18979   2.874   2.113   0.285 -0.1903  0.7984 -0.1320
 2506SOL    HW118980   2.785   2.135   0.311  0.3249  1.8201  0.7462
 2506SOL    HW218981   2.927   2.164   0.347 -1.4728  1.0699  0.7308
 2507SOL     OW18982   2.032   0.435   5.592 -0.1809 -0.2224  0.3381
 2507SOL    HW118983   1.963   0.487   5.633  0.9050  1.6387 -0.1915
 2507SOL    HW218984   2.024   0.345   5.624 -1.3521  0.2890  1.4621
 2508SOL     OW18985   3.987   2.002   6.206  0.3135 -0.1389 -0.3211
 2508SOL    HW118986   4.011   1.910   6.198  1.1064 -0.0933  1.5656
 2508SOL    HW218987   4.053   2.044   6.150  1.5550  1.4556  2.3115
 2509SOL     OW18988   3.759   4.467   8.453 -0.0064  0.4203  0.0872
 2509SOL    HW118989   3.847   4.473   8.415  0.0084  1.1819  0.2320
 2509SOL    HW218990   3.764   4.535   8.521 -0.2697  0.4564  0.0687
 2510SOL     OW18991   3.080   2.243  17.078  0.8004  0.0719 -0.3875
 2510SOL    HW118992   2.994   2.245  17.120  1.1735  1.3201  0.3354
 2510SOL    HW218993   3.097   2.336  17.096  0.0123  0.3468 -1.0631
 2511SOL     OW18994   0.798   4.492  12.267 -0.0493  0.3332 -0.6014
 2511SOL    HW118995   0.794   4.549  12.344 -0.6270 -0.3850 -0.0964
 2511SOL    HW218996   0.852   4.543  12.206 -0.4571  2.3179  0.6763
 2512SOL     OW18997   1.878   0.828   4.182 -0.0416  0.3432 -0.0489
 2512SOL    HW118998   1.883   0.837   4.087  0.6168  3.9814  0.3282
 2512SOL    HW218999   1.956   0.776   4.201 -0.4630 -0.0615  0.5368
 2513SOL     OW19000   0.638   0.031   7.135 -0.2182 -0.3343 -0.4264
 2513SOL    HW119001   0.682   0.024   7.050  1.0280 -1.3124  0.3013
 2513SOL    HW219002   0.569   4.693   7.134  1.8093 -2.4568 -0.2418
 2514SOL     OW19003   3.806   2.748   7.721  0.4044 -0.1452  0.7137
 2514SOL    HW119004   3.836   2.738   7.811 -1.7342 -0.8766  1.3528
 2514SOL    HW219005   3.803   2.656   7.694  1.6975  1.1539 -3.7701
 2515SOL     OW19006   1.621   3.728  14.003 -0.1002  0.9231 -0.4967
 2515SOL    HW119007   1.606   3.749  14.095  1.8197 -1.3623  0.3706
 2515SOL    HW219008   1.644   3.635  14.006 -0.7986  0.6608 -3.6162
 2516SOL     OW19009   1.137   4.106  15.644 -0.1800  0.4799 -0.5545
 2516SOL    HW119010   1.185   4.164  15.704  1.1073 -0.5987 -0.5498
 2516SOL    HW219011   1.205   4.084  15.581 -0.6278  0.3609 -1.0005
 2517SOL     OW19012   0.550   0.766  11.608 -0.0847 -0.0140 -1.0445
 2517SOL    HW119013   0.478   0.821  11.580 -2.4453 -1.4435  2.1966
 2517SOL    HW219014   0.623   0.820  11.579 -1.4840  2.8604  0.8027
 2518SOL     OW19015   0.565   0.682  13.869 -0.1095  0.2690 -0.1637
 2518SOL    HW119016   0.554   0.758  13.811 -1.0142  1.4004  1.4930
 2518SOL    HW219017   0.660   0.675  13.877 -0.4930 -0.7603  3.2129
 2519SOL     OW19018   2.668   1.166  16.477  0.4611 -0.7306 -0.6554
 2519SOL    HW119019   2.650   1.175  16.571 -1.5595 -0.6678 -1.0552
 2519SOL    HW219020   2.610   1.230  16.436  0.6174  0.5312  1.0585
 2520SOL     OW19021   4.174   2.697   6.655 -0.1980 -0.0288 -0.7536
 2520SOL    HW119022   4.148   2.710   6.564 -2.3635 -0.3377 -0.1740
 2520SOL    HW219023   4.159   2.603   6.662  1.3331 -0.1558  0.7332
 2521SOL     OW19024   0.067   2.378   7.049 -0.1398 -0.4640  0.1613
 2521SOL    HW119025   0.039   2.403   6.961 -2.0274 -3.2220 -0.0310
 2521SOL    HW219026   0.061   2.457   7.102 -2.3755  0.8235 -1.9997
 2522SOL     OW19027   0.585   3.998   2.716 -0.3754  0.2728  0.2093
 2522SOL    HW119028   0.647   4.059   2.758  0.1778 -2.0605  2.7636
 2522SOL    HW219029   0.635   3.989   2.635 -2.1345 -0.5256 -0.7871
 2523SOL     OW19030   1.676   0.764  17.647 -0.0419 -0.0221 -0.3313
 2523SOL    HW119031   1.713   0.852  17.638  0.8703 -0.2405  1.2707
 2523SOL    HW219032   1.668   0.761   0.029 -0.2426 -0.1125 -0.3511
 2524SOL     OW19033   1.569   3.662   9.285 -0.1699  0.0584  0.2729
 2524SOL    HW119034   1.497   3.670   9.347  1.1292 -2.1067  2.0818
 2524SOL    HW219035   1.534   3.601   9.220 -0.7173  0.6115  0.0504
 2525SOL     OW19036   1.147   4.040   1.443  0.3213 -0.8392 -0.5361
 2525SOL    HW119037   1.137   4.135   1.442  0.7996 -0.7837 -0.0138
 2525SOL    HW219038   1.242   4.040   1.431  0.3417 -0.2437 -0.3960
 2526SOL     OW19039   4.681   3.625  17.296 -0.1493 -0.5788  0.0064
 2526SOL    HW119040   4.705   3.592  17.209  0.4713 -1.2656  0.4343
 2526SOL    HW219041   4.693   3.545  17.346 -0.7020  1.1117  2.8110
 2527SOL     OW19042   2.348   3.899   3.892 -0.4141  0.2365 -0.1050
 2527SOL    HW119043   2.408   3.856   3.953  2.7502  1.1927 -2.5326
 2527SOL    HW219044   2.268   3.893   3.944 -2.8367  0.2661 -3.7784
 2528SOL     OW19045   2.058   0.801  13.717  0.0780 -0.0049 -0.5922
 2528SOL    HW119046   2.033   0.833  13.631 -1.0481  1.7934  0.4083
 2528SOL    HW219047   2.110   0.724  13.695  1.6946  0.9748 -0.1196
 2529SOL     OW19048   3.417   1.512   0.491  0.2613 -0.1147  0.0840
 2529SOL    HW119049   3.341   1.538   0.439 -0.0858 -1.8963 -0.2929
 2529SOL    HW219050   3.482   1.509   0.420 -0.3577 -1.2980 -0.4349
 2530SOL     OW19051   1.035   0.177   7.158  0.0820 -0.0810 -0.3073
 2530SOL    HW119052   1.052   0.212   7.245 -2.2535  1.1126 -0.3617
 2530SOL    HW219053   1.003   0.095   7.195 -0.1903  0.6848  1.1155
 2531SOL     OW19054   4.343   3.730   4.293  0.0166  0.0269 -0.7921
 2531SOL    HW119055   4.346   3.661   4.227  0.9972  0.5990 -1.3539
 2531SOL    HW219056   4.250   3.739   4.314 -0.4942 -1.9511 -2.2236
 2532SOL     OW19057   2.231   3.640   5.825  0.6685 -0.1018  0.0249
 2532SOL    HW119058   2.194   3.728   5.834 -1.3043 -0.7342 -1.8186
 2532SOL    HW219059   2.261   3.648   5.734 -0.0081 -3.5781 -0.5125
 2533SOL     OW19060   2.612   2.978   6.298 -0.2395  0.2324  0.2109
 2533SOL    HW119061   2.682   2.930   6.342 -0.3521 -0.1964 -0.0851
 2533SOL    HW219062   2.605   3.057   6.352  0.9283 -0.6721  1.6948
 2534SOL     OW19063   3.476   4.695   9.748 -0.2608 -0.7357  0.2287
 2534SOL    HW119064   3.548   4.645   9.710 -0.4923 -2.7540  2.4392
 2534SOL    HW219065   3.431   4.719   9.667  0.8142  0.9043  0.1105
 2535SOL     OW19066   4.519   4.138   5.018 -0.4726 -0.1190 -0.2934
 2535SOL    HW119067   4.498   4.207   5.081 -0.7965 -0.4004 -0.0857
 2535SOL    HW219068   4.514   4.186   4.936 -0.2482 -1.6085 -1.1723
 2536SOL     OW19069   1.008   1.427   1.169 -0.9705 -0.3482 -0.0676
 2536SOL    HW119070   0.958   1.477   1.233 -0.4825  0.9588 -0.7047
 2536SOL    HW219071   0.942   1.443   1.101 -0.5752 -0.0615 -0.3862
 2537SOL     OW19072   2.756   2.022   5.751 -0.5872  0.1969 -0.1689
 2537SOL    HW119073   2.779   2.113   5.766  0.0255 -0.4154  2.7482
 2537SOL    HW219074   2.843   1.981   5.752 -0.2788  0.8625  0.2369
 2538SOL     OW19075   3.145   1.332   5.447  0.2615  0.0061  0.4517
 2538SOL    HW119076   3.158   1.240   5.423 -0.5040  0.1426 -0.4991
 2538SOL    HW219077   3.230   1.357   5.409  1.0696 -0.5834  1.8557
 2539SOL     OW19078   2.766   3.610  13.258 -0.4181 -0.4199  0.2192
 2539SOL    HW119079   2.790   3.652  13.341  1.5466 -0.8357 -0.1374
 2539SOL    HW219080   2.853   3.600  13.220  0.6937 -1.0345  2.9391
 2540SOL     OW19081   3.647   4.449   8.188  0.2149  0.0339  0.6462
 2540SOL    HW119082   3.591   4.377   8.216 -1.9834  1.5174  0.0715
 2540SOL    HW219083   3.673   4.488   8.271 -1.1175 -0.6683  1.3796
 2541SOL     OW19084   1.615   1.990   6.396 -0.4048  0.1136 -0.2639
 2541SOL    HW119085   1.692   1.948   6.358 -0.2678  2.9418 -3.2412
 2541SOL    HW219086   1.553   2.008   6.325 -0.1266 -2.1566 -1.0566
 2542SOL     OW19087   1.831   4.314   9.894 -0.0191 -0.1621 -0.3714
 2542SOL    HW119088   1.870   4.401   9.909 -0.3475 -0.2182  0.7799
 2542SOL    HW219089   1.742   4.347   9.895 -0.5974 -1.7382 -0.3040
 2543SOL     OW19090   0.819   3.989   7.225 -0.2674 -0.4294  0.6321
 2543SOL    HW119091   0.724   4.001   7.220 -0.2280 -0.1983  0.4042
 2543SOL    HW219092   0.838   4.062   7.284 -2.4949  0.3673  0.3837
 2544SOL     OW19093   1.421   1.908   8.732  0.6233  0.0950  0.3583
 2544SOL    HW119094   1.450   1.885   8.821 -0.6076 -2.2279  0.1546
 2544SOL    HW219095   1.354   1.974   8.750  2.1087  1.7453 -0.2276
 2545SOL     OW19096   1.978   3.986  10.973  0.0260  0.3674 -0.2444
 2545SOL    HW119097   1.884   3.988  10.954  0.2194  0.2128 -1.2118
 2545SOL    HW219098   2.017   3.946  10.896  2.9248  1.6504  0.5502
 2546SOL     OW19099   1.058   2.567   4.811  0.3014  0.4159  0.3355
 2546SOL    HW119100   1.072   2.624   4.735 -0.2818  0.5857  0.3519
 2546SOL    HW219101   0.996   2.627   4.854  1.5516  0.2534  2.3464
 2547SOL     OW19102   2.139   0.261  17.058  0.8873 -0.4594  0.4027
 2547SOL    HW119103   2.207   0.326  17.075 -0.2024  0.1200  2.4958
 2547SOL    HW219104   2.062   0.311  17.082  0.7342 -0.4541 -0.1137
 2548SOL     OW19105   4.260   4.024   3.530 -0.1957  0.3749  0.3894
 2548SOL    HW119106   4.293   4.102   3.486  0.1360 -1.1839 -2.1266
 2548SOL    HW219107   4.215   3.980   3.458  0.2628  1.1297 -0.3549
 2549SOL     OW19108   3.845   4.224  14.740 -0.0402  0.1605 -0.2551
 2549SOL    HW119109   3.909   4.232  14.811 -2.0074  0.1954  1.4779
 2549SOL    HW219110   3.897   4.218  14.659 -0.7718 -1.1035 -0.6292
 2550SOL     OW19111   1.260   1.281   6.562  0.0512  0.0264 -0.0501
 2550SOL    HW119112   1.174   1.294   6.602 -0.1627 -0.4966 -0.3520
 2550SOL    HW219113   1.271   1.188   6.578 -0.1554  0.0127  0.0132
 2551SOL     OW19114   3.895   0.487   7.771  0.2550  0.6447  0.4642
 2551SOL    HW119115   3.957   0.417   7.751 -1.0514 -0.1655 -0.6978
 2551SOL    HW219116   3.857   0.451   7.851 -0.8627 -0.0943 -0.4140
 2552SOL     OW19117   2.192   4.487  16.799 -0.3881  0.0951  0.1630
 2552SOL    HW119118   2.152   4.454  16.719 -0.5405  3.1333 -0.9918
 2552SOL    HW219119   2.224   4.402  16.829  0.2535  1.0603  2.2260
 2553SOL     OW19120   2.266   4.093   2.014 -0.2234 -0.8519 -0.1652
 2553SOL    HW119121   2.215   4.048   1.947 -0.7118  0.7517 -0.8894
 2553SOL    HW219122   2.224   4.069   2.097  0.7298  0.7264  0.7779
 2554SOL     OW19123   0.598   2.025   6.313  0.1758  0.2691  0.2856
 2554SOL    HW119124   0.542   1.948   6.319  2.4869 -1.5662 -1.5623
 2554SOL    HW219125   0.619   2.028   6.219 -0.9336  1.9762  0.0948
 2555SOL     OW19126   2.378   3.310   4.012 -0.2389 -0.4067 -0.2620
 2555SOL    HW119127   2.296   3.353   4.035 -0.2835 -0.7524  0.2159
 2555SOL    HW219128   2.356   3.220   3.989  1.5755 -0.6537 -1.0034
 2556SOL     OW19129   1.010   0.677   2.334 -0.3344 -0.4975  0.6673
 2556SOL    HW119130   0.978   0.587   2.329  0.9678 -1.0468  2.0126
 2556SOL    HW219131   1.026   0.698   2.243 -0.0495 -0.3345  0.7542
 2557SOL     OW19132   4.630   0.610  14.137  0.6304 -0.2490  0.4315
 2557SOL    HW119133   4.712   0.597  14.089  0.9752 -1.4125  1.3286
 2557SOL    HW219134   4.585   0.664  14.073  0.2664  0.6988  1.4765
 2558SOL     OW19135   3.197   1.222  16.188 -0.1360 -0.7566 -0.6768
 2558SOL    HW119136   3.122   1.195  16.240 -0.6218  1.3675 -0.2523
 2558SOL    HW219137   3.243   1.287  16.242 -0.9940 -1.1596  0.5369
 2559SOL     OW19138   2.783   4.506   0.932 -0.4410  0.3889 -0.0308
 2559SOL    HW119139   2.861   4.554   0.958  1.8092 -1.7708 -2.7196
 2559SOL    HW219140   2.801   4.485   0.840 -1.3779  0.2724 -0.1888
 2560SOL     OW19141   1.823   3.034   7.485 -0.7641 -0.5349  0.8654
 2560SOL    HW119142   1.801   2.942   7.497  0.3163 -0.7851  0.8892
 2560SOL    HW219143   1.909   3.043   7.525 -1.1752  0.6317  1.4975
 2561SOL     OW19144   1.608   2.263   1.044  0.2374 -0.1387 -0.6483
 2561SOL    HW119145   1.624   2.357   1.039 -0.3546  0.0717  1.4200
 2561SOL    HW219146   1.631   2.237   0.955  0.1653  2.1234 -1.3079
 2562SOL     OW19147   1.881   3.200   6.109 -0.2535  0.2661  0.3600
 2562SOL    HW119148   1.899   3.281   6.157  0.8349  0.4816 -0.4147
 2562SOL    HW219149   1.919   3.142   6.176 -0.8329 -2.2623 -1.4927
 2563SOL     OW19150   0.749   0.562   0.233 -0.2663 -0.0793  0.3144
 2563SOL    HW119151   0.743   0.511   0.314  0.3289 -2.2350 -0.9916
 2563SOL    HW219152   0.750   0.485   0.175  1.8743  1.9230 -2.3055
 2564SOL     OW19153   3.183   4.555   0.335 -0.3889 -0.0033  0.6494
 2564SOL    HW119154   3.244   4.625   0.361  0.1700 -0.3658  0.3261
 2564SOL    HW219155   3.244   4.500   0.286  0.3619  0.1924  1.3639
 2565SOL     OW19156   0.354   1.293   4.489  0.0702  0.0713 -0.0566
 2565SOL    HW119157   0.265   1.270   4.516 -0.3944  2.0901  0.1526
 2565SOL    HW219158   0.400   1.249   4.560 -2.1740 -1.9629  0.1511
 2566SOL     OW19159   0.359   1.025   9.913  0.0449  0.2285  0.3166
 2566SOL    HW119160   0.313   0.951   9.952  2.3921 -1.4214 -0.0717
 2566SOL    HW219161   0.287   1.088   9.905 -0.5188 -0.2933  1.3384
 2567SOL     OW19162   3.176   1.851   2.287 -0.0092  0.3653 -0.4801
 2567SOL    HW119163   3.156   1.781   2.349  1.9114  0.7640  0.6171
 2567SOL    HW219164   3.111   1.843   2.218  0.9977 -0.3858 -1.3275
 2568SOL     OW19165   2.553   4.390  14.402  0.6139 -0.1439 -0.5143
 2568SOL    HW119166   2.463   4.404  14.372  0.6376 -1.3417 -1.1451
 2568SOL    HW219167   2.564   4.483  14.424  1.0294 -0.0943 -0.9495
 2569SOL     OW19168   1.018   1.590  16.385  0.1138 -0.0917  0.7831
 2569SOL    HW119169   1.028   1.663  16.446  2.3278  0.4532 -0.2504
 2569SOL    HW219170   1.083   1.631  16.327  0.0647  0.8367  1.3887
 2570SOL     OW19171   0.853   3.576   9.163 -0.0427  0.1975  0.6558
 2570SOL    HW119172   0.812   3.564   9.249 -1.6281 -1.0514 -0.2858
 2570SOL    HW219173   0.808   3.516   9.104 -0.2953 -0.2015  1.2604
 2571SOL     OW19174   0.236   1.964   9.330 -0.2323  0.2523  0.8720
 2571SOL    HW119175   0.228   1.920   9.414 -0.1213 -0.9996  0.2313
 2571SOL    HW219176   0.277   1.892   9.282  1.5545  1.5332  0.5063
 2572SOL     OW19177   4.419   2.940   0.643 -0.1062 -0.7309  0.0812
 2572SOL    HW119178   4.372   3.004   0.591 -1.7060 -0.9726  1.2491
 2572SOL    HW219179   4.427   2.870   0.578 -0.5657  1.3673 -2.2315
 2573SOL     OW19180   1.976   4.164   8.272 -0.4020 -0.2747 -0.4207
 2573SOL    HW119181   1.975   4.104   8.346  0.5428 -1.1265 -1.1069
 2573SOL    HW219182   1.888   4.143   8.240 -2.2308  2.8355  2.5309
 2574SOL     OW19183   3.436   0.599   4.034  0.5892 -0.0576  0.1397
 2574SOL    HW119184   3.529   0.613   4.047  1.0340 -1.5297 -1.4838
 2574SOL    HW219185   3.410   0.576   4.123 -0.7994 -0.1210 -0.2755
 2575SOL     OW19186   0.033   0.006   5.603 -0.4435 -0.4385  0.3101
 2575SOL    HW119187   4.672   0.019   5.569 -0.3120  2.9077  1.2183
 2575SOL    HW219188   0.071   4.669   5.544 -0.9322 -0.5620  0.1328
 2576SOL     OW19189   2.827   4.617   7.252  0.2863 -0.1132  0.2599
 2576SOL    HW119190   2.745   4.660   7.226 -1.0329 -1.7805  1.7182
 2576SOL    HW219191   2.804   4.527   7.272  2.8237 -0.4536  1.6242
 2577SOL     OW19192   1.076   1.903   6.759  0.0537  0.0830 -0.1665
 2577SOL    HW119193   1.009   1.934   6.698  0.6502 -1.7021 -1.7261
 2577SOL    HW219194   1.159   1.903   6.711 -1.8901 -0.2279 -3.5221
 2578SOL     OW19195   2.223   1.898   2.194 -0.0055 -0.6747 -0.1521
 2578SOL    HW119196   2.178   1.976   2.227  0.8473 -0.6524  0.9685
 2578SOL    HW219197   2.262   1.931   2.112  0.3952 -2.9031 -0.8457
 2579SOL     OW19198   4.028   0.002   4.683 -0.4570  0.2983 -0.3243
 2579SOL    HW119199   3.934   4.720   4.670 -1.1555  1.0114  4.2216
 2579SOL    HW219200   4.045   0.071   4.618  0.7164  0.4160  0.1003
 2580SOL     OW19201   0.959   0.602   3.460 -0.1049 -0.2634  0.0721
 2580SOL    HW119202   0.949   0.690   3.498  0.1536 -0.4969  0.6647
 2580SOL    HW219203   0.874   0.570   3.489 -1.1110  3.9533  1.8845
 2581SOL     OW19204   3.940   0.156   3.740 -0.3874 -0.0962  1.0826
 2581SOL    HW119205   4.006   0.220   3.767  0.2988  0.9323 -3.0368
 2581SOL    HW219206   3.958   0.164   3.646  1.7950 -1.4705  1.3905
 2582SOL     OW19207   1.245   3.111   5.381  0.0911 -0.4527 -0.0172
 2582SOL    HW119208   1.303   3.049   5.337  0.8451  0.7860 -0.7749
 2582SOL    HW219209   1.233   3.069   5.466  1.8389  1.2920  1.1002
 2583SOL     OW19210   1.162   1.344   6.246  0.3787  0.2267 -0.3515
 2583SOL    HW119211   1.229   1.318   6.309 -0.0788  1.6456  0.7198
 2583SOL    HW219212   1.147   1.266   6.193  1.8800 -1.0406  1.1056
 2584SOL     OW19213   3.336   1.000   8.522 -0.3613  0.1200 -0.1037
 2584SOL    HW119214   3.301   1.050   8.596 -0.2560  0.7282 -0.4623
 2584SOL    HW219215   3.351   0.915   8.564  3.6942 -0.3382 -2.4339
 2585SOL     OW19216   0.357   3.890   0.753 -0.3906 -0.1069  0.0090
 2585SOL    HW119217   0.444   3.887   0.714 -0.8600  1.3090 -1.1377
 2585SOL    HW219218   0.361   3.827   0.825  1.3207 -1.9232 -1.6943
 2586SOL     OW19219   3.777   1.064  15.479  0.4397  0.0856  0.0931
 2586SOL    HW119220   3.852   1.025  15.436 -1.8831 -1.9307 -2.1517
 2586SOL    HW219221   3.733   0.986  15.515 -0.0796  0.1046 -0.5086
 2587SOL     OW19222   1.556   2.693  14.508 -0.0636 -0.5276 -0.2999
 2587SOL    HW119223   1.594   2.775  14.540  1.1960 -0.5172 -1.8255
 2587SOL    HW219224   1.540   2.656  14.595  1.9333 -1.8913 -0.5309
 2588SOL     OW19225   0.639   4.297   2.696 -0.6367  0.1729  0.4433
 2588SOL    HW119226   0.716   4.295   2.638  0.1615  0.4481  1.4840
 2588SOL    HW219227   0.576   4.311   2.625  1.4523  4.5711 -0.5725
 2589SOL     OW19228   3.593   4.725  13.609  0.8905  0.0428 -0.0301
 2589SOL    HW119229   3.591   0.062  13.680 -1.7396  2.2579 -2.1211
 2589SOL    HW219230   3.688   4.725  13.597  0.6324  0.8969 -2.1176
 2590SOL     OW19231   3.241   3.076   2.596  0.4434 -0.5592 -0.8982
 2590SOL    HW119232   3.182   3.149   2.578  0.3348 -0.7759 -1.4222
 2590SOL    HW219233   3.184   3.005   2.624 -1.0468  1.3298  0.8070
 2591SOL     OW19234   0.137   1.062  12.226  0.9144 -0.2618  0.1860
 2591SOL    HW119235   0.152   1.029  12.138  2.0793  0.3622  0.1496
 2591SOL    HW219236   0.176   1.149  12.222 -0.8963  0.4968 -0.8211
 2592SOL     OW19237   1.798   3.696  16.404 -0.0973  0.1387 -0.7816
 2592SOL    HW119238   1.782   3.737  16.488  0.4277  0.3165 -0.7665
 2592SOL    HW219239   1.712   3.702  16.362 -0.2653  1.8469 -0.1765
 2593SOL     OW19240   0.702   0.259   6.740  0.1250  0.2302  0.2122
 2593SOL    HW119241   0.665   0.309   6.667  1.5950 -1.5183 -1.7620
 2593SOL    HW219242   0.790   0.296   6.750  0.6754 -1.6233  2.2771
 2594SOL     OW19243   0.391   2.338  15.595 -0.2423  0.5559  0.2582
 2594SOL    HW119244   0.354   2.257  15.630  0.4292 -0.8381 -2.2538
 2594SOL    HW219245   0.485   2.323  15.601 -0.4195 -1.3024 -1.5746
 2595SOL     OW19246   4.574   4.240  10.021  0.1977 -0.3071 -0.3619
 2595SOL    HW119247   4.483   4.239   9.990 -0.8341 -0.8939  2.7391
 2595SOL    HW219248   4.570   4.299  10.096  2.6491  0.5704 -0.9350
 2596SOL     OW19249   4.418   2.840  14.111  0.0197 -0.4319  0.3594
 2596SOL    HW119250   4.416   2.926  14.154  1.3495 -0.5533  0.6756
 2596SOL    HW219251   4.506   2.805  14.125 -0.1451  0.6824  4.2655
 2597SOL     OW19252   4.484   2.789   5.904 -0.0011 -0.0983 -0.1333
 2597SOL    HW119253   4.520   2.817   5.819  1.5039 -1.6486  0.0031
 2597SOL    HW219254   4.490   2.694   5.903 -1.4021 -0.1911  0.9825
 2598SOL     OW19255   1.131   3.387   9.665  0.1786 -0.1416  0.5930
 2598SOL    HW119256   1.195   3.345   9.607  0.3555 -1.1696  1.5283
 2598SOL    HW219257   1.146   3.328   9.739 -1.6940  0.9723  1.8613
 2599SOL     OW19258   3.752   4.640   4.643 -0.4542 -0.2706  0.7167
 2599SOL    HW119259   3.704   4.677   4.570 -0.1600 -0.3607  0.4776
 2599SOL    HW219260   3.711   4.556   4.659  0.6104 -1.2687 -1.8616
 2600SOL     OW19261   2.408   1.378   0.143 -0.4908  0.2390 -0.3995
 2600SOL    HW119262   2.471   1.306   0.136 -1.2328 -0.5088  0.4399
 2600SOL    HW219263   2.402   1.386   0.238 -1.4816 -2.9382 -0.1684
 2601SOL     OW19264   2.408   3.250   8.252  0.4607 -0.5849 -0.2318
 2601SOL    HW119265   2.460   3.286   8.324  1.0748 -0.5108 -0.7109
 2601SOL    HW219266   2.383   3.321   8.194 -1.2952  0.1085  1.3659
 2602SOL     OW19267   1.961   0.998   2.148  0.2949 -0.4513 -0.2811
 2602SOL    HW119268   1.898   0.952   2.092  0.0984 -0.1564 -0.2997
 2602SOL    HW219269   2.042   0.971   2.105 -0.3625 -0.3889 -1.5659
 2603SOL     OW19270   2.183   2.437   7.480  0.4604  0.0100 -0.2045
 2603SOL    HW119271   2.226   2.456   7.564 -0.0175  0.1302  0.0114
 2603SOL    HW219272   2.097   2.403   7.504  0.6097  0.0947  0.4662
 2604SOL     OW19273   0.630   3.601   4.671 -0.0425  0.3332  0.2691
 2604SOL    HW119274   0.548   3.627   4.629  0.8989  1.1538 -1.0708
 2604SOL    HW219275   0.613   3.624   4.763  0.3153  0.5530  0.2816
 2605SOL     OW19276   1.398   0.685   8.316 -0.1573 -0.2975 -0.0876
 2605SOL    HW119277   1.311   0.725   8.305  0.3658  0.2905 -1.9581
 2605SOL    HW219278   1.444   0.718   8.239  0.0037 -1.3846 -0.4425
 2606SOL     OW19279   0.210   3.675   6.876 -0.1239  0.1059  0.2117
 2606SOL    HW119280   0.146   3.729   6.829 -0.4100 -0.4414 -0.0296
 2606SOL    HW219281   0.190   3.690   6.969  3.5408 -0.4676  1.0718
 2607SOL     OW19282   0.588   3.459   5.252  0.2719 -0.0008 -0.2204
 2607SOL    HW119283   0.681   3.459   5.231  0.8135  1.4917  2.2130
 2607SOL    HW219284   0.579   3.391   5.319 -0.2153  1.1874  0.9221
 2608SOL     OW19285   1.751   0.105   6.735 -0.2237 -0.7659 -0.3575
 2608SOL    HW119286   1.832   0.055   6.722  0.5039 -0.2049  2.0327
 2608SOL    HW219287   1.768   0.198   6.719  0.1332 -0.9077 -0.7992
 2609SOL     OW19288   0.048   1.716   5.633 -0.1010  0.0143  0.2596
 2609SOL    HW119289   4.699   1.765   5.605  0.3390 -0.1586 -1.2767
 2609SOL    HW219290   0.108   1.791   5.634 -0.8462  0.5785  1.8384
 2610SOL     OW19291   2.396   1.609  11.101  0.5556  0.3255 -0.9814
 2610SOL    HW119292   2.356   1.660  11.031 -5.1597 -0.6111  1.6090
 2610SOL    HW219293   2.434   1.535  11.053 -0.0788 -1.4711  1.2722
 2611SOL     OW19294   2.157   1.985   3.009  0.0795 -0.0486 -0.3016
 2611SOL    HW119295   2.242   1.964   2.972  0.1581  2.8938 -1.7342
 2611SOL    HW219296   2.166   2.072   3.048 -3.1878  0.0169  0.3985
 2612SOL     OW19297   2.175   3.906   1.473 -0.1901 -0.0438  0.2992
 2612SOL    HW119298   2.146   3.972   1.535 -1.1188 -0.0942 -0.0902
 2612SOL    HW219299   2.228   3.856   1.535  1.0738 -0.3325 -0.9926
 2613SOL     OW19300   4.674   0.210   7.111  0.1936 -0.0696  0.9822
 2613SOL    HW119301   4.679   0.122   7.073  3.0750  1.1351 -1.3565
 2613SOL    HW219302   4.663   0.253   7.026  1.5433 -0.8741  0.4005
 2614SOL     OW19303   3.774   1.344   5.638 -0.2795 -0.2769 -0.7611
 2614SOL    HW119304   3.854   1.330   5.587  0.2512  1.9597 -0.5322
 2614SOL    HW219305   3.810   1.360   5.725  2.0142 -0.1773 -1.7308
 2615SOL     OW19306   0.605   4.151   9.817 -0.1642 -0.3326 -0.0320
 2615SOL    HW119307   0.554   4.145   9.736 -1.3106  1.7996  0.5305
 2615SOL    HW219308   0.540   4.160   9.887 -0.6839  0.2163 -0.5846
 2616SOL     OW19309   4.605   4.573  15.074 -0.2609  0.2030 -0.7041
 2616SOL    HW119310   4.681   4.579  15.132 -0.1164 -0.0054 -0.8769
 2616SOL    HW219311   4.629   4.486  15.043 -0.3744  0.3236 -1.1329
 2617SOL     OW19312   3.344   3.416  12.869 -0.3096 -0.4435 -0.4815
 2617SOL    HW119313   3.440   3.418  12.866 -0.3139  2.4706  1.4055
 2617SOL    HW219314   3.322   3.501  12.831  1.4745  0.6712  0.9483
 2618SOL     OW19315   4.195   3.102   4.674 -0.4115  0.2004 -0.2005
 2618SOL    HW119316   4.273   3.052   4.650 -0.0790  0.2548  0.7866
 2618SOL    HW219317   4.207   3.150   4.756 -3.2753  1.1844 -0.3469
 2619SOL     OW19318   4.526   1.299   1.315 -0.4815 -0.2073 -0.5203
 2619SOL    HW119319   4.591   1.369   1.310  0.0450 -0.7291 -1.0229
 2619SOL    HW219320   4.480   1.298   1.232 -0.9031  0.9321 -0.3001
 2620SOL     OW19321   2.880   0.801   7.742  0.0530 -0.0887  0.1316
 2620SOL    HW119322   2.903   0.848   7.823 -0.1813 -0.3010  0.3222
 2620SOL    HW219323   2.908   0.712   7.763  1.7151  0.7910  1.6493
 2621SOL     OW19324   3.779   2.354   7.894  0.2796 -1.0404  0.4822
 2621SOL    HW119325   3.697   2.403   7.883  0.7457 -0.7856 -1.8104
 2621SOL    HW219326   3.837   2.427   7.912 -0.1348 -1.0786  1.9849
 2622SOL     OW19327   1.885   1.968   9.747 -0.4231  0.4498  0.2861
 2622SOL    HW119328   1.927   1.899   9.798 -0.0587  0.6915  0.3091
 2622SOL    HW219329   1.958   1.988   9.690 -0.2520 -0.5028  0.1628
 2623SOL     OW19330   2.329   2.693   2.094  0.2376  1.3428  0.6264
 2623SOL    HW119331   2.342   2.646   2.012 -0.6731  0.5716  0.9304
 2623SOL    HW219332   2.234   2.699   2.105  0.1773  1.6441 -0.0395
 2624SOL     OW19333   3.091   1.015   4.106  0.1448  0.4932 -0.0660
 2624SOL    HW119334   3.127   1.098   4.135 -0.9213  0.7718  0.4861
 2624SOL    HW219335   3.169   0.966   4.082  1.6597  1.8875  1.9813
 2625SOL     OW19336   3.163   0.066   1.907  0.2817 -0.0741 -0.1455
 2625SOL    HW119337   3.124   4.725   1.961  0.4146  2.2127  2.8708
 2625SOL    HW219338   3.083   0.115   1.887  1.5468  1.1828 -2.1112
 2626SOL     OW19339   3.838   3.239  10.609 -0.2035  0.3357 -0.3043
 2626SOL    HW119340   3.765   3.230  10.671 -0.7917 -1.6862 -1.2793
 2626SOL    HW219341   3.811   3.188  10.533 -0.1653  1.0253 -0.7735
 2627SOL     OW19342   1.662   2.385   0.270 -0.6974 -0.3503  0.2178
 2627SOL    HW119343   1.711   2.433   0.204 -2.5581  0.5078 -0.5323
 2627SOL    HW219344   1.583   2.439   0.267  0.2541  0.9910 -0.1705
 2628SOL     OW19345   0.052   0.284   4.926 -0.1253  0.1039  0.4417
 2628SOL    HW119346   0.133   0.333   4.938 -0.9934  1.6678 -0.1487
 2628SOL    HW219347   0.003   0.330   4.994  0.1993 -0.3198  0.9627
 2629SOL     OW19348   1.122   3.159   4.824  0.4304 -0.5932 -0.3780
 2629SOL    HW119349   1.141   3.230   4.764 -3.7396  0.8462 -0.0201
 2629SOL    HW219350   1.164   3.187   4.905 -0.9459  0.9051 -0.1690
 2630SOL     OW19351   2.367   2.024   3.822  0.4934  0.3253  0.2278
 2630SOL    HW119352   2.452   1.982   3.814 -1.1055 -2.2036 -3.2719
 2630SOL    HW219353   2.359   2.057   3.733 -0.7192  0.0888  0.2479
 2631SOL     OW19354   2.384   3.961  10.964 -0.1530 -0.0662  0.6251
 2631SOL    HW119355   2.344   4.014  11.033 -2.5239  0.9332 -1.5102
 2631SOL    HW219356   2.470   3.949  11.004  0.3308 -0.2883 -0.4837
 2632SOL     OW19357   0.655   2.346   2.818  0.7854  0.1469  0.2022
 2632SOL    HW119358   0.670   2.257   2.852  0.3573  0.2150  0.5662
 2632SOL    HW219359   0.563   2.333   2.796  0.4209  0.7184  1.3660
 2633SOL     OW19360   0.347   2.681   2.583 -0.2862  0.0403 -0.3194
 2633SOL    HW119361   0.393   2.763   2.601  1.3496 -0.5281 -1.8652
 2633SOL    HW219362   0.333   2.699   2.491  0.4319 -2.7075 -0.9773
 2634SOL     OW19363   2.321   0.985   5.402  0.3499 -0.6426  0.2559
 2634SOL    HW119364   2.294   0.894   5.402  0.3494 -0.6397 -0.5815
 2634SOL    HW219365   2.365   0.993   5.487  1.1093 -0.9234 -0.1043
 2635SOL     OW19366   2.769   2.021   8.153 -0.1184  0.1047  0.0957
 2635SOL    HW119367   2.847   2.078   8.154 -0.5220  0.6028  2.4208
 2635SOL    HW219368   2.762   2.010   8.247 -3.4287 -3.6498 -0.6164
 2636SOL     OW19369   3.368   0.331   0.971 -0.5454  0.2312 -0.0288
 2636SOL    HW119370   3.448   0.299   0.930  0.1603 -0.6264  2.0306
 2636SOL    HW219371   3.401   0.411   1.012  0.2017  0.4629 -1.0839
 2637SOL     OW19372   1.656   2.466   2.847  0.3009  0.5105  0.2565
 2637SOL    HW119373   1.568   2.436   2.871  1.1943  0.8486  3.8694
 2637SOL    HW219374   1.640   2.484   2.754  2.2089  2.2320  0.2819
 2638SOL     OW19375   3.449   1.800   2.208  0.7899 -0.4103 -0.1794
 2638SOL    HW119376   3.431   1.807   2.114  0.9321  2.6672 -0.0077
 2638SOL    HW219377   3.366   1.830   2.246  1.2865  0.2661  0.3730
 2639SOL     OW19378   2.417   0.301  16.973  0.7422 -0.3688 -0.3969
 2639SOL    HW119379   2.421   0.230  16.909 -0.5294 -1.2920  0.5448
 2639SOL    HW219380   2.445   0.377  16.922  1.6318  1.0230  2.1946
 2640SOL     OW19381   2.977   0.074   6.102 -0.0521 -0.1082 -0.0580
 2640SOL    HW119382   2.896   0.026   6.090 -0.1541 -0.5235  2.2490
 2640SOL    HW219383   2.968   0.092   6.195  0.0447 -0.9281  0.1078
 2641SOL     OW19384   0.135   3.085   9.712 -0.2402 -0.1768 -0.0850
 2641SOL    HW119385   0.200   3.046   9.654  1.5341  1.9005  0.5196
 2641SOL    HW219386   0.082   3.143   9.657 -0.2421  0.7182  0.8475
 2642SOL     OW19387   0.745   4.368   4.681  0.2525  0.5572  0.0762
 2642SOL    HW119388   0.728   4.287   4.730 -1.6332 -0.1085 -1.6947
 2642SOL    HW219389   0.701   4.332   4.605  0.8728  1.1862 -0.5811
 2643SOL     OW19390   1.227   1.818   9.712  0.4639 -0.1304  0.3502
 2643SOL    HW119391   1.159   1.843   9.650 -1.5531 -2.5023  1.6132
 2643SOL    HW219392   1.237   1.724   9.698 -0.9575 -0.1831 -0.3107
 2644SOL     OW19393   0.229   4.013  10.868  0.2412  0.2272  0.9238
 2644SOL    HW119394   0.209   3.938  10.924  0.3490  0.1742  0.8909
 2644SOL    HW219395   0.192   4.086  10.917  1.3905  0.8692  0.8513
 2645SOL     OW19396   3.918   0.849   2.436 -0.5491  0.0394  0.1227
 2645SOL    HW119397   3.896   0.863   2.528 -0.0007 -1.1193  0.4333
 2645SOL    HW219398   3.844   0.797   2.405 -1.0610  0.3325  0.8551
 2646SOL     OW19399   0.368   1.467  13.120 -0.0174  0.4986 -0.1985
 2646SOL    HW119400   0.309   1.542  13.118  0.3326  0.7962  0.5717
 2646SOL    HW219401   0.405   1.478  13.208  0.6496 -0.0796 -0.4023
 2647SOL     OW19402   3.057   1.834  16.401 -0.0021 -0.0505  0.3928
 2647SOL    HW119403   3.116   1.759  16.400 -2.2373 -1.7625 -1.1928
 2647SOL    HW219404   3.123   1.903  16.397 -0.4384  0.3030 -0.9260
 2648SOL     OW19405   0.250   2.414   7.917  0.5351 -0.4713 -0.4001
 2648SOL    HW119406   0.332   2.370   7.895  0.7449  0.6143 -1.7316
 2648SOL    HW219407   0.210   2.351   7.978  0.5010  0.6735  0.7685
 2649SOL     OW19408   4.532   3.936   3.559  0.0170 -0.3258 -0.5628
 2649SOL    HW119409   4.444   3.958   3.589  0.2750  0.0089 -0.0589
 2649SOL    HW219410   4.547   3.852   3.602 -2.2506 -0.7793 -0.6296
 2650SOL     OW19411   3.578   2.071  17.164  0.4620  0.0681  0.3037
 2650SOL    HW119412   3.636   2.078  17.088 -0.8925 -1.3193 -0.8641
 2650SOL    HW219413   3.500   2.028  17.129 -0.7345  3.0856 -0.7094
 2651SOL     OW19414   3.554   0.562   0.914  0.4976 -0.0804  0.9092
 2651SOL    HW119415   3.586   0.592   0.828 -1.6840 -0.1492  0.0634
 2651SOL    HW219416   3.581   0.471   0.910 -3.0863 -1.1676  0.8710
 2652SOL     OW19417   2.746   2.652   1.944  0.3756 -0.5411 -0.0302
 2652SOL    HW119418   2.721   2.735   1.984  2.5963 -0.5417  1.3480
 2652SOL    HW219419   2.659   2.612   1.941 -0.5275  1.5341 -1.2494
 2653SOL     OW19420   1.923   3.576  17.137  0.2854 -0.4230  0.2503
 2653SOL    HW119421   1.902   3.621  17.219  0.1633  0.0674 -0.0493
 2653SOL    HW219422   1.889   3.489  17.158 -0.6606  0.0476  0.7111
 2654SOL     OW19423   4.308   3.611   9.355 -0.2659 -0.2253  0.0150
 2654SOL    HW119424   4.286   3.592   9.446 -2.5172  0.1764 -0.4497
 2654SOL    HW219425   4.401   3.631   9.361 -0.1538 -0.6011 -0.4564
 2655SOL     OW19426   1.409   2.202   7.983 -0.2362 -0.8091 -0.8256
 2655SOL    HW119427   1.430   2.279   8.035 -0.5856 -1.0453 -0.3408
 2655SOL    HW219428   1.436   2.138   8.049 -2.1344 -0.9642 -0.2167
 2656SOL     OW19429   1.161   2.007   1.266 -0.1517 -0.2549 -0.3004
 2656SOL    HW119430   1.214   2.070   1.216  0.7351  0.3113  1.3641
 2656SOL    HW219431   1.207   2.019   1.349  0.5579  0.9535 -0.8649
 2657SOL     OW19432   4.442   3.080   5.031  0.3137 -0.7993  0.3810
 2657SOL    HW119433   4.413   3.081   5.122  1.3660 -0.5599  0.7137
 2657SOL    HW219434   4.537   3.080   5.038  0.3661  0.8812 -0.4394
 2658SOL     OW19435   1.978   3.161   1.454 -0.1908 -0.7659  0.0191
 2658SOL    HW119436   1.961   3.255   1.457  1.8260 -0.4509  1.4521
 2658SOL    HW219437   2.023   3.149   1.537 -1.0769  0.1158  0.6288
 2659SOL     OW19438   1.813   4.346   2.680  0.1662 -0.1184  0.0375
 2659SOL    HW119439   1.870   4.328   2.754  0.2174  0.3911  0.1224
 2659SOL    HW219440   1.855   4.283   2.621  0.3351  0.1894 -0.1716
 2660SOL     OW19441   4.174   3.229  15.420  0.6479  0.0392 -0.0435
 2660SOL    HW119442   4.137   3.177  15.348 -0.8247  2.1285 -0.7962
 2660SOL    HW219443   4.194   3.309  15.372  1.8948  0.0121  0.4445
 2661SOL     OW19444   0.829   1.575   0.995  0.5709 -0.0913 -0.7860
 2661SOL    HW119445   0.830   1.632   1.072 -1.1228 -0.9260 -0.1518
 2661SOL    HW219446   0.750   1.605   0.951 -0.7293 -0.1896  1.4755
 2662SOL     OW19447   1.501   1.999   8.132  0.4885  0.2946  0.0848
 2662SOL    HW119448   1.503   1.930   8.198 -0.4138 -0.5001 -0.7142
 2662SOL    HW219449   1.572   1.966   8.077 -0.3698 -0.5123 -0.5447
 2663SOL     OW19450   3.021   3.093   8.803  0.0698 -0.3603  0.4318
 2663SOL    HW119451   2.973   3.027   8.854 -1.7408  1.4623  1.0982
 2663SOL    HW219452   3.085   3.128   8.864  1.3751 -0.1928 -1.0466
 2664SOL     OW19453   4.416   2.408   6.036  0.6001 -0.2664  0.1272
 2664SOL    HW119454   4.333   2.457   6.033  0.4937 -0.4683 -0.2977
 2664SOL    HW219455   4.468   2.461   5.975  0.3208 -1.4508 -1.1459
 2665SOL     OW19456   1.613   4.010   0.396  0.3207 -0.1381 -0.1499
 2665SOL    HW119457   1.520   4.030   0.412  0.5841  2.2801 -1.6766
 2665SOL    HW219458   1.654   4.095   0.380 -1.3007  0.7615  0.4384
 2666SOL     OW19459   0.574   2.340   5.107 -0.4979 -0.1117  0.7872
 2666SOL    HW119460   0.648   2.281   5.116  1.3557  1.9255 -1.0376
 2666SOL    HW219461   0.536   2.306   5.025  1.6497  1.5676 -0.8980
 2667SOL     OW19462   1.244   4.301   1.402 -0.4475 -0.2944 -0.6477
 2667SOL    HW119463   1.159   4.335   1.433  1.8595  2.5488  2.5469
 2667SOL    HW219464   1.216   4.293   1.311 -1.1656 -0.6957 -0.3944
 2668SOL     OW19465   2.524   0.082   0.025  0.2498 -0.3938  0.2009
 2668SOL    HW119466   2.586   0.151   0.051 -0.9296  0.6200  0.3109
 2668SOL    HW219467   2.494   0.123  17.658 -0.3481 -0.4474  0.4008
 2669SOL     OW19468   0.004   4.509   4.866 -0.2930  0.0038  0.1194
 2669SOL    HW119469   4.719   4.604   4.870 -0.3402 -0.0066  0.2211
 2669SOL    HW219470   0.055   4.508   4.785  0.1375 -2.0390  0.4151
 2670SOL     OW19471   3.095   2.294   9.345  0.4765  0.7126  0.7079
 2670SOL    HW119472   3.155   2.239   9.395 -0.4532 -2.3376 -1.5397
 2670SOL    HW219473   3.158   2.353   9.305 -1.5288  2.3983  0.0636
 2671SOL     OW19474   4.544   4.107   6.019 -0.2075  0.5812 -0.0487
 2671SOL    HW119475   4.490   4.184   6.039  2.0011  1.5931  1.9330
 2671SOL    HW219476   4.630   4.143   6.037 -0.1229 -1.0236  2.7747
 2672SOL     OW19477   4.243   1.623   9.593 -0.1418 -0.1892  0.1555
 2672SOL    HW119478   4.307   1.641   9.523  0.8035 -3.1188  0.2623
 2672SOL    HW219479   4.183   1.697   9.592  0.6972  0.4876 -1.0725
 2673SOL     OW19480   0.275   1.346  15.045  0.0585 -0.0635  0.2242
 2673SOL    HW119481   0.246   1.437  15.043 -0.2865 -0.2096 -1.0744
 2673SOL    HW219482   0.355   1.356  15.096 -1.6257  2.2208  2.4528
 2674SOL     OW19483   1.431   0.809   8.020  0.1883 -0.3595  0.2331
 2674SOL    HW119484   1.348   0.824   7.974  1.2677  0.2512 -1.5227
 2674SOL    HW219485   1.492   0.819   7.946 -0.5623 -0.1372 -0.3601
 2675SOL     OW19486   1.312   3.052   0.353 -0.0507  0.3111 -0.2126
 2675SOL    HW119487   1.278   3.095   0.274 -1.6636  1.2525  0.9970
 2675SOL    HW219488   1.376   3.119   0.376 -2.8031  2.6641  0.5524
 2676SOL     OW19489   2.890   2.685  12.708  0.0166 -0.1306 -0.2619
 2676SOL    HW119490   2.857   2.760  12.757 -1.7190 -1.2024  0.2118
 2676SOL    HW219491   2.831   2.700  12.634 -0.9339 -2.0228  0.1086
 2677SOL     OW19492   4.368   3.901   5.959 -0.4164  0.0622 -0.2134
 2677SOL    HW119493   4.437   3.963   5.984 -1.9615  2.2521 -1.2965
 2677SOL    HW219494   4.424   3.827   5.940  0.1459  0.6666 -0.9027
 2678SOL     OW19495   2.669   3.936   9.863 -0.4860 -0.7068 -0.1598
 2678SOL    HW119496   2.627   3.854   9.840 -1.0435  0.3952 -3.0744
 2678SOL    HW219497   2.726   3.957   9.789 -0.6988  1.9810  0.4272
 2679SOL     OW19498   3.637   2.310   3.910 -0.5198 -0.0782  0.5447
 2679SOL    HW119499   3.692   2.309   3.832  0.9144  1.7408  1.5242
 2679SOL    HW219500   3.667   2.386   3.959 -3.3777  1.9367 -0.8138
 2680SOL     OW19501   1.607   3.726   1.216 -0.4841  0.3809  0.3025
 2680SOL    HW119502   1.658   3.735   1.297 -0.1363 -1.1543  0.2695
 2680SOL    HW219503   1.522   3.760   1.244 -0.8990  0.9574 -1.6913
 2681SOL     OW19504   0.413   4.466   7.217 -0.2885  0.1647 -0.4547
 2681SOL    HW119505   0.455   4.425   7.141  0.5074 -1.2576  0.7621
 2681SOL    HW219506   0.363   4.391   7.250  1.8066 -1.9242 -2.0369
 2682SOL     OW19507   0.112   4.125  12.881 -0.5172 -0.1459 -0.1881
 2682SOL    HW119508   0.198   4.166  12.875  0.1572 -1.4636  0.5278
 2682SOL    HW219509   0.093   4.142  12.973 -0.7190  1.4698 -0.5291
 2683SOL     OW19510   3.475   2.216   6.804 -0.6486 -0.0546 -0.1766
 2683SOL    HW119511   3.436   2.139   6.762 -0.0164  0.0712 -1.0040
 2683SOL    HW219512   3.524   2.169   6.871 -1.8077 -0.4415  0.4054
 2684SOL     OW19513   2.890   3.376   5.802  0.5393 -0.4628  0.6137
 2684SOL    HW119514   2.931   3.291   5.817  1.7252 -0.0380 -0.1305
 2684SOL    HW219515   2.943   3.442   5.846 -0.0753 -0.4574  1.3320
 2685SOL     OW19516   3.383   1.047   9.225 -0.5028  0.1904  0.9487
 2685SOL    HW119517   3.293   1.054   9.193 -0.8156  0.8859  2.0032
 2685SOL    HW219518   3.391   1.123   9.282  0.2974  3.3134 -3.3473
 2686SOL     OW19519   3.338   0.078   8.871  0.1735  0.2886  0.1384
 2686SOL    HW119520   3.253   0.033   8.876  0.8753 -1.0087  0.3098
 2686SOL    HW219521   3.366   0.065   8.780  0.6113  2.2674 -0.0062
 2687SOL     OW19522   2.265   3.634   6.448  0.0198  0.0204  0.1107
 2687SOL    HW119523   2.172   3.630   6.472  0.2445 -2.6254  0.5761
 2687SOL    HW219524   2.295   3.682   6.525  0.7945  0.5748 -0.5473
 2688SOL     OW19525   3.382   3.869   9.714 -0.1837  0.5481 -0.0726
 2688SOL    HW119526   3.381   3.884   9.620 -1.1601  0.5598 -0.0606
 2688SOL    HW219527   3.288   3.878   9.728 -0.2180 -0.9599  0.6571
 2689SOL     OW19528   0.323   0.643   2.318  0.6595  0.7642  0.0329
 2689SOL    HW119529   0.382   0.634   2.393 -0.5849  0.4140  0.9665
 2689SOL    HW219530   0.247   0.669   2.369  0.4015  0.9524 -0.4509
 2690SOL     OW19531   2.876   0.872   4.968  0.2910 -0.1877 -0.2178
 2690SOL    HW119532   2.955   0.826   4.940  1.1163  0.5791  0.8564
 2690SOL    HW219533   2.906   0.953   5.009 -0.3659  0.1585 -0.4138
 2691SOL     OW19534   1.305   2.642   6.374  0.5574 -0.6562  0.3933
 2691SOL    HW119535   1.223   2.633   6.325  1.4722  0.9327 -1.4649
 2691SOL    HW219536   1.286   2.587   6.450  0.2618 -0.0340  0.7691
 2692SOL     OW19537   0.194   2.976  11.645  0.4842  0.3889  0.2635
 2692SOL    HW119538   0.276   3.008  11.681  0.8495 -1.2928  0.9391
 2692SOL    HW219539   0.135   2.972  11.720  0.8670 -1.4923  0.4664
 2693SOL     OW19540   3.661   1.503  14.722  0.1200 -0.0662 -0.6568
 2693SOL    HW119541   3.622   1.458  14.647  0.1328  0.2106 -0.8284
 2693SOL    HW219542   3.666   1.434  14.788 -3.4303  1.1337  0.9104
 2694SOL     OW19543   2.993   2.552   7.540  0.0698 -0.1614  0.0401
 2694SOL    HW119544   2.907   2.514   7.523 -0.3788  0.2445  1.3813
 2694SOL    HW219545   2.984   2.566   7.634  0.7439  0.5190  0.0025
 2695SOL     OW19546   3.884   3.315  17.317 -0.2441 -0.0840  0.7257
 2695SOL    HW119547   3.812   3.360  17.272 -0.0302 -1.2362 -0.7868
 2695SOL    HW219548   3.934   3.384  17.362  1.7292  1.0252 -3.1718
 2696SOL     OW19549   3.180   2.057   8.872 -0.2795 -0.1784  0.2538
 2696SOL    HW119550   3.125   1.981   8.854 -0.4810  0.2462 -0.9329
 2696SOL    HW219551   3.124   2.114   8.924  0.0225  0.8250 -0.5391
 2697SOL     OW19552   3.150   4.115  10.922  0.0277 -1.0416  0.1858
 2697SOL    HW119553   3.179   4.025  10.908  0.1170 -1.2170  1.5233
 2697SOL    HW219554   3.224   4.138  10.979 -0.7572  0.2391  0.6881
 2698SOL     OW19555   1.724   3.602  12.205  0.0153  0.3562 -0.0854
 2698SOL    HW119556   1.667   3.640  12.272  1.4486  1.7914  0.3273
 2698SOL    HW219557   1.751   3.519  12.244 -0.7802  0.7991  1.4212
 2699SOL     OW19558   4.064   2.700   9.503 -0.5550  0.2975 -0.5298
 2699SOL    HW119559   4.076   2.688   9.598 -0.5473 -0.2036 -0.5922
 2699SOL    HW219560   4.140   2.755   9.487  0.9418 -1.4798  0.4061
 2700SOL     OW19561   4.220   0.466   5.290  0.4813  0.4685 -0.0363
 2700SOL    HW119562   4.264   0.449   5.374 -1.1363 -1.0786  0.4806
 2700SOL    HW219563   4.161   0.534   5.324  1.7031  0.7702  1.4887
 2701SOL     OW19564   0.850   3.365   5.183 -0.1910 -0.2386  0.1896
 2701SOL    HW119565   0.903   3.311   5.242  0.2592 -0.5873 -0.5254
 2701SOL    HW219566   0.921   3.423   5.155 -0.7428  0.4406  0.2031
 2702SOL     OW19567   3.076   4.683   5.112 -0.0877 -0.5662 -0.5324
 2702SOL    HW119568   3.057   0.039   5.153 -0.4405 -1.0469  0.3023
 2702SOL    HW219569   3.001   4.632   5.142  0.3911 -0.8673  0.1485
 2703SOL     OW19570   1.811   3.707   1.720  0.0619 -0.3544 -0.1240
 2703SOL    HW119571   1.883   3.647   1.738 -1.8415 -1.7422  2.7076
 2703SOL    HW219572   1.816   3.763   1.797 -0.2353  0.0223 -0.3825
 2704SOL     OW19573   3.664   1.308   1.548  0.1096 -0.1245  0.2095
 2704SOL    HW119574   3.708   1.393   1.549 -1.3514  0.6406 -0.3326
 2704SOL    HW219575   3.620   1.306   1.634  1.2111  2.1245  0.8144
 2705SOL     OW19576   0.762   3.922  11.234 -0.6122 -0.6543 -0.1003
 2705SOL    HW119577   0.852   3.894  11.251  0.2756  2.5817  0.4036
 2705SOL    HW219578   0.748   3.883  11.148  2.4047 -0.4101 -0.7107
 2706SOL     OW19579   4.641   1.574   9.248  0.2795 -0.2080  0.4876
 2706SOL    HW119580   4.638   1.482   9.223 -0.9536 -0.3055  0.9735
 2706SOL    HW219581   4.706   1.567   9.318  1.0196  0.2048 -0.1589
 2707SOL     OW19582   1.951   1.958   4.629 -0.2656  0.0577 -0.3132
 2707SOL    HW119583   1.868   1.948   4.676 -1.3026  3.6216 -1.4423
 2707SOL    HW219584   1.929   1.891   4.565  1.0629 -0.3031 -0.3773
 2708SOL     OW19585   3.669   2.736   2.887  0.8592 -0.1468  0.9521
 2708SOL    HW119586   3.757   2.767   2.910  1.9954 -2.7539  0.1463
 2708SOL    HW219587   3.693   2.644   2.879 -1.3022 -0.6095 -0.0586
 2709SOL     OW19588   1.445   2.032   3.467  0.2540 -0.7999 -0.1416
 2709SOL    HW119589   1.520   2.012   3.411  0.3229 -0.4614 -0.1692
 2709SOL    HW219590   1.406   2.097   3.409  0.3068 -0.2978  0.3969
 2710SOL     OW19591   1.947   0.755  10.062  0.3775 -0.5343  0.0831
 2710SOL    HW119592   2.011   0.684  10.059  1.0796  0.1446 -0.9436
 2710SOL    HW219593   1.962   0.798   9.978  1.2088  1.2669  1.1595
 2711SOL     OW19594   3.425   1.316   9.043  0.2232 -0.1608  0.4620
 2711SOL    HW119595   3.447   1.325   8.950  0.4614  1.4213  0.6581
 2711SOL    HW219596   3.330   1.307   9.039  0.1259  0.3746  1.4663
 2712SOL     OW19597   4.479   0.078  16.286  0.0939 -0.2686  0.0327
 2712SOL    HW119598   4.431   0.152  16.249 -2.0750 -1.9048 -0.4544
 2712SOL    HW219599   4.401   0.032  16.318 -0.4103  1.2086  0.9429
 2713SOL     OW19600   3.371   2.013  17.515 -0.7035 -0.5502 -0.9734
 2713SOL    HW119601   3.355   2.059  17.433 -0.0593 -0.0699 -0.8320
 2713SOL    HW219602   3.346   1.925  17.487 -1.3902 -0.6056 -0.1783
 2714SOL     OW19603   1.155   1.860   4.171 -0.5166 -0.1150 -0.3850
 2714SOL    HW119604   1.107   1.779   4.188  1.9631 -1.6963 -0.8870
 2714SOL    HW219605   1.181   1.842   4.080 -2.9755 -0.9162 -0.9471
 2715SOL     OW19606   1.219   4.196  10.231 -0.1731  0.6895  0.4633
 2715SOL    HW119607   1.137   4.223  10.271 -0.7905  1.7578 -1.4986
 2715SOL    HW219608   1.254   4.138  10.299  0.6704 -1.1993 -1.5866
 2716SOL     OW19609   3.703   1.944   5.803  0.1362 -0.3566 -0.3791
 2716SOL    HW119610   3.778   1.894   5.834  0.8265  1.8688  1.5536
 2716SOL    HW219611   3.704   2.004   5.878  1.3696  0.8654 -1.3830
 2717SOL     OW19612   3.737   1.596   2.559  0.0274 -0.0762  0.3325
 2717SOL    HW119613   3.804   1.664   2.553 -0.3384  0.0826 -1.8027
 2717SOL    HW219614   3.685   1.614   2.480 -0.2635 -2.0430  0.0647
 2718SOL     OW19615   2.896   1.294   6.328  0.2609  0.1257  0.3009
 2718SOL    HW119616   2.854   1.265   6.410 -0.0635  1.3120  0.5534
 2718SOL    HW219617   2.825   1.269   6.269  0.3180 -0.4097  0.4572
 2719SOL     OW19618   0.749   1.790  17.514 -0.4974 -0.4654  1.0084
 2719SOL    HW119619   0.838   1.759  17.527 -1.0933 -2.1132  1.1647
 2719SOL    HW219620   0.764   1.878  17.479  2.3635 -1.6620 -0.7756
 2720SOL     OW19621   4.692   3.237   7.195 -0.1544  0.2685  0.1110
 2720SOL    HW119622   4.621   3.226   7.259  0.0045 -2.3896 -0.1769
 2720SOL    HW219623   0.017   3.159   7.208 -0.3474  0.0632 -0.3516
 2721SOL     OW19624   2.067   2.167  10.865 -0.4630  0.4058  0.0367
 2721SOL    HW119625   2.037   2.217  10.941  2.1491 -0.3165  1.5449
 2721SOL    HW219626   1.985   2.134  10.829 -0.8285 -0.2532  1.4869
 2722SOL     OW19627   1.353   3.211   7.398 -0.3773  0.0112 -0.2047
 2722SOL    HW119628   1.428   3.264   7.371 -0.7563  2.0678  2.7809
 2722SOL    HW219629   1.300   3.268   7.454 -1.0571 -1.7893  1.0130
 2723SOL     OW19630   0.033   4.389   8.401  0.4076  0.3275 -0.1582
 2723SOL    HW119631   0.009   4.446   8.474 -0.2440 -0.1681  0.0017
 2723SOL    HW219632   4.688   4.331   8.384 -0.2592  0.4755  2.3179
 2724SOL     OW19633   3.171   2.789   7.266  0.4597  0.5685  0.4002
 2724SOL    HW119634   3.157   2.805   7.173  1.8084 -0.2017  0.0627
 2724SOL    HW219635   3.084   2.780   7.304  0.3512  3.4034  0.8616
 2725SOL     OW19636   2.266   3.637   3.705  0.0005  0.4197  0.6216
 2725SOL    HW119637   2.206   3.707   3.681 -0.5749 -0.3462 -0.1610
 2725SOL    HW219638   2.247   3.632   3.799  1.3236 -0.1468  0.8629
 2726SOL     OW19639   4.094   1.801   3.077 -0.4656 -0.5690  0.2556
 2726SOL    HW119640   4.189   1.787   3.073 -0.2312  0.8994  0.6969
 2726SOL    HW219641   4.073   1.754   2.997 -1.8950 -0.5263  0.6166
 2727SOL     OW19642   0.594   2.702  15.589  0.2841 -0.1001 -0.2582
 2727SOL    HW119643   0.670   2.761  15.589 -0.7175  1.1971 -2.1598
 2727SOL    HW219644   0.634   2.631  15.640  1.4308  0.7086 -0.0098
 2728SOL     OW19645   0.131   2.078   3.880  0.1597  1.0597 -0.0448
 2728SOL    HW119646   0.077   2.045   3.808 -0.9892  0.8132  0.9422
 2728SOL    HW219647   0.141   2.000   3.935  1.9768  0.0504 -1.7887
 2729SOL     OW19648   0.806   2.862  15.508 -0.0501 -0.5394  0.1923
 2729SOL    HW119649   0.754   2.920  15.453 -0.8107 -2.4117 -1.0211
 2729SOL    HW219650   0.850   2.811  15.440  0.0396 -0.5354  0.2469
 2730SOL     OW19651   1.326   2.881   2.935 -0.1128 -0.0040  0.1846
 2730SOL    HW119652   1.365   2.967   2.921 -3.2526  0.9339 -2.6212
 2730SOL    HW219653   1.242   2.914   2.903  1.3767  3.4492 -0.1923
 2731SOL     OW19654   1.996   2.346   5.543  0.1249 -0.2254 -0.5049
 2731SOL    HW119655   2.047   2.378   5.617  1.5743 -2.4375 -0.5231
 2731SOL    HW219656   2.055   2.282   5.502 -0.8220 -0.3150 -1.7077
 2732SOL     OW19657   1.137   2.578   9.637 -0.9044 -0.0497 -0.2123
 2732SOL    HW119658   1.155   2.512   9.704 -1.4548 -0.4766 -0.4892
 2732SOL    HW219659   1.227   2.588   9.605 -0.6704 -0.0020  0.4483
 2733SOL     OW19660   0.376   0.352   5.787 -0.0657  0.0807 -0.1305
 2733SOL    HW119661   0.413   0.300   5.716 -0.3356 -1.2402  0.6971
 2733SOL    HW219662   0.289   0.314   5.780  0.2637 -0.9078  0.9775
 2734SOL     OW19663   2.078   0.014  16.610  0.2862  0.6054  0.3475
 2734SOL    HW119664   2.148   4.678  16.616  0.2975  0.3200 -2.7388
 2734SOL    HW219665   2.086   0.055  16.696  0.1714 -1.2157  1.2169
 2735SOL     OW19666   1.528   1.137  13.350 -0.3313  0.0173  0.4222
 2735SOL    HW119667   1.481   1.084  13.287  2.1672 -2.4544  0.6447
 2735SOL    HW219668   1.506   1.100  13.435  0.7492 -0.0804  0.6614
 2736SOL     OW19669   3.149   1.383  11.653  0.0538 -0.1932 -0.7897
 2736SOL    HW119670   3.089   1.446  11.691 -1.4597 -1.5681 -0.9165
 2736SOL    HW219671   3.217   1.442  11.620  0.2464 -1.1702 -2.1138
 2737SOL     OW19672   4.388   0.892  13.067  0.4684  0.4099  0.3883
 2737SOL    HW119673   4.446   0.934  13.003 -0.4837 -0.8334 -1.2577
 2737SOL    HW219674   4.453   0.827  13.094  1.4641  1.1407 -0.2193
 2738SOL     OW19675   0.629   2.774   6.442  0.2076 -0.2173  0.1263
 2738SOL    HW119676   0.546   2.733   6.417 -0.4867  1.8254 -0.8512
 2738SOL    HW219677   0.604   2.802   6.529  2.1818 -0.8668  0.8985
 2739SOL     OW19678   0.833   2.472   6.032  0.3290  0.3440  0.2416
 2739SOL    HW119679   0.927   2.482   6.018  0.0941 -0.8175 -2.0741
 2739SOL    HW219680   0.813   2.424   5.952  0.7686  1.4994 -0.5633
 2740SOL     OW19681   3.849   3.480   5.806  0.5544  0.3794 -0.2019
 2740SOL    HW119682   3.810   3.418   5.868 -2.7838 -0.4476 -3.1117
 2740SOL    HW219683   3.843   3.559   5.859 -1.1663  0.3546 -0.3377
 2741SOL     OW19684   3.243   3.831  10.610  0.1552 -0.5444 -0.1101
 2741SOL    HW119685   3.206   3.829  10.522 -0.9365 -0.5148  0.3513
 2741SOL    HW219686   3.219   3.922  10.629 -2.1111 -0.4381 -3.4767
 2742SOL     OW19687   3.031   2.530  17.398  0.6401 -0.4227  0.2380
 2742SOL    HW119688   2.970   2.457  17.388  1.3320 -0.7783 -1.4265
 2742SOL    HW219689   3.111   2.493  17.360 -0.7554 -2.0694 -1.0950
 2743SOL     OW19690   1.413   2.075   1.062 -0.2798 -0.0238 -0.7299
 2743SOL    HW119691   1.354   2.144   1.031 -0.8862  0.1830  0.8658
 2743SOL    HW219692   1.482   2.127   1.103 -0.7081  1.8419 -2.3798
 2744SOL     OW19693   2.629   4.146   4.277  0.2722 -0.3397 -0.1194
 2744SOL    HW119694   2.714   4.116   4.309  0.5321 -1.3825 -1.7522
 2744SOL    HW219695   2.604   4.223   4.327 -1.0310 -1.7750  1.4278
 2745SOL     OW19696   2.563   1.042  12.090 -0.0699 -0.0518  0.7440
 2745SOL    HW119697   2.645   1.058  12.044  0.6394 -0.9143  1.7045
 2745SOL    HW219698   2.499   1.028  12.020  0.4428  0.3047  0.2111
 2746SOL     OW19699   0.413   4.410  12.700 -0.0566 -0.3203 -0.4132
 2746SOL    HW119700   0.390   4.356  12.776  1.0987  0.2154  0.3063
 2746SOL    HW219701   0.430   4.347  12.629  0.0340  0.3596 -0.9932
 2747SOL     OW19702   3.475   0.631   3.586  0.0948 -0.0695 -0.5970
 2747SOL    HW119703   3.461   0.560   3.523  2.4448  1.2666 -2.6202
 2747SOL    HW219704   3.441   0.582   3.661  0.8164  0.9556  0.4004
 2748SOL     OW19705   3.510   0.290   3.568 -0.0087 -0.0388 -0.7825
 2748SOL    HW119706   3.442   0.318   3.630 -0.6152  2.4070 -2.5402
 2748SOL    HW219707   3.489   0.197   3.578 -2.2114  0.4012 -1.3979
 2749SOL     OW19708   1.649   1.897   7.141 -0.0426 -0.1645  0.4416
 2749SOL    HW119709   1.594   1.820   7.138 -0.0327 -0.1837  0.8118
 2749SOL    HW219710   1.644   1.926   7.232  1.0986 -0.7275  0.6820
 2750SOL     OW19711   0.016   2.610   6.370 -0.5017  0.5913 -0.2273
 2750SOL    HW119712   0.067   2.533   6.395 -0.2392  0.7793 -0.1930
 2750SOL    HW219713   0.035   2.623   6.278  0.1625 -0.7385 -0.2801
 2751SOL     OW19714   1.199   0.339   9.633  0.0962  0.3189  0.9533
 2751SOL    HW119715   1.193   0.374   9.722 -0.4926  1.1003  0.6060
 2751SOL    HW219716   1.279   0.289   9.645 -1.1915 -1.5229  1.9258
 2752SOL     OW19717   0.926   3.396   8.445 -0.4416  0.2903 -0.3746
 2752SOL    HW119718   0.898   3.311   8.411 -2.0150  1.0686 -1.0342
 2752SOL    HW219719   0.865   3.466   8.418 -1.4689  0.1039  1.4565
 2753SOL     OW19720   2.824   1.912   9.941  0.1507  0.0722 -0.0312
 2753SOL    HW119721   2.832   1.839  10.002 -1.8592  1.8475  2.3868
 2753SOL    HW219722   2.912   1.949   9.940  0.4943 -0.7441 -0.1331
 2754SOL     OW19723   4.511   3.753   6.439 -0.2407  0.0634 -0.2124
 2754SOL    HW119724   4.457   3.693   6.388  0.7992  0.5729 -1.9382
 2754SOL    HW219725   4.450   3.827   6.436 -0.1593  0.2414  2.3596
 2755SOL     OW19726   2.372   2.529   5.369 -0.5050  0.2685  0.6891
 2755SOL    HW119727   2.368   2.502   5.460 -1.5690 -1.7700  0.0331
 2755SOL    HW219728   2.356   2.449   5.319  0.0379  0.7106 -0.1944
 2756SOL     OW19729   1.602   0.598  12.548 -0.1022 -0.3513 -0.1128
 2756SOL    HW119730   1.552   0.540  12.605 -0.3680  2.6094  2.6963
 2756SOL    HW219731   1.666   0.634  12.609 -0.6400 -0.1862  0.3518
 2757SOL     OW19732   2.462   3.709   4.070  0.6065  0.1700 -0.0266
 2757SOL    HW119733   2.484   3.689   4.161 -1.2691 -3.3623 -0.3120
 2757SOL    HW219734   2.408   3.633   4.047  0.7124  0.2100 -0.4080
 2758SOL     OW19735   4.633   0.676  17.258 -0.0729  0.3973 -0.0160
 2758SOL    HW119736   4.538   0.669  17.262 -0.0402 -0.1398 -0.2337
 2758SOL    HW219737   4.648   0.747  17.321  0.2503  1.8706 -1.7487
 2759SOL     OW19738   3.672   1.065   5.727 -0.5292 -0.0192 -0.6059
 2759SOL    HW119739   3.681   1.116   5.647  0.1212 -0.5248 -0.8459
 2759SOL    HW219740   3.597   1.012   5.699 -0.1465 -0.7880 -0.1739
 2760SOL     OW19741   1.453   0.793   6.144 -0.4033 -0.0005 -0.6101
 2760SOL    HW119742   1.506   0.737   6.200 -0.8426  0.2714  0.0735
 2760SOL    HW219743   1.511   0.799   6.068 -0.8193  3.0145 -0.7128
 2761SOL     OW19744   1.015   0.917   2.414 -0.0264  0.3447  0.0449
 2761SOL    HW119745   0.995   0.901   2.506 -1.5342  1.2750 -0.1152
 2761SOL    HW219746   1.012   0.828   2.379  0.7133  1.7631 -3.6385
 2762SOL     OW19747   2.538   2.740   6.503  0.3534  0.1540  0.4537
 2762SOL    HW119748   2.536   2.669   6.438  1.1876  2.3990 -1.9943
 2762SOL    HW219749   2.448   2.741   6.536  0.9026  0.4925  1.9712
 2763SOL     OW19750   3.825   2.309   3.058 -0.4455 -0.6073 -0.1312
 2763SOL    HW119751   3.851   2.217   3.055  1.4323 -0.0774  0.4244
 2763SOL    HW219752   3.753   2.310   3.121  0.7697  2.3096  1.1834
 2764SOL     OW19753   0.263   4.240   4.320  0.3190 -0.5505  0.0770
 2764SOL    HW119754   0.311   4.305   4.268 -0.5830 -0.4795 -0.6591
 2764SOL    HW219755   0.214   4.204   4.247 -1.0968  0.1701  0.6745
 2765SOL     OW19756   3.574   1.951   2.377  0.3121  0.2568  0.1003
 2765SOL    HW119757   3.527   1.944   2.460  1.0919 -0.8658  0.4452
 2765SOL    HW219758   3.532   1.893   2.313 -1.1830  1.2292  0.2077
 2766SOL     OW19759   1.937   1.931   0.593 -0.2393 -0.3994  0.0436
 2766SOL    HW119760   1.941   1.963   0.683  3.2854  0.8456 -0.5639
 2766SOL    HW219761   1.841   1.927   0.591 -0.1038 -2.9545 -1.2262
 2767SOL     OW19762   1.514   1.788   0.738  0.6768  0.4663  0.5791
 2767SOL    HW119763   1.471   1.803   0.823 -0.8128 -0.0746 -0.0833
 2767SOL    HW219764   1.550   1.700   0.744  1.3385  0.6192 -1.4011
 2768SOL     OW19765   3.139   4.635   3.142 -0.3449  0.2935  0.0719
 2768SOL    HW119766   3.209   4.606   3.084 -0.7395 -0.7703  0.1120
 2768SOL    HW219767   3.190   4.689   3.202 -0.4280  0.4002  0.0467
 2769SOL     OW19768   2.349   4.103  14.027  0.0372  0.2260  0.1012
 2769SOL    HW119769   2.291   4.172  13.994  0.0402  1.8143  3.4527
 2769SOL    HW219770   2.376   4.059  13.946 -2.1786 -0.4449 -0.2694
 2770SOL     OW19771   4.523   4.640  15.333 -0.8547 -0.5145 -0.6218
 2770SOL    HW119772   4.615   4.655  15.353 -0.7636 -0.9864 -0.6927
 2770SOL    HW219773   4.537   4.635  15.239  1.5358 -0.7516 -0.2527
 2771SOL     OW19774   3.540   2.611   2.184 -0.0646  0.7490 -0.7272
 2771SOL    HW119775   3.571   2.701   2.174 -4.6899  2.6239  1.3702
 2771SOL    HW219776   3.458   2.630   2.230  0.4664  0.5450  0.3181
 2772SOL     OW19777   1.011   3.917   7.944  0.3518  0.1762  0.4600
 2772SOL    HW119778   0.933   3.944   7.993  0.7048  0.0502  1.0932
 2772SOL    HW219779   0.986   3.827   7.921  0.5489  0.6330 -1.5910
 2773SOL     OW19780   0.730   0.689  15.450 -0.4223 -0.2903 -0.0844
 2773SOL    HW119781   0.687   0.763  15.406  0.4488 -0.1841 -0.7501
 2773SOL    HW219782   0.660   0.648  15.500  1.2573  0.2263  2.6867
 2774SOL     OW19783   3.547   1.775   6.639 -0.0804 -0.9654  0.2898
 2774SOL    HW119784   3.599   1.746   6.564 -0.6070 -2.5219  0.5218
 2774SOL    HW219785   3.485   1.702   6.648  0.9810 -1.5704  2.5691
 2775SOL     OW19786   1.716   2.124   5.314  0.0615 -0.6653  0.1825
 2775SOL    HW119787   1.694   2.152   5.403  0.4885 -0.4582  0.2224
 2775SOL    HW219788   1.800   2.084   5.334 -0.7106 -2.4281 -0.1543
 2776SOL     OW19789   4.289   1.138   8.916 -0.2276  0.3154  0.4355
 2776SOL    HW119790   4.369   1.174   8.877  1.2655 -3.2882  0.1590
 2776SOL    HW219791   4.315   1.148   9.008 -0.7136  0.9206  0.5083
 2777SOL     OW19792   0.232   4.266   6.571 -0.4086 -0.2599  0.6010
 2777SOL    HW119793   0.318   4.252   6.532 -0.0288  2.6287  0.4310
 2777SOL    HW219794   0.173   4.286   6.499 -1.0956 -0.4378  1.1134
 2778SOL     OW19795   0.241   0.358  12.202  0.4441  0.8672  0.3687
 2778SOL    HW119796   0.194   0.303  12.140  0.8939  1.8402 -0.8320
 2778SOL    HW219797   0.241   0.446  12.165 -0.0097  1.1851  1.1140
 2779SOL     OW19798   2.567   4.557  12.176  0.1015  0.5296 -0.0877
 2779SOL    HW119799   2.533   4.509  12.251  0.8302  2.4861  1.4972
 2779SOL    HW219800   2.647   4.598  12.209  0.3398  0.3497 -0.4389
 2780SOL     OW19801   4.383   4.246   2.719  0.1837 -0.7886  0.2013
 2780SOL    HW119802   4.312   4.190   2.749  1.0695 -1.2347  1.4233
 2780SOL    HW219803   4.377   4.320   2.780 -1.3408 -1.2739  0.6503
 2781SOL     OW19804   4.407   2.733   3.137 -0.4852  0.0925  0.2937
 2781SOL    HW119805   4.400   2.645   3.099 -0.3268 -0.3530  1.2993
 2781SOL    HW219806   4.466   2.782   3.080  0.2705 -0.0684  0.9406
 2782SOL     OW19807   1.021   4.021   5.207  0.6695 -0.0644  0.0248
 2782SOL    HW119808   1.032   4.036   5.114 -0.5242  1.4286  0.1152
 2782SOL    HW219809   1.095   3.961   5.213  1.0520  0.1904 -2.1315
 2783SOL     OW19810   0.470   0.903   5.313  0.1353 -0.3805  0.0291
 2783SOL    HW119811   0.548   0.848   5.302  0.4895  0.1647 -0.1991
 2783SOL    HW219812   0.493   0.958   5.239 -0.8194  0.0876  0.0866
 2784SOL     OW19813   0.919   0.282   5.274  0.2525  0.3638  0.6478
 2784SOL    HW119814   0.984   0.234   5.325  1.0967  3.1348  2.1765
 2784SOL    HW219815   0.981   0.291   5.202 -1.0795  0.2863 -0.5320
 2785SOL     OW19816   0.769   2.132  16.528 -0.5550  0.3225 -0.2405
 2785SOL    HW119817   0.837   2.068  16.509 -0.0667  0.8594 -0.3170
 2785SOL    HW219818   0.762   2.157  16.436  0.3056 -0.0037 -0.3938
 2786SOL     OW19819   4.536   2.326   3.222  0.1969  0.0417  0.9412
 2786SOL    HW119820   4.577   2.397   3.172 -0.5654 -1.0562 -1.2229
 2786SOL    HW219821   4.509   2.259   3.160  3.8456 -0.7791  0.2212
 2787SOL     OW19822   0.976   1.643   9.741  0.0105 -0.8691  0.2785
 2787SOL    HW119823   0.880   1.649   9.746  0.0341  0.6184 -0.8437
 2787SOL    HW219824   1.002   1.676   9.827  0.4998  0.7466 -0.4765
 2788SOL     OW19825   1.410   4.670   7.948 -0.1029  0.0569 -0.0866
 2788SOL    HW119826   1.409   0.029   7.909  0.8789  0.2616  0.3717
 2788SOL    HW219827   1.487   4.682   8.003 -0.2414  1.6093 -0.2361
 2789SOL     OW19828   2.867   2.832   4.092  0.4784  0.1929  0.0363
 2789SOL    HW119829   2.927   2.857   4.022  1.5127  0.8677  1.1612
 2789SOL    HW219830   2.898   2.883   4.167  0.5879  1.9700 -1.2264
 2790SOL     OW19831   2.354   3.571   4.917 -0.4197  0.6850 -0.0981
 2790SOL    HW119832   2.382   3.662   4.917 -0.7218  0.7764  0.3659
 2790SOL    HW219833   2.269   3.581   4.875 -0.3965  1.5613  0.0853
 2791SOL     OW19834   1.140   3.438   3.421 -0.4759  0.6746 -0.3946
 2791SOL    HW119835   1.045   3.436   3.418 -0.5331 -1.9959  2.3668
 2791SOL    HW219836   1.159   3.522   3.379 -2.7702  2.9714  3.2189
 2792SOL     OW19837   2.348   0.051  14.466 -0.6488  0.0928 -0.3999
 2792SOL    HW119838   2.287   0.106  14.515  0.2700  0.9450 -0.2258
 2792SOL    HW219839   2.283   0.030  14.398 -0.8081  1.0001 -0.5299
 2793SOL     OW19840   2.981   4.436   3.078  0.5333  0.9250  0.1250
 2793SOL    HW119841   3.016   4.517   3.117  3.2589  0.5495 -1.5635
 2793SOL    HW219842   2.889   4.447   3.101  0.8427  1.6079  1.0405
 2794SOL     OW19843   3.996   3.296   0.171 -0.2543 -0.6210  0.8094
 2794SOL    HW119844   4.024   3.222   0.225 -0.1619 -0.5295  0.8882
 2794SOL    HW219845   4.062   3.356   0.205  1.7105  0.5165 -5.1273
 2795SOL     OW19846   3.368   3.211   7.263 -0.0030 -0.4051 -0.2011
 2795SOL    HW119847   3.278   3.239   7.283 -0.0164 -1.6622  1.4460
 2795SOL    HW219848   3.370   3.116   7.258  0.8725 -0.4047  0.1407
 2796SOL     OW19849   2.614   3.718   4.713  0.0732  0.5235 -0.3100
 2796SOL    HW119850   2.539   3.763   4.753 -1.1852 -1.2104 -0.6884
 2796SOL    HW219851   2.621   3.772   4.634  0.8367  1.7789  0.6264
 2797SOL     OW19852   1.459   4.216   1.180 -0.2304 -0.4289 -0.2724
 2797SOL    HW119853   1.376   4.173   1.161 -1.0549  1.1706 -0.2622
 2797SOL    HW219854   1.449   4.288   1.117 -1.8924 -1.4769 -1.1978
 2798SOL     OW19855   3.518   3.675  11.066  0.0012  0.2127 -0.1526
 2798SOL    HW119856   3.560   3.598  11.027 -1.5969 -0.6051 -0.2471
 2798SOL    HW219857   3.450   3.642  11.124  0.6455  2.0743  1.6498
 2799SOL     OW19858   3.100   2.719   3.857 -0.1327  0.0086 -0.8353
 2799SOL    HW119859   3.111   2.649   3.922  0.6535  0.5993 -0.3400
 2799SOL    HW219860   3.112   2.671   3.775  0.2147 -0.8481 -0.2842
 2800SOL     OW19861   3.990   2.889   3.979 -0.1764 -0.7684 -0.7072
 2800SOL    HW119862   4.048   2.894   3.903 -0.1955  1.2280 -0.5712
 2800SOL    HW219863   3.903   2.870   3.943 -1.3515  2.5786  0.4285
 2801SOL     OW19864   3.923   4.553  16.237  0.6447  0.5257  0.2383
 2801SOL    HW119865   3.975   4.475  16.257 -0.5984 -0.5136 -0.5892
 2801SOL    HW219866   3.928   4.556  16.141  1.4655 -0.8978  0.2308
 2802SOL     OW19867   3.594   2.240  14.922 -0.0607  0.7312 -0.1781
 2802SOL    HW119868   3.641   2.312  14.880 -1.2224  1.4663 -0.2224
 2802SOL    HW219869   3.592   2.277  15.011  0.5683 -2.0247  0.9668
 2803SOL     OW19870   0.235   2.863  13.516  0.3048 -0.1083 -0.5755
 2803SOL    HW119871   0.235   2.806  13.593  1.7084  1.4104  0.5285
 2803SOL    HW219872   0.313   2.824  13.476 -0.1963  0.5005 -2.1416
 2804SOL     OW19873   4.136   4.483   5.829 -0.2700  0.0139  0.0024
 2804SOL    HW119874   4.135   4.561   5.885 -0.3390  0.1545 -0.1932
 2804SOL    HW219875   4.046   4.452   5.838 -0.5684  0.7063 -0.5489
 2805SOL     OW19876   4.021   3.805   4.849 -0.1510  0.1983  0.2378
 2805SOL    HW119877   4.108   3.843   4.861 -0.2031  0.7636 -1.2020
 2805SOL    HW219878   3.977   3.830   4.931 -0.3565  0.5748  0.0109
 2806SOL     OW19879   1.403   4.257   4.505  0.4695  0.3032  0.0711
 2806SOL    HW119880   1.351   4.191   4.551 -0.4359  1.6830  1.0423
 2806SOL    HW219881   1.348   4.283   4.431 -0.2341  0.9564  0.8188
 2807SOL     OW19882   3.818   2.620   1.781  0.5201 -0.3382 -0.0792
 2807SOL    HW119883   3.842   2.529   1.801 -0.6111 -0.7615 -0.6502
 2807SOL    HW219884   3.800   2.601   1.689 -1.0197 -0.3828  0.2397
 2808SOL     OW19885   1.483   1.253  17.203 -0.0134 -0.5969 -0.0950
 2808SOL    HW119886   1.492   1.250  17.108  2.7092  2.1124  0.0709
 2808SOL    HW219887   1.388   1.264  17.211  0.0746  0.3958 -0.4102
 2809SOL     OW19888   2.210   1.995  13.545 -0.3423  0.2498  0.0704
 2809SOL    HW119889   2.124   1.973  13.510 -0.9850  1.8077  0.6587
 2809SOL    HW219890   2.197   2.054  13.619 -1.5274 -1.2646  1.0651
 2810SOL     OW19891   1.510   3.764   3.605  0.1223  0.7356  0.0923
 2810SOL    HW119892   1.496   3.767   3.700  1.1486 -1.1893  0.3145
 2810SOL    HW219893   1.518   3.669   3.598 -0.4639  0.6185  1.0521
 2811SOL     OW19894   2.646   3.292   5.593 -0.4904 -0.0571  0.1862
 2811SOL    HW119895   2.575   3.302   5.529 -1.0009 -2.1840  0.4077
 2811SOL    HW219896   2.636   3.198   5.606 -0.2485  0.0980  1.5100
 2812SOL     OW19897   3.410   1.148   1.508  0.2005  0.4111  0.2225
 2812SOL    HW119898   3.483   1.210   1.513  0.2427  0.4417 -0.8771
 2812SOL    HW219899   3.454   1.091   1.445 -2.9600 -3.5180  1.6035
 2813SOL     OW19900   3.135   1.171   1.514  0.4204  0.0207  0.0449
 2813SOL    HW119901   3.102   1.104   1.573 -1.0601  1.8693  1.3301
 2813SOL    HW219902   3.223   1.140   1.496 -0.0577 -2.9035  2.7300
 2814SOL     OW19903   1.591   4.481   0.097  0.3673 -0.0714  0.7020
 2814SOL    HW119904   1.608   4.567   0.135  3.4521 -0.6776  0.7148
 2814SOL    HW219905   1.599   4.425   0.174 -2.9782  0.0939  1.1545
 2815SOL     OW19906   0.193   4.293  11.788 -0.6206  0.6362  0.1893
 2815SOL    HW119907   0.140   4.331  11.718 -1.8994 -0.0685  0.7698
 2815SOL    HW219908   0.276   4.310  11.744 -0.0204  1.1841  1.5110
 2816SOL     OW19909   1.092   1.558   2.845  0.5818  0.8167  1.0483
 2816SOL    HW119910   1.164   1.539   2.785  0.3292  1.0201  0.6773
 2816SOL    HW219911   1.129   1.581   2.930  2.2920  0.3292  0.4214
 2817SOL     OW19912   3.230   1.646   1.739  0.3761  0.5802  0.2646
 2817SOL    HW119913   3.287   1.696   1.681  2.2494 -2.2352 -0.2945
 2817SOL    HW219914   3.261   1.556   1.728 -1.4945  0.2726 -2.3263
 2818SOL     OW19915   3.914   0.658  12.951  0.2052  0.4046  0.2176
 2818SOL    HW119916   3.893   0.597  13.021 -1.1099 -1.1291 -1.5203
 2818SOL    HW219917   3.998   0.690  12.983  1.3550  1.7435 -4.1402
 2819SOL     OW19918   4.668   2.730   7.661 -0.7108  0.0013  0.0157
 2819SOL    HW119919   4.696   2.662   7.722  0.7735 -1.3648 -2.1968
 2819SOL    HW219920   4.573   2.719   7.668 -1.1687  2.8127 -1.6857
 2820SOL     OW19921   1.339   1.162   2.621 -0.3633 -0.1604 -0.4453
 2820SOL    HW119922   1.434   1.167   2.611 -0.4635  0.1917 -1.1772
 2820SOL    HW219923   1.323   1.099   2.551  0.3749  0.1717 -0.9091
 2821SOL     OW19924   1.128   1.022   1.969 -0.1808  0.4846  0.1990
 2821SOL    HW119925   1.099   1.048   1.882 -1.1594 -1.1617  0.0334
 2821SOL    HW219926   1.191   1.094   1.971 -1.7735  1.9408 -1.8599
 2822SOL     OW19927   4.148   0.457  15.027 -0.2269  0.3381  0.3573
 2822SOL    HW119928   4.231   0.499  15.003 -1.1975  2.9081  1.4148
 2822SOL    HW219929   4.172   0.369  15.054 -0.5155  0.0721 -0.2753
 2823SOL     OW19930   3.142   3.253  12.875  0.1295  0.2181 -0.2981
 2823SOL    HW119931   3.089   3.284  12.948  1.3684 -0.4881  0.8776
 2823SOL    HW219932   3.215   3.310  12.897  0.4582 -1.0529  1.8787
 2824SOL     OW19933   2.222   0.879   6.897 -0.8025  0.8008 -0.3189
 2824SOL    HW119934   2.295   0.911   6.950  1.1558 -1.6004 -1.5663
 2824SOL    HW219935   2.278   0.807   6.868 -0.6447 -0.3202  2.6760
 2825SOL     OW19936   0.741   2.198  16.269 -0.5128 -0.1829  0.5429
 2825SOL    HW119937   0.686   2.122  16.246 -0.9667  0.7863 -1.6082
 2825SOL    HW219938   0.782   2.223  16.186  0.4302 -0.9309  0.7850
 2826SOL     OW19939   1.100   0.595   8.494  0.0757 -0.1502 -0.4686
 2826SOL    HW119940   1.014   0.637   8.484  0.5820  1.5812  2.3606
 2826SOL    HW219941   1.149   0.656   8.439  4.1478 -0.3523  2.9226
 2827SOL     OW19942   2.591   0.237   7.916 -0.2238 -0.2686 -0.6443
 2827SOL    HW119943   2.498   0.253   7.929  0.2175  1.9674 -0.1649
 2827SOL    HW219944   2.623   0.236   8.006 -3.4474 -0.2023  0.5011
 2828SOL     OW19945   4.021   2.941   7.692 -0.6832  0.4924  0.3089
 2828SOL    HW119946   4.013   2.933   7.597 -0.9754 -0.9035  0.4449
 2828SOL    HW219947   3.955   2.874   7.711  1.1890 -1.0417  1.4400
 2829SOL     OW19948   2.846   2.564   9.713  0.1601  0.1297 -0.0105
 2829SOL    HW119949   2.898   2.501   9.663 -0.3126  0.8243 -1.3701
 2829SOL    HW219950   2.856   2.519   9.798 -1.8683 -0.9155 -0.3109
 2830SOL     OW19951   2.741   1.852   2.507  0.3545  0.1073  0.4326
 2830SOL    HW119952   2.807   1.787   2.534 -0.0062  0.4770  2.1361
 2830SOL    HW219953   2.771   1.867   2.417  1.3339  1.9379  1.0651
 2831SOL     OW19954   3.288   2.842   4.498 -0.0445  0.3143 -0.2758
 2831SOL    HW119955   3.235   2.887   4.432 -0.1776  0.7938  0.1562
 2831SOL    HW219956   3.371   2.891   4.493  0.1087  0.1213  0.3198
 2832SOL     OW19957   0.822   2.679  16.879  0.0659  0.0749 -0.7754
 2832SOL    HW119958   0.810   2.736  16.955  0.5817 -1.5382  0.5156
 2832SOL    HW219959   0.743   2.698  16.830 -0.6915  0.0015  0.4195
 2833SOL     OW19960   1.658   0.218  14.032  0.2245  0.0867 -0.0527
 2833SOL    HW119961   1.623   0.168  14.105 -0.1459 -0.0986 -0.3622
 2833SOL    HW219962   1.688   0.157  13.965  0.2697 -1.0346  0.9942
 2834SOL     OW19963   3.774   1.177   5.081 -0.0169  0.1834  0.0605
 2834SOL    HW119964   3.757   1.088   5.050 -0.0550  0.2089  0.0083
 2834SOL    HW219965   3.868   1.185   5.061 -0.3460  4.1194  0.1257
 2835SOL     OW19966   1.088   2.548   5.998  0.3899 -0.3129 -1.0261
 2835SOL    HW119967   1.132   2.616   5.947  2.6855 -0.6068  0.5514
 2835SOL    HW219968   1.106   2.577   6.087 -2.2988 -0.7694 -0.3288
 2836SOL     OW19969   2.775   2.748   7.106  0.1489 -0.2807  0.9288
 2836SOL    HW119970   2.812   2.783   7.187 -0.9649  1.2968  0.7492
 2836SOL    HW219971   2.693   2.796   7.113 -0.4719 -1.4985  2.0029
 2837SOL     OW19972   3.939   0.757   6.348 -0.3829  0.3118 -0.2835
 2837SOL    HW119973   3.939   0.828   6.413 -2.0998 -0.0006  0.0487
 2837SOL    HW219974   3.992   0.692   6.394 -0.2757  0.5661 -0.0419
 2838SOL     OW19975   2.955   0.171   5.602  0.1698  0.6389  0.1883
 2838SOL    HW119976   2.924   0.086   5.569  1.3708  0.4376 -0.4284
 2838SOL    HW219977   3.026   0.196   5.543  0.8593 -1.7660  0.0034
 2839SOL     OW19978   3.496   0.828   7.881  0.0882 -0.0454 -0.1592
 2839SOL    HW119979   3.473   0.861   7.794 -5.5508  0.2599  1.4642
 2839SOL    HW219980   3.414   0.790   7.910  0.7837 -1.5546 -0.1742
 2840SOL     OW19981   1.976   0.986  11.238 -0.1559 -0.3492 -0.4863
 2840SOL    HW119982   2.015   1.072  11.222  0.8993 -0.8808 -0.8151
 2840SOL    HW219983   2.028   0.942  11.171 -1.6074 -0.9236 -1.2338
 2841SOL     OW19984   2.825   0.890  14.103  0.1862  0.2573  0.2723
 2841SOL    HW119985   2.865   0.971  14.135 -0.8115  0.9170 -0.1201
 2841SOL    HW219986   2.833   0.839  14.183  1.1780 -2.2618 -1.4398
 2842SOL     OW19987   2.488   3.976  11.394 -0.1464 -0.0438 -0.4713
 2842SOL    HW119988   2.412   4.029  11.369 -0.3936  1.2333  2.8965
 2842SOL    HW219989   2.524   3.945  11.311 -0.4914  0.1839 -0.7050
 2843SOL     OW19990   3.869   3.699   7.618  0.6911 -0.4976 -0.1622
 2843SOL    HW119991   3.825   3.715   7.535  1.6102  0.1298 -0.5268
 2843SOL    HW219992   3.909   3.612   7.614 -1.4183 -1.5107  0.8802
 2844SOL     OW19993   2.236   2.404   1.603 -0.7916  0.5858 -0.5413
 2844SOL    HW119994   2.294   2.478   1.624 -0.9351  0.6384 -0.3287
 2844SOL    HW219995   2.277   2.358   1.529  0.0149  0.5014 -0.0413
 2845SOL     OW19996   2.873   3.913  14.917  0.0659  0.2471  0.0487
 2845SOL    HW119997   2.832   3.981  14.969  1.0201 -0.2302  1.4287
 2845SOL    HW219998   2.804   3.849  14.931 -0.5586  1.1017  0.8732
 2846SOL     OW19999   2.974   3.823  10.882 -0.3283  0.3846  0.6107
 2846SOL    HW120000   3.065   3.844  10.901  0.2912  0.9396 -3.0508
 2846SOL    HW220001   2.940   3.907  10.852  1.1341  0.5110 -0.7061
 2847SOL     OW20002   3.218   2.099   3.955 -0.1879  0.5520 -0.4982
 2847SOL    HW120003   3.299   2.047   3.951 -0.2943  0.3523 -0.1317
 2847SOL    HW220004   3.256   2.186   3.956 -1.0237  0.9228 -1.0465
 2848SOL     OW20005   0.091   0.919   3.715  0.6757  0.5239 -0.2595
 2848SOL    HW120006   0.083   1.014   3.701  2.6699  0.6394 -0.6385
 2848SOL    HW220007   0.176   0.899   3.676  1.3746  1.9377  0.5399
 2849SOL     OW20008   2.768   1.622   3.348 -0.2039 -0.1204 -0.0715
 2849SOL    HW120009   2.752   1.534   3.314 -0.1769 -0.6382  1.2900
 2849SOL    HW220010   2.845   1.656   3.302 -1.2194  1.1064 -0.8752
 2850SOL     OW20011   4.045   0.805   7.930 -0.0175 -0.4602 -0.4680
 2850SOL    HW120012   3.951   0.816   7.921 -0.0374 -0.3891 -0.1843
 2850SOL    HW220013   4.050   0.716   7.967  0.6539 -1.8782 -3.9703
 2851SOL     OW20014   1.211   3.353   2.746  0.9080 -0.2905  0.0846
 2851SOL    HW120015   1.137   3.413   2.757  1.4444 -0.3557  4.1223
 2851SOL    HW220016   1.169   3.278   2.706  1.4195 -0.2712 -0.4881
 2852SOL     OW20017   1.116   1.363   1.600  0.4122  0.3819 -0.0467
 2852SOL    HW120018   1.123   1.345   1.506 -2.5328  1.3248 -0.4470
 2852SOL    HW220019   1.130   1.458   1.601 -2.0978  0.7432 -0.2861
 2853SOL     OW20020   1.096   1.032   0.171 -0.1705 -0.9185  0.3438
 2853SOL    HW120021   1.182   1.063   0.145 -0.2441  0.3007  1.5545
 2853SOL    HW220022   1.042   1.109   0.151 -0.5351 -1.4411 -0.6476
 2854SOL     OW20023   2.363   4.688   5.888 -1.0011  0.3822 -0.5256
 2854SOL    HW120024   2.275   4.663   5.859 -0.6920  0.7022 -1.7488
 2854SOL    HW220025   2.353   4.710   5.981 -2.0755 -4.5159  0.5346
 2855SOL     OW20026   1.819   0.292   3.074  0.3445 -0.0437  0.6650
 2855SOL    HW120027   1.789   0.376   3.110 -1.4089 -0.8627  1.1267
 2855SOL    HW220028   1.827   0.317   2.982 -1.1231  0.7362  0.7507
 2856SOL     OW20029   4.220   4.006   8.674  0.4740  0.2961  0.1070
 2856SOL    HW120030   4.130   3.998   8.644  0.5725  1.4464 -0.5096
 2856SOL    HW220031   4.266   3.984   8.592 -1.9033 -0.5242 -1.0100
 2857SOL     OW20032   4.577   4.451  11.397 -0.1414  0.8470 -0.0381
 2857SOL    HW120033   4.555   4.518  11.332  0.1349 -0.4734 -1.4949
 2857SOL    HW220034   4.490   4.450  11.437  0.6668 -1.3043  1.6951
 2858SOL     OW20035   3.803   4.562   1.943 -0.7564 -0.4512  0.2817
 2858SOL    HW120036   3.853   4.644   1.941 -1.8781  0.1984 -0.8673
 2858SOL    HW220037   3.797   4.541   2.036 -3.1219  1.2215  0.4919
 2859SOL     OW20038   4.571   2.236   7.205  0.2890  0.2270 -0.3378
 2859SOL    HW120039   4.664   2.211   7.203  0.4340  0.7045  0.1404
 2859SOL    HW220040   4.531   2.149   7.208 -1.8754  1.3065  1.8625
 2860SOL     OW20041   2.601   1.924   6.295  0.0676  0.4022  0.1026
 2860SOL    HW120042   2.626   1.997   6.237 -0.4467  1.5695  1.3428
 2860SOL    HW220043   2.685   1.879   6.298 -0.9911 -1.5788 -0.3005
 2861SOL     OW20044   2.447   0.167   2.438  0.5480 -0.0798 -0.3911
 2861SOL    HW120045   2.472   0.214   2.518  1.7813  1.3244 -1.6062
 2861SOL    HW220046   2.514   0.198   2.377 -0.4371  0.9368 -0.9541
 2862SOL     OW20047   4.650   2.328   4.645 -0.8137  0.2937 -1.1302
 2862SOL    HW120048   0.009   2.368   4.638 -0.0897 -1.0195  0.5026
 2862SOL    HW220049   4.600   2.404   4.675 -1.2405  0.3514 -2.0007
 2863SOL     OW20050   2.381   4.704   8.425 -0.3048  0.3413 -0.3201
 2863SOL    HW120051   2.421   4.638   8.482  1.3127  1.2512 -0.3804
 2863SOL    HW220052   2.393   0.045   8.491 -0.8066 -0.3138  0.4551
 2864SOL     OW20053   2.411   3.782   6.608  0.1998 -0.2572 -0.1386
 2864SOL    HW120054   2.456   3.798   6.690  1.7035  0.1599 -1.0460
 2864SOL    HW220055   2.485   3.760   6.552  2.8528  1.9538  2.5251
 2865SOL     OW20056   0.392   2.175   3.821  0.1247  0.7314  0.0209
 2865SOL    HW120057   0.303   2.141   3.816  0.1929  0.7831 -1.7526
 2865SOL    HW220058   0.404   2.175   3.726 -0.3391  1.4384 -0.0315
 2866SOL     OW20059   0.121   1.273  11.212 -0.1889 -0.4584 -1.2048
 2866SOL    HW120060   0.049   1.213  11.190 -0.2128 -0.5081 -0.9860
 2866SOL    HW220061   0.070   1.346  11.247 -0.5625 -0.6339 -1.3809
 2867SOL     OW20062   0.176   0.610   1.225  0.3439 -0.1258  0.2676
 2867SOL    HW120063   0.183   0.539   1.162  0.2936 -0.7865  1.0048
 2867SOL    HW220064   0.223   0.559   1.291  2.3846  2.4587  0.7864
 2868SOL     OW20065   0.805   2.224  14.083 -0.0130 -0.2099 -0.2206
 2868SOL    HW120066   0.897   2.228  14.060 -0.5259 -0.2351 -2.2900
 2868SOL    HW220067   0.781   2.138  14.050 -1.4876 -0.5588  1.6969
 2869SOL     OW20068   3.498   3.927  13.359 -0.5471  0.5066  0.0294
 2869SOL    HW120069   3.456   3.966  13.436  1.2460 -1.3485  1.9747
 2869SOL    HW220070   3.539   4.004  13.321 -0.8930 -0.5680 -2.5026
 2870SOL     OW20071   0.008   1.998   5.121  0.2499 -0.0994  0.3465
 2870SOL    HW120072   0.046   2.040   5.043  3.8363  0.7345  2.5475
 2870SOL    HW220073   0.063   1.920   5.125  0.4517 -0.0236 -0.9297
 2871SOL     OW20074   1.818   4.609  16.294 -0.2936 -0.1931 -0.7937
 2871SOL    HW120075   1.735   4.564  16.280 -0.5956  0.3637 -0.7967
 2871SOL    HW220076   1.800   4.635  16.385  0.2733  0.4082 -0.8546
 2872SOL     OW20077   4.334   2.789   6.839  0.1979  0.3284  0.3045
 2872SOL    HW120078   4.402   2.723   6.850 -0.5784 -0.4360  0.5031
 2872SOL    HW220079   4.281   2.760   6.765  0.7886 -0.0704  0.0394
 2873SOL     OW20080   0.643   0.497   7.137  0.4732 -0.0602 -0.0079
 2873SOL    HW120081   0.586   0.545   7.078  1.6634  0.2635 -0.9070
 2873SOL    HW220082   0.721   0.494   7.082  0.5030 -1.6764  0.1048
 2874SOL     OW20083   1.534   1.739   4.102 -0.1258 -0.0169  0.3666
 2874SOL    HW120084   1.483   1.663   4.132  1.0728 -1.0531 -0.1863
 2874SOL    HW220085   1.594   1.760   4.173 -0.9561 -0.1030  1.0966
 2875SOL     OW20086   2.851   4.032  10.790  0.4719  0.1614 -0.1125
 2875SOL    HW120087   2.780   3.990  10.742  0.6766 -0.5430  0.2042
 2875SOL    HW220088   2.802   4.098  10.839  1.9758  0.5761  0.8681
 2876SOL     OW20089   1.679   0.436   1.535  0.8722  0.2654  0.0408
 2876SOL    HW120090   1.618   0.487   1.589  0.8580  0.8087 -0.4987
 2876SOL    HW220091   1.764   0.437   1.578  0.9839 -1.5039 -0.1290
 2877SOL     OW20092   4.321   2.321   1.476  0.7898 -0.0998 -0.3084
 2877SOL    HW120093   4.374   2.384   1.427  0.5110 -1.1473 -1.9322
 2877SOL    HW220094   4.294   2.262   1.406  0.8366 -1.6461  0.9600
 2878SOL     OW20095   2.797   4.061   8.376 -0.2964  0.2383 -0.1431
 2878SOL    HW120096   2.802   4.142   8.326  0.8287  1.3038  1.7394
 2878SOL    HW220097   2.889   4.037   8.389 -0.2458 -0.1669 -1.1904
 2879SOL     OW20098   0.324   3.541   2.435 -0.2723  0.3909 -0.2318
 2879SOL    HW120099   0.255   3.478   2.413  1.1140 -0.5939 -1.7424
 2879SOL    HW220100   0.275   3.594   2.498 -0.0165  1.3302 -0.8244
 2880SOL     OW20101   3.906   2.701   1.365 -0.3535  0.1405 -0.3192
 2880SOL    HW120102   3.918   2.786   1.321 -0.9130 -0.1783 -1.0866
 2880SOL    HW220103   3.824   2.672   1.325  0.5760  0.0645 -2.2022
 2881SOL     OW20104   4.192   0.260   8.134  0.0966  0.1123  0.0360
 2881SOL    HW120105   4.166   0.330   8.194  2.0022  0.4369  0.4958
 2881SOL    HW220106   4.285   0.276   8.148  0.1008 -0.9017  1.1446
 2882SOL     OW20107   3.999   2.776   6.871 -0.2895  0.2653  0.3053
 2882SOL    HW120108   4.063   2.747   6.805  0.6805 -0.3650  1.5109
 2882SOL    HW220109   4.023   2.868   6.878 -0.4401  0.4126 -1.0743
 2883SOL     OW20110   2.742   1.231  17.196  0.1700 -0.3803  0.3494
 2883SOL    HW120111   2.817   1.238  17.255 -0.9011  1.8251  1.4180
 2883SOL    HW220112   2.752   1.298  17.128  1.9104 -0.0512  0.9395
 2884SOL     OW20113   2.976   3.618   8.366  0.4351 -0.2409  0.1312
 2884SOL    HW120114   2.921   3.613   8.444  0.8393  2.7020  0.6194
 2884SOL    HW220115   2.908   3.587   8.306  0.7328 -0.6518  0.0076
 2885SOL     OW20116   3.176   1.885   2.898 -0.1327 -0.3340  0.0286
 2885SOL    HW120117   3.258   1.935   2.897  0.7198 -1.7441 -1.2462
 2885SOL    HW220118   3.142   1.898   2.987 -0.0808  0.3639 -0.0535
 2886SOL     OW20119   4.038   3.959  16.495  0.1433  0.3193  0.2496
 2886SOL    HW120120   4.041   3.870  16.530 -1.3157  0.0002 -0.4265
 2886SOL    HW220121   4.109   3.957  16.431  0.8513 -2.0082  1.1242
 2887SOL     OW20122   2.653   4.391   7.359 -0.2171 -0.1662 -0.2320
 2887SOL    HW120123   2.593   4.369   7.289 -1.2027 -0.6794  0.7710
 2887SOL    HW220124   2.602   4.433   7.428  1.3555 -1.2736  1.6111
 2888SOL     OW20125   4.312   2.412   0.580  0.1373 -0.5471 -0.4906
 2888SOL    HW120126   4.357   2.345   0.530 -0.5684 -0.1630 -1.6381
 2888SOL    HW220127   4.247   2.361   0.627 -1.2291  1.2947 -0.3684
 2889SOL     OW20128   4.593   0.027   8.131  0.0995  0.3687 -0.0065
 2889SOL    HW120129   4.581   4.662   8.147 -1.6231  0.4427 -0.8654
 2889SOL    HW220130   4.601   0.064   8.219  2.5119  0.7397 -0.3923
 2890SOL     OW20131   1.737   3.241  17.700 -0.3587  0.7710  0.6797
 2890SOL    HW120132   1.698   3.313   0.036 -2.3243 -0.9032  1.5897
 2890SOL    HW220133   1.761   3.282  17.617  0.3031 -1.0805 -0.0634
 2891SOL     OW20134   4.727   3.716   8.301 -0.1338 -0.0124 -0.0080
 2891SOL    HW120135   0.012   3.806   8.330 -0.0491  0.4324 -1.4068
 2891SOL    HW220136   0.077   3.697   8.250 -0.5050 -0.8269 -0.2819
 2892SOL     OW20137   2.077   3.992   6.253  0.3780  0.1677  0.0618
 2892SOL    HW120138   2.004   3.941   6.219  0.6991 -1.2279  1.4781
 2892SOL    HW220139   2.143   3.926   6.228  0.1161 -0.7671  1.8307
 2893SOL     OW20140   3.825   4.673  11.124 -0.1502 -0.3048 -1.2987
 2893SOL    HW120141   3.847   0.034  11.098 -1.5920 -0.8233 -4.3033
 2893SOL    HW220142   3.913   4.635  11.130  0.0724  0.6891  1.3920
 2894SOL     OW20143   1.202   4.549   6.525  0.5467 -0.1405  0.3511
 2894SOL    HW120144   1.242   4.475   6.479 -0.3914 -1.0114  0.9318
 2894SOL    HW220145   1.116   4.508   6.535  0.9544 -0.7877  1.1319
 2895SOL     OW20146   2.606   1.249   3.263  0.1613  0.4397  0.1505
 2895SOL    HW120147   2.671   1.302   3.217  0.0554  1.6349  1.3792
 2895SOL    HW220148   2.536   1.313   3.244 -0.3312 -0.2052 -0.2056
 2896SOL     OW20149   0.316   1.521   7.218  0.2410  0.3230  0.2895
 2896SOL    HW120150   0.390   1.464   7.198  1.0260  1.3313  0.3475
 2896SOL    HW220151   0.239   1.464   7.209  0.9752 -0.6606  0.2209
 2897SOL     OW20152   2.800   0.945  17.208 -0.5310 -0.1718 -0.2330
 2897SOL    HW120153   2.772   1.033  17.230 -3.9110 -1.1420 -0.7187
 2897SOL    HW220154   2.794   0.933  17.113 -1.5512 -0.3100 -0.1442
 2898SOL     OW20155   1.020   4.412  13.337  0.6379  0.2958 -0.4607
 2898SOL    HW120156   1.073   4.378  13.265 -0.1145  1.0759 -1.3753
 2898SOL    HW220157   0.938   4.364  13.329  1.2834 -1.0374  0.7878
 2899SOL     OW20158   3.973   0.114   5.544  0.3385  0.3294  0.1722
 2899SOL    HW120159   3.933   0.068   5.618  0.5149 -0.0575  0.0220
 2899SOL    HW220160   4.015   0.037   5.508  2.1111  1.3320  0.1182
 2900SOL     OW20161   0.948   0.623   9.008 -0.7106  0.2377 -0.1439
 2900SOL    HW120162   0.893   0.559   8.963 -0.5286 -0.6790  0.9108
 2900SOL    HW220163   1.038   0.593   9.000 -0.4171  0.8393  0.8928
 2901SOL     OW20164   0.688   1.568  15.126  0.4292  0.1644  0.1737
 2901SOL    HW120165   0.649   1.499  15.179  1.5353 -0.1505  0.5916
 2901SOL    HW220166   0.755   1.589  15.191  0.3511  1.6532 -0.2249
 2902SOL     OW20167   2.436   2.347  14.596  0.1263 -0.0742 -0.4206
 2902SOL    HW120168   2.396   2.315  14.676 -1.5644  0.9585 -0.8517
 2902SOL    HW220169   2.481   2.270  14.560  0.9285 -0.7895  2.1003
 2903SOL     OW20170   1.192   4.620   3.982 -0.0766  0.7778  0.1642
 2903SOL    HW120171   1.129   4.643   3.914 -1.1064 -1.7105  0.2956
 2903SOL    HW220172   1.148   4.653   4.060 -2.2519 -1.9988  0.1100
 2904SOL     OW20173   1.108   3.157   6.424  0.2402 -0.0009  0.4584
 2904SOL    HW120174   1.019   3.186   6.405 -0.4658 -1.6251  1.3491
 2904SOL    HW220175   1.117   3.152   6.519  0.7232 -0.3414  0.3972
 2905SOL     OW20176   3.289   3.769   0.867 -0.1886  0.4618 -0.5434
 2905SOL    HW120177   3.205   3.730   0.843 -0.4494  0.9337 -0.4129
 2905SOL    HW220178   3.261   3.798   0.954  3.3937  0.1041  0.7182
 2906SOL     OW20179   3.130   2.645  12.591 -0.1129  0.1661  0.1136
 2906SOL    HW120180   3.154   2.628  12.682 -0.2129 -0.9330 -0.0681
 2906SOL    HW220181   3.035   2.655  12.604 -0.0831 -1.2440  1.3431
 2907SOL     OW20182   2.935   4.554   0.487 -0.2308  0.0014  0.3303
 2907SOL    HW120183   2.976   4.522   0.568  0.0060  1.3886  0.7507
 2907SOL    HW220184   3.012   4.562   0.430 -0.3271  0.0679  0.2116
 2908SOL     OW20185   2.653   3.975   7.590  0.3401 -0.0781 -0.7054
 2908SOL    HW120186   2.586   4.027   7.634  1.9939  0.0403  1.6898
 2908SOL    HW220187   2.701   4.041   7.538  0.2475  0.6803  0.1665
 2909SOL     OW20188   0.912   4.517  14.804  0.0381  0.5768  0.1885
 2909SOL    HW120189   0.897   4.550  14.892  1.5422 -0.1290  0.7013
 2909SOL    HW220190   1.005   4.537  14.795 -0.2293  1.5632 -0.4462
 2910SOL     OW20191   2.604   2.282   1.720  0.3408 -0.0989  0.2259
 2910SOL    HW120192   2.675   2.343   1.702 -0.7764  1.3800  0.8438
 2910SOL    HW220193   2.551   2.324   1.787 -0.9614 -0.0509 -0.8387
 2911SOL     OW20194   4.183   3.228  16.610 -0.6463  0.0509 -0.1518
 2911SOL    HW120195   4.208   3.217  16.518  0.6403 -1.9145  0.4209
 2911SOL    HW220196   4.252   3.280  16.652  0.9973 -3.1538  1.1429
 2912SOL     OW20197   3.274   2.589   4.348 -0.2556  0.5532  0.4217
 2912SOL    HW120198   3.273   2.657   4.414 -1.0820  1.2073 -0.2724
 2912SOL    HW220199   3.188   2.559   4.376 -0.0537 -0.4230  0.0122
 2913SOL     OW20200   0.826   3.923   3.411  0.1993  0.5243 -0.6825
 2913SOL    HW120201   0.849   3.963   3.494 -2.4334 -0.9075  0.7102
 2913SOL    HW220202   0.734   3.904   3.426  0.3881  0.5679  0.4941
 2914SOL     OW20203   3.915   2.760   5.201  0.3835 -0.3223  0.0042
 2914SOL    HW120204   3.869   2.691   5.249 -0.3251  0.7164  0.7920
 2914SOL    HW220205   3.900   2.714   5.118 -0.2820  1.6802 -0.9687
 2915SOL     OW20206   0.056   4.590   6.219  0.2989 -0.2590 -0.0627
 2915SOL    HW120207   4.703   4.539   6.221 -1.1365  1.9707 -0.5009
 2915SOL    HW220208   0.077   4.600   6.312  0.6206  2.4186 -0.4244
 2916SOL     OW20209   1.621   0.014  14.248  0.3479  0.0798  0.2698
 2916SOL    HW120210   1.689   0.001  14.315 -1.0659  1.7315  2.0246
 2916SOL    HW220211   1.558   0.071  14.292 -0.4807 -0.5296 -0.1293
 2917SOL     OW20212   3.319   2.484  13.782 -0.2307 -0.2729 -0.6432
 2917SOL    HW120213   3.281   2.416  13.836  1.7042  1.4935  2.9108
 2917SOL    HW220214   3.245   2.545  13.776  0.3341  0.6116  1.5732
 2918SOL     OW20215   1.686   0.556   3.784  0.2579 -0.0252  0.8050
 2918SOL    HW120216   1.773   0.563   3.823  0.9245 -2.0528 -0.3102
 2918SOL    HW220217   1.713   0.570   3.693  1.1529 -1.0712  0.9056
 2919SOL     OW20218   2.938   0.182  13.400 -0.0923 -0.0977 -0.2485
 2919SOL    HW120219   2.872   0.195  13.332  1.7934 -0.1933 -2.0840
 2919SOL    HW220220   2.895   0.129  13.468  0.0126  0.2432  0.0875
 2920SOL     OW20221   0.341   3.963   5.645 -0.2491 -0.0227 -0.0353
 2920SOL    HW120222   0.257   3.978   5.601 -0.9911 -1.1256  0.9932
 2920SOL    HW220223   0.394   3.979   5.567 -0.0695  0.9502  0.2813
 2921SOL     OW20224   2.140   1.382  14.304 -0.1056 -0.3564 -0.2506
 2921SOL    HW120225   2.135   1.288  14.285  2.6295 -0.4479 -0.5151
 2921SOL    HW220226   2.064   1.405  14.357  1.5484 -1.0706  2.4329
 2922SOL     OW20227   2.342   2.350   3.554 -0.0063 -0.1283  0.1268
 2922SOL    HW120228   2.435   2.368   3.546 -0.2675  0.6011 -1.1482
 2922SOL    HW220229   2.346   2.255   3.540  2.2464 -0.1479  0.8470
 2923SOL     OW20230   4.662   2.930   9.835  0.2247  0.4916 -0.4454
 2923SOL    HW120231   4.706   3.006   9.795 -0.0785  2.0338  2.1564
 2923SOL    HW220232   0.016   2.898   9.873 -0.2748  1.1954  1.1961
 2924SOL     OW20233   1.873   3.221  15.806  0.1954  0.0337  0.8404
 2924SOL    HW120234   1.969   3.226  15.797  0.1704  0.1365  0.6322
 2924SOL    HW220235   1.838   3.270  15.732 -0.7403 -2.4777 -0.3787
 2925SOL     OW20236   3.383   2.978  14.299  0.2458 -0.2954 -0.1549
 2925SOL    HW120237   3.441   2.921  14.349  1.1228  1.0162  0.3388
 2925SOL    HW220238   3.298   2.953  14.334 -0.0171  1.9691  0.8275
 2926SOL     OW20239   3.034   3.129  12.652 -0.2251  0.3540 -0.7146
 2926SOL    HW120240   2.943   3.109  12.676 -0.2331  2.1789  0.8263
 2926SOL    HW220241   3.057   3.177  12.731  1.4207 -0.7142 -0.5642
 2927SOL     OW20242   1.941   3.564  15.157  0.1256  0.0615 -0.3098
 2927SOL    HW120243   2.035   3.580  15.150  0.5460 -0.8509  3.3390
 2927SOL    HW220244   1.922   3.581  15.064  0.3668  0.2996 -0.3170
 2928SOL     OW20245   4.640   1.831   3.043  0.2594  0.2399  0.0063
 2928SOL    HW120246   4.625   1.926   3.047  0.7651  0.3145  0.1965
 2928SOL    HW220247   0.007   1.822   3.057  0.2080  0.4435  0.5134
 2929SOL     OW20248   3.936   3.279   4.863  0.1115 -0.3923 -0.1543
 2929SOL    HW120249   4.015   3.225   4.852 -0.9665 -1.7531 -1.1966
 2929SOL    HW220250   3.972   3.351   4.915 -0.4614 -1.1237  1.2659
 2930SOL     OW20251   4.350   3.674  10.574 -0.1703  0.4921  0.0237
 2930SOL    HW120252   4.434   3.648  10.535  0.4354  2.9395 -0.3174
 2930SOL    HW220253   4.318   3.591  10.609 -0.3640 -0.0744 -1.4812
 2931SOL     OW20254   4.194   2.821  16.322 -0.1467  0.1013 -0.1736
 2931SOL    HW120255   4.286   2.823  16.349 -1.1088  1.7265  2.9414
 2931SOL    HW220256   4.195   2.869  16.239  0.5199  1.3174  0.5366
 2932SOL     OW20257   1.934   0.996  10.886  0.2557 -0.3747  0.0560
 2932SOL    HW120258   1.942   0.935  10.813 -1.4183  0.8814 -1.1418
 2932SOL    HW220259   2.006   0.963  10.941 -0.2031 -0.8852  0.3544
 2933SOL     OW20260   2.520   2.101   8.031 -0.3787 -0.4939 -0.2869
 2933SOL    HW120261   2.601   2.061   8.064 -0.1349  0.3810  0.1614
 2933SOL    HW220262   2.461   2.078   8.103  0.8914 -1.5515  0.4264
 2934SOL     OW20263   4.202   3.097   6.289  0.7533  0.0154 -0.0002
 2934SOL    HW120264   4.218   3.042   6.212 -0.5760  0.1454 -0.3618
 2934SOL    HW220265   4.272   3.075   6.351 -0.3139  3.7595  2.5342
 2935SOL     OW20266   2.770   1.966  13.867  0.4576  0.0613  0.2157
 2935SOL    HW120267   2.838   1.945  13.803  0.9128 -0.6511  0.9293
 2935SOL    HW220268   2.694   1.949  13.811  2.0802 -3.9779 -0.7912
 2936SOL     OW20269   3.728   4.341  12.032 -0.1822 -0.1705  0.3834
 2936SOL    HW120270   3.777   4.369  12.109 -0.8263 -0.0730  0.7576
 2936SOL    HW220271   3.689   4.256  12.056 -0.4677  0.9096  3.7959
 2937SOL     OW20272   4.522   1.805   1.362 -0.0062 -0.0401  0.0721
 2937SOL    HW120273   4.584   1.816   1.290 -1.9670  0.5381 -1.5002
 2937SOL    HW220274   4.440   1.830   1.319  1.2058  4.1787  0.1262
 2938SOL     OW20275   4.686   1.051  16.623  0.0567 -0.2626 -0.1827
 2938SOL    HW120276   4.597   1.054  16.658  0.4567 -1.8346  1.0090
 2938SOL    HW220277   4.702   1.145  16.627 -2.6747  0.1669  0.1578
 2939SOL     OW20278   2.690   0.951   6.442  0.5882  0.1901  0.2164
 2939SOL    HW120279   2.607   0.997   6.453  0.3669 -0.6755  2.1623
 2939SOL    HW220280   2.692   0.936   6.348 -1.0551 -1.8669  0.5229
 2940SOL     OW20281   0.913   0.756   7.595 -0.8353  0.0697 -0.5069
 2940SOL    HW120282   0.883   0.665   7.592  1.5833 -0.7683  0.5426
 2940SOL    HW220283   0.833   0.793   7.632  0.3946  0.8514  1.3928
 2941SOL     OW20284   2.796   4.168   7.489  0.2662  0.1789  0.6365
 2941SOL    HW120285   2.806   4.224   7.567  0.7560 -1.3078  1.6446
 2941SOL    HW220286   2.770   4.229   7.420  1.2893  0.9296  0.9107
 2942SOL     OW20287   1.283   4.119   2.556 -0.0409  0.1256 -0.2247
 2942SOL    HW120288   1.263   4.029   2.528  2.3343 -0.6159  0.4761
 2942SOL    HW220289   1.298   4.133   2.462  0.3226 -2.5318 -0.5579
 2943SOL     OW20290   0.777   0.740   1.378  0.7251 -0.0387 -0.0769
 2943SOL    HW120291   0.706   0.804   1.379  2.1352  1.5162 -0.3461
 2943SOL    HW220292   0.738   0.654   1.391 -1.3144  0.9763  0.5039
 2944SOL     OW20293   0.827   2.343  12.417 -0.1964 -0.4508 -0.0803
 2944SOL    HW120294   0.834   2.252  12.389  0.0372 -0.1345 -1.0535
 2944SOL    HW220295   0.767   2.328  12.490  0.3665 -1.9266  0.0911
 2945SOL     OW20296   3.561   2.106   8.286 -0.5423  0.3283 -0.0113
 2945SOL    HW120297   3.473   2.123   8.319  0.2530  2.0003  1.1962
 2945SOL    HW220298   3.576   2.014   8.309 -1.2769  0.9718  2.9510
 2946SOL     OW20299   3.302   2.122   9.506 -0.6352  0.2652 -0.5975
 2946SOL    HW120300   3.290   2.057   9.575  0.0265  0.5994 -0.1636
 2946SOL    HW220301   3.308   2.060   9.434 -0.3097  0.1818 -0.4987
 2947SOL     OW20302   1.084   1.921   6.092  0.0429 -0.3487  0.4004
 2947SOL    HW120303   1.041   1.959   6.015  1.6433  2.9629  1.1607
 2947SOL    HW220304   1.158   1.876   6.051  0.8893  0.8427  0.6458
 2948SOL     OW20305   1.231   2.372   1.545  0.4503  0.0925  0.4186
 2948SOL    HW120306   1.200   2.367   1.455  1.2748  1.4688  0.0550
 2948SOL    HW220307   1.283   2.291   1.550  0.5537  0.2931  2.7924
 2949SOL     OW20308   0.069   3.655   5.678 -0.8877  0.5314  0.5556
 2949SOL    HW120309   0.120   3.678   5.600 -0.3421  1.5438  1.2001
 2949SOL    HW220310   0.041   3.566   5.658  0.8969  0.2831 -0.8867
 2950SOL     OW20311   0.785   1.893  10.754 -0.1458 -0.2282 -0.7591
 2950SOL    HW120312   0.790   1.852  10.841  2.3797 -3.7933 -2.6076
 2950SOL    HW220313   0.867   1.941  10.755  0.2108 -0.8220 -2.5747
 2951SOL     OW20314   1.316   2.646   5.896 -0.3741 -0.4429  0.6775
 2951SOL    HW120315   1.393   2.697   5.922  1.0497 -1.5430 -1.4041
 2951SOL    HW220316   1.279   2.698   5.825 -3.0358 -1.7808  1.0751
 2952SOL     OW20317   1.636   4.051   3.745 -0.1828  0.1669 -0.1580
 2952SOL    HW120318   1.573   3.987   3.777 -1.4464  0.6820 -1.6157
 2952SOL    HW220319   1.659   4.105   3.820 -2.8514  0.5128  0.4031
 2953SOL     OW20320   1.625   3.487  14.314  0.1043 -0.2322  0.2331
 2953SOL    HW120321   1.575   3.408  14.336  0.9613 -1.1395 -1.1225
 2953SOL    HW220322   1.623   3.490  14.219 -1.1277  2.6364  0.3483
 2954SOL     OW20323   1.532   2.101   7.343  0.4024  0.0191  0.0079
 2954SOL    HW120324   1.477   2.156   7.399  1.0519  0.6903 -0.0206
 2954SOL    HW220325   1.510   2.135   7.257  0.2418 -1.1151 -0.3932
 2955SOL     OW20326   3.195   3.858   5.318 -0.6832  0.4709  0.4438
 2955SOL    HW120327   3.154   3.772   5.318  1.8134 -0.7133 -0.2096
 2955SOL    HW220328   3.163   3.903   5.240  2.2659 -1.1873 -1.7237
 2956SOL     OW20329   1.523   0.499   0.174 -0.2479 -0.1319 -0.2962
 2956SOL    HW120330   1.580   0.511   0.098 -1.5343  0.5816 -1.1415
 2956SOL    HW220331   1.444   0.469   0.129 -1.0723 -0.3109  1.2895
 2957SOL     OW20332   1.271   4.484   7.653 -0.1437  0.4843 -0.1213
 2957SOL    HW120333   1.274   4.551   7.721 -0.1350  0.0727  0.2796
 2957SOL    HW220334   1.303   4.407   7.701  0.1006  1.5674  1.4444
 2958SOL     OW20335   4.161   3.703   9.144 -0.1352  0.4329  0.4562
 2958SOL    HW120336   4.199   3.660   9.220  1.8214  2.1044  0.4224
 2958SOL    HW220337   4.219   3.656   9.084  0.3469 -0.8345  1.9209
 2959SOL     OW20338   0.413   0.393  15.333  0.7655  0.7837  0.2078
 2959SOL    HW120339   0.438   0.404  15.241 -0.3908 -0.2958 -0.2315
 2959SOL    HW220340   0.355   0.466  15.355 -0.3648  0.6396 -2.2260
 2960SOL     OW20341   1.812   1.090   2.353  0.6119 -0.7578  0.0897
 2960SOL    HW120342   1.765   1.012   2.383  1.1385 -1.5270 -1.0561
 2960SOL    HW220343   1.855   1.054   2.275 -0.7384 -1.5176 -0.3118
 2961SOL     OW20344   0.440   2.408   7.501 -0.0686 -0.0235 -0.3653
 2961SOL    HW120345   0.465   2.323   7.539 -0.1314  0.9208  1.8161
 2961SOL    HW220346   0.391   2.376   7.425 -0.5998  0.7638 -0.3496
 2962SOL     OW20347   4.583   1.289   2.935 -0.8194 -0.0336  0.0397
 2962SOL    HW120348   4.554   1.335   3.014 -1.5553 -1.8184  0.7917
 2962SOL    HW220349   4.539   1.207   2.958  0.0971 -0.3728  0.6029
 2963SOL     OW20350   0.137   0.850  11.630 -0.3761 -0.0885  0.3782
 2963SOL    HW120351   0.120   0.766  11.673 -0.1148 -0.0315  0.5928
 2963SOL    HW220352   0.069   0.903  11.672 -0.7515  1.1680 -1.8353
 2964SOL     OW20353   4.703   1.550   3.213  0.2546  0.3742  0.4506
 2964SOL    HW120354   0.007   1.619   3.272 -0.5242 -1.3023  2.8678
 2964SOL    HW220355   0.021   1.582   3.136  0.1052  0.4635  0.3990
 2965SOL     OW20356   1.909   4.144   5.335  0.5094  0.1334  0.3721
 2965SOL    HW120357   1.833   4.126   5.279 -0.1812 -4.3040  2.7258
 2965SOL    HW220358   1.874   4.101   5.413  0.7873  0.4480  0.6695
 2966SOL     OW20359   3.110   2.989   7.650  0.4078  0.0856 -0.4252
 2966SOL    HW120360   3.026   2.962   7.687  1.9525 -2.5262  1.2058
 2966SOL    HW220361   3.140   3.037   7.727 -2.2211  2.4706 -0.8859
 2967SOL     OW20362   3.962   0.923   6.578 -0.0261 -0.1087  0.0249
 2967SOL    HW120363   3.969   0.872   6.659  0.3874  0.5339  0.3931
 2967SOL    HW220364   3.965   1.007   6.622 -1.3470 -0.0390 -0.0179
 2968SOL     OW20365   3.514   1.945   6.370  0.0064  0.3443 -0.0788
 2968SOL    HW120366   3.589   1.989   6.329 -0.3865  0.1563 -1.0160
 2968SOL    HW220367   3.518   1.960   6.464 -0.8541  0.9708 -0.1498
 2969SOL     OW20368   3.835   1.687   3.843  0.7334 -0.0689  0.0847
 2969SOL    HW120369   3.752   1.702   3.797 -0.3569 -1.0643  1.7347
 2969SOL    HW220370   3.801   1.682   3.933 -2.4907  2.5984 -0.9494
 2970SOL     OW20371   3.958   2.938  17.187 -0.2628  0.5575 -0.2814
 2970SOL    HW120372   3.958   3.007  17.254 -0.7307  0.8237 -0.5499
 2970SOL    HW220373   3.897   2.872  17.219 -1.2201  1.3941 -0.3569
 2971SOL     OW20374   2.209   0.751   7.391  0.2380  0.1509 -0.1157
 2971SOL    HW120375   2.261   0.829   7.371 -1.2136  0.7227 -1.5838
 2971SOL    HW220376   2.118   0.776   7.378  0.1405  0.1116  0.4482
 2972SOL     OW20377   4.074   3.331   5.999  0.0631 -0.1984 -0.8078
 2972SOL    HW120378   3.988   3.332   6.039 -0.1563 -2.6495 -1.2459
 2972SOL    HW220379   4.060   3.281   5.918 -2.9908  1.2590 -1.1667
 2973SOL     OW20380   0.177   2.581   4.844 -0.2081  0.1675  0.7330
 2973SOL    HW120381   0.164   2.646   4.775  0.0030 -0.0242  0.5095
 2973SOL    HW220382   0.196   2.505   4.788 -2.5119  0.2773 -0.2339
 2974SOL     OW20383   2.216   3.692  11.346  0.4400 -0.2047 -0.2751
 2974SOL    HW120384   2.122   3.676  11.334  0.4767 -0.5751 -0.0862
 2974SOL    HW220385   2.243   3.712  11.257  0.5546  0.6986 -0.0392
 2975SOL     OW20386   3.867   0.445  15.018 -0.1540  0.7617 -0.3599
 2975SOL    HW120387   3.862   0.468  15.111  1.4896  2.3310 -0.6624
 2975SOL    HW220388   3.961   0.463  15.009  0.3575 -2.4619 -1.8517
 2976SOL     OW20389   0.535   1.478   7.379  0.0698  0.3745 -0.0140
 2976SOL    HW120390   0.577   1.518   7.456  0.6566  0.6399 -0.4790
 2976SOL    HW220391   0.446   1.513   7.383 -0.7119 -1.2972 -2.8676
 2977SOL     OW20392   3.004   2.367   3.243  0.1592  0.2614  0.3189
 2977SOL    HW120393   3.091   2.375   3.203  0.9307 -0.0670  1.9416
 2977SOL    HW220394   3.022   2.309   3.316 -1.5202  0.1282  0.6380
 2978SOL     OW20395   3.084   2.582   2.383 -0.2799 -0.0179 -0.2127
 2978SOL    HW120396   3.093   2.500   2.334 -0.6101  0.2633 -0.7501
 2978SOL    HW220397   3.173   2.614   2.393 -0.1852 -0.4564  0.2814
 2979SOL     OW20398   4.424   1.044   8.592  0.0219 -0.1732 -0.4849
 2979SOL    HW120399   4.389   0.974   8.536 -1.2406 -0.2102  0.3718
 2979SOL    HW220400   4.358   1.108   8.564 -1.5670 -1.4964  0.2526
 2980SOL     OW20401   1.330   3.227   8.979  0.3839  0.1410 -0.1004
 2980SOL    HW120402   1.310   3.305   8.927  1.1020  0.6919  0.4480
 2980SOL    HW220403   1.318   3.156   8.915  3.8336  0.7051 -1.3292
 2981SOL     OW20404   0.247   2.030  11.865  0.3557  0.2491 -0.1452
 2981SOL    HW120405   0.162   2.041  11.908 -0.0775 -2.7380 -0.1984
 2981SOL    HW220406   0.220   2.040  11.774 -3.0261 -1.2577  0.6965
 2982SOL     OW20407   0.561   4.659  16.258  0.3175 -0.4437  0.3782
 2982SOL    HW120408   0.614   0.011  16.253 -1.6841  0.8628  0.1907
 2982SOL    HW220409   0.475   4.697  16.273  0.6980 -0.5526  2.8446
 2983SOL     OW20410   0.485   2.283   8.942 -0.6080  0.3781  0.4542
 2983SOL    HW120411   0.534   2.315   8.866 -1.3731 -1.1713 -0.6828
 2983SOL    HW220412   0.518   2.342   9.010  0.8985 -0.4252  0.4235
 2984SOL     OW20413   2.855   1.962   8.693 -0.1779 -0.2153 -0.4842
 2984SOL    HW120414   2.854   2.002   8.606 -0.9819 -0.1820 -0.4631
 2984SOL    HW220415   2.858   2.048   8.736  0.6678  0.1199 -1.2143
 2985SOL     OW20416   4.519   0.612   2.134 -0.7682  0.1339 -0.1742
 2985SOL    HW120417   4.433   0.650   2.115 -0.9875  0.2097  1.0163
 2985SOL    HW220418   4.577   0.679   2.099  0.6873 -1.3801 -0.6594
 2986SOL     OW20419   0.089   4.095  11.465 -0.3868 -0.3775 -0.5637
 2986SOL    HW120420   0.158   4.160  11.452  0.3295 -1.7031 -3.3908
 2986SOL    HW220421   0.121   4.017  11.419 -2.9030 -1.3253 -0.7281
 2987SOL     OW20422   0.135   0.917  17.555 -0.0209 -0.0535 -0.4233
 2987SOL    HW120423   0.195   0.990  17.571 -0.0884  0.5596 -3.0009
 2987SOL    HW220424   0.193   0.858  17.507  0.2939 -1.2355  1.4009
 2988SOL     OW20425   4.020   4.325   8.178 -0.0420 -0.1534 -0.4830
 2988SOL    HW120426   4.031   4.351   8.270  2.2360 -0.6577 -0.6055
 2988SOL    HW220427   4.086   4.382   8.141  0.9066 -0.6001  0.5211
 2989SOL     OW20428   3.444   3.124  15.396  0.4251  0.4315  0.0206
 2989SOL    HW120429   3.434   3.173  15.315 -2.0496  1.2276  0.8076
 2989SOL    HW220430   3.539   3.117  15.400  0.4673 -0.3859 -2.3005
 2990SOL     OW20431   4.477   1.650   5.335  0.6253 -0.0609  0.0026
 2990SOL    HW120432   4.458   1.744   5.331 -1.1939 -0.5508 -2.2391
 2990SOL    HW220433   4.476   1.638   5.430 -1.0340 -1.0187 -0.1378
 2991SOL     OW20434   1.039   2.651   2.820  0.4397 -0.5058 -0.6913
 2991SOL    HW120435   0.978   2.606   2.762  0.4126 -0.4840 -0.6796
 2991SOL    HW220436   1.099   2.584   2.854  0.5437 -0.4367 -0.7367
 2992SOL     OW20437   3.471   1.002   3.136 -0.1012 -0.4504  0.2511
 2992SOL    HW120438   3.461   1.073   3.200 -2.9500 -0.3742 -0.3020
 2992SOL    HW220439   3.563   1.018   3.113  0.1863 -1.0044  0.9938
 2993SOL     OW20440   3.259   2.357  12.057 -0.3671 -0.0819 -0.2943
 2993SOL    HW120441   3.345   2.398  12.053  0.4404 -1.7117  0.4265
 2993SOL    HW220442   3.202   2.421  12.015  0.3717  0.1248 -0.9789
 2994SOL     OW20443   4.400   2.223   9.604 -0.0750 -0.2414  0.1552
 2994SOL    HW120444   4.445   2.295   9.649 -3.0252  0.3877  2.0582
 2994SOL    HW220445   4.472   2.160   9.597  1.0173  1.1972 -1.8209
 2995SOL     OW20446   1.164   2.417   7.808  0.3581 -0.0702  0.1358
 2995SOL    HW120447   1.115   2.350   7.759 -2.3599  0.7855  1.7044
 2995SOL    HW220448   1.163   2.375   7.894  0.6805  1.3109  0.8064
 2996SOL     OW20449   2.504   3.521   8.105 -0.4444  0.7443  0.2737
 2996SOL    HW120450   2.498   3.574   8.185 -2.7606  1.3670 -0.3132
 2996SOL    HW220451   2.461   3.580   8.043 -0.8815  0.5569  0.3982
 2997SOL     OW20452   2.941   1.073   3.700  0.1492  0.0848 -0.0793
 2997SOL    HW120453   3.013   1.127   3.735  0.9000 -0.3091 -1.0298
 2997SOL    HW220454   2.867   1.082   3.760  0.0781 -0.2171 -0.1255
 2998SOL     OW20455   1.266   0.702  16.407 -0.0633 -0.7362 -0.3889
 2998SOL    HW120456   1.208   0.626  16.408 -0.8034 -0.1806 -1.0458
 2998SOL    HW220457   1.334   0.668  16.350  0.7143 -0.0439  0.1338
 2999SOL     OW20458   3.415   1.170   4.398 -0.2094  0.1240  0.5379
 2999SOL    HW120459   3.473   1.244   4.413  1.4640 -0.7905 -1.4290
 2999SOL    HW220460   3.346   1.207   4.453 -0.6610  0.9895 -0.6242
 3000SOL     OW20461   0.401   3.022  14.690 -0.2362  0.0082  0.0302
 3000SOL    HW120462   0.475   3.008  14.748  1.2862 -1.2331 -2.2060
 3000SOL    HW220463   0.329   2.974  14.731  1.7702 -3.0125 -0.0122
 3001SOL     OW20464   3.812   1.425   0.415 -0.2977 -0.4411 -0.3194
 3001SOL    HW120465   3.739   1.470   0.373  0.3348  1.0404  0.1687
 3001SOL    HW220466   3.837   1.357   0.353 -0.6446  0.3068 -1.2777
 3002SOL     OW20467   1.310   2.777  11.020 -0.6292 -0.5682  0.0535
 3002SOL    HW120468   1.233   2.834  11.016 -0.9390 -0.8647  1.7620
 3002SOL    HW220469   1.288   2.712  10.953 -1.8666 -0.5040  0.3976
 3003SOL     OW20470   1.455   2.406   5.949  0.5820 -0.5333  0.6257
 3003SOL    HW120471   1.488   2.386   6.037  0.5780 -0.7622  0.5752
 3003SOL    HW220472   1.395   2.475   5.975 -2.1085 -2.3205 -0.8902
 3004SOL     OW20473   2.507   2.915   2.732  0.8065  0.2034  0.0552
 3004SOL    HW120474   2.540   2.895   2.644 -0.9694 -0.3236 -0.4879
 3004SOL    HW220475   2.488   3.007   2.717  1.3754 -0.3981 -4.4476
 3005SOL     OW20476   1.716   4.477  15.114 -0.6853 -0.7231 -0.2611
 3005SOL    HW120477   1.754   4.559  15.145  0.6365 -0.9292 -1.3386
 3005SOL    HW220478   1.668   4.452  15.192  1.5244  2.1777  2.0262
 3006SOL     OW20479   1.129   4.486   8.812 -0.0594 -0.1822 -0.4605
 3006SOL    HW120480   1.078   4.426   8.865 -0.4631 -0.9929 -1.7599
 3006SOL    HW220481   1.101   4.575   8.836 -3.0342 -1.4065  0.5619
 3007SOL     OW20482   2.668   0.771   5.284  0.2731 -0.3300  0.0390
 3007SOL    HW120483   2.725   0.714   5.336  1.0200 -0.1373 -0.5641
 3007SOL    HW220484   2.726   0.843   5.258 -0.4201  0.2420  0.0868
 3008SOL     OW20485   3.186   4.096  13.440  0.1659 -0.0097  0.0847
 3008SOL    HW120486   3.166   4.183  13.405 -0.8517 -0.1309  0.3862
 3008SOL    HW220487   3.270   4.111  13.483  0.9096  0.5572 -1.5521
 3009SOL     OW20488   0.835   3.715   2.627  0.5595  0.2415  0.5223
 3009SOL    HW120489   0.870   3.803   2.639 -3.3421  1.7508  0.9251
 3009SOL    HW220490   0.751   3.715   2.673 -0.3838 -1.9336 -1.1981
 3010SOL     OW20491   3.838   0.727   5.145  0.2090 -0.2085 -0.4713
 3010SOL    HW120492   3.799   0.706   5.230 -1.3819  0.2975 -1.0721
 3010SOL    HW220493   3.874   0.640   5.126  0.2099 -0.4515  0.6464
 3011SOL     OW20494   4.197   2.247   7.963 -0.5045 -0.4072  0.2263
 3011SOL    HW120495   4.209   2.336   7.929 -0.7682  0.3701  2.1418
 3011SOL    HW220496   4.106   2.253   7.991 -0.9741  2.2777 -1.8265
 3012SOL     OW20497   0.411   4.659   9.008  0.5734  0.6927 -0.0277
 3012SOL    HW120498   0.423   4.657   9.103 -1.0580 -0.5040  0.1646
 3012SOL    HW220499   0.328   4.707   9.005  0.8170  1.0284 -1.9012
 3013SOL     OW20500   0.754   3.716   8.004  0.2779  0.1568  0.1695
 3013SOL    HW120501   0.739   3.801   8.046  1.0605  0.2924  0.1703
 3013SOL    HW220502   0.770   3.656   8.076  2.2516  0.0746 -0.3412
 3014SOL     OW20503   0.931   1.818   2.598 -0.8447 -0.6268 -0.6459
 3014SOL    HW120504   0.899   1.777   2.518 -1.3646 -1.9431  0.2458
 3014SOL    HW220505   1.026   1.818   2.585 -0.6232 -3.4779  0.9745
 3015SOL     OW20506   2.990   1.706   1.125 -0.0942 -0.4061 -0.2996
 3015SOL    HW120507   3.024   1.635   1.179  2.7580  0.2781 -1.2025
 3015SOL    HW220508   2.909   1.726   1.171 -0.2329 -1.3722 -0.1299
 3016SOL     OW20509   4.600   3.926   9.703 -0.3417 -0.2437  0.1551
 3016SOL    HW120510   4.685   3.951   9.739 -0.2031 -1.0120  0.3660
 3016SOL    HW220511   4.560   4.013   9.704  0.1441 -0.0404  1.0108
 3017SOL     OW20512   1.594   2.601   7.050  0.0367 -0.1917  0.2674
 3017SOL    HW120513   1.573   2.694   7.038 -0.1114 -0.4621 -1.5121
 3017SOL    HW220514   1.579   2.559   6.965 -0.0653 -0.5108  0.4464
 3018SOL     OW20515   4.693   2.377   5.282  0.2255 -0.0073  0.3744
 3018SOL    HW120516   4.710   2.382   5.188 -0.6215  0.6971  0.2560
 3018SOL    HW220517   4.619   2.438   5.284 -0.0173 -0.2548 -0.8246
 3019SOL     OW20518   1.427   2.199   3.713  0.2903  0.5296 -0.1466
 3019SOL    HW120519   1.448   2.173   3.623 -0.9979  2.1769 -0.9333
 3019SOL    HW220520   1.502   2.255   3.734  2.0937 -1.6179 -0.9445
 3020SOL     OW20521   1.374   3.542   2.596  0.1828 -0.1728 -0.0190
 3020SOL    HW120522   1.302   3.562   2.535 -0.0699 -0.4244  0.1990
 3020SOL    HW220523   1.343   3.458   2.630 -2.3255  1.0803  0.7490
 3021SOL     OW20524   1.059   0.338   3.734 -0.0409  0.3189 -0.4793
 3021SOL    HW120525   1.045   0.292   3.652 -0.6411 -2.1760  1.0112
 3021SOL    HW220526   1.098   0.414   3.692 -3.7942  0.7714 -3.0566
 3022SOL     OW20527   1.379   2.758   7.356 -0.2242 -0.6459 -0.0893
 3022SOL    HW120528   1.393   2.664   7.360 -3.7133 -1.2082 -0.8526
 3022SOL    HW220529   1.292   2.750   7.395  0.6584  1.6777  2.3771
 3023SOL     OW20530   2.834   2.465   1.758 -0.0913  0.0616 -0.3357
 3023SOL    HW120531   2.807   2.538   1.813  0.7922  0.3800 -0.3162
 3023SOL    HW220532   2.850   2.512   1.676  2.4947 -0.4493 -0.1337
 3024SOL     OW20533   1.340   1.506  16.871 -0.4316  0.1412 -0.4089
 3024SOL    HW120534   1.418   1.508  16.927  0.0358  1.2803 -1.0959
 3024SOL    HW220535   1.283   1.550  16.934  0.7568  1.5890 -0.3236
 3025SOL     OW20536   3.768   3.825  11.115 -0.1817 -0.1703 -0.0133
 3025SOL    HW120537   3.819   3.829  11.034 -2.1097  0.4887 -1.1817
 3025SOL    HW220538   3.687   3.788  11.081 -1.4656  2.8678 -0.2635
 3026SOL     OW20539   1.826   1.827  14.746 -0.4743 -0.2771 -0.3649
 3026SOL    HW120540   1.903   1.770  14.752 -0.8464 -0.6979  0.3969
 3026SOL    HW220541   1.761   1.792  14.808  0.6769 -1.3578  0.2414
 3027SOL     OW20542   0.905   2.474   2.671 -0.1687 -0.5155 -0.2364
 3027SOL    HW120543   0.835   2.475   2.606 -0.0065  2.3974 -0.3910
 3027SOL    HW220544   0.885   2.406   2.735  1.8728 -0.7442  0.1444
 3028SOL     OW20545   2.207   0.353   8.774 -0.4573 -0.6645 -0.8550
 3028SOL    HW120546   2.146   0.364   8.847  1.6906  1.3867  0.6605
 3028SOL    HW220547   2.168   0.269   8.752 -1.0346 -1.0189  1.5101
 3029SOL     OW20548   2.961   1.558   6.983 -0.3191  0.2279  0.0073
 3029SOL    HW120549   3.026   1.549   6.914 -1.1045 -0.6361 -0.6049
 3029SOL    HW220550   2.922   1.471   6.987 -1.2214  0.5734 -1.2457
 3030SOL     OW20551   4.095   3.658   7.371  0.1046  0.2405 -0.2268
 3030SOL    HW120552   4.101   3.566   7.345 -1.1051  0.5895 -1.7699
 3030SOL    HW220553   4.175   3.668   7.422 -0.5708  3.2757  0.2484
 3031SOL     OW20554   3.107   1.221   3.308 -0.0498  0.2132 -0.0201
 3031SOL    HW120555   3.050   1.268   3.369  1.5616  0.0812  1.6085
 3031SOL    HW220556   3.129   1.150   3.368  1.0120  3.0799  3.0053
 3032SOL     OW20557   2.564   4.107   1.129  0.2080  0.4020  0.0130
 3032SOL    HW120558   2.621   4.147   1.195 -0.0812  1.9782 -0.6830
 3032SOL    HW220559   2.488   4.082   1.181 -0.4800  2.4091 -0.0158
 3033SOL     OW20560   0.239   2.591   5.266 -0.0191  0.1980  0.4167
 3033SOL    HW120561   0.182   2.657   5.225  0.8086 -0.1753 -1.3198
 3033SOL    HW220562   0.219   2.602   5.359  0.0847 -0.2985  0.4947
 3034SOL     OW20563   2.778   1.118   2.909 -0.3548  1.0179  0.3167
 3034SOL    HW120564   2.760   1.211   2.892  0.0512  1.2650  1.2249
 3034SOL    HW220565   2.865   1.111   2.871 -0.5457 -3.0797  0.6252
 3035SOL     OW20566   3.190   2.876   5.953 -0.6406  0.1399 -0.4819
 3035SOL    HW120567   3.243   2.827   5.889 -0.2042 -0.4644  0.3442
 3035SOL    HW220568   3.109   2.848   5.910 -1.9051  3.2291 -0.1012
 3036SOL     OW20569   1.843   2.491   5.048  0.3411 -0.2267  1.0838
 3036SOL    HW120570   1.898   2.551   4.997 -0.8185  0.1938  0.3182
 3036SOL    HW220571   1.897   2.491   5.126  2.7561  2.1602 -0.5830
 3037SOL     OW20572   3.859   3.703   7.074  0.0602 -0.5214  0.1572
 3037SOL    HW120573   3.771   3.699   7.036  0.2875 -1.8467 -0.2568
 3037SOL    HW220574   3.912   3.711   6.995  0.1216  0.4737  0.3014
 3038SOL     OW20575   1.129   1.745  11.418  0.4518  0.4137  0.5349
 3038SOL    HW120576   1.108   1.693  11.496 -4.0239  2.1390  0.4432
 3038SOL    HW220577   1.102   1.683  11.351  3.0676 -0.6419  0.4658
 3039SOL     OW20578   2.346   2.217   4.767  0.2544 -0.1927 -0.2347
 3039SOL    HW120579   2.312   2.128   4.779  1.9005 -0.6515  1.0792
 3039SOL    HW220580   2.298   2.232   4.686 -0.5951  0.4992  0.3943
 3040SOL     OW20581   4.181   2.922  10.958  0.7678  0.2711 -0.5560
 3040SOL    HW120582   4.201   2.943  11.049 -1.5851 -0.1378  0.0433
 3040SOL    HW220583   4.265   2.951  10.922 -0.3566  2.4249 -1.4127
 3041SOL     OW20584   0.618   1.000   8.645 -0.1872  0.7968  0.7096
 3041SOL    HW120585   0.670   1.062   8.696  0.6538 -0.9692  1.9950
 3041SOL    HW220586   0.622   1.036   8.557  0.9238 -0.2358  0.3329
 3042SOL     OW20587   1.272   2.610   5.510  0.2068  0.2340  0.3848
 3042SOL    HW120588   1.195   2.556   5.492 -0.1342  1.3627 -1.5548
 3042SOL    HW220589   1.315   2.606   5.425  0.1201  2.6048  0.2315
 3043SOL     OW20590   4.468   2.302   4.082  0.3433  0.3869  0.1466
 3043SOL    HW120591   4.503   2.383   4.045 -0.2480  0.0930 -1.0756
 3043SOL    HW220592   4.405   2.290   4.011 -1.4058 -2.8326  2.2447
 3044SOL     OW20593   2.305   4.201  15.849  0.2311  0.3182 -0.2476
 3044SOL    HW120594   2.309   4.211  15.754 -0.1024 -0.7294 -0.3723
 3044SOL    HW220595   2.384   4.148  15.862  1.0365  1.8631  1.0678
 3045SOL     OW20596   2.523   4.387   9.076 -0.2942 -0.1437 -0.0050
 3045SOL    HW120597   2.554   4.322   9.138  0.4338  0.6446  0.4566
 3045SOL    HW220598   2.552   4.466   9.122 -1.1256  0.6995 -0.9042
 3046SOL     OW20599   0.174   1.494   9.851 -0.0949 -0.2661  0.6522
 3046SOL    HW120600   0.203   1.495   9.942  1.9885  0.9728 -0.0396
 3046SOL    HW220601   0.227   1.563   9.811  1.3166 -0.6522  1.8693
 3047SOL     OW20602   0.734   0.406  10.021  0.5055 -0.0521  0.2145
 3047SOL    HW120603   0.702   0.392  10.110 -3.6093  2.2585 -0.9311
 3047SOL    HW220604   0.801   0.338  10.012 -0.5315 -0.6955 -2.5659
 3048SOL     OW20605   0.514   0.163   5.568 -0.1124  0.1572 -0.6109
 3048SOL    HW120606   0.589   0.157   5.509 -0.7874  2.1238 -1.6487
 3048SOL    HW220607   0.499   0.070   5.589  0.7754  0.1167 -0.1083
 3049SOL     OW20608   2.289   2.986   4.664  0.0809 -0.5594  0.2846
 3049SOL    HW120609   2.279   3.070   4.709 -2.8974 -0.1163 -1.2289
 3049SOL    HW220610   2.256   3.007   4.577  1.8528 -2.1026 -0.7617
 3050SOL     OW20611   2.337   2.740   4.059  0.1609  0.0513 -0.1095
 3050SOL    HW120612   2.286   2.788   3.993 -0.3259  0.3296  0.4669
 3050SOL    HW220613   2.418   2.723   4.012 -0.0861  0.6357 -0.7438
 3051SOL     OW20614   0.007   0.984   4.737 -0.2565  0.7489  0.4250
 3051SOL    HW120615   0.007   0.888   4.742 -1.9314  0.8967  3.6169
 3051SOL    HW220616   0.047   0.990   4.651 -0.9716  0.0974  0.0440
 3052SOL     OW20617   1.526   2.340   6.191 -0.2090 -0.1060  0.1989
 3052SOL    HW120618   1.495   2.375   6.275  0.8713  0.3918  0.3902
 3052SOL    HW220619   1.608   2.306   6.226  0.8775 -0.4212 -2.7052
 3053SOL     OW20620   3.302   2.490  17.174  0.0038  0.4532  0.3567
 3053SOL    HW120621   3.365   2.417  17.174  0.9791  1.3004  0.6567
 3053SOL    HW220622   3.357   2.567  17.189  1.0595  0.1071 -1.9011
 3054SOL     OW20623   1.358   4.196   7.749 -0.7853 -0.8903 -0.5203
 3054SOL    HW120624   1.434   4.222   7.800 -1.1077 -2.1326  0.6116
 3054SOL    HW220625   1.281   4.202   7.805 -0.3143  0.3790 -0.0228
 3055SOL     OW20626   2.904   1.343   9.030 -0.2086  0.0633 -0.0157
 3055SOL    HW120627   2.864   1.348   9.117 -2.6796 -0.6201 -1.1118
 3055SOL    HW220628   2.849   1.275   8.991 -0.6991  0.4759 -0.0474
 3056SOL     OW20629   4.699   4.727   9.148 -0.0002 -0.5217  0.2938
 3056SOL    HW120630   4.728   4.682   9.227 -0.3611 -1.2939 -0.0182
 3056SOL    HW220631   4.621   4.675   9.128 -2.6438  3.5610  0.0652
 3057SOL     OW20632   0.873   4.506  16.461  0.1441 -0.2311 -0.7913
 3057SOL    HW120633   0.868   4.585  16.515  0.5174 -0.4278 -0.4746
 3057SOL    HW220634   0.839   4.441  16.522 -0.0969 -0.8891 -1.6347
 3058SOL     OW20635   2.232   1.712   6.728  0.2954 -0.5888 -0.0219
 3058SOL    HW120636   2.235   1.658   6.649 -1.8527 -1.1093  0.2528
 3058SOL    HW220637   2.256   1.649   6.796 -1.6679 -0.2037  1.0282
 3059SOL     OW20638   2.737   0.513   3.714  0.7552 -0.1499 -0.0589
 3059SOL    HW120639   2.813   0.455   3.710 -0.2019 -1.3358 -1.2517
 3059SOL    HW220640   2.745   0.534   3.621  0.7901 -2.5080 -0.5925
 3060SOL     OW20641   3.248   0.198   2.467 -0.5607  0.2688 -0.2085
 3060SOL    HW120642   3.229   0.159   2.382  0.5626  1.1942 -0.8843
 3060SOL    HW220643   3.167   0.191   2.517  1.3056  0.3982  2.8440
 3061SOL     OW20644   0.923   0.586   5.771 -0.0202  0.1441 -0.7520
 3061SOL    HW120645   0.910   0.647   5.844 -0.9805  0.8361 -1.4969
 3061SOL    HW220646   0.949   0.646   5.701 -1.6230  3.4679  1.4727
 3062SOL     OW20647   3.340   3.634   2.978  0.4901 -0.0767 -0.1301
 3062SOL    HW120648   3.297   3.620   2.894  1.0833 -1.1175 -0.2580
 3062SOL    HW220649   3.410   3.568   2.977  2.5607  2.1178  0.1865
 3063SOL     OW20650   1.300   4.021   8.116 -0.2908 -0.1216  0.2870
 3063SOL    HW120651   1.296   4.007   8.021 -2.2030  1.1584  0.1853
 3063SOL    HW220652   1.220   4.067   8.141  0.0180 -0.8297  2.5784
 3064SOL     OW20653   2.124   3.598  13.350 -0.0661 -0.1507  0.0595
 3064SOL    HW120654   2.182   3.674  13.359  0.7650 -0.5491 -1.9809
 3064SOL    HW220655   2.048   3.640  13.311  0.2102  2.1671  1.9658
 3065SOL     OW20656   0.171   2.818   6.007  0.2487 -0.4838  0.2009
 3065SOL    HW120657   0.227   2.745   6.032 -0.8325 -1.7633 -1.0911
 3065SOL    HW220658   0.166   2.819   5.911  1.0514 -1.3143  0.1417
 3066SOL     OW20659   4.368   0.584   0.549 -0.1236 -0.6634 -1.0623
 3066SOL    HW120660   4.313   0.513   0.583  0.8019 -1.3515 -1.0192
 3066SOL    HW220661   4.454   0.543   0.556  0.5115  0.3489 -2.9746
 3067SOL     OW20662   3.465   0.427   5.046  0.0823 -0.1006  0.0530
 3067SOL    HW120663   3.388   0.483   5.052  1.0053  1.3124 -1.2205
 3067SOL    HW220664   3.431   0.369   4.977 -0.8308  1.4193 -0.7720
 3068SOL     OW20665   1.244   1.707  16.287 -0.1069  0.3688 -0.2948
 3068SOL    HW120666   1.260   1.799  16.265  0.2973  0.6407  1.1304
 3068SOL    HW220667   1.323   1.680  16.334  0.1183 -0.6910 -1.2906
 3069SOL     OW20668   0.102   1.073   2.864  0.1393 -0.2242  0.1459
 3069SOL    HW120669   0.059   1.035   2.787  3.2942 -1.9254 -0.7456
 3069SOL    HW220670   0.088   1.166   2.843 -1.9157 -0.7619 -0.8678
 3070SOL     OW20671   3.735   0.430  11.818 -0.5004 -0.1110  0.1912
 3070SOL    HW120672   3.679   0.507  11.812  1.1349  0.9402 -1.7177
 3070SOL    HW220673   3.660   0.371  11.825  0.0637 -1.3166 -3.9924
 3071SOL     OW20674   2.316   1.449  16.205 -0.0461 -0.2416  0.0276
 3071SOL    HW120675   2.273   1.502  16.272  0.0087  0.1634 -0.2564
 3071SOL    HW220676   2.253   1.447  16.133  0.4890 -1.1577 -0.4289
 3072SOL     OW20677   4.467   4.365   3.592 -0.2242  0.7420 -0.4243
 3072SOL    HW120678   4.414   4.326   3.523  1.1187 -1.1811 -0.3664
 3072SOL    HW220679   4.439   4.312   3.666  1.3433 -0.9000 -1.0079
 3073SOL     OW20680   3.586   0.045   2.317 -0.3525 -0.2096  0.9881
 3073SOL    HW120681   3.552   0.050   2.407 -1.3418  0.9819  0.5500
 3073SOL    HW220682   3.499   0.050   2.276  0.0341 -3.8078 -0.3170
 3074SOL     OW20683   2.016   4.046  13.792  0.0869  0.0587 -0.8262
 3074SOL    HW120684   2.045   4.130  13.755  0.8955 -0.4157 -1.2814
 3074SOL    HW220685   2.051   3.987  13.725 -3.1770 -1.2942 -1.3306
 3075SOL     OW20686   0.363   1.194   8.399 -0.0369 -0.7403 -0.2361
 3075SOL    HW120687   0.276   1.168   8.369  0.3386  1.0478 -2.9510
 3075SOL    HW220688   0.348   1.223   8.489 -1.7417 -1.1613 -0.3964
 3076SOL     OW20689   1.974   1.202  15.377  0.0391  0.3051  0.3526
 3076SOL    HW120690   1.927   1.142  15.436 -2.0410 -0.0046 -1.6459
 3076SOL    HW220691   1.941   1.179  15.291  0.8291 -2.3977  0.7578
 3077SOL     OW20692   1.176   1.631   1.582  0.5150 -1.0082 -0.0533
 3077SOL    HW120693   1.221   1.647   1.499  1.6664  0.3628  0.8407
 3077SOL    HW220694   1.112   1.702   1.579  0.5746 -0.9942 -0.9755
 3078SOL     OW20695   3.211   1.591   6.133  0.5513  0.2756 -0.1958
 3078SOL    HW120696   3.228   1.617   6.042 -1.1402  0.4630 -0.4592
 3078SOL    HW220697   3.138   1.645   6.162  0.8130  0.2924  0.4249
 3079SOL     OW20698   1.085   0.411   4.186  0.1284  0.0484 -0.1349
 3079SOL    HW120699   1.031   0.356   4.130 -0.5191 -1.8212  2.3439
 3079SOL    HW220700   1.168   0.413   4.138  0.6816 -0.4388  0.8176
 3080SOL     OW20701   1.598   1.707   2.316 -0.0504 -0.1289  0.2130
 3080SOL    HW120702   1.533   1.668   2.257 -0.9819 -1.5043  2.1209
 3080SOL    HW220703   1.550   1.778   2.359  1.3369  0.7179  0.3737
 3081SOL     OW20704   0.813   1.048   5.639  0.5035  0.0249 -0.3307
 3081SOL    HW120705   0.842   1.133   5.605  0.6448  0.6858  1.4650
 3081SOL    HW220706   0.895   0.999   5.640  0.5981  0.0920 -3.0352
 3082SOL     OW20707   4.136   3.649   6.129  0.2684 -0.6248 -0.3079
 3082SOL    HW120708   4.099   3.682   6.047  0.0352 -0.8830 -0.3039
 3082SOL    HW220709   4.144   3.733   6.173  0.2861 -0.1612 -1.1825
 3083SOL     OW20710   1.270   0.188   8.765  0.0990 -0.1966 -0.2056
 3083SOL    HW120711   1.341   0.240   8.728 -1.1610  1.7001 -0.0002
 3083SOL    HW220712   1.194   0.221   8.716 -0.9891 -1.0368  0.9186
 3084SOL     OW20713   3.530   1.821   8.382 -0.3914 -0.0250  0.6685
 3084SOL    HW120714   3.478   1.814   8.462  0.3800 -0.9499  1.0965
 3084SOL    HW220715   3.596   1.751   8.386  0.0358  0.3418 -0.0888
 3085SOL     OW20716   2.873   4.556   3.703  0.5579 -0.4435  0.1728
 3085SOL    HW120717   2.882   4.483   3.641  1.6598 -0.0194 -0.1596
 3085SOL    HW220718   2.873   4.513   3.789 -0.3234  0.4647  0.6265
 3086SOL     OW20719   1.713   3.005   5.971 -0.4723 -0.2077 -0.3251
 3086SOL    HW120720   1.622   3.000   5.999 -0.4289 -0.5792 -0.2486
 3086SOL    HW220721   1.748   3.026   6.058  2.5055 -0.8028 -1.3722
 3087SOL     OW20722   1.651   2.770   2.889 -0.2169  0.7544 -0.7579
 3087SOL    HW120723   1.639   2.690   2.941 -2.1882  0.6742 -1.3582
 3087SOL    HW220724   1.674   2.734   2.803 -2.3378 -0.5543 -0.7788
 3088SOL     OW20725   1.924   0.603   4.498 -0.5100 -0.4327 -0.3372
 3088SOL    HW120726   1.996   0.667   4.493 -1.5536  0.8970  1.7274
 3088SOL    HW220727   1.889   0.600   4.409 -0.4914 -1.5356 -0.3064
 3089SOL     OW20728   0.934   1.921   3.865 -0.6501  0.1798 -0.0824
 3089SOL    HW120729   0.944   1.926   3.770  1.1180 -1.2006  0.0374
 3089SOL    HW220730   1.007   1.865   3.890 -2.2614 -2.5965 -1.5040
 3090SOL     OW20731   0.817   0.494   3.800 -0.2725  0.1478 -0.5535
 3090SOL    HW120732   0.891   0.549   3.775 -0.0953  0.6020  0.9340
 3090SOL    HW220733   0.876   0.423   3.828 -0.7141 -0.8755 -2.2236
 3091SOL     OW20734   2.915   0.814   3.618  0.1943 -0.0207 -0.7828
 3091SOL    HW120735   2.867   0.839   3.539  1.2823  3.6937 -0.2939
 3091SOL    HW220736   2.939   0.901   3.650  0.0953 -0.3470  0.1740
 3092SOL     OW20737   3.711   4.141   7.015 -0.0689  0.0749  0.0781
 3092SOL    HW120738   3.673   4.074   7.072  1.1016 -1.0270 -0.4160
 3092SOL    HW220739   3.803   4.122   7.034 -0.1385  0.5791  0.9228
 3093SOL     OW20740   2.589   2.701   3.894 -0.5335 -0.1881 -0.4818
 3093SOL    HW120741   2.650   2.700   3.821  0.5887 -0.2787  0.4582
 3093SOL    HW220742   2.637   2.654   3.962 -2.7387 -2.0530 -0.1863
 3094SOL     OW20743   3.813   2.741   4.938  0.3066 -0.0880 -0.4983
 3094SOL    HW120744   3.870   2.795   4.884 -1.2661  0.6462 -1.4318
 3094SOL    HW220745   3.729   2.760   4.896 -0.7213 -1.0897  1.1277
 3095SOL     OW20746   3.756   3.689   5.952  0.4486  0.1746 -0.0090
 3095SOL    HW120747   3.697   3.753   5.910 -2.6313 -1.0073  2.5863
 3095SOL    HW220748   3.711   3.681   6.036 -1.3208  0.7909 -0.8980
 3096SOL     OW20749   3.337   0.248   7.600 -0.6074  0.1607  0.1291
 3096SOL    HW120750   3.291   0.219   7.522  1.5551 -2.3943 -0.2183
 3096SOL    HW220751   3.265   0.237   7.662 -0.1304  0.6973  0.7882
 3097SOL     OW20752   4.253   2.991   7.375  0.1682 -0.5277  0.0673
 3097SOL    HW120753   4.179   2.953   7.328 -0.3954  0.6936 -0.0371
 3097SOL    HW220754   4.301   2.910   7.390  1.7353  0.3243 -0.3744
 3098SOL     OW20755   3.066   2.815   4.690  0.3295  0.2777 -0.5718
 3098SOL    HW120756   2.999   2.871   4.650  1.7036  0.8104 -2.1443
 3098SOL    HW220757   3.134   2.808   4.623  2.0309 -2.7160  1.4813
 3099SOL     OW20758   1.978   0.744   0.013  0.3048  0.3346  0.2393
 3099SOL    HW120759   1.959   0.837   0.008 -0.3500  0.0005 -3.2193
 3099SOL    HW220760   1.983   0.712  17.637 -1.3030 -0.0245  0.2892
 3100SOL     OW20761   0.270   1.870   2.936 -0.6328 -0.2148  0.7009
 3100SOL    HW120762   0.222   1.922   2.872  3.0193 -0.3152 -2.0835
 3100SOL    HW220763   0.357   1.909   2.932 -2.0341  2.7771 -0.7369
 3101SOL     OW20764   2.397   0.285   7.101  0.1097  0.8780 -0.3574
 3101SOL    HW120765   2.482   0.324   7.081  0.2235 -0.6760 -2.8611
 3101SOL    HW220766   2.343   0.363   7.115 -0.5541  0.2779  0.3832
 3102SOL     OW20767   2.533   1.666   6.014 -0.3175 -0.2482 -0.0329
 3102SOL    HW120768   2.604   1.727   6.033 -0.5297  0.2034 -0.6689
 3102SOL    HW220769   2.534   1.659   5.919 -1.7034  4.2411 -0.3982
 3103SOL     OW20770   1.872   0.977   0.208 -0.0581 -0.3677  0.4034
 3103SOL    HW120771   1.852   0.992   0.300 -0.3649  1.7778 -0.0044
 3103SOL    HW220772   1.802   0.921   0.174 -0.6675  0.4275  0.3256
 3104SOL     OW20773   0.620   3.714   2.807 -0.0649 -0.0185 -0.0333
 3104SOL    HW120774   0.582   3.632   2.776  0.2003 -1.1826  2.6918
 3104SOL    HW220775   0.542   3.764   2.829  0.5964  0.8722  0.3238
 3105SOL     OW20776   1.097   1.876   5.177  0.4042 -0.1457 -0.0299
 3105SOL    HW120777   1.029   1.880   5.110 -0.1166 -0.5930  0.4706
 3105SOL    HW220778   1.060   1.916   5.256  1.8896  1.2066 -0.0236
 3106SOL     OW20779   3.677   0.631   9.200 -0.0340 -0.2068 -0.6231
 3106SOL    HW120780   3.606   0.598   9.145  0.9356 -0.4652 -1.7232
 3106SOL    HW220781   3.629   0.693   9.255 -1.2785  0.0681 -2.0361
 3107SOL     OW20782   0.792   2.062   8.393 -0.0508  0.2401 -0.1053
 3107SOL    HW120783   0.840   2.047   8.474  0.9540 -2.0719 -1.1266
 3107SOL    HW220784   0.719   2.116   8.424  0.2821  1.0642 -0.7306
 3108SOL     OW20785   1.960   4.674  11.397 -0.0215  0.3135  0.2986
 3108SOL    HW120786   1.897   4.709  11.333 -0.8533 -0.2493  0.8207
 3108SOL    HW220787   1.909   4.645  11.472 -0.7680  0.1159 -0.2730
 3109SOL     OW20788   0.316   1.776   3.767  0.3941 -0.0782  0.2617
 3109SOL    HW120789   0.401   1.771   3.724  1.6374 -3.5190  3.1768
 3109SOL    HW220790   0.269   1.815   3.693  0.5097  0.1328  0.2992
 3110SOL     OW20791   1.920   3.544  11.905  0.1878 -0.2652  0.0793
 3110SOL    HW120792   1.929   3.449  11.896  1.5393 -0.1431  0.2526
 3110SOL    HW220793   1.990   3.570  11.845  0.6752 -0.0286  0.7573
 3111SOL     OW20794   1.308   1.239   1.765 -0.7737 -0.0607  0.2881
 3111SOL    HW120795   1.219   1.245   1.733 -0.7354 -2.7225 -0.3172
 3111SOL    HW220796   1.291   1.283   1.849 -0.8806  0.5428 -0.0487
 3112SOL     OW20797   1.013   2.751  16.099 -0.0977  0.0098 -0.1344
 3112SOL    HW120798   0.923   2.756  16.130  0.3319 -0.5399  1.2103
 3112SOL    HW220799   1.017   2.816  16.028  1.3003 -0.1651 -0.2242
 3113SOL     OW20800   1.546   1.248   3.067 -0.2234  0.8592  0.2489
 3113SOL    HW120801   1.487   1.189   3.019 -0.0197 -0.6943  1.8711
 3113SOL    HW220802   1.481   1.298   3.116  2.0766  3.1646  0.9399
 3114SOL     OW20803   3.313   2.725   5.774  0.5517  0.3423 -0.1303
 3114SOL    HW120804   3.259   2.679   5.710  2.0168  2.2321 -2.6973
 3114SOL    HW220805   3.379   2.657   5.780  1.5124  1.2658 -0.1829
 3115SOL     OW20806   1.895   2.916   6.889  0.4602 -0.9270 -0.2594
 3115SOL    HW120807   1.944   2.998   6.877 -1.1563  0.3232  1.6779
 3115SOL    HW220808   1.909   2.908   6.983  1.0195 -0.3035 -0.2860
 3116SOL     OW20809   0.592   2.886  17.521  0.0420  0.7786 -0.0896
 3116SOL    HW120810   0.523   2.909  17.458 -0.5892 -0.0649  0.2930
 3116SOL    HW220811   0.638   2.824  17.465  0.5249  1.2537 -0.2232
 3117SOL     OW20812   1.450   2.073   7.757  0.0860  0.3511 -0.6173
 3117SOL    HW120813   1.432   2.117   7.840 -1.3546 -0.5153 -0.4637
 3117SOL    HW220814   1.545   2.082   7.749  0.1469  1.8364  1.7346
 3118SOL     OW20815   1.002   1.257   2.733 -0.2979 -0.3623  0.0839
 3118SOL    HW120816   0.929   1.312   2.706  0.7064  0.5721 -0.7338
 3118SOL    HW220817   0.987   1.273   2.826  3.9534  0.3247  0.6599
 3119SOL     OW20818   4.667   0.152  11.174 -0.2464  0.8498 -0.2242
 3119SOL    HW120819   0.005   0.197  11.122  0.4495  1.0064  0.8142
 3119SOL    HW220820   4.586   0.193  11.144 -1.4005 -1.5176 -0.3711
 3120SOL     OW20821   3.196   4.234  11.699 -0.2868  0.9389 -0.6763
 3120SOL    HW120822   3.287   4.250  11.723 -0.2631  2.1902 -1.6159
 3120SOL    HW220823   3.149   4.259  11.779 -1.6615 -0.0331 -1.1606
 3121SOL     OW20824   0.041   1.267   3.831  0.1922  0.4919  0.4797
 3121SOL    HW120825   4.687   1.269   3.881  0.5110  0.9413  0.9880
 3121SOL    HW220826   0.014   1.249   3.741 -0.1356 -0.1946  0.7140
 3122SOL     OW20827   3.881   3.835  16.850 -0.3012  0.3737  0.6784
 3122SOL    HW120828   3.811   3.796  16.797 -0.4388  0.8329  0.5221
 3122SOL    HW220829   3.944   3.867  16.785  1.1054 -2.3781  0.6844
 3123SOL     OW20830   1.432   2.434   2.634  0.3118  0.1966  0.1863
 3123SOL    HW120831   1.476   2.506   2.588  1.2401 -0.5421 -0.0901
 3123SOL    HW220832   1.346   2.432   2.591 -0.1557  1.3749  1.0864
 3124SOL     OW20833   1.071   2.401   8.686 -0.2687 -0.2575  0.1233
 3124SOL    HW120834   1.050   2.345   8.761 -1.2674 -1.3482 -0.9615
 3124SOL    HW220835   1.141   2.457   8.719  0.5268 -1.0370 -0.2385
 3125SOL     OW20836   3.845   1.647   5.259 -0.3376  0.3430 -0.2912
 3125SOL    HW120837   3.864   1.730   5.216 -0.4920  0.1728 -0.6875
 3125SOL    HW220838   3.929   1.633   5.302  0.2302  1.9713 -0.9140
 3126SOL     OW20839   3.946   3.514   6.745  0.3477  0.1058  0.2641
 3126SOL    HW120840   3.945   3.419   6.737 -2.1934  0.1425  0.0678
 3126SOL    HW220841   3.856   3.538   6.768 -0.0779 -1.8559  0.6644
 3127SOL     OW20842   3.524   2.279   5.031 -0.1093  0.3959  0.1642
 3127SOL    HW120843   3.495   2.188   5.024 -2.2728  1.3865 -3.5677
 3127SOL    HW220844   3.522   2.299   4.938  1.7064 -0.7189 -0.0981
 3128SOL     OW20845   0.963   1.645   8.940 -0.0305  0.5129 -0.1581
 3128SOL    HW120846   0.943   1.636   9.033 -2.8100 -0.5811 -0.8778
 3128SOL    HW220847   1.059   1.650   8.934  0.0993 -2.4038 -0.2711
 3129SOL     OW20848   1.729   4.143   1.847 -0.2042  0.6136  0.4723
 3129SOL    HW120849   1.642   4.139   1.886 -1.2398  1.4395 -1.7791
 3129SOL    HW220850   1.773   4.185   1.922  2.8213 -0.6328 -0.6376
 3130SOL     OW20851   2.970   4.306  15.696  0.1843  0.6015 -0.2456
 3130SOL    HW120852   2.942   4.396  15.710  3.7186  1.2384  2.7371
 3130SOL    HW220853   3.025   4.297  15.774 -1.6392 -0.2064  0.9621
 3131SOL     OW20854   2.807   2.785   5.157  0.3819 -0.1897  0.3905
 3131SOL    HW120855   2.738   2.827   5.106  1.5532 -0.4873 -1.4357
 3131SOL    HW220856   2.823   2.861   5.213  2.8490  0.0243 -0.5949
 3132SOL     OW20857   3.753   4.542   6.720  0.5020  0.7924  0.3075
 3132SOL    HW120858   3.711   4.505   6.797 -0.9540 -1.2295 -1.4613
 3132SOL    HW220859   3.676   4.537   6.664  1.2911  1.0948 -0.8243
 3133SOL     OW20860   0.922   1.920   5.444 -0.3995  0.0142 -0.9042
 3133SOL    HW120861   0.849   1.863   5.420 -1.0366  0.4345  0.0246
 3133SOL    HW220862   0.953   1.870   5.519 -1.0830 -0.4245 -0.9117
 3134SOL     OW20863   0.771   3.450   4.939 -0.1015 -0.5285  0.1509
 3134SOL    HW120864   0.788   3.542   4.960 -0.7528 -0.5391  0.7128
 3134SOL    HW220865   0.801   3.410   5.020  1.3331 -0.0908 -0.1664
 3135SOL     OW20866   2.341   4.087   1.300  0.5645  0.0725  0.0994
 3135SOL    HW120867   2.328   4.006   1.349 -0.1828  0.0545 -0.1224
 3135SOL    HW220868   2.281   4.153   1.336  0.2959 -0.4711  0.6449
 3136SOL     OW20869   1.860   4.081  11.433  0.0293 -0.1214  0.2282
 3136SOL    HW120870   1.864   4.113  11.524 -0.1704 -0.9215  0.5143
 3136SOL    HW220871   1.797   4.144  11.398  1.2139  0.8857 -0.0897
 3137SOL     OW20872   4.401   1.028   8.098  0.6231 -0.2630  0.1439
 3137SOL    HW120873   4.356   0.956   8.053 -1.2136  0.5622  0.6570
 3137SOL    HW220874   4.494   1.017   8.081  0.6377  0.6004 -0.3191
 3138SOL     OW20875   4.444   1.940   9.839 -0.2399  0.3514 -0.0639
 3138SOL    HW120876   4.496   1.981   9.769 -0.6795 -1.3120 -1.3558
 3138SOL    HW220877   4.438   1.849   9.811 -3.4630 -0.0101  1.7836
 3139SOL     OW20878   2.084   3.752  17.003  0.8415  0.0806 -0.2474
 3139SOL    HW120879   2.165   3.750  17.056  2.4390  2.0687 -2.6524
 3139SOL    HW220880   2.031   3.682  17.041  1.1449 -0.0943 -0.1377
 3140SOL     OW20881   3.769   2.239  15.816  0.1046 -0.1474  0.2007
 3140SOL    HW120882   3.787   2.218  15.908  0.4515  1.6860  0.5586
 3140SOL    HW220883   3.819   2.168  15.776 -0.5880  0.7248 -2.2112
 3141SOL     OW20884   0.261   4.473   4.641 -0.0488 -0.2125 -0.4266
 3141SOL    HW120885   0.224   4.488   4.554  1.7246 -0.1940 -1.1853
 3141SOL    HW220886   0.291   4.561   4.662 -0.4495  0.2767 -1.8651
 3142SOL     OW20887   2.866   4.506   6.767  0.3671  0.2196  0.4561
 3142SOL    HW120888   2.918   4.433   6.802 -0.6863  0.6942  3.0315
 3142SOL    HW220889   2.790   4.464   6.726 -0.3011 -0.5521  2.5038
 3143SOL     OW20890   3.428   2.800   8.624 -1.0927 -0.3045 -0.0981
 3143SOL    HW120891   3.340   2.760   8.623 -0.9846 -0.5226 -1.4169
 3143SOL    HW220892   3.404   2.883   8.582 -1.6128  0.2535  1.3073
 3144SOL     OW20893   3.323   1.984   6.730  0.2267  0.3754  0.3579
 3144SOL    HW120894   3.241   1.936   6.739 -1.0672  2.1350 -2.2338
 3144SOL    HW220895   3.378   1.909   6.706  0.9850  2.0313 -2.9728
 3145SOL     OW20896   1.709   2.576   1.757  0.5082  0.1350  0.3492
 3145SOL    HW120897   1.785   2.603   1.705  0.4152 -2.0610 -0.9048
 3145SOL    HW220898   1.717   2.481   1.763 -0.3863  0.1242  1.2400
 3146SOL     OW20899   4.704   2.400   9.224  0.1365 -0.0528  0.2998
 3146SOL    HW120900   4.636   2.340   9.256  1.3834 -0.0453  3.0172
 3146SOL    HW220901   0.037   2.335   9.190  1.1263  1.0380  0.0116
 3147SOL     OW20902   1.209   3.445   5.600 -0.2109  0.4469 -0.4493
 3147SOL    HW120903   1.125   3.406   5.627  0.2473  0.7175  1.3846
 3147SOL    HW220904   1.262   3.381   5.648 -2.8376 -0.9115  0.6576
 3148SOL     OW20905   3.504   1.144   5.486  0.1565  0.1844 -0.8867
 3148SOL    HW120906   3.527   1.053   5.469 -0.8702 -0.1289 -0.5877
 3148SOL    HW220907   3.438   1.158   5.419 -0.9494  3.2489  0.8197
 3149SOL     OW20908   2.037   0.817   1.712 -0.0205 -0.1396  0.2166
 3149SOL    HW120909   1.981   0.740   1.727  0.5466 -0.8733 -1.4890
 3149SOL    HW220910   2.010   0.851   1.627 -0.6000  0.9327  0.8343
 3150SOL     OW20911   3.833   4.387   3.824 -0.5413  0.2231 -0.1007
 3150SOL    HW120912   3.781   4.360   3.899 -3.0786  0.5500 -1.7262
 3150SOL    HW220913   3.772   4.427   3.762 -1.3606  0.6800  1.0219
 3151SOL     OW20914   2.476   4.261  16.220  0.1474 -0.6877 -0.3433
 3151SOL    HW120915   2.478   4.254  16.316  1.3484  1.7866 -0.1798
 3151SOL    HW220916   2.492   4.355  16.218  2.2233 -1.0138  1.0718
 3152SOL     OW20917   4.085   1.383   8.284 -0.1724  0.0859 -0.7265
 3152SOL    HW120918   4.137   1.330   8.224  0.0957 -0.1125 -0.3190
 3152SOL    HW220919   4.019   1.320   8.313 -0.1480 -0.2561 -1.4090
 3153SOL     OW20920   2.534   1.120  14.868 -0.8061  0.2463  0.0536
 3153SOL    HW120921   2.459   1.107  14.927 -0.3072 -2.3183  0.1304
 3153SOL    HW220922   2.490   1.132  14.784 -0.3444 -1.4036 -0.4246
 3154SOL     OW20923   3.388   2.503   0.802  0.0991 -0.2650 -0.0490
 3154SOL    HW120924   3.304   2.463   0.821 -0.1179 -0.2103 -0.8836
 3154SOL    HW220925   3.375   2.596   0.822  1.3829  0.1083 -0.9480
 3155SOL     OW20926   4.301   3.372  11.245 -0.7802 -0.1568  0.0991
 3155SOL    HW120927   4.380   3.321  11.227 -0.7834 -0.2690  0.3969
 3155SOL    HW220928   4.342   3.454  11.218 -2.4891  0.7513  0.2367
 3156SOL     OW20929   3.046   0.869   5.284  0.2281 -0.7811  0.2696
 3156SOL    HW120930   2.958   0.904   5.294  0.7103  0.3818  0.4985
 3156SOL    HW220931   3.041   0.797   5.346 -0.4967 -1.8218 -0.9999
 3157SOL     OW20932   4.491   2.849   3.429  0.2603 -0.0050 -0.6832
 3157SOL    HW120933   4.442   2.783   3.380 -0.1424  0.4253 -0.8673
 3157SOL    HW220934   4.518   2.911   3.361 -1.2275  1.3260 -0.0599
 3158SOL     OW20935   4.032   0.541  16.096  0.9956 -0.3520 -0.3633
 3158SOL    HW120936   4.035   0.607  16.166 -2.0381  0.3764 -0.8905
 3158SOL    HW220937   4.124   0.543  16.070  0.0928  0.1716 -3.4483
 3159SOL     OW20938   0.749   3.675   1.789 -0.1572 -0.1953 -0.0474
 3159SOL    HW120939   0.754   3.643   1.699  1.0444  0.6016 -0.2774
 3159SOL    HW220940   0.716   3.763   1.768  0.0021  0.1289  1.0871
 3160SOL     OW20941   0.096   3.734  11.323 -0.5676  0.5192  0.2611
 3160SOL    HW120942   0.131   3.779  11.400  2.5764 -0.1132 -0.7542
 3160SOL    HW220943   0.007   3.709  11.347 -0.2338 -1.0289 -0.0547
 3161SOL     OW20944   3.129   2.440  15.486  0.3697  0.2212 -0.3225
 3161SOL    HW120945   3.167   2.424  15.572  0.2693  2.3526  0.1165
 3161SOL    HW220946   3.205   2.436  15.429 -0.2851  1.2339 -1.2675
 3162SOL     OW20947   4.506   4.296   8.350  0.0664 -0.6151 -0.2970
 3162SOL    HW120948   4.431   4.332   8.397  1.9318  1.8306  0.7569
 3162SOL    HW220949   4.480   4.203   8.346 -0.0280 -0.6678  1.8176
 3163SOL     OW20950   0.804   4.340  13.955 -0.3056 -0.0568 -0.1475
 3163SOL    HW120951   0.807   4.366  14.047 -0.4423  1.9185 -0.6836
 3163SOL    HW220952   0.888   4.365  13.917 -2.1193  1.5964 -3.1042
 3164SOL     OW20953   0.234   2.461  13.883  0.2215  0.2343  0.0117
 3164SOL    HW120954   0.176   2.458  13.960 -1.4304 -0.0783 -1.2381
 3164SOL    HW220955   0.301   2.395  13.903 -1.1307 -0.0334  3.7210
 3165SOL     OW20956   2.173   3.646  15.127 -0.0533  0.3983  0.3137
 3165SOL    HW120957   2.214   3.710  15.070  1.3974 -0.5313  0.3104
 3165SOL    HW220958   2.245   3.618  15.183 -0.9422  0.5473  1.5386
 3166SOL     OW20959   3.883   1.925   8.845  0.3740 -0.2290 -0.2628
 3166SOL    HW120960   3.885   2.017   8.816  0.6664 -0.0180  0.4334
 3166SOL    HW220961   3.801   1.928   8.894 -0.7198 -0.5598 -2.0923
 3167SOL     OW20962   4.012   2.570  15.984 -0.1880 -0.5330  0.5677
 3167SOL    HW120963   3.948   2.595  16.051  0.0990  2.5829 -0.3172
 3167SOL    HW220964   4.033   2.648  15.933 -0.7488  1.4896  3.3984
 3168SOL     OW20965   0.296   3.916   4.654 -0.7741  0.4339  0.2978
 3168SOL    HW120966   0.294   3.826   4.687  2.7742  1.5654  3.5002
 3168SOL    HW220967   0.239   3.964   4.715 -1.5682  1.1300 -0.9834
 3169SOL     OW20968   4.549   3.507   9.114 -0.8060  0.1135 -0.0461
 3169SOL    HW120969   4.574   3.556   9.192  0.4838  0.8380 -0.9039
 3169SOL    HW220970   4.621   3.445   9.107 -1.0352 -0.0609 -0.8341
 3170SOL     OW20971   1.230   2.494   3.574  0.4865 -0.0430 -0.2879
 3170SOL    HW120972   1.254   2.461   3.661  0.1654  1.7577  0.4834
 3170SOL    HW220973   1.139   2.522   3.589  0.2809 -0.7389 -0.2311
 3171SOL     OW20974   4.312   1.285   8.490 -0.4525  0.3789 -0.0554
 3171SOL    HW120975   4.365   1.348   8.442  0.9177 -0.9278 -0.2724
 3171SOL    HW220976   4.276   1.238   8.415 -0.2517  0.4902 -0.2220
 3172SOL     OW20977   1.436   2.476   8.175  0.2338 -0.2887 -0.1273
 3172SOL    HW120978   1.377   2.544   8.142  0.8173  0.4256  0.3145
 3172SOL    HW220979   1.509   2.534   8.195  2.6195 -3.8761  1.7009
 3173SOL     OW20980   3.964   1.297   1.232 -0.4640 -0.0172  0.1489
 3173SOL    HW120981   4.023   1.355   1.185  0.3494  0.0835  1.2943
 3173SOL    HW220982   3.876   1.302   1.193  0.1915  4.0879 -0.7894
 3174SOL     OW20983   2.992   0.609   5.768  0.1024  0.6601 -0.1326
 3174SOL    HW120984   2.898   0.607   5.752  0.2225 -1.3600 -0.6202
 3174SOL    HW220985   2.992   0.601   5.864 -1.9766 -0.0904 -0.1858
 3175SOL     OW20986   1.565   2.588   5.075  0.3712 -0.0933  0.1956
 3175SOL    HW120987   1.648   2.543   5.085  0.8546 -0.1018 -3.8508
 3175SOL    HW220988   1.589   2.680   5.066  2.3593 -0.7021 -0.5985
 3176SOL     OW20989   1.339   1.663  12.335  0.1746  0.9667 -0.1624
 3176SOL    HW120990   1.297   1.722  12.399 -1.2434  0.0122 -0.2115
 3176SOL    HW220991   1.310   1.581  12.375 -1.3355  1.6192  0.0958
 3177SOL     OW20992   3.081   1.815   7.052 -0.3559  0.3334 -0.3041
 3177SOL    HW120993   3.046   1.726   7.064 -0.2204  0.2465 -0.5591
 3177SOL    HW220994   3.055   1.836   6.963  0.6620 -2.5557 -1.2791
 3178SOL     OW20995   2.435   4.241   2.353  0.1464  0.5932 -0.5502
 3178SOL    HW120996   2.342   4.255   2.370 -0.0523  0.1293 -1.2552
 3178SOL    HW220997   2.464   4.208   2.438 -0.6487  0.6142 -0.2684
 3179SOL     OW20998   3.560   1.271   9.427 -0.7577  0.0761 -0.0193
 3179SOL    HW120999   3.623   1.319   9.480 -0.2421  1.4355 -1.8724
 3179SOL    HW221000   3.600   1.185   9.420  0.8759  0.8419  0.0770
 3180SOL     OW21001   2.732   3.981  12.671  0.5740  0.3748  0.0795
 3180SOL    HW121002   2.768   4.065  12.643 -0.0414  0.5649 -0.1544
 3180SOL    HW221003   2.672   3.973  12.597  1.6831 -1.6276 -0.5880
 3181SOL     OW21004   4.258   2.997  16.129  0.4011 -0.4568 -0.7234
 3181SOL    HW121005   4.349   3.024  16.113  0.7025 -0.2956  1.2917
 3181SOL    HW221006   4.223   3.001  16.040 -2.1224 -1.4133  0.2213
 3182SOL     OW21007   4.714   3.102  15.388  0.2788  0.1522 -0.2292
 3182SOL    HW121008   0.048   3.167  15.355  0.7153 -0.5543 -0.8072
 3182SOL    HW221009   4.634   3.114  15.337  0.3432 -1.8098 -0.8245
 3183SOL     OW21010   1.074   2.037  17.467 -0.3569  0.0825 -0.3145
 3183SOL    HW121011   1.165   2.055  17.446 -1.2642  2.3695 -2.3902
 3183SOL    HW221012   1.082   2.089  17.547 -0.8755 -0.9782  0.4269
 3184SOL     OW21013   2.248   2.091   4.310  0.1267  0.1798  0.3939
 3184SOL    HW121014   2.236   2.165   4.370  2.0607  1.3009 -0.6091
 3184SOL    HW221015   2.191   2.104   4.234 -0.0679 -1.3934  0.2554
 3185SOL     OW21016   0.219   3.347   2.830 -0.6565  0.2846 -0.0826
 3185SOL    HW121017   0.143   3.375   2.780 -0.2360  1.7365  0.0960
 3185SOL    HW221018   0.226   3.267   2.778 -0.5401 -1.0966  2.0574
 3186SOL     OW21019   2.230   2.784   8.204  0.1856  0.1803  0.3185
 3186SOL    HW121020   2.288   2.796   8.279 -1.3290  0.5240  1.4295
 3186SOL    HW221021   2.287   2.826   8.140  0.5532 -0.2006  0.3955
 3187SOL     OW21022   0.126   1.741   8.261  0.7865 -0.3420 -0.7310
 3187SOL    HW121023   0.105   1.826   8.223 -0.9084 -0.1280  0.6816
 3187SOL    HW221024   0.153   1.686   8.187  1.0020 -0.3983 -0.6105
 3188SOL     OW21025   1.311   0.141   3.362 -0.1187  0.2190 -0.3548
 3188SOL    HW121026   1.364   0.066   3.392 -1.3428 -0.1373  0.9362
 3188SOL    HW221027   1.268   0.094   3.291 -0.2347  0.7784 -0.6489
 3189SOL     OW21028   4.634   0.173   3.415  0.7025  0.0665 -0.6303
 3189SOL    HW121029   4.592   0.167   3.501  0.5413  0.6058 -0.6751
 3189SOL    HW221030   4.570   0.233   3.377  0.4754  0.7184  0.7899
 3190SOL     OW21031   2.098   3.307   3.981  0.2500 -0.4138 -0.0787
 3190SOL    HW121032   2.043   3.267   3.913 -2.7097  2.1058  0.8477
 3190SOL    HW221033   2.059   3.271   4.060  0.3274  2.1035  1.1252
 3191SOL     OW21034   2.216   2.649   0.419  0.0347 -1.2806  0.1624
 3191SOL    HW121035   2.298   2.612   0.453  0.9713  0.8245  0.2167
 3191SOL    HW221036   2.157   2.615   0.486 -0.7858 -0.7468 -0.2953
 3192SOL     OW21037   0.088   2.207  10.838 -0.1492  0.0256  0.7790
 3192SOL    HW121038   0.036   2.175  10.764  2.0658 -0.8063 -0.3953
 3192SOL    HW221039   0.172   2.174  10.807 -0.4705  0.7569 -0.8841
 3193SOL     OW21040   1.424   2.376  13.819 -0.2331 -0.2590  0.7157
 3193SOL    HW121041   1.461   2.424  13.892  0.8415  1.0217 -0.6577
 3193SOL    HW221042   1.477   2.297  13.806 -1.2898 -0.8363 -0.0926
 3194SOL     OW21043   4.148   1.346   8.713 -0.5218 -0.2228  0.6133
 3194SOL    HW121044   4.198   1.413   8.759  2.1457 -2.7149  1.3042
 3194SOL    HW221045   4.213   1.323   8.648  0.5123 -0.0591  1.5970
 3195SOL     OW21046   3.360   1.538   6.602 -0.4695  0.4985 -0.4934
 3195SOL    HW121047   3.284   1.522   6.657 -0.4772  1.6109 -0.1853
 3195SOL    HW221048   3.380   1.455   6.558  0.8474  0.6001 -0.0957
 3196SOL     OW21049   1.111   4.175   3.252  0.2953 -0.1845  0.0904
 3196SOL    HW121050   1.100   4.146   3.343 -0.0486 -0.6269 -0.0904
 3196SOL    HW221051   1.189   4.124   3.231  0.7038  0.5733 -0.2270
 3197SOL     OW21052   2.638   2.364   7.010  0.6181  0.0395 -0.2702
 3197SOL    HW121053   2.659   2.337   6.921  1.4602  0.6807 -0.2678
 3197SOL    HW221054   2.724   2.362   7.052  0.9912 -0.9616 -1.0951
 3198SOL     OW21055   1.620   1.576   6.775  0.3306  0.1217  0.4448
 3198SOL    HW121056   1.561   1.549   6.845  1.0588  0.7444  1.2990
 3198SOL    HW221057   1.563   1.627   6.718  0.9974 -0.2648 -0.5676
 3199SOL     OW21058   1.635   0.676   2.105  0.7013  0.8440  0.3463
 3199SOL    HW121059   1.560   0.683   2.164 -0.8798  1.4272 -1.6848
 3199SOL    HW221060   1.596   0.664   2.018 -1.3103  0.6875  1.2722
 3200SOL     OW21061   4.228   2.771  14.327 -0.0281 -0.1810  0.0677
 3200SOL    HW121062   4.244   2.769  14.233  0.3039 -0.0211  0.1213
 3200SOL    HW221063   4.222   2.865  14.344 -0.4142  0.0939 -1.5600
 3201SOL     OW21064   0.727   0.108   5.363  0.4001  0.3334 -0.2791
 3201SOL    HW121065   0.791   0.178   5.352 -0.5091  1.3171  0.6238
 3201SOL    HW221066   0.720   0.099   5.268 -2.0494  0.6357 -0.1390
 3202SOL     OW21067   4.060   3.737   4.558  0.4216  0.1109 -0.4153
 3202SOL    HW121068   4.078   3.828   4.536 -1.1477  0.4477 -0.3491
 3202SOL    HW221069   4.029   3.750   4.648 -0.5448  0.6291 -0.8208
 3203SOL     OW21070   3.145   1.997  13.514  0.1536  0.3163  0.3900
 3203SOL    HW121071   3.182   1.993  13.427  0.3783  1.9040  0.4122
 3203SOL    HW221072   3.077   2.062  13.495 -0.5544  0.6736  4.0661
 3204SOL     OW21073   0.866   2.816   2.287 -0.4655  0.1033 -0.1369
 3204SOL    HW121074   0.821   2.739   2.253 -0.7999 -0.7183  2.1856
 3204SOL    HW221075   0.806   2.886   2.261  1.2110  2.0608  1.2042
 3205SOL     OW21076   1.312   1.849   6.321 -0.4432  0.2108 -0.4784
 3205SOL    HW121077   1.351   1.892   6.245 -2.3865  0.4367 -1.3373
 3205SOL    HW221078   1.237   1.802   6.287 -0.5671 -0.0403  0.1359
 3206SOL     OW21079   4.522   4.449   7.125 -0.3023 -0.3323  0.1308
 3206SOL    HW121080   4.513   4.406   7.209 -1.2550  0.6863  0.5461
 3206SOL    HW221081   4.432   4.479   7.109  0.5976  1.9534 -0.6311
 3207SOL     OW21082   1.378   2.940   5.228 -0.1718  0.1324  0.2939
 3207SOL    HW121083   1.370   2.955   5.134 -1.2799  2.7125  0.8134
 3207SOL    HW221084   1.459   2.890   5.240  0.0895  0.8049  1.2831
 3208SOL     OW21085   2.851   1.430   3.690 -0.3396 -0.5014  0.0183
 3208SOL    HW121086   2.894   1.458   3.770 -1.1537 -1.2169  0.7028
 3208SOL    HW221087   2.759   1.448   3.709  0.2141  2.1404  0.1515
 3209SOL     OW21088   4.525   4.597   4.267 -0.2582 -0.4346  0.2135
 3209SOL    HW121089   4.513   4.647   4.186  1.2918 -1.2469 -0.5139
 3209SOL    HW221090   4.458   4.639   4.321 -1.0260  0.2682 -1.2656
 3210SOL     OW21091   3.675   2.511  15.361 -0.7867 -0.3025 -0.2249
 3210SOL    HW121092   3.707   2.591  15.321  0.0944 -0.3111  0.4550
 3210SOL    HW221093   3.736   2.441  15.336 -0.6966 -0.2674 -0.1040
 3211SOL     OW21094   2.848   2.735   2.344 -0.1328  0.3717  0.1748
 3211SOL    HW121095   2.870   2.827   2.354  1.5446  0.1529 -1.5838
 3211SOL    HW221096   2.930   2.688   2.332 -0.1050 -0.1126  2.0886
 3212SOL     OW21097   4.196   2.876   4.145  0.7550  0.3582 -0.4138
 3212SOL    HW121098   4.120   2.881   4.087 -0.1082 -1.5075  0.5618
 3212SOL    HW221099   4.254   2.938   4.101  1.9008  1.6512  2.9170
 3213SOL     OW21100   2.975   2.923  14.710 -0.1042 -0.0324  0.2784
 3213SOL    HW121101   2.956   2.952  14.799 -1.4269  0.0106 -0.0127
 3213SOL    HW221102   2.886   2.917  14.674  0.9159  2.7028 -2.6543
 3214SOL     OW21103   3.266   1.624   2.625  0.1414  0.7566 -0.2582
 3214SOL    HW121104   3.350   1.670   2.628  0.4887  0.1094 -0.1582
 3214SOL    HW221105   3.287   1.542   2.669  0.5839  1.5289  0.9940
 3215SOL     OW21106   3.554   2.468   8.935  0.1977 -0.1012 -0.0990
 3215SOL    HW121107   3.641   2.485   8.971 -0.2144  0.6166  0.5436
 3215SOL    HW221108   3.583   2.388   8.891  0.2063  1.2897 -2.6444
 3216SOL     OW21109   1.883   0.369   4.983 -0.7386  0.6125 -0.1951
 3216SOL    HW121110   1.885   0.450   4.933  2.9833 -0.1604 -1.3015
 3216SOL    HW221111   1.958   0.320   4.948 -0.4733  1.9167 -1.4208
 3217SOL     OW21112   4.324   1.053  17.641 -1.1454  0.3037  0.2514
 3217SOL    HW121113   4.321   0.972  17.691  3.0705  0.5543  0.9473
 3217SOL    HW221114   4.388   1.099  17.695 -1.1573 -0.6242  1.0597
 3218SOL     OW21115   3.895   0.606   8.404 -0.6213 -0.0729  0.1465
 3218SOL    HW121116   3.913   0.663   8.330 -0.7073  1.9334  1.6625
 3218SOL    HW221117   3.818   0.567   8.362  1.2494 -3.8974  0.2362
 3219SOL     OW21118   0.199   3.198   2.015 -0.1230 -0.8648  0.2480
 3219SOL    HW121119   0.245   3.218   2.097 -0.5970  0.5726  0.1535
 3219SOL    HW221120   0.217   3.105   1.999 -0.2567 -0.8417 -0.0373
 3220SOL     OW21121   0.519   1.442   7.800  0.3133 -0.0412 -0.0119
 3220SOL    HW121122   0.478   1.485   7.876 -0.9577  1.0145 -1.2870
 3220SOL    HW221123   0.578   1.380   7.843 -0.3367 -2.8336 -3.1318
 3221SOL     OW21124   0.900   3.546   4.353  0.5438 -0.0180  0.6097
 3221SOL    HW121125   0.944   3.599   4.420  0.3990  1.3737 -0.3995
 3221SOL    HW221126   0.847   3.493   4.414  0.2401 -1.0864 -0.5824
 3222SOL     OW21127   3.038   3.672   0.795  0.9808 -0.6112  0.0671
 3222SOL    HW121128   2.963   3.697   0.848  2.1862 -1.6631  2.2788
 3222SOL    HW221129   3.013   3.583   0.768 -0.8004 -0.2140  0.4008
 3223SOL     OW21130   3.951   0.300  11.265  0.7603  0.4899 -0.3092
 3223SOL    HW121131   3.958   0.214  11.308  2.8370  0.7127 -0.2045
 3223SOL    HW221132   3.893   0.349  11.324 -0.0680 -0.8962  0.0551
 3224SOL     OW21133   3.611   1.400   6.674 -0.0903 -0.5494  0.1161
 3224SOL    HW121134   3.561   1.461   6.620 -1.6026  0.7876  3.0519
 3224SOL    HW221135   3.695   1.398   6.629 -0.3684  0.8081 -0.4551
 3225SOL     OW21136   4.511   2.867   8.697 -0.5825 -0.2587 -0.2921
 3225SOL    HW121137   4.571   2.818   8.752  1.3843  0.5886 -1.6869
 3225SOL    HW221138   4.577   2.931   8.671 -1.3610  0.4568 -0.5531
 3226SOL     OW21139   3.649   3.799   4.417 -0.2652 -0.6404 -0.1635
 3226SOL    HW121140   3.738   3.765   4.418 -0.4488 -1.0995  0.2115
 3226SOL    HW221141   3.668   3.885   4.379 -1.2620  0.3064  1.4886
 3227SOL     OW21142   1.996   4.223  14.547 -0.2429 -0.0249 -0.3696
 3227SOL    HW121143   1.920   4.174  14.579 -0.4386  0.7936  0.4146
 3227SOL    HW221144   2.062   4.199  14.611  1.9397  1.0803 -2.1839
 3228SOL     OW21145   3.074   3.051   9.796  0.5848 -0.3888 -0.7235
 3228SOL    HW121146   3.031   2.970   9.824  0.6447 -0.4769 -0.8845
 3228SOL    HW221147   3.056   3.115   9.864  2.9288  0.2995 -0.7362
 3229SOL     OW21148   3.315   0.985   9.579 -0.0864  0.2077  0.1862
 3229SOL    HW121149   3.341   1.055   9.640  0.4794 -1.6468  2.0767
 3229SOL    HW221150   3.358   0.908   9.615  2.2991  2.4688  2.2127
 3230SOL     OW21151   0.167   1.994   6.982 -0.3561  0.1749 -0.1430
 3230SOL    HW121152   0.232   2.031   6.922 -0.9479  0.5978 -0.5231
 3230SOL    HW221153   0.187   1.901   6.990  1.3259  0.7047  1.7970
 3231SOL     OW21154   0.999   1.590   4.783  0.2512  0.3716  0.4617
 3231SOL    HW121155   1.086   1.626   4.802  0.3665  1.6065 -2.3620
 3231SOL    HW221156   0.998   1.502   4.821  3.3346 -0.2896 -1.0059
 3232SOL     OW21157   3.271   2.376  15.729 -0.3680 -0.0457 -0.1767
 3232SOL    HW121158   3.309   2.289  15.744 -1.0988 -0.0986  1.3812
 3232SOL    HW221159   3.336   2.417  15.672 -0.2375  0.8940  0.6745
 3233SOL     OW21160   4.161   2.026   2.179  0.1796 -0.2057 -0.2873
 3233SOL    HW121161   4.233   1.983   2.227 -0.3941  1.9334  2.4400
 3233SOL    HW221162   4.180   2.118   2.197 -2.8832  0.2106  0.7679
 3234SOL     OW21163   2.146   2.393   6.685  0.2149  0.1261 -0.4290
 3234SOL    HW121164   2.224   2.343   6.707 -0.8050 -0.4140  1.9858
 3234SOL    HW221165   2.164   2.389   6.591 -1.8512  0.9982 -0.8757
 3235SOL     OW21166   1.236   1.212  10.688 -0.2296 -0.1409  0.4793
 3235SOL    HW121167   1.189   1.132  10.663 -1.5271  0.6063  0.5113
 3235SOL    HW221168   1.309   1.189  10.630 -0.3697  2.0374 -0.5655
 3236SOL     OW21169   1.831   4.544   0.496  0.2048  0.2121  0.0321
 3236SOL    HW121170   1.899   4.478   0.484  0.4488  0.5604 -0.4937
 3236SOL    HW221171   1.765   4.525   0.429  1.1279 -3.3943  0.1722
 3237SOL     OW21172   3.209   2.015  12.254  0.0756  0.2829 -0.3510
 3237SOL    HW121173   3.219   1.947  12.320 -0.9000  0.3613 -0.1320
 3237SOL    HW221174   3.222   1.967  12.172 -0.6215  0.6515 -0.6716
 3238SOL     OW21175   4.457   4.557   1.538 -0.2452 -0.7528 -0.0171
 3238SOL    HW121176   4.386   4.507   1.497  0.0998 -1.7522  0.6123
 3238SOL    HW221177   4.423   4.645   1.522 -0.4744 -0.5248  1.6730
 3239SOL     OW21178   3.849   0.463   8.624 -0.3715  0.4042  0.0685
 3239SOL    HW121179   3.942   0.458   8.648 -0.0123  0.9703 -1.2104
 3239SOL    HW221180   3.848   0.540   8.568  2.2642 -0.2089 -0.8267
 3240SOL     OW21181   4.306   1.339   7.548 -0.4222  0.0088 -0.1823
 3240SOL    HW121182   4.317   1.430   7.574  0.0395 -0.3307  0.8208
 3240SOL    HW221183   4.211   1.335   7.559 -0.7391  1.1204 -2.5084
 3241SOL     OW21184   1.270   1.931   0.034  0.0165  0.9737 -0.2405
 3241SOL    HW121185   1.330   1.935  17.673 -0.6355  1.6597 -0.7166
 3241SOL    HW221186   1.330   1.920   0.108 -0.2542  2.0432  0.1319
 3242SOL     OW21187   0.132   1.127   7.861  0.6242  0.1727 -0.0125
 3242SOL    HW121188   0.142   1.127   7.766  1.7766 -0.6470  0.1018
 3242SOL    HW221189   0.194   1.195   7.889  0.5297  0.8637 -1.4628
 3243SOL     OW21190   0.634   1.871   7.827  0.1820 -0.5693  0.1561
 3243SOL    HW121191   0.620   1.792   7.878  1.9127 -0.8632  0.1602
 3243SOL    HW221192   0.565   1.873   7.761  0.2584  2.5664  0.1759
 3244SOL     OW21193   3.619   3.599   7.008  0.3957 -0.5829 -0.0494
 3244SOL    HW121194   3.589   3.591   6.918 -2.8157  0.2814  0.9464
 3244SOL    HW221195   3.544   3.574   7.062 -0.3389  0.5120 -0.5620
 3245SOL     OW21196   2.966   1.614   9.276  0.3848  0.1213  0.0061
 3245SOL    HW121197   2.938   1.705   9.261  0.8554  0.6197  2.0753
 3245SOL    HW221198   2.892   1.565   9.241  0.2792  0.5120 -0.3211
 3246SOL     OW21199   1.894   1.172   7.534 -0.1795  0.3159  0.0358
 3246SOL    HW121200   1.975   1.123   7.549 -0.5397 -0.1421  0.4957
 3246SOL    HW221201   1.830   1.101   7.544  1.9927 -1.8601 -1.3025
 3247SOL     OW21202   1.057   2.014  11.423 -0.0360 -0.7030 -0.3962
 3247SOL    HW121203   0.979   2.018  11.478 -0.7739 -0.0264 -1.5063
 3247SOL    HW221204   1.085   1.922  11.421  1.5909 -0.1927 -1.2451
 3248SOL     OW21205   3.901   0.789   5.813 -0.1643  0.5256  0.6134
 3248SOL    HW121206   3.891   0.855   5.745  0.7173 -0.7898 -0.7942
 3248SOL    HW221207   3.873   0.841   5.888  0.9945  1.3799  0.4640
 3249SOL     OW21208   1.920   4.033   6.582 -0.2630 -0.5142 -0.5713
 3249SOL    HW121209   1.831   4.005   6.606 -0.3306  1.2446  1.1800
 3249SOL    HW221210   1.962   3.949   6.563 -1.0642 -1.4226  1.6705
 3250SOL     OW21211   3.102   0.074  15.724 -0.2669  0.3572  0.2351
 3250SOL    HW121212   3.064   4.716  15.706 -0.5965  0.8849 -1.5556
 3250SOL    HW221213   3.120   0.101  15.634  1.0070  0.2646  0.4557
 3251SOL     OW21214   2.026   0.033  13.844 -0.5794 -0.5326  0.7774
 3251SOL    HW121215   2.050   4.669  13.844  0.2494 -0.3146  0.4760
 3251SOL    HW221216   2.043   0.065  13.933  1.7444  1.3581 -0.3401
 3252SOL     OW21217   3.483   3.692   4.799 -0.6729  0.7128  0.0567
 3252SOL    HW121218   3.476   3.596   4.797 -1.3133  0.7326  1.1010
 3252SOL    HW221219   3.576   3.712   4.790 -0.4429 -0.8760 -0.9604
 3253SOL     OW21220   4.643   1.345   1.717 -0.1274 -0.3901  0.0582
 3253SOL    HW121221   4.657   1.297   1.636  1.4636 -1.4789  0.9606
 3253SOL    HW221222   4.549   1.328   1.721 -0.2291  0.3171  1.0103
 3254SOL     OW21223   3.676   0.471   7.965  0.1816  0.8052  0.1023
 3254SOL    HW121224   3.641   0.396   7.917 -0.4718  0.3622  1.2935
 3254SOL    HW221225   3.598   0.523   7.944 -1.0269 -0.8652  0.4427
 3255SOL     OW21226   3.749   1.250   4.677  0.9753 -0.0744 -0.2798
 3255SOL    HW121227   3.729   1.339   4.649  2.0199  0.1967 -0.1685
 3255SOL    HW221228   3.835   1.260   4.717  0.7681 -0.0027  0.1475
 3256SOL     OW21229   2.188   4.400   6.319 -0.1162 -0.6270 -0.2434
 3256SOL    HW121230   2.143   4.334   6.372 -1.6093 -0.5673 -1.4254
 3256SOL    HW221231   2.114   4.462   6.317 -0.5038 -1.1894 -2.5273
 3257SOL     OW21232   0.983   3.013   8.185  0.4943 -0.1427 -0.2328
 3257SOL    HW121233   1.048   3.035   8.118  1.3755 -1.3294  0.2252
 3257SOL    HW221234   0.953   2.935   8.138  0.0423  1.3421 -2.4109
 3258SOL     OW21235   4.195   1.289   2.363  0.0385  0.2313  0.1026
 3258SOL    HW121236   4.280   1.306   2.322  0.0220 -2.5559 -1.1291
 3258SOL    HW221237   4.165   1.367   2.409  0.2553  1.0684 -1.1621
 3259SOL     OW21238   2.369   4.185   8.884  0.2550  0.0443 -0.1535
 3259SOL    HW121239   2.284   4.143   8.896 -0.6176  2.2675  1.4622
 3259SOL    HW221240   2.370   4.252   8.953 -0.7349  1.5831 -1.6409
 3260SOL     OW21241   4.096   3.946  17.657 -0.3358  0.2874 -0.2081
 3260SOL    HW121242   4.020   3.903  17.617 -0.0544  0.0642 -0.5065
 3260SOL    HW221243   4.143   3.992  17.588  0.3234 -1.3011 -0.8280
 3261SOL     OW21244   3.222   2.406   0.558  0.3291 -0.5693  0.0722
 3261SOL    HW121245   3.303   2.389   0.606 -1.0424 -0.5701  2.3931
 3261SOL    HW221246   3.179   2.483   0.595 -1.8581 -0.7878 -1.9826
 3262SOL     OW21247   0.739   2.069   7.627  0.1720 -0.4135 -0.0113
 3262SOL    HW121248   0.713   2.012   7.699  1.1888 -0.9764 -0.0821
 3262SOL    HW221249   0.781   2.005   7.570  0.3964 -1.1746  1.0233
 3263SOL     OW21250   4.623   3.940  14.124 -0.2891 -0.1139  0.1208
 3263SOL    HW121251   4.681   3.874  14.163  0.7429  0.9265  0.3280
 3263SOL    HW221252   4.638   4.013  14.184 -0.3887  1.9969 -2.4630
 3264SOL     OW21253   4.285   2.183   2.464  0.1429  0.4379  0.0970
 3264SOL    HW121254   4.193   2.208   2.464 -0.7346 -2.8267 -0.5349
 3264SOL    HW221255   4.313   2.240   2.392 -0.3408  0.2620 -0.2358
 3265SOL     OW21256   0.023   4.561   7.407  0.4426  0.3179 -0.0326
 3265SOL    HW121257   4.690   4.585   7.477  2.3707 -1.9159  2.4345
 3265SOL    HW221258   0.032   4.468   7.431  0.3185  0.0986 -0.8503
 3266SOL     OW21259   2.688   4.327   6.622  0.0819  0.8189 -0.0403
 3266SOL    HW121260   2.710   4.237   6.595  1.4607  0.5096  2.1895
 3266SOL    HW221261   2.619   4.318   6.687 -0.5035  1.9088 -0.5157
 3267SOL     OW21262   3.618   0.454   2.461  0.1406  0.0965 -0.1360
 3267SOL    HW121263   3.602   0.448   2.367 -1.8258 -0.9082  0.2538
 3267SOL    HW221264   3.529   0.439   2.494  0.3730 -0.1191  0.3898
 3268SOL     OW21265   3.227   3.203   4.561 -0.0071  0.6046 -0.1871
 3268SOL    HW121266   3.236   3.274   4.497  0.2104  1.2402  0.5543
 3268SOL    HW221267   3.291   3.217   4.630 -0.2040  0.4421  0.0307
 3269SOL     OW21268   0.232   0.852   3.279 -0.1171  0.4228 -0.5092
 3269SOL    HW121269   0.151   0.806   3.303  1.6128 -1.9834  0.7552
 3269SOL    HW221270   0.284   0.775   3.257  1.3510  1.8125 -1.8423
 3270SOL     OW21271   2.105   0.702   3.978  0.1048  0.4631  0.3285
 3270SOL    HW121272   2.094   0.668   4.067 -1.4636  0.8581  0.2989
 3270SOL    HW221273   2.016   0.730   3.955 -0.0983 -1.2300 -0.9094
 3271SOL     OW21274   2.289   2.213   1.333 -0.6298 -0.2156 -0.4135
 3271SOL    HW121275   2.280   2.163   1.252 -0.2245 -2.8456  1.1567
 3271SOL    HW221276   2.204   2.195   1.374  0.5467  0.5929  2.3825
 3272SOL     OW21277   4.412   1.076   2.148  0.4153 -0.6492 -0.1211
 3272SOL    HW121278   4.387   1.032   2.067 -1.8322  0.5280 -0.1017
 3272SOL    HW221279   4.367   1.161   2.144 -1.3275 -1.4757  1.7668
 3273SOL     OW21280   2.443   4.697   3.314 -0.0405  0.2137  0.4395
 3273SOL    HW121281   2.493   0.044   3.281  3.0700 -2.0134  0.1465
 3273SOL    HW221282   2.491   4.645   3.378  1.7830  1.6677  0.2476
 3274SOL     OW21283   2.627   3.608   7.487 -0.4865 -0.3147  0.1924
 3274SOL    HW121284   2.576   3.528   7.499 -0.0374 -0.6920 -0.4118
 3274SOL    HW221285   2.577   3.665   7.546  1.9556  1.8736  0.1256
 3275SOL     OW21286   1.063   3.475   8.115  0.2207 -0.0459 -0.1227
 3275SOL    HW121287   1.133   3.531   8.083  0.2708 -1.4179 -2.4201
 3275SOL    HW221288   1.099   3.423   8.187  1.6657 -0.0428 -0.8568
 3276SOL     OW21289   3.577   0.039  11.853  0.1280 -0.4115 -0.2241
 3276SOL    HW121290   3.559   4.678  11.882 -2.0785  0.0153 -0.2510
 3276SOL    HW221291   3.646   0.051  11.918 -0.7931  2.0741  0.3236
 3277SOL     OW21292   0.811   2.134   3.130  0.3141  0.6508 -0.1875
 3277SOL    HW121293   0.744   2.153   3.064 -0.6717  0.2242  0.6794
 3277SOL    HW221294   0.824   2.040   3.120  2.6571  1.0719 -0.9307
 3278SOL     OW21295   1.843   4.016   8.019 -0.2865 -0.1688  0.7990
 3278SOL    HW121296   1.804   4.015   8.107 -1.2655 -0.2244  0.3680
 3278SOL    HW221297   1.860   3.923   8.003 -0.3337  0.4777 -2.8518
 3279SOL     OW21298   1.604   0.902  16.890 -0.5954 -0.4271 -0.3451
 3279SOL    HW121299   1.690   0.943  16.896 -0.4881 -0.9944  1.7275
 3279SOL    HW221300   1.626   0.843  16.818  1.3809 -1.5512  1.1987
 3280SOL     OW21301   0.990   0.821  16.617  0.1653 -0.0169 -0.4897
 3280SOL    HW121302   1.050   0.839  16.545  0.5265 -0.4534 -0.2981
 3280SOL    HW221303   0.959   0.736  16.588 -1.2378  0.1905  0.4162
 3281SOL     OW21304   0.550   4.043   3.862 -0.4695 -0.6705  0.3675
 3281SOL    HW121305   0.467   4.047   3.815  0.8668  0.4245 -1.8880
 3281SOL    HW221306   0.522   3.994   3.939 -1.6124  1.2765  1.1817
 3282SOL     OW21307   4.231   3.086   7.797  0.7378 -0.4663 -0.3818
 3282SOL    HW121308   4.185   3.163   7.831 -0.2924 -0.2918 -2.1947
 3282SOL    HW221309   4.171   3.042   7.737  0.0884 -1.2536  0.8404
 3283SOL     OW21310   0.370   3.086   1.787 -0.6235  0.1045 -0.2752
 3283SOL    HW121311   0.388   3.108   1.696 -2.3099 -1.7941 -1.0591
 3283SOL    HW221312   0.299   3.025   1.769 -0.5725 -0.4778  1.4463
 3284SOL     OW21313   4.029   1.484   1.856  0.5528 -0.2245  0.4997
 3284SOL    HW121314   4.010   1.501   1.764 -3.0142 -0.7614  1.1498
 3284SOL    HW221315   4.046   1.391   1.862 -0.2489 -0.6253 -3.5461
 3285SOL     OW21316   4.125   2.640  12.109  0.3975 -0.4847 -0.8592
 3285SOL    HW121317   4.038   2.638  12.148 -0.3979 -0.4596 -2.6450
 3285SOL    HW221318   4.158   2.554  12.136  0.2468 -0.2586  0.0545
 3286SOL     OW21319   0.100   4.670   7.712 -0.3576 -0.1397  0.2757
 3286SOL    HW121320   0.193   4.659   7.730  0.5529  0.0917 -4.2630
 3286SOL    HW221321   0.057   4.605   7.769 -0.5430 -0.6559 -0.4495
 3287SOL     OW21322   0.182   3.682   7.174 -0.3877 -0.5671 -0.4777
 3287SOL    HW121323   0.247   3.612   7.179  2.0271  1.7843  0.9583
 3287SOL    HW221324   0.103   3.631   7.191 -1.0649  1.2607  1.9431
 3288SOL     OW21325   0.021   0.475  15.254 -0.5000  0.7431 -0.5193
 3288SOL    HW121326   0.113   0.502  15.262 -0.0549 -1.0997  0.5882
 3288SOL    HW221327   0.011   0.434  15.340 -1.1591  0.8232 -0.5594
 3289SOL     OW21328   1.139   3.757   0.516 -0.5057 -0.4295 -0.4557
 3289SOL    HW121329   1.144   3.662   0.529 -2.0161 -0.4754 -0.2586
 3289SOL    HW221330   1.215   3.779   0.569 -1.0692 -1.0528  0.6062
 3290SOL     OW21331   2.746   3.942   7.291  0.4814  0.1399  0.0561
 3290SOL    HW121332   2.765   3.848   7.291 -1.2847 -0.2185 -2.6679
 3290SOL    HW221333   2.816   3.982   7.342  0.3947 -1.9823  1.8560
 3291SOL     OW21334   1.322   1.674   8.124  0.1829 -0.3156 -0.2235
 3291SOL    HW121335   1.231   1.648   8.141  0.4918  0.1181  2.1283
 3291SOL    HW221336   1.301   1.695   8.033  0.6124 -0.9586 -0.4653
 3292SOL     OW21337   0.362   3.742   6.569 -0.2880  0.3605  0.1280
 3292SOL    HW121338   0.417   3.767   6.643  0.1213  3.5330 -1.2483
 3292SOL    HW221339   0.424   3.695   6.514 -0.7619  0.0584 -0.1566
 3293SOL     OW21340   1.933   3.833  11.291  0.1361  0.9708 -0.2393
 3293SOL    HW121341   1.912   3.921  11.321 -0.5125  0.9276 -0.5848
 3293SOL    HW221342   1.934   3.838  11.196  1.9799 -1.2300 -0.3503
 3294SOL     OW21343   0.595   1.675   5.963 -0.1060 -0.0112  0.3698
 3294SOL    HW121344   0.582   1.637   6.049 -1.1596  0.0642  0.2488
 3294SOL    HW221345   0.689   1.661   5.956 -0.3408 -0.2093 -2.5079
 3295SOL     OW21346   2.476   2.539   7.609  0.3107  0.2178  0.0438
 3295SOL    HW121347   2.445   2.586   7.532  0.3134 -0.0290 -0.1073
 3295SOL    HW221348   2.515   2.458   7.574  0.9369 -0.3557  2.0421
 3296SOL     OW21349   0.351   4.263  12.938  0.2206  0.0935  0.0062
 3296SOL    HW121350   0.445   4.243  12.935  0.6981  1.9105  2.3719
 3296SOL    HW221351   0.344   4.267  13.034 -2.2036 -0.7530 -0.1459
 3297SOL     OW21352   1.002   4.475   4.635 -0.4017  0.3907 -0.2071
 3297SOL    HW121353   0.985   4.551   4.579  1.5913  1.1241  0.1801
 3297SOL    HW221354   0.913   4.440   4.640 -0.3794  0.6351  1.8593
 3298SOL     OW21355   1.906   3.401  14.301  0.0412  0.1750 -0.0629
 3298SOL    HW121356   1.922   3.473  14.240  1.0492 -0.6884 -0.8220
 3298SOL    HW221357   1.823   3.429  14.339 -0.2547 -0.6666 -0.1047
 3299SOL     OW21358   0.895   1.362  12.690 -0.1359 -0.8015  0.1075
 3299SOL    HW121359   0.802   1.370  12.668  0.1729  0.9716 -0.5574
 3299SOL    HW221360   0.944   1.415  12.627 -1.6493  0.0975 -0.3137
 3300SOL     OW21361   2.256   3.015   2.537  0.1421  0.7640 -0.2663
 3300SOL    HW121362   2.286   3.101   2.508 -0.4205  0.0317 -3.0287
 3300SOL    HW221363   2.233   2.992   2.447  2.7258  0.0977 -0.7559
 3301SOL     OW21364   3.511   1.295   1.794  0.2749 -0.1172 -0.1850
 3301SOL    HW121365   3.448   1.245   1.742 -0.6329  1.9586 -1.0938
 3301SOL    HW221366   3.469   1.300   1.880  0.0836 -1.5938 -0.1967
 3302SOL     OW21367   4.204   2.497   9.732  1.0775  0.5457 -0.4842
 3302SOL    HW121368   4.223   2.501   9.826  0.6423 -1.0987 -0.3326
 3302SOL    HW221369   4.292   2.479   9.698 -0.1811 -1.8684 -2.4842
 3303SOL     OW21370   3.427   0.454   3.807 -0.5234  0.2332 -0.1153
 3303SOL    HW121371   3.410   0.502   3.889  0.6971 -0.3062  0.4433
 3303SOL    HW221372   3.517   0.428   3.824 -0.3857  0.6342 -0.2247
 3304SOL     OW21373   0.206   1.543  10.948 -0.6721  0.5166  0.1533
 3304SOL    HW121374   0.166   1.487  11.014 -1.4630  0.4371 -0.3953
 3304SOL    HW221375   0.219   1.486  10.873  2.2336 -1.2114  1.9956
 3305SOL     OW21376   0.277   1.290   8.005 -0.2981 -0.3088  0.8964
 3305SOL    HW121377   0.371   1.278   8.015 -0.2996 -1.0040  0.0696
 3305SOL    HW221378   0.267   1.385   8.012 -0.4674 -0.1614 -1.3710
 3306SOL     OW21379   1.450   4.209   5.201 -0.1135 -0.0525 -0.9948
 3306SOL    HW121380   1.432   4.230   5.293  0.1219 -1.7606 -0.5520
 3306SOL    HW221381   1.478   4.295   5.172 -1.7485 -0.5598 -4.0600
 3307SOL     OW21382   2.420   3.548  15.199  0.5107 -0.2496 -0.7890
 3307SOL    HW121383   2.431   3.474  15.259 -2.9254  1.6454  2.2014
 3307SOL    HW221384   2.439   3.614  15.266 -0.6560 -0.9357  0.2192
 3308SOL     OW21385   4.562   3.897   4.264  0.3594  0.2075  0.1465
 3308SOL    HW121386   4.586   3.832   4.199 -0.7996 -1.4349  1.3779
 3308SOL    HW221387   4.489   3.863   4.316  3.7113 -3.5203  2.4488
 3309SOL     OW21388   2.168   3.568   3.942 -0.0777 -0.5948 -0.0799
 3309SOL    HW121389   2.145   3.475   3.938 -0.2207 -0.5798  0.3812
 3309SOL    HW221390   2.083   3.612   3.952  0.1303  0.1934 -1.7343
 3310SOL     OW21391   0.432   3.149   5.857  0.4938  0.4181 -0.1074
 3310SOL    HW121392   0.471   3.189   5.779  0.0062 -1.4351 -1.2894
 3310SOL    HW221393   0.339   3.155   5.838  0.3504 -0.7942  0.2489
 3311SOL     OW21394   2.740   1.212   8.843 -0.3916 -0.1616  0.2159
 3311SOL    HW121395   2.705   1.141   8.788  0.2618  0.1998 -0.6654
 3311SOL    HW221396   2.661   1.265   8.841  0.2045  0.7204  0.3049
 3312SOL     OW21397   0.249   2.881   8.712 -0.0926 -0.1847  0.0695
 3312SOL    HW121398   0.281   2.792   8.726  3.5117  1.0730  0.0012
 3312SOL    HW221399   0.261   2.913   8.802 -1.3734 -0.9751  0.5082
 3313SOL     OW21400   0.220   3.829   4.176 -0.0682  0.0487 -0.1483
 3313SOL    HW121401   0.224   3.880   4.256  1.9498  0.0548 -0.2491
 3313SOL    HW221402   0.135   3.843   4.134  0.4296  1.9207 -0.5130
 3314SOL     OW21403   1.509   0.357   3.703 -0.1650 -0.0539  0.4247
 3314SOL    HW121404   1.453   0.430   3.677  0.4392 -0.2221 -1.3345
 3314SOL    HW221405   1.583   0.407   3.736  0.3369 -0.8853  0.5632
 3315SOL     OW21406   1.765   2.848   3.261  0.1947  0.0251  0.0051
 3315SOL    HW121407   1.833   2.845   3.327 -1.2429  0.0292  1.4840
 3315SOL    HW221408   1.780   2.762   3.221 -0.3984  0.0155 -0.1962
 3316SOL     OW21409   0.719   2.863   8.447  0.2105 -0.1629 -0.4074
 3316SOL    HW121410   0.782   2.843   8.377 -1.3577  0.8001 -2.0984
 3316SOL    HW221411   0.686   2.944   8.409 -0.6561 -1.8366 -3.2317
 3317SOL     OW21412   0.038   1.772   3.388 -0.0645 -0.1342 -0.0598
 3317SOL    HW121413   0.090   1.850   3.410 -2.3174  1.1402  0.7033
 3317SOL    HW221414   4.677   1.800   3.406  0.0646  0.5099 -0.4191
 3318SOL     OW21415   0.406   3.091  15.668  0.5601 -0.3711 -0.0706
 3318SOL    HW121416   0.410   2.996  15.654 -1.6487 -0.5616  0.6459
 3318SOL    HW221417   0.470   3.084  15.739  0.3000 -1.3398  0.0822
 3319SOL     OW21418   0.189   1.895  15.693  0.2055  0.4936 -0.3275
 3319SOL    HW121419   0.273   1.882  15.648  0.0251 -0.0568 -0.5047
 3319SOL    HW221420   0.170   1.985  15.667  0.0675  0.2834 -0.9591
 3320SOL     OW21421   2.836   3.780  13.452 -0.0702  0.2624  0.0200
 3320SOL    HW121422   2.878   3.764  13.536  0.0205  0.7217  0.0646
 3320SOL    HW221423   2.768   3.844  13.473  0.3336  0.2795  1.2599
 3321SOL     OW21424   2.294   1.735   8.208  0.3831  0.0427 -0.2350
 3321SOL    HW121425   2.242   1.663   8.244  0.2678 -0.3775 -1.2381
 3321SOL    HW221426   2.281   1.728   8.113 -0.5430 -4.1943  0.2018
 3322SOL     OW21427   2.622   4.434   2.455 -0.2716 -0.3543 -0.2545
 3322SOL    HW121428   2.586   4.514   2.492  0.6043  0.5302 -1.3246
 3322SOL    HW221429   2.545   4.380   2.437 -0.1435 -0.2172 -1.2027
 3323SOL     OW21430   3.764   0.528   2.182  0.0315  0.3774  0.0067
 3323SOL    HW121431   3.802   0.576   2.108  1.8353 -1.5968 -0.3411
 3323SOL    HW221432   3.743   0.441   2.150  0.4165  0.8718 -1.5846
 3324SOL     OW21433   1.808   2.894  11.703 -0.3019 -0.3395 -0.0379
 3324SOL    HW121434   1.757   2.850  11.635 -0.9933 -1.5619  1.2650
 3324SOL    HW221435   1.826   2.973  11.653  0.1827  0.1687  0.9432
 3325SOL     OW21436   4.153   4.025  10.769 -0.3410 -0.5752 -0.0560
 3325SOL    HW121437   4.229   3.968  10.771  0.2858  0.2352 -0.7882
 3325SOL    HW221438   4.141   4.026  10.674 -2.5494  0.9502  0.2360
 3326SOL     OW21439   3.520   1.275   3.242 -0.5663  0.9719 -0.1814
 3326SOL    HW121440   3.478   1.243   3.322 -2.2483  0.9754 -1.0756
 3326SOL    HW221441   3.608   1.287   3.278 -0.9656  0.7628  0.8692
 3327SOL     OW21442   4.019   1.893   7.451 -0.5371 -0.0638  0.5997
 3327SOL    HW121443   4.033   1.810   7.406  0.8818  0.1081  0.7067
 3327SOL    HW221444   4.102   1.941   7.447 -1.2129  1.1909  1.5066
 3328SOL     OW21445   3.696   1.609   1.578  0.3939  0.0424  0.3029
 3328SOL    HW121446   3.684   1.704   1.583 -1.3557 -0.2722  2.3958
 3328SOL    HW221447   3.736   1.595   1.492 -2.8880  1.1292 -1.3740
 3329SOL     OW21448   4.636   0.563   2.363  0.3302  0.3255 -0.1345
 3329SOL    HW121449   4.554   0.575   2.412  1.2930 -1.4562  1.9502
 3329SOL    HW221450   4.598   0.575   2.276 -0.6839  1.0427  0.4016
 3330SOL     OW21451   0.560   0.633   3.789 -0.3379 -0.4126  0.7332
 3330SOL    HW121452   0.619   0.578   3.737 -0.4114 -0.7372  0.9945
 3330SOL    HW221453   0.613   0.711   3.804 -1.3099  0.6523 -1.4414
 3331SOL     OW21454   0.531   4.005   5.429  0.0563  0.2361 -0.6640
 3331SOL    HW121455   0.621   4.014   5.399 -0.0972 -0.4548 -1.3202
 3331SOL    HW221456   0.482   4.023   5.349 -0.3764 -0.0873 -0.4757
 3332SOL     OW21457   2.100   2.026   8.321  0.2612 -0.3810  0.1364
 3332SOL    HW121458   2.027   1.982   8.277 -0.5206  1.2224 -0.1429
 3332SOL    HW221459   2.149   1.950   8.355 -1.6427 -1.4940  0.4013
 3333SOL     OW21460   2.531   2.649  13.978  0.2437  0.4328  0.2003
 3333SOL    HW121461   2.520   2.557  13.956 -0.4379  0.3108  1.0566
 3333SOL    HW221462   2.445   2.685  13.957  0.5013  0.6638 -0.4663
 3334SOL     OW21463   1.497   2.370   1.323 -0.2718 -0.1685 -0.4316
 3334SOL    HW121464   1.515   2.400   1.234 -0.4251  4.2079  1.0392
 3334SOL    HW221465   1.569   2.407   1.374  0.8328 -2.3793 -0.3909
 3335SOL     OW21466   2.892   0.529   8.343  0.2994  0.7748 -0.2786
 3335SOL    HW121467   2.964   0.482   8.385 -1.7942 -1.1217  1.2091
 3335SOL    HW221468   2.938   0.573   8.272 -1.6711  1.4578 -1.1520
 3336SOL     OW21469   4.216   4.432   2.386 -0.2157  0.2645  0.3224
 3336SOL    HW121470   4.185   4.384   2.309  1.6693  3.7052 -2.6061
 3336SOL    HW221471   4.139   4.438   2.442 -0.0987 -0.6683  0.5781
 3337SOL     OW21472   1.383   4.445  17.353  0.3456  0.0524  0.6314
 3337SOL    HW121473   1.392   4.447  17.448  1.3200 -2.4783  0.5891
 3337SOL    HW221474   1.330   4.365  17.341 -1.9707  1.7170 -0.2522
 3338SOL     OW21475   4.102   0.676   5.391 -0.1970  0.3254  0.0118
 3338SOL    HW121476   4.170   0.695   5.455 -0.6724  2.3948 -0.1146
 3338SOL    HW221477   4.068   0.764   5.375 -0.5610  0.1106 -0.3897
 3339SOL     OW21478   1.228   1.383   3.390  0.9491 -0.4199 -0.0736
 3339SOL    HW121479   1.274   1.436   3.455 -0.7042 -1.4413  1.9279
 3339SOL    HW221480   1.201   1.310   3.446  0.9741  1.1332  1.9600
 3340SOL     OW21481   3.315   3.480   3.937 -0.5235  0.2429  0.5436
 3340SOL    HW121482   3.401   3.467   3.898 -0.9170 -0.7399  0.0021
 3340SOL    HW221483   3.262   3.443   3.866 -1.1192  1.5466  0.2990
 3341SOL     OW21484   1.567   0.955   2.749  0.0125 -0.5347 -0.3669
 3341SOL    HW121485   1.582   1.030   2.691  1.3941  1.2253  2.2315
 3341SOL    HW221486   1.484   0.974   2.793  1.6392 -0.9256  2.8885
 3342SOL     OW21487   4.566   4.371   6.616  0.2033 -0.3672 -0.0548
 3342SOL    HW121488   4.557   4.357   6.710  0.0148 -0.6442 -0.1125
 3342SOL    HW221489   4.597   4.461   6.607 -2.8387  0.6506 -0.4617
 3343SOL     OW21490   4.662   4.080   1.780 -0.1738 -0.1742  0.0327
 3343SOL    HW121491   4.571   4.110   1.778 -0.0973  0.1144  0.8449
 3343SOL    HW221492   4.720   4.155   1.790 -1.8812  1.1392 -0.0247
 3344SOL     OW21493   2.972   3.165  17.201  0.2131 -0.0664 -0.3491
 3344SOL    HW121494   2.899   3.110  17.226 -0.5634  0.7078 -0.9293
 3344SOL    HW221495   3.043   3.109  17.231  0.2406  0.0391 -0.2134
 3345SOL     OW21496   3.184   1.315   6.144 -0.0426 -0.5496 -0.4120
 3345SOL    HW121497   3.189   1.409   6.163  0.3600 -0.7653  0.5515
 3345SOL    HW221498   3.176   1.267   6.227  0.4133 -2.1817 -1.3027
 3346SOL     OW21499   4.562   2.399   6.563 -0.0550 -0.1826  0.1608
 3346SOL    HW121500   4.543   2.490   6.540 -0.5484 -0.7789 -1.7660
 3346SOL    HW221501   4.481   2.376   6.608 -0.6052  1.4765  0.0358
 3347SOL     OW21502   1.258   2.511  10.425 -0.4562 -0.0847  0.4239
 3347SOL    HW121503   1.348   2.481  10.416 -0.3821  0.7458 -1.6251
 3347SOL    HW221504   1.260   2.554  10.511 -2.1400  0.4440  0.2002
 3348SOL     OW21505   2.806   3.269   0.349  0.3392 -0.1547  0.1252
 3348SOL    HW121506   2.795   3.192   0.292 -1.1108 -0.6314  1.0384
 3348SOL    HW221507   2.892   3.300   0.324  1.6937 -3.3520  0.7877
 3349SOL     OW21508   0.214   1.227  10.604  0.1097  0.1537 -0.1441
 3349SOL    HW121509   0.264   1.309  10.605  0.9992 -0.4241  1.9529
 3349SOL    HW221510   0.286   1.165  10.620  1.1730  2.1426  2.7702
 3350SOL     OW21511   4.285   4.238   5.402  0.0717 -0.2475 -0.3987
 3350SOL    HW121512   4.363   4.199   5.441  1.7403  2.7269 -0.7313
 3350SOL    HW221513   4.322   4.283   5.326 -1.9881 -1.3397 -2.0403
 3351SOL     OW21514   1.277   0.180  17.467 -0.8352 -0.6739 -0.3834
 3351SOL    HW121515   1.201   0.160  17.412 -1.2748 -0.5784  0.1916
 3351SOL    HW221516   1.320   0.100  17.497 -0.2343 -0.4388 -0.6205
 3352SOL     OW21517   2.499   4.502   2.114 -0.0815  0.0318  0.6615
 3352SOL    HW121518   2.492   4.406   2.113  0.4050  0.0454 -4.0190
 3352SOL    HW221519   2.591   4.515   2.093 -0.4437 -0.4432 -1.2778
 3353SOL     OW21520   3.270   4.083   9.878  0.1652  0.2560  0.3777
 3353SOL    HW121521   3.222   4.006   9.846 -2.0564  1.8079 -0.0977
 3353SOL    HW221522   3.358   4.053   9.857 -0.1342 -0.5914  0.3282
 3354SOL     OW21523   1.374   2.455   0.841 -0.1544 -1.0093  0.3722
 3354SOL    HW121524   1.374   2.421   0.751 -0.6373 -0.6502  0.2336
 3354SOL    HW221525   1.345   2.546   0.840 -0.2407 -1.0118  2.7636
 3355SOL     OW21526   0.192   3.710   2.612 -0.4753  0.1413  0.7300
 3355SOL    HW121527   0.121   3.746   2.559  0.5175  2.8382  1.2336
 3355SOL    HW221528   0.245   3.788   2.628 -0.2369  0.1779 -0.2348
 3356SOL     OW21529   2.090   0.002   5.442 -0.2348  0.1415  0.0649
 3356SOL    HW121530   2.129   4.651   5.479  3.5394  0.9915 -2.1453
 3356SOL    HW221531   2.001   0.002   5.479 -0.3638 -0.7663 -0.2459
 3357SOL     OW21532   3.788   4.483   9.247  0.3940  0.2023 -0.5722
 3357SOL    HW121533   3.693   4.484   9.258  0.5627  1.1178  0.9270
 3357SOL    HW221534   3.806   4.437   9.329  1.1415  0.7795 -0.4060
 3358SOL     OW21535   0.874   3.763   2.927  0.1780 -0.1757 -0.3932
 3358SOL    HW121536   0.887   3.756   3.022 -0.8203  3.2803  0.0228
 3358SOL    HW221537   0.782   3.738   2.923 -0.4931  2.1699  0.0735
 3359SOL     OW21538   2.624   3.829   1.110  0.1841  0.4397 -0.3476
 3359SOL    HW121539   2.602   3.921   1.102 -2.8457 -0.3633 -1.4691
 3359SOL    HW221540   2.537   3.802   1.140  0.1390  1.1802  0.1674
 3360SOL     OW21541   3.261   1.530   7.272 -0.7061  0.4939 -0.4313
 3360SOL    HW121542   3.228   1.604   7.323  3.7391  2.7857 -0.7996
 3360SOL    HW221543   3.288   1.459   7.331 -1.0666 -1.3043 -2.4518
 3361SOL     OW21544   3.871   1.659  10.116  0.0254 -0.4360  0.3397
 3361SOL    HW121545   3.860   1.741  10.164  0.6947 -1.2786  1.9410
 3361SOL    HW221546   3.949   1.618  10.154  0.8023  0.5857 -0.1303
 3362SOL     OW21547   2.291   2.172   6.891 -0.0200  0.1298 -0.1716
 3362SOL    HW121548   2.335   2.157   6.807  0.2455 -0.1437  0.0184
 3362SOL    HW221549   2.199   2.159   6.869 -0.3107  1.9825 -0.0282
 3363SOL     OW21550   4.490   4.181   9.605 -0.6993  0.2404 -0.3104
 3363SOL    HW121551   4.530   4.157   9.521 -0.4761  0.0886 -0.1632
 3363SOL    HW221552   4.434   4.255   9.582  0.6389  0.8497 -1.6517
 3364SOL     OW21553   0.695   0.091  14.295 -0.2153 -0.0032 -0.0263
 3364SOL    HW121554   0.750   0.036  14.240 -0.3969 -1.2002  0.9873
 3364SOL    HW221555   0.614   0.081  14.245  1.2994  1.0437 -2.6680
 3365SOL     OW21556   3.433   2.752   8.914 -0.3432 -0.2769  0.1500
 3365SOL    HW121557   3.477   2.745   8.830  2.2058 -1.6804  1.5977
 3365SOL    HW221558   3.464   2.672   8.956 -1.1058  1.1140  3.3909
 3366SOL     OW21559   2.551   2.412  10.846  1.0084 -0.7410 -0.1388
 3366SOL    HW121560   2.631   2.425  10.795  0.6593  0.2048 -0.4433
 3366SOL    HW221561   2.488   2.432  10.778  0.9960 -0.2464  0.0149
 3367SOL     OW21562   3.059   3.116  10.103  0.6218 -0.5283 -0.2948
 3367SOL    HW121563   3.070   3.118  10.198 -3.0496  0.5307  0.1102
 3367SOL    HW221564   3.030   3.206  10.092 -2.5180 -1.6016 -0.9038
 3368SOL     OW21565   1.224   0.175   6.766 -0.6395 -0.1714  0.0734
 3368SOL    HW121566   1.272   0.235   6.824 -2.1206  0.0560  1.0671
 3368SOL    HW221567   1.285   0.105   6.743  0.2273  0.2785  1.0297
 3369SOL     OW21568   4.490   3.080  11.636 -0.2565  0.1402  0.1043
 3369SOL    HW121569   4.498   3.010  11.702 -0.2690  0.8054  0.8173
 3369SOL    HW221570   4.522   3.154  11.689  0.5241  0.4095 -0.7420
 3370SOL     OW21571   1.651   3.024   7.831  0.9179 -0.1055 -0.0461
 3370SOL    HW121572   1.623   3.050   7.744  2.1299 -0.9194 -0.6816
 3370SOL    HW221573   1.577   3.054   7.884  0.9277  0.8821 -0.5869
 3371SOL     OW21574   1.670   3.835   9.966 -0.5118 -0.3172  0.4245
 3371SOL    HW121575   1.732   3.768   9.995 -1.0069 -1.2098 -0.5970
 3371SOL    HW221576   1.729   3.911   9.968 -2.1627  0.9637  1.4104
 3372SOL     OW21577   3.737   2.879   3.864 -0.0968 -0.2362 -0.2427
 3372SOL    HW121578   3.686   2.802   3.889 -1.3556  0.8672  0.5733
 3372SOL    HW221579   3.687   2.896   3.784 -2.2801  1.2336  1.4369
 3373SOL     OW21580   3.462   2.016  15.558 -0.0625  0.5327 -0.2875
 3373SOL    HW121581   3.528   2.043  15.495  1.2181 -2.8055 -0.4059
 3373SOL    HW221582   3.437   1.928  15.530  0.1786  0.1764  0.6003
 3374SOL     OW21583   2.640   4.500   5.430 -0.0611 -0.2924  0.1621
 3374SOL    HW121584   2.618   4.455   5.511 -1.7409  0.9861  0.4373
 3374SOL    HW221585   2.552   4.535   5.416 -0.7662 -1.9686  0.3987
 3375SOL     OW21586   3.035   4.405   9.026 -0.1073 -0.4270  0.0834
 3375SOL    HW121587   2.992   4.324   9.051  0.6341  0.1678  3.3921
 3375SOL    HW221588   2.963   4.465   9.007 -1.0345 -1.9129 -1.1198
 3376SOL     OW21589   1.377   3.371   1.624  0.6337  0.5824  0.1548
 3376SOL    HW121590   1.435   3.302   1.655  0.9799  0.4551 -0.7569
 3376SOL    HW221591   1.450   3.432   1.619 -0.7288  2.4574  3.0674
 3377SOL     OW21592   3.511   3.049   9.289  0.3103  0.1095  0.3831
 3377SOL    HW121593   3.496   3.013   9.376 -0.2226  1.6297  0.9306
 3377SOL    HW221594   3.597   3.016   9.263 -0.3667 -0.0188 -1.6727
 3378SOL     OW21595   1.731   0.535   3.089  0.5921  0.2509  0.1092
 3378SOL    HW121596   1.679   0.578   3.020  0.1862 -0.4343 -0.0102
 3378SOL    HW221597   1.779   0.609   3.126  0.8330 -0.7443  1.7767
 3379SOL     OW21598   2.185   0.056  11.530 -0.2335 -0.0220  0.3636
 3379SOL    HW121599   2.239   0.089  11.458 -0.0143 -1.7719 -0.3021
 3379SOL    HW221600   2.125   0.006  11.474 -1.7967 -0.0794  2.1242
 3380SOL     OW21601   2.877   0.540  17.238 -0.2810 -0.2341 -0.1338
 3380SOL    HW121602   2.837   0.594  17.170 -0.3216 -1.4668 -1.0909
 3380SOL    HW221603   2.972   0.552  17.236 -0.1909 -0.8730  0.4182
 3381SOL     OW21604   4.676   2.383   0.604 -0.2741  0.3372 -0.0655
 3381SOL    HW121605   4.621   2.335   0.541  2.1612 -0.1730 -1.7975
 3381SOL    HW221606   4.670   2.346   0.692  2.3366  0.3800  0.1180
 3382SOL     OW21607   3.359   1.284  14.959 -0.1562  0.3126 -0.0841
 3382SOL    HW121608   3.335   1.373  14.933 -1.2389  0.1930  0.4979
 3382SOL    HW221609   3.450   1.290  14.989  0.4221  2.7678 -2.3866
 3383SOL     OW21610   3.671   1.059  16.346  0.2227  0.1227  0.2243
 3383SOL    HW121611   3.661   0.965  16.329  1.1527 -0.0392  0.5836
 3383SOL    HW221612   3.733   1.074  16.275 -0.9922 -2.6273 -1.4458
 3384SOL     OW21613   1.240   1.734   4.761  0.2065 -0.1270 -0.2863
 3384SOL    HW121614   1.312   1.753   4.700 -0.6090 -0.0583 -1.2293
 3384SOL    HW221615   1.276   1.677   4.828 -0.8419  0.3230  0.6536
 3385SOL     OW21616   4.022   1.113   0.945  0.6520  0.1279  0.1066
 3385SOL    HW121617   3.961   1.046   0.914  0.3646  1.3967 -2.0852
 3385SOL    HW221618   4.031   1.107   1.040 -0.7908 -0.6013  0.1907
 3386SOL     OW21619   4.515   4.571   9.046 -0.8370 -0.4870  0.3046
 3386SOL    HW121620   4.494   4.504   8.981 -1.1863 -0.3335  0.2552
 3386SOL    HW221621   4.431   4.578   9.092 -1.0768  3.5425 -0.7039
 3387SOL     OW21622   0.140   3.950   5.458  1.0884  0.6017  0.7518
 3387SOL    HW121623   0.095   4.006   5.395 -1.3963 -0.0056  2.0068
 3387SOL    HW221624   0.139   3.865   5.415 -0.3132  1.0351 -0.0591
 3388SOL     OW21625   2.229   3.767   9.241  0.7052 -0.0659  0.0567
 3388SOL    HW121626   2.212   3.684   9.287 -3.3310 -0.4088 -2.0578
 3388SOL    HW221627   2.183   3.822   9.304 -0.0041  0.7368 -1.1794
 3389SOL     OW21628   4.185   4.591   6.340 -0.2137 -0.5421  0.0299
 3389SOL    HW121629   4.247   4.663   6.352 -1.5997  0.4721  0.9873
 3389SOL    HW221630   4.118   4.610   6.405 -0.9374 -0.1880 -0.8203
 3390SOL     OW21631   3.462   2.421   4.222 -0.6949  0.2999  0.2621
 3390SOL    HW121632   3.483   2.376   4.304  1.5713  2.0945  0.6766
 3390SOL    HW221633   3.394   2.478   4.259 -0.3527  0.0359  1.2998
 3391SOL     OW21634   3.833   0.259   4.812  0.3214 -0.6421 -0.3361
 3391SOL    HW121635   3.800   0.332   4.863  1.9366 -0.3103  0.2336
 3391SOL    HW221636   3.837   0.187   4.875 -0.4341 -0.9210 -0.6063
 3392SOL     OW21637   3.909   0.891   2.729  0.4492  0.2499 -0.1716
 3392SOL    HW121638   3.933   0.981   2.749 -1.6232  0.4343  1.4163
 3392SOL    HW221639   3.814   0.892   2.739  0.2052 -1.4510 -2.2266
 3393SOL     OW21640   2.219   4.661  15.377 -0.4192  0.2632  0.3084
 3393SOL    HW121641   2.268   0.013  15.397  1.1943 -1.0114  1.5659
 3393SOL    HW221642   2.176   4.680  15.294 -2.8086  0.8442  1.6675
 3394SOL     OW21643   0.075   3.172   1.502  0.3320  0.2652 -0.2892
 3394SOL    HW121644   0.170   3.169   1.491  0.3875 -3.8316  1.1706
 3394SOL    HW221645   0.085   3.187   1.596 -2.3254  0.6749 -0.0786
 3395SOL     OW21646   4.171   1.391  14.301 -0.4705 -0.4724  0.0068
 3395SOL    HW121647   4.187   1.471  14.251 -0.6719 -1.3618 -1.5100
 3395SOL    HW221648   4.261   1.362  14.318 -0.6698 -0.8417  0.4409
 3396SOL     OW21649   3.364   0.573   9.086 -0.0151 -0.4076 -0.0395
 3396SOL    HW121650   3.401   0.659   9.064 -0.2699 -0.6125 -1.2864
 3396SOL    HW221651   3.444   0.521   9.086 -0.4327 -1.0474 -2.1090
 3397SOL     OW21652   0.856   1.811  10.989 -0.2015 -0.1399  0.1509
 3397SOL    HW121653   0.930   1.762  10.953  0.5879 -0.1883  1.8311
 3397SOL    HW221654   0.904   1.870  11.047 -0.0292 -1.2896  1.1951
 3398SOL     OW21655   3.570   3.697   6.187  0.3776  0.7269  0.3781
 3398SOL    HW121656   3.490   3.686   6.136 -0.0873 -0.4470  1.3766
 3398SOL    HW221657   3.574   3.607   6.220 -0.7140  1.3172  2.1163
 3399SOL     OW21658   1.188   1.101   6.083 -0.4962  0.9672  0.1165
 3399SOL    HW121659   1.183   1.007   6.067 -0.7235  1.4875 -2.8476
 3399SOL    HW221660   1.256   1.130   6.021  0.8894 -1.8131  0.3306
 3400SOL     OW21661   4.702   1.174   8.972 -0.3560  0.7697 -0.6408
 3400SOL    HW121662   4.624   1.195   8.920 -1.7846 -0.8151  0.8796
 3400SOL    HW221663   0.018   1.105   8.922  0.5005  1.4767 -0.8601
 3401SOL     OW21664   1.647   1.284   2.256  0.0934  0.0662  0.3061
 3401SOL    HW121665   1.563   1.242   2.239 -0.1407 -0.0344  1.7172
 3401SOL    HW221666   1.700   1.207   2.275 -0.1667 -0.2530 -0.2734
 3402SOL     OW21667   2.145   1.669   2.293 -0.1570  0.2240  0.4137
 3402SOL    HW121668   2.170   1.748   2.245 -0.9209  0.8890  1.1341
 3402SOL    HW221669   2.050   1.678   2.302 -0.3964 -0.0719 -1.8567
 3403SOL     OW21670   1.357   2.234   2.286 -0.1068 -0.6188 -0.4254
 3403SOL    HW121671   1.312   2.199   2.209 -0.5840  0.6805 -0.7331
 3403SOL    HW221672   1.306   2.198   2.358 -0.0732 -0.7062 -0.4459
 3404SOL     OW21673   3.374   2.938   7.320  0.1318 -0.3092  0.6061
 3404SOL    HW121674   3.300   2.886   7.287  0.2685  0.5749 -1.1012
 3404SOL    HW221675   3.351   2.943   7.413 -0.5053  0.4601  0.4136
 3405SOL     OW21676   4.382   1.696  10.102 -0.2645 -0.0783 -0.2636
 3405SOL    HW121677   4.327   1.752  10.156  0.2629 -2.0223  2.2777
 3405SOL    HW221678   4.365   1.623  10.162 -2.8849  0.9994  0.2908
 3406SOL     OW21679   2.607   4.217   4.719  0.0839 -0.2045  0.3064
 3406SOL    HW121680   2.646   4.304   4.728  1.5848 -0.8307 -0.2470
 3406SOL    HW221681   2.529   4.240   4.667 -0.6936 -1.1608  1.0450
 3407SOL     OW21682   1.449   4.717   5.324 -0.0924  0.3452 -0.2700
 3407SOL    HW121683   1.460   0.044   5.401 -2.8105  0.1296  0.2394
 3407SOL    HW221684   1.356   4.701   5.340  0.2048 -0.1753  0.9390
 3408SOL     OW21685   2.342   4.206   4.170 -0.6592 -0.2446  0.3524
 3408SOL    HW121686   2.311   4.118   4.191  0.0547 -0.3502  1.0066
 3408SOL    HW221687   2.436   4.191   4.183 -0.6854  0.5063  1.3804
 3409SOL     OW21688   4.638   0.129  10.139  0.4570  0.2285  0.2082
 3409SOL    HW121689   4.728   0.109  10.164  0.6949 -0.6742 -1.3348
 3409SOL    HW221690   4.629   0.214  10.183  0.1588  0.3372 -0.0635
 3410SOL     OW21691   2.705   2.207  13.559  0.0992 -0.0792 -0.4234
 3410SOL    HW121692   2.651   2.132  13.584 -1.3202  1.7787  2.1632
 3410SOL    HW221693   2.641   2.254  13.506  1.5007 -1.0165 -2.9246
 3411SOL     OW21694   3.215   0.942   6.878  0.4089 -0.2615 -0.1259
 3411SOL    HW121695   3.243   0.859   6.840  1.2520 -0.6861  1.4118
 3411SOL    HW221696   3.302   0.966   6.911  0.3090  1.4239 -1.0768
 3412SOL     OW21697   4.690   1.431   6.569 -0.6474 -0.6274 -0.0564
 3412SOL    HW121698   0.041   1.483   6.552  0.3541 -2.0547  0.2313
 3412SOL    HW221699   4.678   1.397   6.481 -3.0970 -0.4487  0.2032
 3413SOL     OW21700   3.869   4.509  11.472  0.4168 -0.4500  0.2789
 3413SOL    HW121701   3.798   4.446  11.481 -0.5543  0.6177  0.0787
 3413SOL    HW221702   3.830   4.573  11.413  0.1549 -1.5358 -0.7280
 3414SOL     OW21703   3.412   1.405  13.478  0.6772  0.2756 -0.1262
 3414SOL    HW121704   3.366   1.489  13.476  0.2912  0.0791  0.5174
 3414SOL    HW221705   3.475   1.434  13.411 -0.8481 -0.4982 -1.9013
 3415SOL     OW21706   0.201   2.013   2.702 -0.2786  0.1857 -0.1152
 3415SOL    HW121707   0.143   1.944   2.669  1.7800 -0.6108 -2.0564
 3415SOL    HW221708   0.266   2.010   2.631 -1.0017  1.2620 -0.8251
 3416SOL     OW21709   2.693   0.161  17.200  0.3297 -0.2454  0.5091
 3416SOL    HW121710   2.698   0.211  17.119  0.7053  0.8124  1.1942
 3416SOL    HW221711   2.736   0.219  17.262  0.5907 -2.5857  2.5372
 3417SOL     OW21712   3.095   2.095   2.185  0.1167 -0.3092  0.0203
 3417SOL    HW121713   3.099   2.103   2.089 -0.4268 -0.7068 -0.0280
 3417SOL    HW221714   3.153   2.020   2.200  0.0186 -0.4326 -0.2076
 3418SOL     OW21715   1.415   2.614   1.636  0.1917 -0.2531  0.2856
 3418SOL    HW121716   1.350   2.555   1.598  2.1777 -2.1647 -0.1619
 3418SOL    HW221717   1.369   2.695   1.611  0.0660  0.0934  1.6858
 3419SOL     OW21718   3.467   3.805  17.595  0.3586  0.2500  0.3292
 3419SOL    HW121719   3.533   3.864  17.556  0.7959  1.1949  2.4945
 3419SOL    HW221720   3.411   3.873  17.632 -0.5437 -2.1677  3.2883
 3420SOL     OW21721   0.030   2.553   2.336 -0.1697  0.1139  0.2347
 3420SOL    HW121722   0.045   2.646   2.353  0.3865 -0.1729  1.3232
 3420SOL    HW221723   0.118   2.524   2.312  0.8043  2.9846  0.3647
 3421SOL     OW21724   1.188   4.435   9.148 -0.5580 -0.0477 -0.3577
 3421SOL    HW121725   1.121   4.393   9.094 -2.4722  1.1010  1.1630
 3421SOL    HW221726   1.252   4.367   9.171 -1.9899 -1.5829 -0.8759
 3422SOL     OW21727   4.256   0.771   9.225  0.6330  0.1111  0.1352
 3422SOL    HW121728   4.319   0.797   9.158 -0.4517 -0.2514 -1.0164
 3422SOL    HW221729   4.254   0.844   9.287  0.5496 -0.0621  0.3369
 3423SOL     OW21730   3.723   1.813   3.076 -0.2849 -0.7770 -0.1373
 3423SOL    HW121731   3.757   1.741   3.023  1.5801  0.0592 -0.0871
 3423SOL    HW221732   3.724   1.885   3.012 -1.2615 -1.9769 -1.5080
 3424SOL     OW21733   4.173   4.659  17.406  0.1682 -0.2580 -0.1839
 3424SOL    HW121734   4.199   4.708  17.328  2.1384  2.5829  2.2560
 3424SOL    HW221735   4.224   4.707  17.472  0.8162 -0.3367 -0.6214
 3425SOL     OW21736   2.069   2.685   6.704  0.1579 -0.7675  0.3856
 3425SOL    HW121737   2.119   2.605   6.723  3.0641  0.7013 -1.1028
 3425SOL    HW221738   1.991   2.665   6.756  0.4528 -0.4790  0.9401
 3426SOL     OW21739   4.548   0.047   8.549  0.2025 -0.6807  0.4283
 3426SOL    HW121740   4.600   4.698   8.527  0.5553 -0.5928  0.9518
 3426SOL    HW221741   4.480   0.021   8.611 -1.7460 -4.0904 -3.0778
 3427SOL     OW21742   0.661   1.946   1.967 -0.3463  0.0519  0.4363
 3427SOL    HW121743   0.609   1.867   1.955  0.3362 -0.7475  2.6969
 3427SOL    HW221744   0.733   1.914   1.912 -0.5304  0.1039  0.1638
 3428SOL     OW21745   3.281   1.634   5.863  0.2651  0.1743 -0.3330
 3428SOL    HW121746   3.373   1.638   5.837  0.3964  0.5558  0.1878
 3428SOL    HW221747   3.242   1.579   5.795 -2.3842  1.6469 -0.0093
 3429SOL     OW21748   0.391   4.258   8.196  0.5765 -0.3725  0.4095
 3429SOL    HW121749   0.348   4.243   8.280  0.9670 -0.3004  0.6232
 3429SOL    HW221750   0.394   4.170   8.157  1.2924  0.0720 -0.5465
 3430SOL     OW21751   2.630   0.028   2.871 -0.1448  0.2682 -0.0330
 3430SOL    HW121752   2.714   4.725   2.839 -0.9425  2.7403 -4.4869
 3430SOL    HW221753   2.590   4.680   2.914 -0.1061  0.7707  0.8910
 3431SOL     OW21754   4.168   0.165   2.646 -0.2225  0.3894  0.2626
 3431SOL    HW121755   4.130   0.123   2.568 -1.1104 -1.8542  1.8977
 3431SOL    HW221756   4.129   0.252   2.645  0.5009  0.7266  2.2798
 3432SOL     OW21757   3.457   1.668   9.840 -0.0044  0.5312 -0.1536
 3432SOL    HW121758   3.546   1.691   9.868  0.7431  0.9944 -2.9355
 3432SOL    HW221759   3.463   1.676   9.745  1.2627 -1.0685 -0.2138
 3433SOL     OW21760   1.287   2.713   0.863  0.1559 -0.0693  0.1034
 3433SOL    HW121761   1.248   2.770   0.797  0.0710 -0.1856  0.0522
 3433SOL    HW221762   1.205   2.682   0.902  0.5029 -0.4769  0.5168
 3434SOL     OW21763   0.258   3.215   8.642  0.2942 -0.5171 -0.0629
 3434SOL    HW121764   0.178   3.163   8.643  0.1493 -0.2868  0.2453
 3434SOL    HW221765   0.316   3.162   8.587 -1.0051 -1.8490 -0.1470
 3435SOL     OW21766   1.408   0.184   9.672  0.2124  0.0301  0.3078
 3435SOL    HW121767   1.453   0.194   9.756  0.0651  1.2499  0.2417
 3435SOL    HW221768   1.489   0.168   9.623  1.5132 -0.3770  2.5625
 3436SOL     OW21769   0.113   0.191  12.030 -0.5732 -0.0368  0.1852
 3436SOL    HW121770   0.133   0.204  11.937 -1.3972  2.8976  0.4013
 3436SOL    HW221771   0.020   0.166  12.033 -0.6944  0.2235 -1.2666
 3437SOL     OW21772   3.505   2.267   5.792 -0.4036 -0.2540 -0.1364
 3437SOL    HW121773   3.425   2.245   5.841 -0.9266 -0.6630 -1.1758
 3437SOL    HW221774   3.575   2.216   5.834  0.0318  1.3907  1.1477
 3438SOL     OW21775   2.880   3.118  12.391 -0.1504  0.5231 -0.2544
 3438SOL    HW121776   2.902   3.039  12.442 -0.7677  0.0706 -0.6899
 3438SOL    HW221777   2.804   3.150  12.440 -0.6498  0.2800 -0.8666
 3439SOL     OW21778   3.422   2.515   3.683  0.0755  0.0207 -0.5591
 3439SOL    HW121779   3.425   2.534   3.589 -1.3811  2.3263 -0.1517
 3439SOL    HW221780   3.480   2.440   3.689 -0.3423 -0.2193  0.3982
 3440SOL     OW21781   3.453   1.853   7.754  0.6460 -0.0102  0.5104
 3440SOL    HW121782   3.473   1.814   7.839  1.1185  2.0794  1.3725
 3440SOL    HW221783   3.383   1.794   7.728  0.2999  0.9682 -0.7936
 3441SOL     OW21784   1.467   3.707   1.903  0.5118 -0.4982  0.7267
 3441SOL    HW121785   1.384   3.702   1.950 -1.0638 -2.0310 -2.2212
 3441SOL    HW221786   1.520   3.657   1.965  0.2847 -2.8707 -0.9783
 3442SOL     OW21787   0.081   1.443   7.450 -0.3214 -0.5241 -0.3055
 3442SOL    HW121788   0.099   1.535   7.435  1.4918 -1.0068 -1.1182
 3442SOL    HW221789   0.076   1.448   7.546  1.5796 -0.9589 -0.1831
 3443SOL     OW21790   3.083   2.528  17.026 -0.1192 -0.0577 -0.4805
 3443SOL    HW121791   3.168   2.521  17.069 -1.2147 -1.6406  1.4446
 3443SOL    HW221792   3.105   2.581  16.949  1.1263  1.1499  0.7015
 3444SOL     OW21793   1.485   4.134   8.569  0.9559 -0.5413  0.6724
 3444SOL    HW121794   1.404   4.179   8.593  0.3553  0.0262 -2.4374
 3444SOL    HW221795   1.461   4.119   8.478  0.6725  2.7730  0.2216
 3445SOL     OW21796   4.640   4.091  12.691  0.1785  0.0661  0.3169
 3445SOL    HW121797   4.687   4.026  12.640 -1.9868 -1.6420  0.5179
 3445SOL    HW221798   4.714   4.120  12.744 -0.1368  0.6980  0.4218
 3446SOL     OW21799   4.611   3.728   1.349  0.3594  0.3042  0.0472
 3446SOL    HW121800   4.531   3.681   1.372  2.0770 -2.5395  0.2555
 3446SOL    HW221801   4.636   3.758   1.437  0.7655 -0.8449  0.3255
 3447SOL     OW21802   3.234   0.627   4.747 -0.1858 -0.5026 -0.1722
 3447SOL    HW121803   3.198   0.715   4.738  0.6742 -0.0003  1.3711
 3447SOL    HW221804   3.161   0.567   4.726 -0.5913 -0.1656  0.2879
 3448SOL     OW21805   4.180   4.126   6.436  0.1997 -0.0698 -0.2624
 3448SOL    HW121806   4.215   4.196   6.380  1.4968  0.1932  0.8862
 3448SOL    HW221807   4.114   4.094   6.374 -0.1724 -1.1221  0.6806
 3449SOL     OW21808   2.538   1.397  12.033  0.0230 -0.2809 -0.1078
 3449SOL    HW121809   2.464   1.339  12.052  1.5310 -2.1438  0.0106
 3449SOL    HW221810   2.502   1.482  12.060 -1.7511 -1.5335  1.4610
 3450SOL     OW21811   0.749   3.922   4.516  0.2845  0.5963  0.5485
 3450SOL    HW121812   0.656   3.903   4.506  0.3425  0.0840  0.9518
 3450SOL    HW221813   0.761   3.991   4.451 -1.7945  0.3273 -0.1025
 3451SOL     OW21814   1.533   4.276   0.838 -0.0978 -0.0053 -0.3273
 3451SOL    HW121815   1.539   4.343   0.769 -2.1421 -0.3177 -0.7966
 3451SOL    HW221816   1.466   4.314   0.894  0.3953 -1.1109  1.0168
 3452SOL     OW21817   0.670   1.343  12.516  0.2138  0.1675  0.2296
 3452SOL    HW121818   0.648   1.253  12.492  0.7299  0.8832 -2.9066
 3452SOL    HW221819   0.608   1.351  12.589 -0.6483  0.2875 -0.5153
 3453SOL     OW21820   1.269   1.205   7.640 -0.6454  0.0417 -0.3443
 3453SOL    HW121821   1.343   1.150   7.663 -1.8609 -0.6255  1.9644
 3453SOL    HW221822   1.203   1.141   7.615 -2.0804 -0.0793  3.8003
 3454SOL     OW21823   1.256   3.575   7.380  0.0776  0.0770  0.2329
 3454SOL    HW121824   1.240   3.632   7.305 -1.2074  1.0687  1.2761
 3454SOL    HW221825   1.315   3.514   7.335  0.5833 -0.5981  1.7989
 3455SOL     OW21826   0.820   1.864   3.113  0.1683  0.3069 -0.0324
 3455SOL    HW121827   0.747   1.815   3.150 -0.8246  0.9252 -1.1794
 3455SOL    HW221828   0.843   1.834   3.025  0.0424 -0.9121  0.3483
 3456SOL     OW21829   3.582   1.427   7.417 -0.4275  0.3539 -0.1352
 3456SOL    HW121830   3.582   1.335   7.392  0.0676  0.3807 -0.2372
 3456SOL    HW221831   3.554   1.426   7.508  1.5889 -0.9484  0.4715
 3457SOL     OW21832   0.408   4.494   5.274 -0.4928  0.1806  0.1631
 3457SOL    HW121833   0.459   4.460   5.201 -0.4367 -0.1283  0.3449
 3457SOL    HW221834   0.317   4.500   5.245  0.1213 -1.2246 -2.0576
 3458SOL     OW21835   1.519   2.763  12.544  0.6440 -0.4091 -0.0499
 3458SOL    HW121836   1.424   2.777  12.551  0.6827 -0.7527  1.2256
 3458SOL    HW221837   1.529   2.728  12.632  1.5030 -0.8414 -0.3227
 3459SOL     OW21838   2.556   3.993  12.174  0.1797 -0.4787  0.5268
 3459SOL    HW121839   2.618   4.011  12.103  0.6961  3.0320  1.8721
 3459SOL    HW221840   2.506   3.915  12.148 -1.6329  0.9093 -0.1011
 3460SOL     OW21841   4.706   3.832   6.762  0.0035 -0.1301 -0.3925
 3460SOL    HW121842   4.652   3.911   6.763  1.4253  0.8275  0.6817
 3460SOL    HW221843   4.644   3.774   6.805  1.1936 -0.5608  0.7437
 3461SOL     OW21844   0.083   4.198   6.046 -0.0421  0.2376 -0.6659
 3461SOL    HW121845   0.101   4.285   6.010 -1.9945  0.1539 -1.8128
 3461SOL    HW221846   0.163   4.155   6.013  0.3125 -2.4706  3.6748
 3462SOL     OW21847   2.095   0.687   4.252 -0.1189  0.5709  0.1256
 3462SOL    HW121848   2.134   0.753   4.310  1.8075  1.0151 -1.6696
 3462SOL    HW221849   2.140   0.613   4.294 -0.0591  1.2579  1.2934
 3463SOL     OW21850   3.526   2.031  12.736 -0.5501  0.5448 -0.5403
 3463SOL    HW121851   3.496   2.055  12.649 -0.9527  1.0719 -0.2560
 3463SOL    HW221852   3.564   1.945  12.720  0.8177  1.0277  0.0863
 3464SOL     OW21853   0.670   2.919   7.056  0.1933  0.3726 -0.5995
 3464SOL    HW121854   0.591   2.906   7.004  0.6377  0.2074 -1.2365
 3464SOL    HW221855   0.640   2.940   7.145 -0.2011 -1.1674 -0.3739
 3465SOL     OW21856   0.695   3.231  14.914  0.2877  0.0906  0.1504
 3465SOL    HW121857   0.689   3.157  14.853 -1.8416  0.6836 -0.3492
 3465SOL    HW221858   0.776   3.266  14.877  0.1073 -1.2731 -1.5439
 3466SOL     OW21859   3.053   1.098   2.834 -0.5161 -0.7073 -0.5702
 3466SOL    HW121860   3.121   1.055   2.887 -0.7458  1.5014  1.4983
 3466SOL    HW221861   3.104   1.119   2.756 -3.3622 -0.4696 -2.3690
 3467SOL     OW21862   0.747   0.749   6.207  0.3798 -0.0352 -0.1017
 3467SOL    HW121863   0.734   0.835   6.167  0.3439  0.7406  1.5975
 3467SOL    HW221864   0.797   0.711   6.134 -0.8260 -1.0348 -0.4102
 3468SOL     OW21865   0.555   0.701   5.567  0.4847  0.0877 -0.6040
 3468SOL    HW121866   0.589   0.621   5.608 -4.3228 -2.3174 -1.3366
 3468SOL    HW221867   0.607   0.704   5.486 -0.3105 -1.6011 -1.1773
 3469SOL     OW21868   2.098   4.546   8.516 -0.1758 -0.3464 -0.0517
 3469SOL    HW121869   2.188   4.515   8.526 -0.0703 -0.2413 -0.6368
 3469SOL    HW221870   2.068   4.490   8.444  0.0511 -1.1660  0.5013
 3470SOL     OW21871   0.400   0.715   4.680  0.1648  0.1567  0.3101
 3470SOL    HW121872   0.466   0.736   4.614 -2.1155 -2.1055 -2.6473
 3470SOL    HW221873   0.449   0.705   4.762  3.6567  0.0172 -1.7892
 3471SOL     OW21874   1.741   4.178   2.277  0.5347 -0.4938 -0.0142
 3471SOL    HW121875   1.828   4.217   2.285  1.3489 -2.2399 -0.3752
 3471SOL    HW221876   1.697   4.244   2.224  1.3101 -1.1615 -1.5000
 3472SOL     OW21877   1.141   3.765   1.739 -0.0664  0.6284  0.0153
 3472SOL    HW121878   1.170   3.786   1.650 -0.5901  1.3882  0.0254
 3472SOL    HW221879   1.150   3.670   1.748 -1.3921  0.5702  0.7386
 3473SOL     OW21880   0.353   4.677  15.312 -0.3857 -0.7865 -0.9012
 3473SOL    HW121881   0.432   4.723  15.282  0.5723 -1.6872  0.2180
 3473SOL    HW221882   0.388   4.621  15.381 -0.3216 -1.5992 -1.5942
 3474SOL     OW21883   0.454   4.152   9.599 -0.0961  0.3739  0.7782
 3474SOL    HW121884   0.434   4.059   9.612  1.8972 -0.0541  0.8469
 3474SOL    HW221885   0.365   4.186   9.608 -0.0146  0.3692  1.5808
 3475SOL     OW21886   2.467   0.256  12.585 -0.3417 -0.4436 -0.6707
 3475SOL    HW121887   2.508   0.335  12.621  0.9362 -2.3474  2.0503
 3475SOL    HW221888   2.397   0.295  12.532 -1.2924 -1.1228  0.0788
 3476SOL     OW21889   2.911   3.639  11.782  0.6125  0.8510 -0.4299
 3476SOL    HW121890   2.930   3.591  11.702  1.0968  2.1777 -1.1030
 3476SOL    HW221891   2.988   3.695  11.776  0.4014  1.1616 -0.2131
 3477SOL     OW21892   2.873   3.908   9.657 -0.2263  0.0486  0.0134
 3477SOL    HW121893   2.841   3.997   9.643 -2.3135 -0.5284  1.1067
 3477SOL    HW221894   2.906   3.872   9.575 -0.1196  1.8146 -0.7017
 3478SOL     OW21895   4.568   3.597   2.191  0.0340  0.0255  0.0886
 3478SOL    HW121896   4.592   3.637   2.108  2.2602  1.4487  1.4260
 3478SOL    HW221897   4.591   3.505   2.175  0.1992  0.4024 -1.7448
 3479SOL     OW21898   0.831   1.035   3.259 -0.0590 -0.3757  0.3865
 3479SOL    HW121899   0.753   1.079   3.223  0.2659  0.4520  0.6984
 3479SOL    HW221900   0.848   1.085   3.338 -3.4719 -0.0685  0.9498
 3480SOL     OW21901   3.949   4.613   2.245 -0.3465 -0.2046  0.2481
 3480SOL    HW121902   3.857   4.587   2.251 -0.6404  1.0417  0.9229
 3480SOL    HW221903   3.983   4.526   2.223  2.2212  1.5402 -2.7460
 3481SOL     OW21904   0.320   2.653   9.203  0.5383 -0.0181 -0.1101
 3481SOL    HW121905   0.291   2.638   9.113  0.2234 -0.1047  0.0047
 3481SOL    HW221906   0.296   2.742   9.228 -2.3860 -0.2487 -2.1147
 3482SOL     OW21907   3.517   2.480   6.773  0.8515  0.0576  0.3393
 3482SOL    HW121908   3.569   2.501   6.850  0.4168 -1.9811  1.1836
 3482SOL    HW221909   3.502   2.387   6.790 -1.5933  0.8892  2.7494
 3483SOL     OW21910   0.426   0.571   5.962  0.8509  0.0247 -0.4973
 3483SOL    HW121911   0.458   0.516   6.033 -0.7417  0.0252  0.2128
 3483SOL    HW221912   0.450   0.514   5.889  0.0745 -0.5774 -0.2740
 3484SOL     OW21913   1.151   3.394   5.980 -0.0735 -0.3024  0.3499
 3484SOL    HW121914   1.229   3.348   6.012  1.0374  1.5411  0.2897
 3484SOL    HW221915   1.185   3.483   5.974 -1.1530  0.0539 -0.4987
 3485SOL     OW21916   3.796   1.917  10.172  0.1979  0.6446 -0.1844
 3485SOL    HW121917   3.811   2.009  10.196  1.5294  0.8989 -2.0132
 3485SOL    HW221918   3.708   1.908  10.208  0.2094  0.4789 -0.1981
 3486SOL     OW21919   2.543   2.847   3.032 -0.1877 -0.3858 -0.7371
 3486SOL    HW121920   2.636   2.844   3.010 -0.1515 -1.9875 -0.3588
 3486SOL    HW221921   2.497   2.884   2.957  1.5779 -0.8102 -2.0189
 3487SOL     OW21922   2.052   3.161   4.879 -0.3071 -0.0583 -0.4735
 3487SOL    HW121923   1.991   3.099   4.838 -0.1026 -2.2305  2.4704
 3487SOL    HW221924   2.005   3.185   4.959  0.7151 -0.8037  0.3627
 3488SOL     OW21925   3.634   4.552   4.013 -0.3953  0.7623 -0.0183
 3488SOL    HW121926   3.646   4.621   3.948 -0.9075  0.2388 -0.6754
 3488SOL    HW221927   3.710   4.564   4.070  0.4292 -3.8048 -0.1382
 3489SOL     OW21928   4.698   2.604  15.630  0.0384  0.3532  0.3497
 3489SOL    HW121929   0.057   2.580  15.661 -0.0239 -0.5450 -0.1541
 3489SOL    HW221930   4.694   2.698  15.646 -0.3853  0.0698  1.9698
 3490SOL     OW21931   4.214   2.578   6.206  0.1243 -0.4540  0.0435
 3490SOL    HW121932   4.295   2.622   6.231 -0.4503  1.0362 -0.7094
 3490SOL    HW221933   4.203   2.603   6.115  1.0256 -2.2517 -0.5636
 3491SOL     OW21934   3.509   3.882   2.930 -0.6461  0.1538 -0.0908
 3491SOL    HW121935   3.516   3.801   2.980 -1.2441 -0.4184 -0.9409
 3491SOL    HW221936   3.585   3.874   2.873 -2.5579 -1.4578 -2.3988
 3492SOL     OW21937   3.771   1.934   8.581  0.4280 -0.5301  0.6781
 3492SOL    HW121938   3.771   1.854   8.529  1.3894  0.5936 -1.0264
 3492SOL    HW221939   3.795   1.898   8.667 -0.3948 -1.0147  0.7003
 3493SOL     OW21940   2.676   3.461   5.246  0.3327  0.0481 -0.1005
 3493SOL    HW121941   2.611   3.404   5.206  0.4854  0.3633 -0.8032
 3493SOL    HW221942   2.750   3.405   5.270 -0.2107  0.2216  1.9803
 3494SOL     OW21943   3.643   3.977  11.329 -0.3026  0.4215  0.3680
 3494SOL    HW121944   3.721   4.024  11.357  1.1927 -1.7079 -0.2783
 3494SOL    HW221945   3.672   3.905  11.272  1.0545 -0.2530  1.9426
 3495SOL     OW21946   1.017   4.443  16.789  0.4038 -0.5990 -0.4165
 3495SOL    HW121947   1.080   4.515  16.797 -1.3823  0.9914 -0.6737
 3495SOL    HW221948   0.982   4.422  16.876 -0.6134  0.8955 -0.4539
 3496SOL     OW21949   3.560   0.949   1.979  0.5194 -0.0735 -0.0844
 3496SOL    HW121950   3.477   0.991   2.001  0.5946  1.4948 -2.7464
 3496SOL    HW221951   3.619   1.021   1.999  0.5646  0.4221 -1.9845
 3497SOL     OW21952   2.349   0.195  11.343 -0.3384 -0.7874 -0.6957
 3497SOL    HW121953   2.426   0.153  11.382  0.3536  0.7500 -0.3876
 3497SOL    HW221954   2.380   0.285  11.326 -2.0253 -0.2895 -1.0843
 3498SOL     OW21955   2.300   4.442   2.642  0.5922 -0.5581  0.2683
 3498SOL    HW121956   2.240   4.461   2.714  2.1760  1.0031  1.1444
 3498SOL    HW221957   2.381   4.479   2.676 -0.0394  0.8617  0.2081
 3499SOL     OW21958   2.391   0.364   7.664  0.6005 -0.3920 -0.0117
 3499SOL    HW121959   2.325   0.403   7.606  2.5954  0.5108 -1.6881
 3499SOL    HW221960   2.373   0.405   7.749 -0.2670 -2.0132  0.5780
 3500SOL     OW21961   2.625   2.278  15.249 -0.3917 -0.3186 -1.0931
 3500SOL    HW121962   2.665   2.208  15.300 -0.8259  0.2881  0.0863
 3500SOL    HW221963   2.571   2.324  15.314 -1.8775 -0.9719 -1.8867
 3501SOL     OW21964   0.159   2.193   9.233  0.2848  0.4498  0.2016
 3501SOL    HW121965   0.198   2.109   9.258  1.1823  1.3907  1.9996
 3501SOL    HW221966   0.222   2.251   9.276  0.3164  0.4185  0.1971
 3502SOL     OW21967   3.402   4.077  16.060  0.4843  0.2662 -0.3101
 3502SOL    HW121968   3.408   3.983  16.077 -3.7062  0.5043  2.4088
 3502SOL    HW221969   3.312   4.092  16.029  1.0407  2.5622 -0.7717
 3503SOL     OW21970   0.787   1.798   3.520  0.1869  0.7092 -0.5672
 3503SOL    HW121971   0.808   1.721   3.467 -0.2131  0.8550 -0.9318
 3503SOL    HW221972   0.867   1.839   3.552  0.9134 -1.0530 -0.1017
 3504SOL     OW21973   2.301   1.520  11.553  0.6475  0.0222 -0.1612
 3504SOL    HW121974   2.347   1.579  11.613  0.0195  0.4720 -0.1307
 3504SOL    HW221975   2.254   1.465  11.615  0.0380 -0.2687 -0.8900
 3505SOL     OW21976   2.307   3.358   9.324  0.5589  0.6643  0.1983
 3505SOL    HW121977   2.391   3.388   9.290  0.3022 -0.4907 -1.4432
 3505SOL    HW221978   2.283   3.434   9.377  3.1056  1.6915 -0.0973
 3506SOL     OW21979   3.552   0.851  16.819 -0.1308 -0.1593 -0.2528
 3506SOL    HW121980   3.562   0.904  16.898 -1.7122  0.2358 -0.3226
 3506SOL    HW221981   3.511   0.769  16.849 -1.0172  0.5651  0.5316
 3507SOL     OW21982   1.451   1.077   6.207 -0.1323  0.0082  0.1657
 3507SOL    HW121983   1.473   1.091   6.115 -3.4078 -0.0201 -0.6267
 3507SOL    HW221984   1.465   0.982   6.200  0.4531  0.1072 -0.0143
 3508SOL     OW21985   3.684   0.594   4.138  0.5340  0.0723 -0.6597
 3508SOL    HW121986   3.710   0.657   4.206  0.3943 -0.1446 -0.4066
 3508SOL    HW221987   3.742   0.519   4.148 -0.1993 -0.1235  1.9930
 3509SOL     OW21988   4.235   2.436   3.638 -0.3804  0.3742  0.1002
 3509SOL    HW121989   4.328   2.446   3.616 -0.6092 -0.3013 -1.2132
 3509SOL    HW221990   4.188   2.478   3.565  0.5285 -0.5610 -1.0366
 3510SOL     OW21991   4.122   0.187   1.686  0.2518  0.1690  0.2641
 3510SOL    HW121992   4.035   0.215   1.717  1.3379  3.6600  0.2143
 3510SOL    HW221993   4.147   0.128   1.757 -0.3308 -0.6793 -0.2330
 3511SOL     OW21994   4.583   3.455   2.442 -0.1747 -0.1107 -0.3469
 3511SOL    HW121995   4.509   3.510   2.467 -0.8140 -0.2836 -1.8471
 3511SOL    HW221996   4.574   3.458   2.347  0.2637 -0.3956 -0.3972
 3512SOL     OW21997   2.794   2.306   3.085  0.0802 -0.0010 -0.1659
 3512SOL    HW121998   2.717   2.354   3.116  0.0095  0.9439 -1.7958
 3512SOL    HW221999   2.861   2.326   3.149 -1.3481  0.1660  1.2748
 3513SOL     OW22000   2.979   2.583   9.063 -0.7610 -0.2068 -0.1136
 3513SOL    HW122001   2.932   2.619   9.138  1.5920  0.7317  0.9300
 3513SOL    HW222002   3.068   2.598   9.096 -1.5445  1.9689  1.0659
 3514SOL     OW22003   3.970   2.980   6.068  0.5372 -0.4013 -0.4851
 3514SOL    HW122004   4.064   2.963   6.079  0.4387 -1.3498 -1.1085
 3514SOL    HW222005   3.930   2.924   6.135 -0.7680  2.3228  0.9942
 3515SOL     OW22006   1.247   3.127  10.062  0.1149  0.2164  0.4096
 3515SOL    HW122007   1.184   3.074  10.014  1.0460 -0.6931  0.1804
 3515SOL    HW222008   1.311   3.059  10.040 -1.1876 -0.6578 -0.6761
 3516SOL     OW22009   0.317   0.676   1.554 -0.1127  0.8784  0.1527
 3516SOL    HW122010   0.277   0.598   1.516  0.7962  0.5217 -0.0688
 3516SOL    HW222011   0.396   0.637   1.592 -0.6267 -0.6346 -0.3307
 3517SOL     OW22012   2.363   1.182   7.465 -0.0312  0.2315  1.1245
 3517SOL    HW122013   2.280   1.161   7.509 -0.8849  1.3908  0.0775
 3517SOL    HW222014   2.414   1.230   7.531  1.6141  1.2902 -0.8981
 3518SOL     OW22015   3.011   3.482   2.937 -0.3933 -0.1436 -0.3913
 3518SOL    HW122016   2.926   3.491   2.894 -0.4500  1.7294  0.1135
 3518SOL    HW222017   3.065   3.526   2.871  1.0636  0.6815  1.3592
 3519SOL     OW22018   2.360   1.053   8.402  0.5823  0.3199 -0.4162
 3519SOL    HW122019   2.311   1.116   8.455 -1.9644 -0.0755 -2.3258
 3519SOL    HW222020   2.428   1.116   8.379 -0.6708  1.0363 -2.0934
 3520SOL     OW22021   4.369   4.341   5.986  0.2205 -0.0556  0.2468
 3520SOL    HW122022   4.288   4.338   5.936 -0.2290  1.1055  0.9156
 3520SOL    HW222023   4.416   4.348   5.903  0.8725  0.1749  0.6378
 3521SOL     OW22024   1.158   2.812   8.414  0.1336 -0.0074  0.2554
 3521SOL    HW122025   1.072   2.780   8.388  0.9035 -0.9464 -1.1033
 3521SOL    HW222026   1.143   2.802   8.508 -0.1579 -0.0792  0.2007
 3522SOL     OW22027   1.535   2.581   3.280 -0.2415  0.3172 -0.7665
 3522SOL    HW122028   1.482   2.599   3.202  0.3965 -0.5203 -1.3917
 3522SOL    HW222029   1.477   2.606   3.352  0.4187 -1.1153  0.2568
 3523SOL     OW22030   1.795   1.132   6.237 -0.2720 -0.0045  0.7847
 3523SOL    HW122031   1.824   1.222   6.220  1.6101 -0.5090  1.3981
 3523SOL    HW222032   1.701   1.142   6.257 -0.4271 -0.6715  0.3808
 3524SOL     OW22033   0.212   1.556   8.026 -0.4380  0.1741  0.3875
 3524SOL    HW122034   0.256   1.640   8.035 -0.3640  0.3574 -1.5162
 3524SOL    HW222035   0.149   1.585   7.960 -0.1422  0.2247  0.1295
 3525SOL     OW22036   0.754   1.435   6.189  0.1526 -0.2997 -0.2042
 3525SOL    HW122037   0.813   1.411   6.261  2.3323  2.5151 -1.0509
 3525SOL    HW222038   0.698   1.495   6.237 -1.0990 -2.2176  0.7149
 3526SOL     OW22039   1.017   0.900  11.578 -0.4229 -0.5711  0.3433
 3526SOL    HW122040   1.035   0.839  11.650  2.7837 -0.8771 -0.6926
 3526SOL    HW222041   0.922   0.909  11.584 -0.3722 -0.5904  1.2867
 3527SOL     OW22042   1.761   1.629   1.014  0.3022 -0.3233 -0.5967
 3527SOL    HW122043   1.688   1.691   1.024  0.5033 -0.3558  1.0286
 3527SOL    HW222044   1.719   1.542   1.010 -1.3604  0.5170 -1.6693
 3528SOL     OW22045   3.385   4.640   4.672 -0.1776  0.2364  0.5164
 3528SOL    HW122046   3.455   4.706   4.673 -0.5320  0.6295 -1.4132
 3528SOL    HW222047   3.438   4.560   4.678 -2.1310 -1.0336  0.5544
 3529SOL     OW22048   2.956   2.203   6.136  0.4671  0.5665 -0.5046
 3529SOL    HW122049   3.032   2.194   6.078 -0.1632  1.7504 -1.5152
 3529SOL    HW222050   2.996   2.229   6.219 -2.3173  0.4472  0.8499
 3530SOL     OW22051   2.316   0.611   4.896 -0.1939  0.1031  0.3548
 3530SOL    HW122052   2.300   0.694   4.849 -0.0333  0.1271  0.3422
 3530SOL    HW222053   2.361   0.635   4.977  0.5015  0.6968 -0.2032
 3531SOL     OW22054   3.054   2.352   4.231 -0.4676 -0.1371 -0.3895
 3531SOL    HW122055   3.052   2.411   4.306  1.1276 -0.6717  0.0834
 3531SOL    HW222056   2.962   2.339   4.206 -0.1672 -3.2605  0.1367
 3532SOL     OW22057   2.113   1.333   4.931  0.1835 -0.3139 -0.1357
 3532SOL    HW122058   2.055   1.355   5.004  0.3725 -0.2107 -0.0162
 3532SOL    HW222059   2.138   1.417   4.892 -2.6712  1.0237  0.9323
 3533SOL     OW22060   2.950   1.994   4.402  0.1444 -0.3915  0.5202
 3533SOL    HW122061   2.935   1.967   4.312  1.3523  0.5128  0.0536
 3533SOL    HW222062   2.894   2.072   4.401  2.1035  1.0079  1.1066
 3534SOL     OW22063   3.001   0.450   2.243  0.2122 -0.4820  0.2534
 3534SOL    HW122064   2.975   0.534   2.281 -0.5091 -0.5915  0.0198
 3534SOL    HW222065   3.068   0.486   2.185 -0.9549 -0.5885 -1.1687
 3535SOL     OW22066   2.438   0.923   1.916  0.4401 -0.4867  0.3794
 3535SOL    HW122067   2.478   0.881   1.992  0.0637 -1.0271  0.2826
 3535SOL    HW222068   2.453   1.015   1.936  0.2922 -0.6982  1.4638
 3536SOL     OW22069   0.036   1.076   6.521  0.1545  0.8745  0.4450
 3536SOL    HW122070   4.698   1.066   6.590 -1.8341  1.4857 -1.4041
 3536SOL    HW222071   0.032   0.986   6.487  1.3896  1.1477 -0.4248
 3537SOL     OW22072   4.568   3.951   2.478 -0.4017 -0.0018 -0.5927
 3537SOL    HW122073   4.550   3.999   2.398 -1.6929 -0.9524 -0.8719
 3537SOL    HW222074   4.631   3.884   2.450  0.5990  1.4943 -1.9308
 3538SOL     OW22075   3.741   3.239   4.661 -0.9976  0.3660  0.5207
 3538SOL    HW122076   3.783   3.240   4.747  0.5467  1.1685 -0.2469
 3538SOL    HW222077   3.819   3.222   4.608  0.1787  1.5689  1.8478
 3539SOL     OW22078   4.570   2.902  16.660 -0.8352 -0.0506 -0.0724
 3539SOL    HW122079   4.546   2.973  16.720 -0.2941 -0.8235  1.0633
 3539SOL    HW222080   4.549   2.822  16.708  0.6491  0.0875  0.8180
 3540SOL     OW22081   2.100   1.019   2.619 -0.7020 -0.1490  0.2446
 3540SOL    HW122082   2.077   1.032   2.711  0.2988  1.0469  0.3346
 3540SOL    HW222083   2.083   1.105   2.581  1.4885  0.1606 -0.0659
 3541SOL     OW22084   0.089   0.064   8.670  0.0889 -0.4210 -0.4207
 3541SOL    HW122085   0.162   0.084   8.611 -0.7838  0.8640 -1.0451
 3541SOL    HW222086   0.061   0.152   8.693 -0.4702 -1.0644  1.3554
 3542SOL     OW22087   4.140   2.176  15.891 -0.0872 -0.2091  0.3976
 3542SOL    HW122088   4.130   2.116  15.966 -1.4914 -1.5878 -0.8769
 3542SOL    HW222089   4.236   2.170  15.893 -0.1150 -0.4013  1.2093
 3543SOL     OW22090   3.264   1.606   4.615 -0.8965  0.1156  0.1221
 3543SOL    HW122091   3.334   1.551   4.651 -0.5510  0.8761  0.5973
 3543SOL    HW222092   3.316   1.682   4.592  0.7480 -0.2280  2.6826
 3544SOL     OW22093   3.152   1.766   8.873 -0.0151 -0.0913  0.8777
 3544SOL    HW122094   3.066   1.736   8.903 -1.4530  0.8120 -2.2655
 3544SOL    HW222095   3.139   1.754   8.778 -3.3022  2.0409  1.0604
 3545SOL     OW22096   1.553   2.525   1.081 -0.2514 -0.1810 -0.0375
 3545SOL    HW122097   1.593   2.612   1.079  1.0637 -0.8237 -1.5838
 3545SOL    HW222098   1.485   2.537   1.015  0.5203  3.8296 -0.0539
 3546SOL     OW22099   2.139   1.223  12.545  0.0208 -0.4117 -0.1242
 3546SOL    HW122100   2.180   1.251  12.462 -1.7815  3.1005  0.1577
 3546SOL    HW222101   2.102   1.137  12.529  0.0551 -0.4276 -0.1188
 3547SOL     OW22102   2.613   3.429   6.138 -0.1909  0.1433  0.1030
 3547SOL    HW122103   2.553   3.404   6.068  1.3535 -2.7735 -0.1817
 3547SOL    HW222104   2.604   3.355   6.198  1.3025 -0.9396 -1.0293
 3548SOL     OW22105   2.241   3.977   3.527 -0.4903 -0.5539  0.2390
 3548SOL    HW122106   2.285   4.055   3.561  1.4381 -1.4382 -0.2415
 3548SOL    HW222107   2.149   4.003   3.529 -0.2066  0.3758  0.9745
 3549SOL     OW22108   3.313   3.244   8.043  0.3074  0.2322 -0.2669
 3549SOL    HW122109   3.332   3.192   8.121  0.0602  2.5414  1.2995
 3549SOL    HW222110   3.294   3.331   8.078 -1.1135  0.3587 -1.3388
 3550SOL     OW22111   0.187   4.331   9.958  0.4743 -0.1127 -0.1822
 3550SOL    HW122112   0.191   4.425   9.977 -1.8051 -0.1052  0.2872
 3550SOL    HW222113   0.115   4.335   9.895  0.5285  1.8020 -0.1145
 3551SOL     OW22114   3.799   0.685   5.430 -0.1484  0.0564 -0.1956
 3551SOL    HW122115   3.777   0.648   5.516  0.4874  0.6339  0.2186
 3551SOL    HW222116   3.895   0.678   5.428 -0.1770 -1.1035  1.4524
 3552SOL     OW22117   3.065   1.901   3.153  0.0726  0.7934  0.6169
 3552SOL    HW122118   3.045   1.821   3.202  0.5703  0.9923  1.1345
 3552SOL    HW222119   2.976   1.937   3.149 -1.3116 -2.6314  0.7858
 3553SOL     OW22120   4.026   3.579  17.427  0.4893 -0.0529  0.0425
 3553SOL    HW122121   3.976   3.658  17.445  1.6209  0.7171 -0.1820
 3553SOL    HW222122   4.116   3.603  17.407  0.7903 -0.3486  1.0614
 3554SOL     OW22123   4.185   4.404   7.620  0.3313 -0.0804  0.2997
 3554SOL    HW122124   4.108   4.458   7.639 -0.2092 -0.5996 -0.4292
 3554SOL    HW222125   4.140   4.347   7.558 -0.5744  2.1325 -1.1125
 3555SOL     OW22126   3.224   1.485   4.951 -0.1599  0.4819  0.0117
 3555SOL    HW122127   3.136   1.511   4.978  0.5339 -0.2985  3.1005
 3555SOL    HW222128   3.275   1.560   4.983  0.8893  0.1631 -0.9127
 3556SOL     OW22129   3.858   3.457   5.372  0.0436 -0.6768  0.2283
 3556SOL    HW122130   3.877   3.374   5.416  1.7336 -1.4867 -2.0296
 3556SOL    HW222131   3.815   3.508   5.440  0.5644  0.9610 -0.6652
 3557SOL     OW22132   1.509   4.627   3.404  0.2256  0.1414  0.1341
 3557SOL    HW122133   1.496   4.563   3.473  4.0773 -1.7671 -0.8803
 3557SOL    HW222134   1.514   4.587   3.317 -0.2219  1.0781 -0.3240
 3558SOL     OW22135   0.183   3.335   5.899  0.6982 -0.3304  0.2149
 3558SOL    HW122136   0.145   3.295   5.821 -2.4154 -1.3098  2.2468
 3558SOL    HW222137   0.104   3.341   5.953 -0.1485  2.3559 -1.3246
 3559SOL     OW22138   3.491   2.530   9.908 -0.5811  0.5628 -0.0171
 3559SOL    HW122139   3.571   2.563   9.867 -0.6681  1.9694  0.9492
 3559SOL    HW222140   3.480   2.566   9.996  2.2429  0.9360  0.2106
 3560SOL     OW22141   4.107   0.110   2.178 -0.1803 -0.1637  0.4009
 3560SOL    HW122142   4.188   0.086   2.224  0.2697  0.1968 -0.1979
 3560SOL    HW222143   4.057   0.031   2.197 -0.2748 -0.4996 -1.2460
 3561SOL     OW22144   0.580   3.187   5.361  0.1806 -0.3554  0.6705
 3561SOL    HW122145   0.659   3.157   5.316  0.6115 -0.3819  1.4532
 3561SOL    HW222146   0.519   3.196   5.288  1.2449  1.3860 -0.0081
 3562SOL     OW22147   0.300   1.062  10.967  0.4579  0.9741 -0.5486
 3562SOL    HW122148   0.364   1.011  10.918 -0.6287 -0.9005  0.0211
 3562SOL    HW222149   0.261   0.998  11.026 -1.5860  1.7517 -1.0510
 3563SOL     OW22150   0.975   2.133   5.257 -0.1856  0.0415  0.4618
 3563SOL    HW122151   1.049   2.182   5.293  0.5741  0.6235 -1.8920
 3563SOL    HW222152   0.952   2.074   5.329 -0.0449 -1.5172 -0.7736
 3564SOL     OW22153   0.953   2.305   1.865  0.1923  0.6953 -0.1806
 3564SOL    HW122154   0.954   2.273   1.775  1.8721 -1.1673  0.4803
 3564SOL    HW222155   1.011   2.377   1.841  1.9059 -0.1255  1.4831
 3565SOL     OW22156   2.543   2.185   8.405  0.3525 -0.2129  0.6812
 3565SOL    HW122157   2.634   2.205   8.423  0.3533  1.0004 -0.6666
 3565SOL    HW222158   2.509   2.271   8.380 -0.6056 -0.8642 -0.2766
 3566SOL     OW22159   1.619   2.119  16.985 -0.3521 -0.1000  0.3587
 3566SOL    HW122160   1.634   2.195  16.928  1.8931 -0.1973  0.8100
 3566SOL    HW222161   1.696   2.067  16.962 -1.5311 -1.8572  0.4275
 3567SOL     OW22162   3.361   3.415   0.450 -0.5236  0.2428 -0.6751
 3567SOL    HW122163   3.428   3.457   0.503  0.3460 -1.6841 -0.2546
 3567SOL    HW222164   3.343   3.329   0.489  0.7345 -0.6427 -2.0472
 3568SOL     OW22165   2.772   1.962   2.834  0.1887  0.0362  0.0723
 3568SOL    HW122166   2.815   1.881   2.806  1.1617  0.1089  1.3834
 3568SOL    HW222167   2.811   2.018   2.767  0.1093 -1.6965 -1.4152
 3569SOL     OW22168   2.477   3.085  12.330  0.0974 -0.5235  0.2141
 3569SOL    HW122169   2.388   3.110  12.307  1.1785  3.3140  0.1753
 3569SOL    HW222170   2.445   3.025  12.397 -2.8622 -0.1010 -0.8286
 3570SOL     OW22171   2.665   1.524   4.309 -0.1448  0.6394  0.0756
 3570SOL    HW122172   2.583   1.514   4.261  0.8004 -1.2312 -1.1597
 3570SOL    HW222173   2.690   1.611   4.277  1.6586 -0.4126 -1.3819
 3571SOL     OW22174   0.888   3.758   3.190 -0.0206 -0.1796  0.0969
 3571SOL    HW122175   0.967   3.711   3.217 -1.1020 -2.6737 -1.1075
 3571SOL    HW222176   0.875   3.814   3.266 -1.3822 -1.1952  0.5983
 3572SOL     OW22177   2.891   2.853   9.542 -0.2029  0.1113 -0.4103
 3572SOL    HW122178   2.938   2.803   9.608 -0.4398  0.0284 -0.3042
 3572SOL    HW222179   2.957   2.921   9.528 -3.4259  2.6793 -3.1525
 3573SOL     OW22180   2.901   1.675  13.397 -0.3903 -0.8733  0.1762
 3573SOL    HW122181   2.858   1.749  13.440  0.0468 -0.6565  0.2395
 3573SOL    HW222182   2.922   1.708  13.310  0.7531 -1.6566  0.1648
 3574SOL     OW22183   4.068   1.638   4.458 -0.2694 -0.4323  0.1184
 3574SOL    HW122184   4.117   1.578   4.401 -1.3526  1.8246 -3.1267
 3574SOL    HW222185   4.121   1.717   4.446  2.6786 -2.2603  0.9010
 3575SOL     OW22186   2.977   1.576   5.045  0.0065  0.4045 -0.3339
 3575SOL    HW122187   3.040   1.581   5.117 -0.7663  2.2613  0.2178
 3575SOL    HW222188   2.901   1.538   5.089  0.3945  0.7476  0.6306
 3576SOL     OW22189   4.314   0.605   5.854 -0.3079  0.4324  0.9179
 3576SOL    HW122190   4.255   0.658   5.908 -0.8242  1.5455 -0.7357
 3576SOL    HW222191   4.386   0.588   5.913  0.3455 -0.4304 -0.1273
 3577SOL     OW22192   2.794   3.955   8.951  0.3278  1.1850 -0.6572
 3577SOL    HW122193   2.705   3.923   8.961  1.2680 -1.0889  0.4051
 3577SOL    HW222194   2.835   3.897   8.887  1.9504  0.0048  1.4326
 3578SOL     OW22195   1.207   3.252   5.075  0.1463 -0.2423 -0.8748
 3578SOL    HW122196   1.136   3.313   5.095 -0.4261 -1.1393 -0.1738
 3578SOL    HW222197   1.223   3.210   5.159 -1.2710  0.4953 -0.2327
 3579SOL     OW22198   3.406   2.333   7.774  0.5639 -0.2120  0.2012
 3579SOL    HW122199   3.465   2.400   7.808 -0.1219  0.5453 -0.0986
 3579SOL    HW222200   3.391   2.287   7.857  2.4212 -0.2611  0.5037
 3580SOL     OW22201   3.982   1.993   1.978 -0.3247 -0.3342  0.9344
 3580SOL    HW122202   3.961   2.086   1.967  1.8189 -0.0867 -0.9617
 3580SOL    HW222203   4.051   1.997   2.044  0.2922  1.2206  0.1907
 3581SOL     OW22204   1.618   3.818   9.696 -1.1020 -0.0211  0.3254
 3581SOL    HW122205   1.647   3.828   9.787  1.1485 -2.1794 -0.1472
 3581SOL    HW222206   1.525   3.838   9.705 -1.1440  0.2491 -0.7003
 3582SOL     OW22207   1.192   1.825   3.914  0.0445  0.6181  0.2979
 3582SOL    HW122208   1.270   1.874   3.889  0.5820  0.4951  1.7212
 3582SOL    HW222209   1.215   1.735   3.891  1.3081  1.5361 -1.9205
 3583SOL     OW22210   1.784   3.237  10.354 -0.1271 -0.1029  0.2388
 3583SOL    HW122211   1.697   3.271  10.371  0.5777  1.0771  1.5128
 3583SOL    HW222212   1.838   3.309  10.322 -2.9021  2.7611  2.1445
 3584SOL     OW22213   2.724   1.450   5.115  0.6297 -0.6809 -0.9860
 3584SOL    HW122214   2.677   1.533   5.122  1.4885  0.0802 -4.1895
 3584SOL    HW222215   2.661   1.387   5.151 -1.2629  0.8599 -1.5661
 3585SOL     OW22216   1.872   3.186   7.840 -0.2023  0.0034 -0.5258
 3585SOL    HW122217   1.848   3.266   7.886  0.0033  0.0453 -0.4926
 3585SOL    HW222218   1.788   3.149   7.815 -1.2169  1.3615  0.9112
 3586SOL     OW22219   1.361   2.564  12.950 -0.2530  0.5560  0.2774
 3586SOL    HW122220   1.359   2.566  13.046 -0.3836  0.9567  0.2628
 3586SOL    HW222221   1.346   2.469  12.950  1.8591  0.2217 -0.7241
 3587SOL     OW22222   0.119   2.157  15.622  0.0891 -0.0335 -0.0535
 3587SOL    HW122223   0.045   2.208  15.589 -0.5927  0.5218  2.3737
 3587SOL    HW222224   0.179   2.199  15.561  0.4147  0.4448  0.5994
 3588SOL     OW22225   1.826   0.638   6.807  0.1656 -0.5180 -0.6525
 3588SOL    HW122226   1.778   0.650   6.889 -1.0258  0.8462 -1.5334
 3588SOL    HW222227   1.869   0.724   6.804  0.7595 -0.8173 -0.5783
 3589SOL     OW22228   1.890   3.418   2.984 -0.7879 -0.3128  0.2289
 3589SOL    HW122229   1.847   3.450   2.904  0.1056 -1.7789 -0.8417
 3589SOL    HW222230   1.843   3.337   3.005  1.8522 -1.7911  0.4653
 3590SOL     OW22231   1.139   3.393   7.130 -0.1956  0.1902 -0.4031
 3590SOL    HW122232   1.188   3.322   7.171 -2.1563  0.3597  2.1988
 3590SOL    HW222233   1.057   3.346   7.112 -1.1953  1.2253  1.4974
 3591SOL     OW22234   0.505   3.849   5.823 -0.3743  0.1579 -0.0600
 3591SOL    HW122235   0.456   3.845   5.741  0.8250 -0.3158 -0.7397
 3591SOL    HW222236   0.455   3.781   5.870 -1.3993  0.1161 -1.2230
 3592SOL     OW22237   1.225   2.122   8.832 -0.2025  0.4511 -0.0889
 3592SOL    HW122238   1.160   2.192   8.825  1.4205  1.8811 -1.0073
 3592SOL    HW222239   1.226   2.101   8.926  0.9598 -0.9381 -0.4133
 3593SOL     OW22240   3.594   3.510  15.479  0.2799  0.4628  0.2137
 3593SOL    HW122241   3.672   3.463  15.450  0.2230 -1.8939  3.8957
 3593SOL    HW222242   3.598   3.570  15.404 -0.3138  0.0591 -0.1381
 3594SOL     OW22243   4.093   1.204   1.878  0.2122 -0.4097  0.3408
 3594SOL    HW122244   4.115   1.157   1.959 -1.0598  0.0955  0.9898
 3594SOL    HW222245   4.029   1.145   1.839  0.0984 -0.2559  0.2964
 3595SOL     OW22246   1.646   4.196   9.091 -0.7910  0.1550 -0.1860
 3595SOL    HW122247   1.714   4.221   9.153 -0.1101  1.4732 -1.4572
 3595SOL    HW222248   1.685   4.111   9.068  0.3039  0.2244  1.4569
 3596SOL     OW22249   4.456   2.998   6.414  0.8700 -0.1126  0.4894
 3596SOL    HW122250   4.493   3.085   6.405  1.3817 -0.1203  2.5949
 3596SOL    HW222251   4.464   2.978   6.507  2.4895  1.7662  0.7292
 3597SOL     OW22252   3.006   3.187   9.319 -0.0698 -0.6488 -0.1642
 3597SOL    HW122253   3.064   3.158   9.248 -2.3693 -1.7736 -1.5900
 3597SOL    HW222254   3.032   3.131   9.392  3.1899 -0.9046 -1.5107
 3598SOL     OW22255   2.394   4.488   9.402  0.1468  0.5778 -0.3510
 3598SOL    HW122256   2.345   4.551   9.455 -0.5036 -0.7867  0.6857
 3598SOL    HW222257   2.445   4.555   9.358 -1.2697  1.3368 -0.8539
 3599SOL     OW22258   0.703   2.491   0.599  0.5612 -0.0891  0.1702
 3599SOL    HW122259   0.671   2.547   0.528 -0.2453  0.3166  0.8547
 3599SOL    HW222260   0.745   2.558   0.652  1.5460 -1.5008  1.1739
 3600SOL     OW22261   3.019   3.209   2.209 -0.2187 -0.3584  0.5225
 3600SOL    HW122262   3.106   3.189   2.175 -0.7318  0.5069 -1.3466
 3600SOL    HW222263   3.000   3.133   2.263 -0.2055  0.2645  1.4003
 3601SOL     OW22264   3.537   2.709   7.406  0.3824 -0.1136 -0.2461
 3601SOL    HW122265   3.467   2.740   7.464 -1.0740 -2.6891 -0.6546
 3601SOL    HW222266   3.598   2.782   7.414  1.3324 -0.8165 -1.1705
 3602SOL     OW22267   3.036   1.681   3.287 -0.4066  0.0544 -0.1944
 3602SOL    HW122268   3.054   1.662   3.379  1.6517 -0.7879 -0.7778
 3602SOL    HW222269   3.105   1.628   3.248 -1.6696 -0.7257 -1.3869
 3603SOL     OW22270   1.678   2.864   2.109 -0.6846 -0.1586  0.5475
 3603SOL    HW122271   1.606   2.879   2.047  0.2851  0.7498 -0.3652
 3603SOL    HW222272   1.648   2.914   2.186 -1.0660 -0.7293  0.7718
 3604SOL     OW22273   4.072   1.301  13.973 -0.1418 -0.3753  0.6527
 3604SOL    HW122274   4.049   1.390  13.948 -0.9996 -1.0038 -0.8188
 3604SOL    HW222275   4.040   1.291  14.063 -0.5598 -0.2558  0.5181
 3605SOL     OW22276   1.848   4.056   4.657  0.2776  0.6551  0.0267
 3605SOL    HW122277   1.763   4.099   4.649 -1.4823 -2.6281  0.9318
 3605SOL    HW222278   1.884   4.064   4.569  0.5670 -0.0451  0.0768
 3606SOL     OW22279   2.632   4.159   8.806 -0.1496  0.1292 -0.1377
 3606SOL    HW122280   2.554   4.176   8.858  0.2400 -0.2041  0.5602
 3606SOL    HW222281   2.679   4.088   8.850 -0.2557  0.1180 -0.0423
 3607SOL     OW22282   3.850   0.013  11.650  0.1038  0.3392 -0.1398
 3607SOL    HW122283   3.787   0.002  11.722 -0.1221  0.1781 -0.3642
 3607SOL    HW222284   3.827   4.663  11.602 -1.1150  0.6377 -0.0303
 3608SOL     OW22285   1.165   1.359   4.581 -0.1312  0.4081 -0.0306
 3608SOL    HW122286   1.156   1.309   4.500  4.1556 -0.1811 -0.1321
 3608SOL    HW222287   1.119   1.434   4.543  0.4411  1.8732  2.1507
 3609SOL     OW22288   3.849   2.311  15.350 -0.8481 -0.3890  0.2639
 3609SOL    HW122289   3.901   2.296  15.271 -0.6830 -1.5137  0.5942
 3609SOL    HW222290   3.914   2.341  15.413  1.0946 -1.8682 -1.0366
 3610SOL     OW22291   2.520   3.968   1.671  0.5250  0.8692  0.1403
 3610SOL    HW122292   2.466   4.042   1.644 -0.2143 -0.7619 -2.8626
 3610SOL    HW222293   2.461   3.896   1.649  0.9016 -0.2073  2.7044
 3611SOL     OW22294   0.544   0.890   7.100  0.5332 -0.3880  0.2923
 3611SOL    HW122295   0.511   0.967   7.146 -0.0979 -0.8219  0.5814
 3611SOL    HW222296   0.620   0.925   7.055  0.8303  1.1943  2.0193
 3612SOL     OW22297   2.531   1.568  17.683  0.2574  0.4804 -0.0719
 3612SOL    HW122298   2.481   1.540  17.607 -0.5904  0.2624  0.5700
 3612SOL    HW222299   2.490   1.509   0.032 -0.6312  0.7547 -0.4008
 3613SOL     OW22300   3.439   3.556   1.786 -0.0446  0.3088 -0.1287
 3613SOL    HW122301   3.394   3.472   1.798  1.6142 -0.3618  1.4855
 3613SOL    HW222302   3.515   3.530   1.733 -0.0027  0.0017  0.0838
 3614SOL     OW22303   2.159   3.776   8.280 -0.3965  0.7118 -0.2922
 3614SOL    HW122304   2.193   3.825   8.355  1.6130 -1.2177  0.0332
 3614SOL    HW222305   2.079   3.745   8.322 -0.0870  1.1169  0.5844
 3615SOL     OW22306   2.609   2.960   5.072 -0.7383 -0.5528  0.2542
 3615SOL    HW122307   2.523   2.943   5.032 -0.0255  3.2798 -2.8623
 3615SOL    HW222308   2.602   3.047   5.111  0.9421 -0.7662  0.9979
 3616SOL     OW22309   3.714   1.014   4.548 -0.0815  0.0433  0.3019
 3616SOL    HW122310   3.717   1.110   4.552  0.0037  0.1209 -1.8370
 3616SOL    HW222311   3.761   0.990   4.628  1.1340  1.0753 -0.0924
 3617SOL     OW22312   2.448   3.422   8.794  0.6184 -0.6387  0.2794
 3617SOL    HW122313   2.411   3.392   8.877 -1.5182 -0.4045 -0.5923
 3617SOL    HW222314   2.386   3.383   8.732  0.2563  1.0699 -0.4340
 3618SOL     OW22315   4.418   1.110   9.159 -0.0669 -0.4945  0.0345
 3618SOL    HW122316   4.368   1.093   9.239  0.0018 -0.4016  0.0958
 3618SOL    HW222317   4.492   1.049   9.163  0.1843 -0.1415  0.5659
 3619SOL     OW22318   2.017   3.163   6.836  0.3645  0.3470  0.1887
 3619SOL    HW122319   2.042   3.234   6.776  1.5761 -0.1456  0.1085
 3619SOL    HW222320   2.040   3.205   6.919  0.2325 -0.6854  0.7402
 3620SOL     OW22321   0.639   4.133  10.717 -0.2712  0.0219 -0.1020
 3620SOL    HW122322   0.561   4.181  10.745  0.4848  1.7131 -0.9376
 3620SOL    HW222323   0.704   4.153  10.784  1.7497 -1.3138 -1.6616
 3621SOL     OW22324   2.071   0.580  13.476  0.0113  0.1829 -0.0510
 3621SOL    HW122325   2.036   0.493  13.494  1.4115 -0.4392 -0.3286
 3621SOL    HW222326   2.150   0.585  13.530  1.3665 -0.7299 -1.9787
 3622SOL     OW22327   3.848   0.684   3.608 -0.2022  0.3038 -0.0445
 3622SOL    HW122328   3.907   0.686   3.684 -0.4508  0.8028  0.1381
 3622SOL    HW222329   3.799   0.602   3.613  0.6427 -0.2536 -1.1148
 3623SOL     OW22330   0.881   3.620  11.609 -0.0975 -0.3090 -0.2061
 3623SOL    HW122331   0.952   3.678  11.636  0.1438 -0.3398 -0.7569
 3623SOL    HW222332   0.840   3.679  11.545 -0.5666  0.4291  0.7777
 3624SOL     OW22333   1.236   3.810  10.303 -0.0509  0.1959 -0.1093
 3624SOL    HW122334   1.142   3.809  10.323  0.1634  1.6362  0.9902
 3624SOL    HW222335   1.241   3.894  10.258  0.9091  0.8257  1.1520
 3625SOL     OW22336   2.630   2.798   8.269 -0.4429 -0.0408 -0.0132
 3625SOL    HW122337   2.616   2.868   8.333  0.0536 -1.2768  1.4490
 3625SOL    HW222338   2.587   2.724   8.311 -2.0211  0.6437 -0.4185
 3626SOL     OW22339   0.727   3.000   8.950  0.5541 -0.4865 -0.3458
 3626SOL    HW122340   0.633   3.011   8.963  0.8458  0.6108  0.8626
 3626SOL    HW222341   0.753   3.052   9.025  0.3788 -1.1627  0.1816
 3627SOL     OW22342   0.046   0.755   6.202  0.4210  0.2345  0.5461
 3627SOL    HW122343   0.080   0.819   6.140  3.1503 -0.6573  1.1350
 3627SOL    HW222344   4.680   0.760   6.185  0.0372  1.5195  3.1050
 3628SOL     OW22345   0.132   2.133   7.627  0.2966  0.2064 -0.4104
 3628SOL    HW122346   0.149   2.082   7.549  0.0158 -0.3408 -0.1154
 3628SOL    HW222347   0.080   2.074   7.681  2.6727 -1.3391  0.1779
 3629SOL     OW22348   3.300   2.532   7.273  0.1754  0.2941 -0.0444
 3629SOL    HW122349   3.302   2.623   7.303 -2.1001  0.6467 -0.9829
 3629SOL    HW222350   3.392   2.508   7.260  0.0964  0.0981 -0.2629
 3630SOL     OW22351   3.039   4.672   8.798  0.3460 -0.2979  0.3146
 3630SOL    HW122352   2.959   4.641   8.755  0.6459  0.0306 -0.4896
 3630SOL    HW222353   3.097   4.598   8.781 -1.6320 -1.7976  0.1059
 3631SOL     OW22354   0.412   2.284   6.419  0.0013  0.1109  0.2478
 3631SOL    HW122355   0.438   2.209   6.366 -0.9810 -0.7168  0.9332
 3631SOL    HW222356   0.489   2.338   6.435 -1.0167  2.0516 -1.4490
 3632SOL     OW22357   3.272   3.844  13.824  0.2566 -0.2501  0.5033
 3632SOL    HW122358   3.331   3.810  13.758 -1.5757 -0.5514 -0.9605
 3632SOL    HW222359   3.318   3.925  13.848 -1.1289  0.4756  0.7394
 3633SOL     OW22360   2.489   4.021   0.890 -0.6282  0.6053  0.2087
 3633SOL    HW122361   2.505   4.047   0.981 -0.9368  0.6659  0.2458
 3633SOL    HW222362   2.565   4.069   0.856  0.8597 -2.2668 -0.5001
 3634SOL     OW22363   3.886   4.484   9.887 -0.3785 -0.1712  0.6528
 3634SOL    HW122364   3.813   4.432   9.854  0.6493 -0.7805 -0.6642
 3634SOL    HW222365   3.897   4.422   9.959  2.2171  0.5414  0.8759
 3635SOL     OW22366   2.366   4.002   7.611  0.3919  0.1283  0.3793
 3635SOL    HW122367   2.320   4.008   7.695 -0.3121 -1.6073  0.1244
 3635SOL    HW222368   2.341   4.085   7.571  0.2824 -0.0628  0.0536
 3636SOL     OW22369   1.267   0.936   2.482 -0.1841 -0.2955  0.4334
 3636SOL    HW122370   1.179   0.961   2.454  0.7935  2.4123 -0.2396
 3636SOL    HW222371   1.258   0.900   2.570  1.2640 -0.2555  0.5959
 3637SOL     OW22372   0.490   4.390  15.420 -0.3440 -0.6527  0.6319
 3637SOL    HW122373   0.431   4.359  15.352 -0.3504 -0.7753  0.6947
 3637SOL    HW222374   0.574   4.382  15.374 -1.0010 -0.8692 -0.5239
 3638SOL     OW22375   2.891   2.140   7.810 -0.2931 -0.2151 -0.6610
 3638SOL    HW122376   2.949   2.155   7.736 -1.6561 -1.8508 -2.0440
 3638SOL    HW222377   2.947   2.120   7.885 -0.9691 -0.7854 -0.3044
 3639SOL     OW22378   3.538   1.265   5.885 -0.1159 -0.2472 -0.2315
 3639SOL    HW122379   3.579   1.204   5.822  0.5587  0.4453 -0.4659
 3639SOL    HW222380   3.601   1.337   5.893 -2.5168  1.7096  1.0034
 3640SOL     OW22381   4.250   0.079   4.845 -0.0480 -0.1938 -0.6406
 3640SOL    HW122382   4.158   0.085   4.820 -0.0087  1.3370 -0.4177
 3640SOL    HW222383   4.236   0.121   4.930  0.2038 -1.0911 -0.1542
 3641SOL     OW22384   1.857   0.261   2.546 -0.6821  0.1824 -0.2376
 3641SOL    HW122385   1.801   0.230   2.474 -0.1620 -2.5234  0.5084
 3641SOL    HW222386   1.880   0.175   2.580 -0.0617  0.8004  0.8940
 3642SOL     OW22387   3.527   2.029   8.638  0.0022  0.0805 -0.1009
 3642SOL    HW122388   3.477   1.949   8.655 -1.9902  0.8637 -2.3713
 3642SOL    HW222389   3.615   1.996   8.621  0.2667  1.5482 -1.5693
 3643SOL     OW22390   3.978   2.753   2.857 -0.5844 -0.0147 -0.6479
 3643SOL    HW122391   4.037   2.784   2.925  2.1626 -4.0035 -1.2220
 3643SOL    HW222392   3.974   2.660   2.878  0.3102 -0.0843 -0.7997
 3644SOL     OW22393   1.321   4.512   6.063 -0.7607  0.2365  0.2788
 3644SOL    HW122394   1.284   4.558   6.138 -0.2644  0.3256  0.4707
 3644SOL    HW222395   1.249   4.459   6.028 -1.0278 -0.6722  2.1926
 3645SOL     OW22396   2.647   3.155  16.449  0.4721 -0.0506 -0.2756
 3645SOL    HW122397   2.671   3.161  16.356 -1.5301  0.2742 -0.7604
 3645SOL    HW222398   2.731   3.130  16.488  0.1559 -0.0696  0.3916
 3646SOL     OW22399   1.556   2.473   6.448 -0.2136  0.3604 -0.1170
 3646SOL    HW122400   1.503   2.551   6.437  0.3895  0.9206  0.9411
 3646SOL    HW222401   1.630   2.505   6.500  1.3554  0.1638 -2.2013
 3647SOL     OW22402   2.414   1.778   1.903  0.0993 -0.1356 -0.2870
 3647SOL    HW122403   2.395   1.866   1.871 -2.0783 -0.8102 -0.8717
 3647SOL    HW222404   2.441   1.791   1.994  0.3078  0.0202 -0.3728
 3648SOL     OW22405   2.723   3.099   5.855  0.1486 -0.3827  0.0078
 3648SOL    HW122406   2.765   3.073   5.773  0.5934 -1.7361  0.6709
 3648SOL    HW222407   2.799   3.131   5.904  1.0817 -2.2901 -0.2021
 3649SOL     OW22408   0.564   0.341  14.392 -0.6863 -0.1787 -0.4448
 3649SOL    HW122409   0.589   0.258  14.353 -2.0484 -1.5719  1.6497
 3649SOL    HW222410   0.626   0.347  14.464 -1.5526 -1.3245  0.3933
 3650SOL     OW22411   3.318   1.332  15.355  0.2743 -0.7442  0.2898
 3650SOL    HW122412   3.361   1.267  15.412  2.0906  0.9817  0.8775
 3650SOL    HW222413   3.312   1.405  15.417  2.5510  1.8989 -2.6267
 3651SOL     OW22414   0.463   3.999   3.263  0.0516  0.0644 -0.5884
 3651SOL    HW122415   0.369   3.982   3.269 -0.0633 -0.2489 -3.4723
 3651SOL    HW222416   0.491   3.984   3.173  0.9951 -0.0567 -0.2827
 3652SOL     OW22417   3.542   1.177   7.310 -0.2263 -0.0640 -0.1089
 3652SOL    HW122418   3.612   1.149   7.251 -0.0121  1.2676 -0.4957
 3652SOL    HW222419   3.583   1.140   7.388 -1.0897  1.5584  1.1017
 3653SOL     OW22420   4.605   0.757   7.020 -0.4459  0.3286 -0.6095
 3653SOL    HW122421   4.522   0.722   6.989 -1.1202  1.9300 -0.5849
 3653SOL    HW222422   4.624   0.702   7.097  1.0749  1.1575 -0.4026
 3654SOL     OW22423   3.491   3.710  13.205 -0.0350 -0.1499 -0.1581
 3654SOL    HW122424   3.490   3.755  13.290 -1.3595 -1.0657  0.3195
 3654SOL    HW222425   3.529   3.626  13.232 -1.4528 -0.2081  1.6562
 3655SOL     OW22426   0.564   0.279   8.788  0.5502 -0.2626 -0.5959
 3655SOL    HW122427   0.615   0.292   8.708  1.7830 -0.2256  0.2010
 3655SOL    HW222428   0.477   0.313   8.764  1.5191  1.1329 -2.1547
 3656SOL     OW22429   2.819   1.977   2.280  0.2230 -0.1168  0.3233
 3656SOL    HW122430   2.887   2.038   2.254 -1.4094  1.8046  0.5615
 3656SOL    HW222431   2.852   1.909   2.221  0.0812  1.7777 -1.9311
 3657SOL     OW22432   3.553   0.256   8.431  0.1233  0.2641 -0.9441
 3657SOL    HW122433   3.640   0.263   8.470 -0.0078 -1.7358 -0.3047
 3657SOL    HW222434   3.509   0.248   8.516 -0.4865 -0.8154 -1.3692
 3658SOL     OW22435   2.384   0.986   5.740  0.1242  0.2719  0.1179
 3658SOL    HW122436   2.350   0.913   5.791  0.6215 -0.3715 -0.4836
 3658SOL    HW222437   2.312   1.049   5.738 -1.0540 -1.1309 -2.2308
 3659SOL     OW22438   4.495   0.917   4.155 -0.9960 -0.4200  0.1361
 3659SOL    HW122439   4.561   0.900   4.221 -2.2704 -2.1657  0.9562
 3659SOL    HW222440   4.554   0.938   4.082  0.6330 -0.2697  1.5124
 3660SOL     OW22441   2.100   1.322   1.675  0.2009  0.2716  0.1256
 3660SOL    HW122442   2.051   1.311   1.756  3.3230  1.8687  2.2186
 3660SOL    HW222443   2.051   1.396   1.638 -1.4002  0.0140  1.7301
 3661SOL     OW22444   2.758   1.872  13.533 -0.0624  0.5254  0.3073
 3661SOL    HW122445   2.840   1.901  13.572  0.0227  0.8889 -0.1371
 3661SOL    HW222446   2.694   1.897  13.599  0.9335  1.6069  0.8594
 3662SOL     OW22447   0.747   0.286   4.876 -0.0628  0.0446 -0.0035
 3662SOL    HW122448   0.689   0.316   4.946 -0.9261  1.1316 -1.1837
 3662SOL    HW222449   0.772   0.366   4.829  1.2411 -0.3284  0.0524
 3663SOL     OW22450   1.266   0.187   3.918  0.2850  0.1158  0.2682
 3663SOL    HW122451   1.271   0.154   3.828  0.2512  0.2912  0.2007
 3663SOL    HW222452   1.204   0.130   3.961  1.1710 -0.9152  0.1712
 3664SOL     OW22453   0.802   1.312   5.103  0.3851 -0.1927 -0.3429
 3664SOL    HW122454   0.789   1.222   5.074 -0.6478 -0.9699  2.4950
 3664SOL    HW222455   0.794   1.361   5.021  0.5044  2.0751  1.0179
 3665SOL     OW22456   2.594   2.521  13.098  0.3879 -0.1434 -0.3972
 3665SOL    HW122457   2.643   2.470  13.161 -1.8114 -0.5607  0.9841
 3665SOL    HW222458   2.517   2.529  13.155  1.0447 -1.2778  0.6306
 3666SOL     OW22459   3.953   2.815   1.898 -0.2219  0.0165 -0.0215
 3666SOL    HW122460   3.899   2.741   1.870 -0.0618  0.3320 -1.1517
 3666SOL    HW222461   3.997   2.844   1.819  2.3016  0.3774  1.5355
 3667SOL     OW22462   0.557   3.434   4.230  0.6762 -0.4314 -0.2933
 3667SOL    HW122463   0.489   3.499   4.246  1.3408 -0.4701  2.6876
 3667SOL    HW222464   0.579   3.397   4.315  0.0357  0.9271  0.4493
 3668SOL     OW22465   3.454   2.044   9.848 -0.2737  0.0055 -0.0984
 3668SOL    HW122466   3.533   2.034   9.794 -0.7615 -0.0082 -0.8069
 3668SOL    HW222467   3.389   1.998   9.794 -0.4382 -2.3630  2.0640
 3669SOL     OW22468   3.404   1.192   3.463  0.1868  0.2036  0.1793
 3669SOL    HW122469   3.322   1.156   3.498 -0.4585  1.1794 -0.3141
 3669SOL    HW222470   3.401   1.272   3.516 -1.1844  0.5144 -0.3811
 3670SOL     OW22471   4.430   0.255   4.302  0.4549 -0.2392  0.0266
 3670SOL    HW122472   4.374   0.323   4.264 -1.4975 -1.2316  1.1008
 3670SOL    HW222473   4.394   0.172   4.270  1.1645 -1.2978  1.9257
 3671SOL     OW22474   3.024   1.057   0.938 -0.3144 -0.0852 -0.1699
 3671SOL    HW122475   3.045   1.068   1.030  3.2699  1.8272 -1.1894
 3671SOL    HW222476   3.061   1.135   0.895  2.0588  0.7264  3.3432
 3672SOL     OW22477   1.504   2.672   5.635  0.3916 -0.0990 -0.2619
 3672SOL    HW122478   1.420   2.640   5.603 -0.4439  1.0124  0.7989
 3672SOL    HW222479   1.499   2.767   5.634  0.3844 -0.0925  0.3381
 3673SOL     OW22480   3.810   1.090  12.966 -0.0759  0.6943  0.2514
 3673SOL    HW122481   3.802   0.996  12.985 -1.7170  0.9885  1.0063
 3673SOL    HW222482   3.798   1.087  12.871 -0.0177 -2.0146  0.3369
 3674SOL     OW22483   0.269   1.241   7.008 -0.5896 -0.4018 -0.2253
 3674SOL    HW122484   0.265   1.174   7.076  0.7969 -0.0278  0.2168
 3674SOL    HW222485   0.188   1.289   7.025 -0.8672 -1.2844  0.9271
 3675SOL     OW22486   3.718   0.418   8.862 -0.1234 -0.3709 -0.1475
 3675SOL    HW122487   3.795   0.434   8.917 -0.0794  1.1863 -0.6489
 3675SOL    HW222488   3.757   0.419   8.774  1.6174  0.8423  0.6424
 3676SOL     OW22489   3.732   3.602   5.556  0.2206  0.5077 -0.2395
 3676SOL    HW122490   3.748   3.691   5.587 -1.8557  0.4325  1.0490
 3676SOL    HW222491   3.733   3.550   5.637 -0.9052  0.1095 -0.4745
 3677SOL     OW22492   4.633   0.267  16.127 -0.1161 -0.1908 -0.1993
 3677SOL    HW122493   4.593   0.330  16.186  0.0902 -1.4753  1.3211
 3677SOL    HW222494   4.599   0.189  16.172  1.8324 -0.8681  0.0933
 3678SOL     OW22495   1.645   3.192   4.767 -0.0390 -0.1258  0.6435
 3678SOL    HW122496   1.696   3.116   4.796 -0.4338  0.0735  1.8731
 3678SOL    HW222497   1.603   3.216   4.850 -0.6099  0.6446  0.1299
 3679SOL     OW22498   2.773   3.797  12.131 -0.8000 -0.1753 -0.1177
 3679SOL    HW122499   2.771   3.810  12.225  1.4854 -1.0787  0.0609
 3679SOL    HW222500   2.848   3.842  12.093 -1.4200  0.4104 -0.6420
 3680SOL     OW22501   3.708   0.823   6.921 -0.1934 -0.0938  0.2021
 3680SOL    HW122502   3.798   0.818   6.891 -0.3577  1.0922 -0.5058
 3680SOL    HW222503   3.723   0.866   7.005  0.2821 -0.2372  0.1902
 3681SOL     OW22504   1.788   2.599   6.130 -0.0502  0.8562  0.7020
 3681SOL    HW122505   1.801   2.659   6.057 -0.1795  0.9062  0.7200
 3681SOL    HW222506   1.693   2.608   6.141 -0.0579  0.2613  1.1625
 3682SOL     OW22507   1.257   1.895  10.742 -0.2961  0.4180 -0.1647
 3682SOL    HW122508   1.259   1.799  10.750 -1.4951  0.3274 -0.8330
 3682SOL    HW222509   1.250   1.900  10.647 -1.3037  0.3754 -0.1019
 3683SOL     OW22510   1.943   3.507   4.170  0.0740  0.3575  0.5030
 3683SOL    HW122511   1.971   3.537   4.256 -0.2133 -0.8258  1.0026
 3683SOL    HW222512   1.995   3.427   4.165  0.6503  0.7625 -0.0273
 3684SOL     OW22513   4.701   3.379   7.604 -0.1259 -0.1898 -0.8712
 3684SOL    HW122514   4.657   3.376   7.689  0.2695  0.3856 -0.6488
 3684SOL    HW222515   4.724   3.287   7.589 -1.8901 -1.0545  1.7677
 3685SOL     OW22516   4.469   1.027   9.561 -0.2292  0.5389  0.1199
 3685SOL    HW122517   4.465   1.057   9.652  1.7982  1.7952 -0.2100
 3685SOL    HW222518   4.550   1.072   9.537 -0.3726  0.1314 -1.1568
 3686SOL     OW22519   1.671   0.794  10.048  0.6499 -0.0701 -0.1269
 3686SOL    HW122520   1.766   0.807  10.048  0.5704  0.4432 -1.2847
 3686SOL    HW222521   1.663   0.728   9.979 -1.3255  2.4049 -2.2597
 3687SOL     OW22522   3.937   1.122   7.744  0.5266  0.8159  0.4444
 3687SOL    HW122523   4.014   1.094   7.795 -0.1902 -1.7842  0.0979
 3687SOL    HW222524   3.954   1.073   7.663 -1.3535  0.2682  0.3898
 3688SOL     OW22525   2.508   0.453   6.724  0.1443  0.1208  0.0733
 3688SOL    HW122526   2.456   0.379   6.755 -0.1122  0.5261  0.6036
 3688SOL    HW222527   2.594   0.412   6.716  0.0352 -0.0979  0.0060
 3689SOL     OW22528   0.700   4.182   3.605 -0.2525  0.3144  0.0170
 3689SOL    HW122529   0.650   4.132   3.669 -0.0637  0.0915 -0.0100
 3689SOL    HW222530   0.630   4.217   3.550 -1.5172 -0.4690  1.1358
 3690SOL     OW22531   1.975   1.375  17.608  0.1095 -0.0596 -0.2017
 3690SOL    HW122532   1.982   1.442  17.677  1.9394 -0.7090  0.2522
 3690SOL    HW222533   2.061   1.332  17.610  0.9749  1.7239  0.9162
 3691SOL     OW22534   1.146   3.818   4.239  0.0252 -0.3105 -0.1283
 3691SOL    HW122535   1.054   3.793   4.239 -0.4808  1.5762 -2.0615
 3691SOL    HW222536   1.142   3.891   4.178  1.7135  0.5076  0.7457
 3692SOL     OW22537   3.394   3.301   8.447 -0.0401 -0.3051 -0.2767
 3692SOL    HW122538   3.453   3.235   8.410  0.3422  0.2729 -0.7042
 3692SOL    HW222539   3.387   3.280   8.540 -0.1379 -0.4113 -0.3081
 3693SOL     OW22540   2.344   2.816   6.924 -0.5317 -0.6748 -0.0055
 3693SOL    HW122541   2.296   2.861   6.854  0.3671 -1.4146 -1.1119
 3693SOL    HW222542   2.364   2.730   6.886  1.7400 -0.9899  1.9388
 3694SOL     OW22543   1.880   1.820   4.986 -0.5009  0.0592  0.6235
 3694SOL    HW122544   1.826   1.889   4.948 -0.8532 -1.1883 -1.1218
 3694SOL    HW222545   1.955   1.870   5.020  2.1747 -1.3431 -3.2271
 3695SOL     OW22546   2.051   1.955  14.340  0.1054  0.3979 -0.1117
 3695SOL    HW122547   2.005   2.039  14.337 -0.4073  0.1735  1.5333
 3695SOL    HW222548   2.018   1.918  14.258 -1.7089  1.3148  0.2007
 3696SOL     OW22549   0.514   3.808   5.056 -0.7613 -0.0526 -0.5422
 3696SOL    HW122550   0.437   3.864   5.067 -0.7865  0.0681 -1.2734
 3696SOL    HW222551   0.551   3.853   4.980  1.8269 -0.5502  0.4265
 3697SOL     OW22552   3.991   0.665  15.164  0.5067 -0.7051  0.0750
 3697SOL    HW122553   3.996   0.757  15.141  0.4180  0.0227  2.9771
 3697SOL    HW222554   4.080   0.647  15.196  0.7739  1.3376  0.4476
 3698SOL     OW22555   3.738   2.813   9.554  0.2622 -0.5898  0.1875
 3698SOL    HW122556   3.786   2.886   9.592  0.2773 -1.5013  1.9509
 3698SOL    HW222557   3.651   2.854   9.553  0.5328 -0.0852 -2.1595
 3699SOL     OW22558   3.580   0.395  14.109  0.2105  0.3880 -0.5173
 3699SOL    HW122559   3.662   0.385  14.158 -0.4437 -0.5833  0.3980
 3699SOL    HW222560   3.528   0.387  14.190  0.8908  0.2262 -0.0946
 3700SOL     OW22561   0.980   3.408   3.021 -0.1598 -0.4859 -0.0590
 3700SOL    HW122562   0.907   3.449   3.068  0.9877  0.5052  0.8760
 3700SOL    HW222563   0.961   3.439   2.933 -0.9361 -0.5542  0.0796
 3701SOL     OW22564   1.912   0.390   1.052 -0.2062  0.6163  0.0275
 3701SOL    HW122565   1.876   0.372   1.138  1.3798 -0.1462  0.5303
 3701SOL    HW222566   1.872   0.474   1.028  0.7663  0.8848 -0.6904
 3702SOL     OW22567   0.197   2.261  11.389 -0.0371  0.5403 -0.1856
 3702SOL    HW122568   0.220   2.178  11.347 -0.0855  1.0666 -1.2569
 3702SOL    HW222569   0.172   2.322  11.320 -1.1291 -0.2262 -0.4539
 3703SOL     OW22570   3.402   3.488   7.183 -0.4366 -0.0364 -0.0621
 3703SOL    HW122571   3.417   3.395   7.168  1.7295  0.2708  0.2476
 3703SOL    HW222572   3.336   3.482   7.253 -1.9670  0.6366 -1.4326
 3704SOL     OW22573   4.486   3.699  11.641  0.0573 -0.0324 -0.4382
 3704SOL    HW122574   4.400   3.717  11.604 -0.1339  1.9186  0.9304
 3704SOL    HW222575   4.463   3.650  11.720 -1.5729  0.7572 -0.4153
 3705SOL     OW22576   1.919   2.888   7.177  0.0919 -0.7345 -0.6312
 3705SOL    HW122577   1.832   2.916   7.205  0.8812  1.3457 -0.2197
 3705SOL    HW222578   1.915   2.793   7.190  2.7345 -0.6902  0.5445
 3706SOL     OW22579   1.732   4.554   2.539 -0.0345  0.1725  0.0436
 3706SOL    HW122580   1.777   4.607   2.604 -0.9279  1.9602 -0.7924
 3706SOL    HW222581   1.763   4.473   2.579 -0.3626 -0.0202 -0.0919
 3707SOL     OW22582   0.189   1.121   4.138 -0.4751 -0.5692 -0.5592
 3707SOL    HW122583   0.254   1.172   4.092 -0.7175 -2.1653 -2.6927
 3707SOL    HW222584   0.223   1.032   4.125  0.7365 -0.1399 -0.2653
 3708SOL     OW22585   0.750   2.336  17.441  0.0854 -0.0104  0.1053
 3708SOL    HW122586   0.801   2.417  17.441  0.0748 -0.0029  0.4655
 3708SOL    HW222587   0.673   2.372  17.397  0.2051  0.1553  0.0311
 3709SOL     OW22588   4.393   1.453  11.232 -0.1179 -0.4915 -0.6823
 3709SOL    HW122589   4.443   1.533  11.216  0.3478 -0.8980 -1.2708
 3709SOL    HW222590   4.420   1.403  11.155 -1.3476 -0.1341 -1.3476
 3710SOL     OW22591   1.358   2.586  11.969  0.0292  0.0584  0.1343
 3710SOL    HW122592   1.413   2.516  11.932  0.0579 -1.5337  3.1755
 3710SOL    HW222593   1.275   2.572  11.924  0.1420 -0.4576  0.0879
 3711SOL     OW22594   2.586   3.491   3.761 -0.1603 -0.1238  0.1156
 3711SOL    HW122595   2.557   3.476   3.671  1.7889 -1.4257 -0.2979
 3711SOL    HW222596   2.599   3.586   3.759 -0.8900 -0.0539 -2.0654
 3712SOL     OW22597   2.499   3.714  11.757  0.2893 -0.2841  0.2866
 3712SOL    HW122598   2.570   3.688  11.699  0.9828 -0.7620  1.3540
 3712SOL    HW222599   2.481   3.635  11.809 -0.2737 -0.3873 -0.0634
 3713SOL     OW22600   1.215   2.577  17.520  0.3173  0.6476 -0.4142
 3713SOL    HW122601   1.207   2.523  17.598  0.9425 -0.9651 -1.4588
 3713SOL    HW222602   1.310   2.573  17.511  0.1639 -3.3688 -0.1289
 3714SOL     OW22603   3.149   4.005  15.364 -0.1569  0.4261  0.0260
 3714SOL    HW122604   3.078   4.052  15.408 -0.5167  1.1575 -1.3232
 3714SOL    HW222605   3.196   4.075  15.319  0.3541 -0.7295 -1.2318
 3715SOL     OW22606   0.458   0.331   1.633  0.3439 -0.1819 -1.0138
 3715SOL    HW122607   0.394   0.375   1.577  0.1389  0.4295 -0.2916
 3715SOL    HW222608   0.467   0.380   1.714  0.2881  1.3448 -1.9263
 3716SOL     OW22609   1.643   4.421  16.236  0.2870  0.5752 -0.2982
 3716SOL    HW122610   1.662   4.392  16.147  0.4572  2.5708 -0.9183
 3716SOL    HW222611   1.547   4.415  16.242  0.4059 -0.1706  0.9131
 3717SOL     OW22612   0.005   4.021  15.643  0.0700  0.8343 -0.1101
 3717SOL    HW122613   0.027   4.114  15.645 -2.3533  1.3613  1.5202
 3717SOL    HW222614   4.641   4.016  15.617  0.3161 -1.4786 -0.5649
 3718SOL     OW22615   2.063   1.739  10.224  0.1330 -0.0374  0.1435
 3718SOL    HW122616   1.975   1.709  10.246  0.1145 -0.6475 -0.7540
 3718SOL    HW222617   2.115   1.723  10.303  2.0299  1.5612 -0.7811
 3719SOL     OW22618   0.203   1.999   7.411  0.1178  0.0082 -0.7736
 3719SOL    HW122619   0.225   1.913   7.375 -0.4858 -1.4426  2.3380
 3719SOL    HW222620   0.158   2.043   7.339  0.2863 -0.0449 -0.9098
 3720SOL     OW22621   4.539   3.331  10.123 -0.0770  0.2963  0.6454
 3720SOL    HW122622   4.616   3.374  10.085 -0.0039 -1.5749 -1.3650
 3720SOL    HW222623   4.574   3.245  10.150 -1.4079 -1.5822 -3.5793
 3721SOL     OW22624   1.180   0.922   4.917 -0.4896  0.0617  0.5923
 3721SOL    HW122625   1.151   0.976   4.991 -0.6019 -0.1514  0.7071
 3721SOL    HW222626   1.109   0.944   4.856 -0.7826 -3.6304 -0.3990
 3722SOL     OW22627   2.664   1.558   6.468  0.1583 -0.0124  0.3845
 3722SOL    HW122628   2.746   1.595   6.436 -0.3431 -0.4705 -1.4742
 3722SOL    HW222629   2.618   1.533   6.388  0.8399 -0.9324  0.2775
 3723SOL     OW22630   1.760   1.085  16.642  0.1550 -0.4652  0.1561
 3723SOL    HW122631   1.789   1.015  16.583 -0.0489  1.2055 -1.9359
 3723SOL    HW222632   1.841   1.133  16.657  0.4654 -0.3596 -1.8594
 3724SOL     OW22633   1.528   2.888   3.735  0.2579  0.1801  0.1200
 3724SOL    HW122634   1.558   2.811   3.687  0.5713  0.2197  0.2535
 3724SOL    HW222635   1.562   2.955   3.677  2.6698 -0.6438  0.6113
 3725SOL     OW22636   3.661   3.379   9.976 -0.4644  0.6898 -0.2928
 3725SOL    HW122637   3.569   3.406   9.970 -0.8793 -0.7833 -0.4621
 3725SOL    HW222638   3.696   3.424   9.899 -1.4218 -0.6002 -1.4835
 3726SOL     OW22639   0.036   4.313   9.267  0.7338 -0.1400 -0.8393
 3726SOL    HW122640   0.056   4.223   9.295 -0.1699  0.4307  1.6334
 3726SOL    HW222641   0.094   4.368   9.319  0.0933  0.0081 -0.2911
 3727SOL     OW22642   0.808   0.601   6.761  0.1435  0.2016 -0.0487
 3727SOL    HW122643   0.752   0.543   6.710  1.2011 -1.4666  0.6953
 3727SOL    HW222644   0.755   0.680   6.759 -0.5196 -0.2263  0.8273
 3728SOL     OW22645   2.230   0.569   6.666 -0.0206 -0.3212 -0.1112
 3728SOL    HW122646   2.321   0.554   6.639  0.6339  0.6010  1.5804
 3728SOL    HW222647   2.206   0.636   6.602  1.2603  1.2402  1.0505
 3729SOL     OW22648   3.090   3.702   8.010  0.2787 -0.6594 -0.1673
 3729SOL    HW122649   3.018   3.710   8.073  0.2383 -1.3100 -0.1285
 3729SOL    HW222650   3.088   3.790   7.974 -0.3218 -0.1589  1.0743
 3730SOL     OW22651   0.911   0.805   9.394  0.0917 -0.7284  0.0019
 3730SOL    HW122652   0.922   0.838   9.305 -0.5329 -1.0403 -0.1891
 3730SOL    HW222653   0.872   0.888   9.421  0.8019 -0.4594  0.2186
 3731SOL     OW22654   4.389   2.842   3.718  0.4689  0.0461 -0.0184
 3731SOL    HW122655   4.307   2.848   3.768  1.1027  0.3224  0.9882
 3731SOL    HW222656   4.352   2.798   3.642  0.8158 -2.0937  1.0747
 3732SOL     OW22657   3.007   2.681   2.065 -0.1950 -0.0361 -0.4022
 3732SOL    HW122658   2.929   2.695   2.012 -0.6712 -1.2610 -0.0221
 3732SOL    HW222659   3.006   2.586   2.079  0.0350  0.2188  1.3445
 3733SOL     OW22660   3.450   1.821   1.937  0.3511 -0.2102 -0.2039
 3733SOL    HW122661   3.501   1.742   1.917  0.7453  0.1472 -0.6049
 3733SOL    HW222662   3.452   1.861   1.850 -0.7529 -1.6497 -0.9051
 3734SOL     OW22663   4.721   4.297   7.423 -0.2164 -0.3369 -0.8383
 3734SOL    HW122664   4.700   4.239   7.496  0.2902 -2.3831 -2.3211
 3734SOL    HW222665   4.631   4.311   7.394 -0.6944  2.1468  1.9070
 3735SOL     OW22666   2.725   0.282   3.290  0.0628 -0.1851  0.2761
 3735SOL    HW122667   2.645   0.260   3.242 -1.5253  1.1170  2.3164
 3735SOL    HW222668   2.691   0.360   3.335 -0.4356 -0.2154 -0.0478
 3736SOL     OW22669   0.173   4.661  16.548  0.9133 -0.6466  0.3792
 3736SOL    HW122670   0.160   4.725  16.618  3.3311  0.1693  0.0628
 3736SOL    HW222671   0.084   4.653  16.512  0.9787 -3.6186  0.8316
 3737SOL     OW22672   1.271   2.975  12.813  0.5596 -0.5773 -0.2812
 3737SOL    HW122673   1.366   2.987  12.814  1.0452 -4.3143 -3.4166
 3737SOL    HW222674   1.255   2.943  12.902  2.6836 -0.4602  0.1444
 3738SOL     OW22675   3.688   4.041  14.364  0.2096  0.2914 -0.0030
 3738SOL    HW122676   3.609   4.015  14.411 -0.6540  1.5408 -0.7555
 3738SOL    HW222677   3.691   4.136  14.378 -1.1282  0.3229  0.0407
 3739SOL     OW22678   4.417   0.521  15.215  0.5168 -0.1393 -0.4797
 3739SOL    HW122679   4.471   0.486  15.285  1.0503  1.0477 -0.2985
 3739SOL    HW222680   4.403   0.446  15.156  0.4983  0.0746 -0.7477
 3740SOL     OW22681   2.846   1.383   8.186 -0.0546 -0.1254 -0.2359
 3740SOL    HW122682   2.830   1.477   8.191 -0.5363 -0.2802  1.0793
 3740SOL    HW222683   2.924   1.380   8.131 -0.1485  0.1582 -0.3894
 3741SOL     OW22684   3.506   0.404   5.615 -0.5420  0.1146 -0.4519
 3741SOL    HW122685   3.509   0.382   5.522 -1.7453 -1.5518 -0.0882
 3741SOL    HW222686   3.593   0.440   5.632 -0.1256 -0.7801 -0.6878
 3742SOL     OW22687   3.257   2.044  13.261  0.3292  0.3113  0.0772
 3742SOL    HW122688   3.296   2.124  13.296 -2.5709  1.4989  0.6139
 3742SOL    HW222689   3.289   2.049  13.171  0.2157 -0.0950  0.0138
 3743SOL     OW22690   0.647   0.823   6.769 -0.3768  0.1836  0.3902
 3743SOL    HW122691   0.638   0.864   6.682 -0.7092 -1.9392 -0.5612
 3743SOL    HW222692   0.554   0.823   6.791 -0.2794  2.4100  0.8937
 3744SOL     OW22693   4.488   2.920  11.915  0.3028 -0.0541 -0.0283
 3744SOL    HW122694   4.477   2.872  11.997 -2.5698  0.8833  0.1334
 3744SOL    HW222695   4.421   2.876  11.862 -0.4625 -0.7479  1.5026
 3745SOL     OW22696   2.319   4.704   2.872 -0.1366 -0.1989 -0.5154
 3745SOL    HW122697   2.370   0.053   2.897 -0.1861 -0.7456  1.2985
 3745SOL    HW222698   2.336   4.651   2.950 -1.3158 -0.2270 -0.2798
 3746SOL     OW22699   2.196   1.766   2.580 -0.0161 -0.1376  0.0665
 3746SOL    HW122700   2.102   1.773   2.566 -0.0828 -0.6848  0.2279
 3746SOL    HW222701   2.229   1.830   2.516  1.6004  0.4150  1.4479
 3747SOL     OW22702   1.584   1.289   7.476  0.0214  0.0967  0.0698
 3747SOL    HW122703   1.491   1.268   7.477 -0.7960  3.7763  1.0323
 3747SOL    HW222704   1.609   1.224   7.411 -1.0327  0.6568 -0.9025
 3748SOL     OW22705   3.503   2.237   9.626 -0.5414 -0.0316  0.0442
 3748SOL    HW122706   3.557   2.158   9.617 -1.0410 -0.2208 -1.1920
 3748SOL    HW222707   3.421   2.211   9.585 -1.7546  1.0930  1.7561
 3749SOL     OW22708   3.260   4.489   1.085  0.0583  0.3901 -0.6670
 3749SOL    HW122709   3.294   4.563   1.036 -2.5531  2.3210  0.4147
 3749SOL    HW222710   3.304   4.481   1.169 -0.4604 -0.3318 -0.4613
 3750SOL     OW22711   3.900   2.358   0.663 -0.2531  0.8374  0.1801
 3750SOL    HW122712   3.805   2.365   0.665 -0.3136  0.4919 -1.4527
 3750SOL    HW222713   3.926   2.405   0.585 -3.0264  0.9123 -0.6938
 3751SOL     OW22714   1.972   1.478   0.913  0.1144  0.7271  0.0849
 3751SOL    HW122715   1.881   1.493   0.938  0.6573 -0.3076  2.7003
 3751SOL    HW222716   1.966   1.505   0.821 -1.0249  0.0070 -0.0544
 3752SOL     OW22717   1.261   1.244   3.643 -0.2845  0.1413  0.1680
 3752SOL    HW122718   1.283   1.196   3.723  3.5486 -0.1499 -1.0642
 3752SOL    HW222719   1.301   1.328   3.664  1.5996 -0.2708 -1.8406
 3753SOL     OW22720   0.658   0.105   4.701 -0.1183  0.2117 -0.3389
 3753SOL    HW122721   0.692   0.170   4.763  0.5964  0.1190 -0.6303
 3753SOL    HW222722   0.597   0.160   4.651 -1.2116 -1.0780 -0.4098
 3754SOL     OW22723   0.055   0.335   8.667  0.1394 -0.0731  0.3841
 3754SOL    HW122724   4.708   0.353   8.722  0.6597  1.8777  0.4773
 3754SOL    HW222725   0.031   0.389   8.591 -0.6651 -0.1494  0.5855
 3755SOL     OW22726   3.476   3.397   4.643  0.1918 -0.3258  0.5087
 3755SOL    HW122727   3.475   3.413   4.549 -2.0726 -0.4228  0.5235
 3755SOL    HW222728   3.556   3.347   4.660  0.4557  0.5699  1.9575
 3756SOL     OW22729   0.241   3.598   6.118  0.2095 -0.1864 -0.2640
 3756SOL    HW122730   0.263   3.640   6.201 -0.0758  0.9119 -0.7400
 3756SOL    HW222731   0.147   3.584   6.108 -0.0240  0.6463  0.7153
 3757SOL     OW22732   0.555   1.718   0.372  0.1496  0.2335  0.6043
 3757SOL    HW122733   0.472   1.675   0.394 -0.4488 -0.0017 -2.0568
 3757SOL    HW222734   0.535   1.731   0.279  2.1663  0.1970  0.1603
 3758SOL     OW22735   4.420   0.068  15.531  0.4517 -0.1936  0.0558
 3758SOL    HW122736   4.338   0.044  15.488  1.6295  0.9308 -2.8251
 3758SOL    HW222737   4.478   0.013  15.478 -0.3664  0.0224 -1.0674
 3759SOL     OW22738   1.719   2.827   7.641 -0.0160 -0.5106  0.2475
 3759SOL    HW122739   1.761   2.848   7.724 -2.7686  0.3524  1.4221
 3759SOL    HW222740   1.646   2.889   7.642  1.0556  0.7253  1.9989
 3760SOL     OW22741   2.980   3.945  12.015 -0.1650 -0.3421  0.6436
 3760SOL    HW122742   3.042   4.017  12.017 -0.0607 -0.4520  1.4357
 3760SOL    HW222743   3.029   3.885  11.959  1.1104  0.9822  0.3537
 3761SOL     OW22744   0.978   0.991   7.877 -0.3214 -0.2307  0.2479
 3761SOL    HW122745   0.901   0.934   7.884 -1.2068  0.9540  0.0613
 3761SOL    HW222746   0.961   1.041   7.797  1.4634  0.3493  0.2371
 3762SOL     OW22747   0.727   1.524   3.127 -0.3436 -0.2329  0.3747
 3762SOL    HW122748   0.745   1.553   3.216  0.1708 -2.5561  1.0018
 3762SOL    HW222749   0.681   1.595   3.083 -1.2037 -1.8013 -1.2364
 3763SOL     OW22750   1.309   4.653   7.356  0.1824 -0.3691  0.3936
 3763SOL    HW122751   1.395   4.693   7.368 -1.0578  2.2027  0.6994
 3763SOL    HW222752   1.306   4.591   7.430 -2.3681 -1.5528 -0.7123
 3764SOL     OW22753   2.581   3.585   6.981 -1.2950 -0.2237  0.5983
 3764SOL    HW122754   2.642   3.598   7.054  0.0267  0.3000 -0.5840
 3764SOL    HW222755   2.587   3.672   6.943 -0.5296 -0.1494  0.8774
 3765SOL     OW22756   3.381   2.270   4.746  0.5784 -1.0308  0.2244
 3765SOL    HW122757   3.289   2.277   4.718  0.3341  0.3599  1.3919
 3765SOL    HW222758   3.377   2.187   4.793  1.0646  0.5809  3.0592
 3766SOL     OW22759   3.186   1.268   7.629 -0.0892 -0.0301  0.5085
 3766SOL    HW122760   3.149   1.327   7.695 -2.0049  2.2109 -2.5378
 3766SOL    HW222761   3.142   1.304   7.552 -0.9548  1.8960  1.9103
 3767SOL     OW22762   0.007   2.484  11.516 -0.4615  0.6033 -0.1666
 3767SOL    HW122763   4.674   2.540  11.563  0.5093  0.7518  0.9443
 3767SOL    HW222764   4.705   2.478  11.426 -2.0238  0.8936  0.3479
 3768SOL     OW22765   2.697   2.992  12.171 -0.3210  0.1029 -0.3144
 3768SOL    HW122766   2.716   2.914  12.224 -0.9599 -0.8509 -1.4920
 3768SOL    HW222767   2.627   3.020  12.229 -0.3926  3.7089 -2.1429
 3769SOL     OW22768   0.520   3.770  13.183  0.6971  0.6790 -0.5366
 3769SOL    HW122769   0.454   3.764  13.252  0.3063  0.2758 -0.9435
 3769SOL    HW222770   0.492   3.853  13.145  0.8883  1.1094  0.2664
 3770SOL     OW22771   0.260   0.704   0.692 -0.1036  0.2824  0.3337
 3770SOL    HW122772   0.334   0.727   0.749 -0.9059  1.0657  1.0553
 3770SOL    HW222773   0.314   0.697   0.613 -1.2172  0.3590 -0.4325
 3771SOL     OW22774   2.016   2.229  13.295 -0.4701  0.1596 -0.0796
 3771SOL    HW122775   1.963   2.149  13.290  0.3021 -0.3744  0.2765
 3771SOL    HW222776   2.006   2.259  13.205  1.0465 -0.3545 -0.4249
 3772SOL     OW22777   3.418   2.069   1.728 -0.4118  0.4012  0.2340
 3772SOL    HW122778   3.412   1.979   1.697  0.4983  0.0421  1.0940
 3772SOL    HW222779   3.426   2.119   1.647 -0.9395 -0.2338 -0.2125
 3773SOL     OW22780   1.353   4.694  10.125  0.2297 -0.2206  0.6944
 3773SOL    HW122781   1.439   4.717  10.159  0.8752 -4.0961  1.7119
 3773SOL    HW222782   1.344   4.601  10.146 -1.1461 -0.4755 -1.0096
 3774SOL     OW22783   1.777   0.826   5.079 -0.2759 -0.5965 -0.7650
 3774SOL    HW122784   1.802   0.804   4.989 -0.4155 -0.8034 -0.7514
 3774SOL    HW222785   1.820   0.750   5.117  0.9436  0.1372 -0.6901
 3775SOL     OW22786   3.161   3.529   4.566 -0.1556  0.2224  0.2179
 3775SOL    HW122787   3.250   3.544   4.598  0.5610  0.6713 -1.9819
 3775SOL    HW222788   3.126   3.617   4.577  1.0507  0.6178  0.8421
 3776SOL     OW22789   2.983   3.110   7.406 -0.2131  0.1993 -0.1136
 3776SOL    HW122790   3.014   3.076   7.490  1.8564 -0.3505 -1.0865
 3776SOL    HW222791   2.947   3.031   7.367 -0.9606  0.6944 -0.4277
 3777SOL     OW22792   1.825   4.301   8.844  0.3821 -0.0384  0.5732
 3777SOL    HW122793   1.818   4.231   8.908  1.8678 -0.9610 -0.2758
 3777SOL    HW222794   1.810   4.373   8.906  1.3616 -1.0951  2.0327
 3778SOL     OW22795   3.466   0.396  10.673  0.0367 -0.3933  0.2618
 3778SOL    HW122796   3.398   0.407  10.606  0.5993  0.4153 -0.1660
 3778SOL    HW222797   3.542   0.373  10.620  0.4426 -0.0260  0.6893
 3779SOL     OW22798   2.575   3.210  17.361 -0.1465 -0.2927  0.2785
 3779SOL    HW122799   2.528   3.293  17.362  0.3117 -0.0311 -0.6801
 3779SOL    HW222800   2.508   3.142  17.353  1.6547 -1.8620 -1.2973
 3780SOL     OW22801   1.031   0.401   4.653  0.5935 -0.2480  0.1034
 3780SOL    HW122802   0.996   0.381   4.566  2.4562 -0.6818 -0.5418
 3780SOL    HW222803   0.966   0.463   4.686 -0.1291 -0.0191 -1.7418
 3781SOL     OW22804   1.168   0.012   5.921  0.3396 -0.1995 -0.4635
 3781SOL    HW122805   1.244   0.028   5.977 -0.4249  2.7944 -0.2825
 3781SOL    HW222806   1.190   0.052   5.836 -1.2578  1.6954  0.0280
 3782SOL     OW22807   2.193   4.152   5.051  0.5506  0.2252 -0.0139
 3782SOL    HW122808   2.140   4.127   4.975 -1.2916  2.5334  0.5020
 3782SOL    HW222809   2.284   4.146   5.021  0.2455  1.3520 -1.1892
 3783SOL     OW22810   1.983   4.690  13.558 -0.1309  0.1103  0.3459
 3783SOL    HW122811   2.065   4.727  13.525 -0.2958 -1.9070 -2.4131
 3783SOL    HW222812   1.996   4.709  13.650 -1.8200 -2.2254  1.0799
 3784SOL     OW22813   2.170   3.338  13.309  0.2036  0.2815  0.0768
 3784SOL    HW122814   2.159   3.430  13.333  2.2078  0.5358  0.0121
 3784SOL    HW222815   2.173   3.334  13.213  1.3258 -1.4004  0.1859
 3785SOL     OW22816   1.676   1.068  15.701  0.5688  1.0250  0.4849
 3785SOL    HW122817   1.646   1.097  15.615  0.7084  1.8594  0.7176
 3785SOL    HW222818   1.758   1.027  15.674 -0.1470 -1.4031  2.0639
 3786SOL     OW22819   0.936   1.646  12.001 -0.6236 -0.1146  0.1762
 3786SOL    HW122820   0.942   1.560  11.962 -1.4567 -0.4184  0.7144
 3786SOL    HW222821   1.031   1.653  12.010 -0.3649 -2.4228 -0.7780
 3787SOL     OW22822   2.498   4.307   2.901  0.1415  0.1173 -0.5307
 3787SOL    HW122823   2.512   4.394   2.939  2.0239 -0.0851 -0.8066
 3787SOL    HW222824   2.581   4.265   2.920  0.3006  0.7194  0.1449
 3788SOL     OW22825   1.918   3.754  12.814  0.1728 -0.1530 -0.5056
 3788SOL    HW122826   1.859   3.828  12.829  2.3173  2.0604 -2.9021
 3788SOL    HW222827   1.957   3.779  12.730  0.5472  0.5137 -0.1331
 3789SOL     OW22828   3.536   0.001   6.143 -0.6196  0.2540 -0.2040
 3789SOL    HW122829   3.629   4.721   6.123 -0.4893 -2.0512  1.2820
 3789SOL    HW222830   3.513   0.087   6.107 -0.0906  0.7613  0.6803
 3790SOL     OW22831   0.403   4.405   6.847  0.1339  0.2628 -0.2633
 3790SOL    HW122832   0.372   4.366   6.929 -0.5349 -0.0753 -0.6761
 3790SOL    HW222833   0.458   4.331   6.822 -0.1638  0.5447 -1.7221
 3791SOL     OW22834   3.281   3.387   9.480 -0.3422  0.4101 -0.4600
 3791SOL    HW122835   3.226   3.322   9.437  1.7003 -1.6979  0.1342
 3791SOL    HW222836   3.251   3.367   9.569  1.1334  1.4942  0.2971
 3792SOL     OW22837   0.488   2.975   4.373 -0.6739 -0.4144 -0.3548
 3792SOL    HW122838   0.399   2.946   4.392 -0.8960  1.0054  0.7270
 3792SOL    HW222839   0.501   2.937   4.286 -2.6946 -0.3852 -0.6666
 3793SOL     OW22840   3.540   1.458   3.876 -0.3225  0.2603 -0.4340
 3793SOL    HW122841   3.560   1.371   3.842 -2.0626 -0.9836  1.7294
 3793SOL    HW222842   3.447   1.455   3.899 -0.3073  0.9438 -0.2703
 3794SOL     OW22843   4.221   1.085   3.502  0.4867 -0.2020 -0.4908
 3794SOL    HW122844   4.312   1.076   3.529  0.9078  0.6731 -1.6014
 3794SOL    HW222845   4.191   0.995   3.489 -0.2954 -0.0181  0.0451
 3795SOL     OW22846   3.307   0.739   8.663  0.1230  0.0120 -0.6107
 3795SOL    HW122847   3.236   0.743   8.728  1.1827 -0.9446  0.5944
 3795SOL    HW222848   3.373   0.689   8.710 -1.1637  0.2577  1.4627
 3796SOL     OW22849   1.030   2.030  11.149  0.3426  0.1304 -0.4691
 3796SOL    HW122850   0.969   2.103  11.146  0.2061  0.0022 -0.7833
 3796SOL    HW222851   1.059   2.042  11.239  0.7098  1.0326 -0.7052
 3797SOL     OW22852   3.000   3.527  10.410  0.2501  0.2574  0.7200
 3797SOL    HW122853   3.015   3.590  10.480 -0.8834  1.1059  0.1940
 3797SOL    HW222854   2.963   3.450  10.454  1.8268 -0.4913  0.7452
 3798SOL     OW22855   0.559   1.886  10.637 -0.0717  0.0262  0.4514
 3798SOL    HW122856   0.646   1.874  10.676  1.6533 -0.2734 -3.4592
 3798SOL    HW222857   0.570   1.970  10.592  0.9828  0.1393  0.9106
 3799SOL     OW22858   3.143   1.172   6.361  0.0995 -0.7294  0.1390
 3799SOL    HW122859   3.108   1.087   6.386  0.2598 -1.4059 -1.9452
 3799SOL    HW222860   3.062   1.222   6.369  0.8870  0.8007 -1.4804
 3800SOL     OW22861   1.565   1.585  11.517  0.4221 -0.1022  0.0623
 3800SOL    HW122862   1.542   1.631  11.436  1.0756  0.6118  0.2901
 3800SOL    HW222863   1.581   1.648  11.587  0.0825  0.6691 -0.5589
 3801SOL     OW22864   4.152   2.464   4.293 -0.7280 -0.2750  0.3685
 3801SOL    HW122865   4.191   2.378   4.282  0.5414 -0.0224  2.7510
 3801SOL    HW222866   4.084   2.459   4.226 -1.7506  0.5370  1.3465
 3802SOL     OW22867   0.784   4.667   2.252  0.1490 -0.2258  0.4431
 3802SOL    HW122868   0.775   4.619   2.334  2.5473  1.0210  1.4282
 3802SOL    HW222869   0.759   4.592   2.198 -0.5831 -0.3388  0.9343
 3803SOL     OW22870   2.022   0.050  12.021  0.6894 -0.3027 -0.5071
 3803SOL    HW122871   1.942   0.012  12.056  1.3690  0.2249  1.6198
 3803SOL    HW222872   2.037   0.008  11.936 -2.4043 -2.2280 -0.0837
 3804SOL     OW22873   0.698   1.512   6.535 -0.7468 -0.1245 -0.1348
 3804SOL    HW122874   0.673   1.473   6.619 -0.5808 -0.7084 -0.3592
 3804SOL    HW222875   0.781   1.470   6.513  0.0453  1.3610  0.0161
 3805SOL     OW22876   0.596   2.540   3.072  0.6039  0.1587 -0.0692
 3805SOL    HW122877   0.518   2.512   3.023 -0.2802  1.6397  0.4956
 3805SOL    HW222878   0.631   2.596   3.004 -0.4675  0.7498 -0.1313
 3806SOL     OW22879   1.771   2.647   4.447 -0.8215 -0.3307 -0.3107
 3806SOL    HW122880   1.816   2.598   4.379 -1.5177 -4.6269  2.3101
 3806SOL    HW222881   1.823   2.727   4.455  1.7342 -1.8740 -1.9283
 3807SOL     OW22882   4.161   1.480   5.102 -0.2724 -0.0702 -0.4263
 3807SOL    HW122883   4.252   1.509   5.104  0.3020 -1.9010  0.2404
 3807SOL    HW222884   4.114   1.563   5.101 -2.2826 -1.2145 -0.4838
 3808SOL     OW22885   4.050   2.463   1.808 -0.1347 -0.3684  0.1130
 3808SOL    HW122886   4.088   2.390   1.759 -0.6425  0.3912 -1.3948
 3808SOL    HW222887   4.115   2.530   1.790 -0.8170  0.8859  2.2674
 3809SOL     OW22888   1.793   1.374   7.961 -0.7484  0.1180 -0.3230
 3809SOL    HW122889   1.710   1.399   7.919  0.1524  0.1269 -2.0611
 3809SOL    HW222890   1.845   1.444   7.922 -0.7708 -0.2017 -0.9350
 3810SOL     OW22891   3.875   0.539   4.674  0.3087 -0.3545 -0.2066
 3810SOL    HW122892   3.937   0.523   4.745 -1.5136 -0.0924  1.4655
 3810SOL    HW222893   3.796   0.491   4.699 -0.5347 -0.0276 -2.2786
 3811SOL     OW22894   3.678   0.747   2.353 -0.3358 -0.2442  0.5881
 3811SOL    HW122895   3.622   0.768   2.428 -0.9467  1.8735 -0.4489
 3811SOL    HW222896   3.643   0.662   2.326  0.4199  0.2824 -2.0738
 3812SOL     OW22897   2.176   1.100   7.647 -0.7639 -0.4458  0.6928
 3812SOL    HW122898   2.162   1.110   7.742 -1.0868 -1.5457  0.7566
 3812SOL    HW222899   2.149   1.008   7.640  0.8863 -0.6804 -2.5778
 3813SOL     OW22900   1.083   4.689   0.311  0.4056 -0.2539 -0.4618
 3813SOL    HW122901   1.136   0.032   0.345 -0.9212  1.3245 -1.7366
 3813SOL    HW222902   1.070   4.636   0.390  3.0201  2.1408  1.5374
 3814SOL     OW22903   3.001   0.676   6.345  0.1803  0.4977 -0.3458
 3814SOL    HW122904   3.051   0.642   6.270  1.2324 -0.2199  0.6863
 3814SOL    HW222905   3.014   0.770   6.339  0.4188  0.4469 -0.6767
 3815SOL     OW22906   3.346   0.584  15.524  0.0376  0.2413 -0.4986
 3815SOL    HW122907   3.309   0.660  15.479  0.2225 -0.2892 -1.5322
 3815SOL    HW222908   3.286   0.513  15.500  0.8373 -1.1015  1.4512
 3816SOL     OW22909   4.645   1.046   5.832 -0.3340  0.2403  0.1494
 3816SOL    HW122910   4.718   0.984   5.823 -1.7956 -1.7080  1.6629
 3816SOL    HW222911   4.669   1.080   5.918 -2.0030  4.7022 -1.1549
 3817SOL     OW22912   3.146   4.492   9.624 -0.1055  0.8222 -0.0314
 3817SOL    HW122913   3.140   4.398   9.645 -0.7847  0.6241 -1.1283
 3817SOL    HW222914   3.162   4.525   9.712 -0.6226 -0.2545  0.4719
 3818SOL     OW22915   4.660   4.552   5.807  0.6349  0.2389 -0.4704
 3818SOL    HW122916   4.689   4.570   5.717  0.5744 -1.7309 -0.8979
 3818SOL    HW222917   4.581   4.504   5.779 -1.1964  3.1084 -0.1454
 3819SOL     OW22918   3.167   1.170  11.805  0.7018 -0.2018 -0.0441
 3819SOL    HW122919   3.171   1.247  11.748  0.5027  0.5226  0.9343
 3819SOL    HW222920   3.239   1.177  11.867 -0.3152  0.3156  1.0693
 3820SOL     OW22921   0.555   3.075  11.331  0.4870  0.6233 -0.5267
 3820SOL    HW122922   0.583   2.989  11.363 -2.2592  0.6302  1.8872
 3820SOL    HW222923   0.459   3.070  11.334  0.5488 -0.0174  0.4007
 3821SOL     OW22924   2.246   4.374   9.076 -0.2944  0.4588  1.0329
 3821SOL    HW122925   2.338   4.390   9.099 -0.1894 -0.4135  1.2139
 3821SOL    HW222926   2.200   4.411   9.152  0.0703 -0.6830  1.8179
 3822SOL     OW22927   1.789   4.197   0.329  0.2483 -0.2980  0.2375
 3822SOL    HW122928   1.828   4.167   0.247 -1.9209 -0.7135 -0.6320
 3822SOL    HW222929   1.868   4.236   0.366 -1.1253  1.9142  0.8276
 3823SOL     OW22930   2.509   3.500   2.636  0.1180  0.4262 -0.0105
 3823SOL    HW122931   2.503   3.512   2.541 -1.1851  1.2096  0.1746
 3823SOL    HW222932   2.452   3.564   2.679 -0.4557 -2.3061  3.2333
 3824SOL     OW22933   4.468   1.028   3.571  0.0015  0.2946  0.3900
 3824SOL    HW122934   4.535   1.066   3.628  1.1357  0.8325 -1.3076
 3824SOL    HW222935   4.509   0.981   3.499  0.1688  1.0837 -0.0352
 3825SOL     OW22936   0.938   3.185   9.799 -0.2447 -0.1645  0.2314
 3825SOL    HW122937   0.941   3.262   9.856 -1.4499  1.0410 -1.3357
 3825SOL    HW222938   0.875   3.221   9.737 -0.2285  0.2869  0.4758
 3826SOL     OW22939   0.466   4.642   9.269  0.0760 -0.3844  0.0865
 3826SOL    HW122940   0.409   4.712   9.299 -0.0121 -0.7285  0.7263
 3826SOL    HW222941   0.545   4.663   9.319  1.2949 -3.3016 -0.5903
 3827SOL     OW22942   2.491   4.624   0.770 -0.0306 -0.7818 -0.5545
 3827SOL    HW122943   2.561   4.656   0.827  0.7687 -0.2814 -1.8305
 3827SOL    HW222944   2.517   4.537   0.742 -3.6872 -1.8484 -0.6660
 3828SOL     OW22945   4.689   3.588   3.395 -0.0897 -0.2369 -0.3242
 3828SOL    HW122946   4.596   3.565   3.390 -0.5172  1.5495 -0.6089
 3828SOL    HW222947   4.678   3.654   3.463  1.6501  1.7020 -1.9206
 3829SOL     OW22948   3.658   3.512   7.431 -0.3897 -0.1027 -0.0269
 3829SOL    HW122949   3.642   3.555   7.348 -0.1069  2.5059  1.2782
 3829SOL    HW222950   3.701   3.431   7.402 -1.0471 -0.2298 -0.6360
 3830SOL     OW22951   1.315   4.055  16.268  0.3706 -0.4678  0.2497
 3830SOL    HW122952   1.348   4.005  16.342  0.9532 -0.0756  0.2543
 3830SOL    HW222953   1.251   3.990  16.238 -3.7960  3.9039 -0.3066
 3831SOL     OW22954   1.259   1.559   3.896  0.3922  0.7224 -0.3259
 3831SOL    HW122955   1.278   1.469   3.868  2.4691  1.0985 -0.1364
 3831SOL    HW222956   1.341   1.584   3.939 -0.1127  0.6018  0.7167
 3832SOL     OW22957   0.532   1.762   9.564  0.5083 -0.1634  0.4904
 3832SOL    HW122958   0.478   1.715   9.501  0.2698  0.3077  0.3445
 3832SOL    HW222959   0.586   1.800   9.494  0.6266  0.4473  0.9112
 3833SOL     OW22960   1.603   3.532   4.903 -0.0436  0.1145 -0.2391
 3833SOL    HW122961   1.550   3.466   4.859  0.9486 -1.1922  0.5484
 3833SOL    HW222962   1.667   3.554   4.834 -0.0100  0.1947 -0.1819
 3834SOL     OW22963   4.541   4.022   7.861 -0.2122  0.2403 -0.6494
 3834SOL    HW122964   4.553   4.006   7.954 -2.3951 -2.1468 -0.7943
 3834SOL    HW222965   4.446   4.021   7.855 -0.2567 -0.5038  0.3093
 3835SOL     OW22966   3.060   3.640   0.060  0.3136 -0.0096 -0.0076
 3835SOL    HW122967   3.119   3.650   0.135 -1.3161 -4.8002  1.9013
 3835SOL    HW222968   2.988   3.691   0.098 -0.5278 -0.5067 -0.9523
 3836SOL     OW22969   0.522   0.113   1.486  0.4569  0.3168 -0.1893
 3836SOL    HW122970   0.507   0.169   1.562  1.2978 -0.8885  0.8579
 3836SOL    HW222971   0.543   0.174   1.415  4.2260 -0.2584  0.4050
 3837SOL     OW22972   1.856   1.677   2.345  0.4319 -0.6429 -0.0275
 3837SOL    HW122973   1.877   1.733   2.420  0.1305 -0.8284  0.1965
 3837SOL    HW222974   1.763   1.702   2.340  0.7671  0.3938 -1.1140
 3838SOL     OW22975   0.178   0.529  15.693  0.5202 -0.0845  0.5394
 3838SOL    HW122976   0.103   0.588  15.688  1.3854  1.1561  2.2279
 3838SOL    HW222977   0.148   0.477  15.768 -1.0331 -0.2835 -0.2047
 3839SOL     OW22978   1.900   4.158   0.095  0.3946 -0.3782  0.2298
 3839SOL    HW122979   1.994   4.140   0.088  0.6177  0.9953 -0.2080
 3839SOL    HW222980   1.898   4.234   0.036  1.8137  0.4895  1.2936
 3840SOL     OW22981   2.361   4.541   5.325 -0.1298 -0.1945  0.0799
 3840SOL    HW122982   2.283   4.518   5.375  2.0643 -1.2019  3.0074
 3840SOL    HW222983   2.383   4.456   5.287  0.4972 -0.4917  1.1161
 3841SOL     OW22984   0.140   0.055   3.034  0.1588 -0.4841 -0.3607
 3841SOL    HW122985   0.162   0.104   3.113 -2.0595  0.4191 -0.3004
 3841SOL    HW222986   0.188   4.701   3.046 -0.9231 -1.4401 -2.5113
 3842SOL     OW22987   0.906   2.597   3.592 -0.0703  0.2698  0.4742
 3842SOL    HW122988   0.885   2.678   3.546  0.0425  0.9982  1.7102
 3842SOL    HW222989   0.830   2.546   3.563 -0.5284  1.1677  0.0957
 3843SOL     OW22990   3.430   1.733   8.964  0.1178 -0.1615 -0.2468
 3843SOL    HW122991   3.401   1.694   8.881  0.1113 -0.8716  0.0879
 3843SOL    HW222992   3.356   1.792   8.979  1.6275  1.9105 -0.8499
 3844SOL     OW22993   2.774   2.176   6.519  0.2295  0.4072  0.2592
 3844SOL    HW122994   2.790   2.084   6.539  2.4220  0.7180 -0.0989
 3844SOL    HW222995   2.861   2.211   6.537  0.5550 -1.2509  1.8482
 3845SOL     OW22996   3.038   0.459   4.686  0.0413 -0.1765  0.1208
 3845SOL    HW122997   2.988   0.434   4.609 -2.7595 -0.0093  1.8854
 3845SOL    HW222998   2.979   0.443   4.760  0.7459 -0.0568  0.7093
 3846SOL     OW22999   2.010   3.769  10.548 -0.0709 -0.1877  0.1352
 3846SOL    HW123000   2.008   3.862  10.526  0.5985 -0.2449 -0.1581
 3846SOL    HW223001   2.096   3.743  10.514 -0.7528 -1.7555 -0.3755
 3847SOL     OW23002   3.159   1.064   3.533 -0.1747 -0.2929 -0.6875
 3847SOL    HW123003   3.180   0.972   3.550  2.0869  0.2488 -0.6411
 3847SOL    HW223004   3.075   1.061   3.580  0.6856  0.8048  0.9037
 3848SOL     OW23005   3.510   0.446   1.294  0.1053 -0.0100 -0.1914
 3848SOL    HW123006   3.555   0.457   1.378 -1.2717  1.3372  0.3695
 3848SOL    HW223007   3.518   0.532   1.253 -1.3004 -0.3834 -1.2416
 3849SOL     OW23008   2.455   2.165   5.475  0.2675 -0.0082  0.2701
 3849SOL    HW123009   2.445   2.108   5.551 -0.8962 -1.0477 -0.6502
 3849SOL    HW223010   2.541   2.136   5.445 -0.3220 -2.0709  0.5928
 3850SOL     OW23011   2.329   2.904   9.663  0.6061 -0.3839  0.2547
 3850SOL    HW123012   2.404   2.952   9.629  0.9647 -0.2501  1.2452
 3850SOL    HW223013   2.252   2.949   9.628 -1.0400 -4.0032 -0.8877
 3851SOL     OW23014   2.291   4.305   6.580  0.6003  0.0789  0.1431
 3851SOL    HW123015   2.364   4.244   6.566  1.6706  1.2254  0.6468
 3851SOL    HW223016   2.292   4.331   6.672 -2.2858  1.6964 -0.3105
 3852SOL     OW23017   4.065   1.352   7.909 -0.5075 -0.2852  0.2277
 3852SOL    HW123018   4.070   1.262   7.876  2.1359 -0.0799  0.0767
 3852SOL    HW223019   4.133   1.349   7.977  1.5692  0.4164 -1.8426
 3853SOL     OW23020   1.377   2.241   0.629 -0.3476 -0.4302  0.1988
 3853SOL    HW123021   1.285   2.222   0.648  0.5499 -1.2559  3.6573
 3853SOL    HW223022   1.409   2.156   0.599 -0.9633 -0.3084 -0.8034
 3854SOL     OW23023   2.521   4.250   9.481  0.1787 -0.7830  0.1821
 3854SOL    HW123024   2.453   4.186   9.459 -0.3169 -0.5627  1.0701
 3854SOL    HW223025   2.476   4.333   9.474  0.5866 -0.7477 -1.9538
 3855SOL     OW23026   4.373   4.154   1.835 -0.2051  0.5055  0.1099
 3855SOL    HW123027   4.349   4.246   1.847 -3.4414 -0.4140  0.7115
 3855SOL    HW223028   4.346   4.116   1.919 -3.3564  1.4028 -0.4925
 3856SOL     OW23029   0.529   1.834   0.122 -0.1961  0.2489 -1.0754
 3856SOL    HW123030   0.529   1.803   0.032  0.3399 -1.1543 -0.5870
 3856SOL    HW223031   0.622   1.818   0.132 -0.3504 -1.5088 -2.6379
 3857SOL     OW23032   0.912   4.356  11.261  0.5789  0.6071  0.8460
 3857SOL    HW123033   0.953   4.270  11.267  2.1125  1.2686  0.1081
 3857SOL    HW223034   0.975   4.419  11.298 -0.0279  2.5001 -1.3519
 3858SOL     OW23035   1.377   1.898   2.329  0.1317  0.5023 -0.4847
 3858SOL    HW123036   1.317   1.960   2.289 -1.6198  0.9233  2.7852
 3858SOL    HW223037   1.316   1.876   2.400 -0.4019  0.9670 -0.8103
 3859SOL     OW23038   1.756   3.228   9.077  0.6818 -0.1542  0.0743
 3859SOL    HW123039   1.716   3.221   9.163 -1.0138  1.4717 -0.5757
 3859SOL    HW223040   1.842   3.267   9.094 -0.8264  3.4845 -0.5106
 3860SOL     OW23041   4.488   3.001   8.007  0.0042 -0.0767  0.3312
 3860SOL    HW123042   4.515   2.969   8.093 -0.2739  2.4048  1.3511
 3860SOL    HW223043   4.562   2.970   7.953 -0.0837  2.1478 -1.0689
 3861SOL     OW23044   2.563   3.529   4.280  0.1826  0.1181  0.3141
 3861SOL    HW123045   2.581   3.541   4.373  0.6306  0.4800  0.1808
 3861SOL    HW223046   2.571   3.434   4.270  2.1625  0.2841  0.2414
 3862SOL     OW23047   0.734   2.213  14.866 -0.0991 -0.4275 -0.2876
 3862SOL    HW123048   0.756   2.129  14.905 -1.0871  0.3960  2.0378
 3862SOL    HW223049   0.762   2.196  14.776  2.8323 -0.7506  0.6983
 3863SOL     OW23050   3.871   3.214  15.115 -0.2438 -0.2302  0.1471
 3863SOL    HW123051   3.866   3.305  15.147  0.8598  0.1266 -0.7021
 3863SOL    HW223052   3.787   3.208  15.070  0.0696 -1.2172 -0.2885
 3864SOL     OW23053   4.690   3.383   1.376  0.5449 -0.7097 -0.2514
 3864SOL    HW123054   4.629   3.328   1.326 -0.1774  1.6093 -1.9107
 3864SOL    HW223055   4.722   3.311   1.431  2.0328  0.3512  0.2541
 3865SOL     OW23056   1.246   1.363   6.971  0.2431 -0.1679  0.3402
 3865SOL    HW123057   1.172   1.312   6.938 -0.1180  0.4144  0.2394
 3865SOL    HW223058   1.209   1.452   6.974 -1.7513 -1.0356  1.4102
 3866SOL     OW23059   1.985   0.037   2.180  0.1901  0.6775  0.1718
 3866SOL    HW123060   1.974   0.095   2.256 -1.7210  0.1140  0.3460
 3866SOL    HW223061   2.006   0.106   2.119  1.2855 -0.5139 -0.7860
 3867SOL     OW23062   3.878   3.668   4.337 -0.2064 -0.5469  0.1316
 3867SOL    HW123063   3.934   3.692   4.264 -1.3167  3.5365  0.6174
 3867SOL    HW223064   3.945   3.659   4.405  1.5376 -1.4545 -1.7317
 3868SOL     OW23065   4.546   2.154   8.641  0.5616 -0.4161  0.1560
 3868SOL    HW123066   4.586   2.235   8.673  1.8892 -2.0806  2.6594
 3868SOL    HW223067   4.456   2.183   8.647  0.9530  0.9953 -0.8071
 3869SOL     OW23068   1.932   4.356   5.517 -0.2675  0.7292  0.4845
 3869SOL    HW123069   1.948   4.321   5.430  1.3007 -2.1109  1.9516
 3869SOL    HW223070   1.839   4.335   5.506 -0.2552 -0.1400  2.0368
 3870SOL     OW23071   2.177   3.810  10.782  0.0355 -0.0918  0.1762
 3870SOL    HW123072   2.232   3.782  10.709  0.6811  0.2880  0.5267
 3870SOL    HW223073   2.099   3.758  10.760 -1.3843  1.7375  0.8900
 3871SOL     OW23074   2.367   4.124   3.732 -0.0975  0.5589 -0.3615
 3871SOL    HW123075   2.273   4.133   3.741  0.0844  0.2004  1.8943
 3871SOL    HW223076   2.376   4.041   3.779 -1.4385 -0.8720 -2.6309
 3872SOL     OW23077   0.146   2.312   3.301  0.1383 -0.1492  0.3431
 3872SOL    HW123078   0.217   2.352   3.351 -1.3987  1.7016  0.9961
 3872SOL    HW223079   0.090   2.389   3.291  1.7620  1.1469  1.2982
 3873SOL     OW23080   3.048   3.761  15.631 -0.7357 -0.4297 -0.4723
 3873SOL    HW123081   3.116   3.805  15.682 -1.8950  2.4893 -1.4716
 3873SOL    HW223082   3.094   3.681  15.606 -2.0422 -1.1931 -0.4584
 3874SOL     OW23083   3.935   3.851  10.098 -0.4506  0.0879  1.1122
 3874SOL    HW123084   3.969   3.937  10.120 -0.4259  0.3759 -0.0529
 3874SOL    HW223085   3.980   3.788  10.155  2.7207  1.6851  0.3856
 3875SOL     OW23086   1.757   2.211  12.860  0.1048  0.3884 -0.2785
 3875SOL    HW123087   1.708   2.279  12.815  0.4720 -1.1508 -3.0360
 3875SOL    HW223088   1.721   2.216  12.948 -0.4282 -0.8750 -0.4178
 3876SOL     OW23089   2.749   3.518   2.810  0.4923 -0.4800 -0.2522
 3876SOL    HW123090   2.672   3.495   2.759 -1.0534  1.3920  1.1926
 3876SOL    HW223091   2.780   3.584   2.748 -2.1668 -0.8423 -1.9739
 3877SOL     OW23092   1.482   3.234  14.446 -0.1830 -0.0793  0.0175
 3877SOL    HW123093   1.458   3.175  14.518  0.3609  1.0473  1.1392
 3877SOL    HW223094   1.539   3.174  14.398 -1.1382 -0.0314 -1.1520
 3878SOL     OW23095   3.324   3.236  17.453 -0.1113  0.1485 -0.8682
 3878SOL    HW123096   3.276   3.317  17.474 -0.9125 -0.9334  1.4642
 3878SOL    HW223097   3.255   3.172  17.442 -1.0216  1.1751 -1.1717
 3879SOL     OW23098   3.105   1.141  13.857 -0.3550  0.0064 -0.2539
 3879SOL    HW123099   3.092   1.092  13.776 -0.0616  0.2213 -0.4331
 3879SOL    HW223100   3.146   1.223  13.829 -0.7829  0.3163  0.0072
 3880SOL     OW23101   0.586   0.720   4.882  0.2827  0.1324  0.3504
 3880SOL    HW123102   0.611   0.811   4.873  1.7331  0.0850  3.8323
 3880SOL    HW223103   0.673   0.682   4.896  0.6103  0.7434 -0.0414
 3881SOL     OW23104   0.013   3.303   7.914 -0.0479 -0.8065 -0.9562
 3881SOL    HW123105   0.025   3.332   8.004  0.2785  1.6641 -1.8020
 3881SOL    HW223106   4.647   3.286   7.913  0.0569 -1.3448 -1.9239
 3882SOL     OW23107   1.640   4.217   4.636  0.4720 -0.0165  0.1166
 3882SOL    HW123108   1.563   4.231   4.581  0.8228 -1.1362 -0.6687
 3882SOL    HW223109   1.608   4.268   4.710  3.2712 -0.7929  1.8737
 3883SOL     OW23110   3.272   2.909   7.935  0.7259 -0.2085  1.1744
 3883SOL    HW123111   3.250   2.927   8.026 -2.6877  1.0986  0.1059
 3883SOL    HW223112   3.333   2.982   7.921  1.6987 -1.2850 -0.2529
 3884SOL     OW23113   1.673   2.206  13.136  0.0480  0.3824 -0.3620
 3884SOL    HW123114   1.614   2.180  13.206  0.3667 -1.8696 -0.9206
 3884SOL    HW223115   1.655   2.300  13.136 -0.6754  0.2464 -0.2572
 3885SOL     OW23116   1.456   0.237   5.842  0.3143 -0.5656  0.1625
 3885SOL    HW123117   1.453   0.149   5.804  1.8849 -1.0365  1.1371
 3885SOL    HW223118   1.403   0.282   5.776 -1.2406 -0.4130  1.5257
 3886SOL     OW23119   1.620   1.175   2.616  0.6603 -0.4375  0.0220
 3886SOL    HW123120   1.681   1.217   2.677  1.9598  0.2024 -1.7094
 3886SOL    HW223121   1.681   1.157   2.544  1.2751 -1.4810  0.7940
 3887SOL     OW23122   3.721   1.315   8.198  0.3384  0.1794 -0.3310
 3887SOL    HW123123   3.761   1.361   8.124 -1.0580 -1.3071 -2.0224
 3887SOL    HW223124   3.660   1.380   8.233  1.8125  0.7967  1.0530
 3888SOL     OW23125   2.156   3.370   3.013 -0.1857 -0.0570  0.2270
 3888SOL    HW123126   2.069   3.399   2.985  0.0137 -1.4820 -1.8007
 3888SOL    HW223127   2.155   3.281   2.978  0.0900 -0.3289  0.8958
 3889SOL     OW23128   0.833   1.774   1.825 -0.2168  0.5456 -0.3486
 3889SOL    HW123129   0.872   1.729   1.900  1.9868  1.3413 -1.0117
 3889SOL    HW223130   0.743   1.743   1.834 -0.4682  1.2711 -0.3873
 3890SOL     OW23131   1.902   1.806   7.316 -0.3740 -0.3848  0.3337
 3890SOL    HW123132   1.917   1.899   7.301  1.4275 -0.6971  0.1845
 3890SOL    HW223133   1.905   1.766   7.229  1.3758 -0.7370  0.5578
 3891SOL     OW23134   2.131   4.061   2.281  0.0702  0.3002  0.0304
 3891SOL    HW123135   2.105   4.150   2.305  0.7693  1.4463 -3.3452
 3891SOL    HW223136   2.175   4.042   2.363  1.4564  0.0273 -0.7701
 3892SOL     OW23137   1.581   1.631   6.388  0.3380 -0.0675 -0.7808
 3892SOL    HW123138   1.547   1.720   6.372  0.4978 -0.2219 -1.9814
 3892SOL    HW223139   1.498   1.596   6.419  1.0769 -1.2167 -0.1249
 3893SOL     OW23140   2.202   1.796  11.484  0.2090 -0.4030  0.5659
 3893SOL    HW123141   2.284   1.751  11.503 -0.1826 -0.8500  1.1868
 3893SOL    HW223142   2.130   1.733  11.481  1.3633 -1.7466  1.7614
 3894SOL     OW23143   3.402   1.195   2.512 -0.0351 -0.1327  0.4686
 3894SOL    HW123144   3.416   1.130   2.581  2.0262 -2.0537 -1.7441
 3894SOL    HW223145   3.494   1.220   2.518  0.0910 -0.5957  0.4580
 3895SOL     OW23146   3.242   2.662   0.130 -0.2989 -0.0302  0.5409
 3895SOL    HW123147   3.265   2.723   0.061  2.6973  0.0472  1.6249
 3895SOL    HW223148   3.169   2.610   0.097  0.4235 -1.7027  1.5611
 3896SOL     OW23149   4.482   2.084   3.093 -0.1700  0.1859  0.6844
 3896SOL    HW123150   4.415   2.043   3.149  0.5521 -0.0997  1.3403
 3896SOL    HW223151   4.441   2.080   3.007  1.2925 -1.2043  0.0614
 3897SOL     OW23152   0.252   3.987   4.401 -0.0522  0.0953 -0.1934
 3897SOL    HW123153   0.271   4.081   4.399 -1.2439  0.3381  0.1575
 3897SOL    HW223154   0.254   3.974   4.496  0.2305 -0.0509 -0.2195
 3898SOL     OW23155   4.669   4.636   9.925 -0.0753 -0.0804 -0.4885
 3898SOL    HW123156   0.036   4.637   9.932 -0.1287 -2.5025  0.4708
 3898SOL    HW223157   4.654   4.726   9.953  0.7921 -0.1093  0.0620
 3899SOL     OW23158   3.805   1.402   7.734 -0.4459  0.1752  0.1550
 3899SOL    HW123159   3.719   1.392   7.693 -0.6136  0.1916  0.5096
 3899SOL    HW223160   3.823   1.308   7.742  2.0025  0.6016 -0.5558
 3900SOL     OW23161   1.332   1.679  13.322 -0.3128 -0.5846 -0.1811
 3900SOL    HW123162   1.374   1.722  13.248  0.7372 -1.2911 -0.0068
 3900SOL    HW223163   1.295   1.601  13.280  0.1348  0.1608 -1.9346
 3901SOL     OW23164   3.573   0.137   4.720  0.0841  0.1755  0.7023
 3901SOL    HW123165   3.588   0.214   4.664 -1.0277 -0.1951 -0.1094
 3901SOL    HW223166   3.663   0.112   4.740  0.5336 -0.6930 -2.4714
 3902SOL     OW23167   1.166   4.701  12.248 -0.5164  0.0542  0.3278
 3902SOL    HW123168   1.079   4.714  12.210  0.9846  1.9616 -2.4762
 3902SOL    HW223169   1.174   0.066  12.266  0.8975  0.0950 -0.5310
 3903SOL     OW23170   4.043   4.230   6.073  0.2566  0.1728  0.4449
 3903SOL    HW123171   4.043   4.313   6.025  2.8648 -1.2378 -1.9327
 3903SOL    HW223172   3.976   4.243   6.141  1.8997 -1.0817  2.3084
 3904SOL     OW23173   0.907   3.335   2.450 -0.7011 -0.5607  0.1966
 3904SOL    HW123174   0.953   3.251   2.446 -0.3843 -0.4051  0.6423
 3904SOL    HW223175   0.918   3.338   2.545  1.1956 -0.5239 -0.0241
 3905SOL     OW23176   0.894   4.691  12.122 -0.1710 -0.1762 -0.4101
 3905SOL    HW123177   0.900   4.680  12.027  0.8482 -0.0966 -0.3556
 3905SOL    HW223178   0.822   0.025  12.125  0.2740  0.1767  2.2355
 3906SOL     OW23179   2.012   0.129   3.187  0.1455 -0.0744 -0.4605
 3906SOL    HW123180   2.091   0.183   3.198  1.0414 -0.9755 -2.2779
 3906SOL    HW223181   1.941   0.191   3.177  1.2500  1.1071 -1.0158
 3907SOL     OW23182   0.340   2.777  13.040  0.8424  0.1592 -0.2792
 3907SOL    HW123183   0.334   2.682  13.042  1.5206  0.0989 -1.2418
 3907SOL    HW223184   0.434   2.787  13.053  0.5434  0.4022  1.7855
 3908SOL     OW23185   3.793   2.738   7.053 -0.1298 -0.2081 -0.1419
 3908SOL    HW123186   3.874   2.757   7.006 -0.6533  1.5728 -0.3493
 3908SOL    HW223187   3.759   2.675   6.990 -3.6136  1.7764 -0.2755
 3909SOL     OW23188   2.860   4.170  17.702  0.3756  0.3395 -0.0003
 3909SOL    HW123189   2.860   4.133   0.077  1.2317  1.1072  0.3189
 3909SOL    HW223190   2.823   4.102  17.646 -1.4012 -0.0321  1.6562
 3910SOL     OW23191   3.433   1.724   9.563 -0.2945  0.3935 -0.1228
 3910SOL    HW123192   3.509   1.675   9.531  1.3419  0.2137  3.9913
 3910SOL    HW223193   3.367   1.719   9.494  0.1190 -0.4289 -0.4646
 3911SOL     OW23194   0.269   3.905  12.774  0.2508  0.1279 -0.2597
 3911SOL    HW123195   0.209   3.978  12.754 -0.3658 -0.4398 -0.4698
 3911SOL    HW223196   0.351   3.954  12.782  0.7602 -0.6685 -0.6909
 3912SOL     OW23197   0.699   1.971   9.763 -0.3586 -0.1886 -0.1846
 3912SOL    HW123198   0.655   1.892   9.732 -0.6185  1.0186 -2.8619
 3912SOL    HW223199   0.628   2.018   9.807  0.9764  1.6452  0.0238
 3913SOL     OW23200   0.198   4.603  10.191 -0.0741 -0.1226 -0.1314
 3913SOL    HW123201   0.189   4.610  10.096  1.5345 -1.1609 -0.3443
 3913SOL    HW223202   0.277   4.551  10.205  0.6997  0.7853 -1.1327
 3914SOL     OW23203   0.912   2.003   7.942 -0.2574 -0.0240  0.1030
 3914SOL    HW123204   0.938   2.077   7.998  2.8662 -0.7391 -0.4035
 3914SOL    HW223205   0.821   2.003   7.969 -0.2275  0.9482  0.2371
 3915SOL     OW23206   4.240   3.159   3.640 -0.0794 -0.5342 -0.3617
 3915SOL    HW123207   4.333   3.145   3.658 -0.4992 -2.0064  0.7531
 3915SOL    HW223208   4.238   3.211   3.560 -0.7959 -0.8090 -0.5286
 3916SOL     OW23209   2.633   3.068   7.801 -0.1093  0.0154  0.2999
 3916SOL    HW123210   2.631   3.061   7.896  0.5085 -0.8553  0.2483
 3916SOL    HW223211   2.541   3.057   7.781  0.2520 -0.5932 -1.0368
 3917SOL     OW23212   0.982   1.406   5.622 -0.7327 -0.0397 -0.3543
 3917SOL    HW123213   0.948   1.396   5.533 -2.9706  2.4592  0.2411
 3917SOL    HW223214   1.052   1.462   5.589 -1.7573 -0.7772 -3.7755
 3918SOL     OW23215   4.631   2.389   8.750 -0.1820  0.1677  0.0384
 3918SOL    HW123216   4.580   2.448   8.806 -0.6553 -1.5912  1.4310
 3918SOL    HW223217   4.714   2.436   8.757  0.1970 -0.6120  0.6882
 3919SOL     OW23218   1.208   1.405   9.538 -0.4615 -0.7402 -0.1381
 3919SOL    HW123219   1.134   1.455   9.502 -0.3021 -1.9103 -2.1464
 3919SOL    HW223220   1.255   1.459   9.600 -2.4305  0.5906  0.1999
 3920SOL     OW23221   4.586   0.292   8.445 -0.1746 -0.3477 -0.2809
 3920SOL    HW123222   4.593   0.210   8.494 -1.5461 -1.6739 -2.2739
 3920SOL    HW223223   4.665   0.285   8.390 -1.3773  0.5318 -2.1271
 3921SOL     OW23224   2.640   3.941   2.872 -0.2198  0.3402  0.1836
 3921SOL    HW123225   2.675   4.009   2.930  0.1088  1.1652 -1.0052
 3921SOL    HW223226   2.547   3.945   2.897 -0.8197  1.3529 -2.2480
 3922SOL     OW23227   3.589   1.396   5.447  0.0940 -0.5072  0.5784
 3922SOL    HW123228   3.555   1.312   5.477 -0.3626 -0.8961 -1.0418
 3922SOL    HW223229   3.660   1.406   5.511  0.7613 -2.2364  0.0941
 3923SOL     OW23230   2.824   2.962  17.276  0.5071  0.5035  0.0466
 3923SOL    HW123231   2.730   2.966  17.296  0.6438 -0.2366  0.8209
 3923SOL    HW223232   2.856   2.934  17.362 -0.3371  1.6894  0.7427
 3924SOL     OW23233   3.923   2.011   3.346  0.1234 -0.5548  0.0586
 3924SOL    HW123234   3.993   1.949   3.368  1.0995  0.0060 -1.4511
 3924SOL    HW223235   3.940   2.014   3.252 -2.0380 -0.8560 -0.3299
 3925SOL     OW23236   3.284   1.826  13.682  0.1303 -0.6915  0.2901
 3925SOL    HW123237   3.214   1.791  13.736  0.1028  0.6166  1.0975
 3925SOL    HW223238   3.234   1.859  13.607 -1.3553  0.9625  2.0198
 3926SOL     OW23239   3.382   1.578   7.007  0.2018  0.3592 -0.0787
 3926SOL    HW123240   3.476   1.561   7.006  0.4476  1.8247 -1.1732
 3926SOL    HW223241   3.362   1.562   7.099 -0.4857 -2.2122 -0.6653
 3927SOL     OW23242   3.896   2.396   2.329  0.1620  0.3687 -0.4404
 3927SOL    HW123243   3.802   2.377   2.328  0.1267  0.5194  0.3728
 3927SOL    HW223244   3.907   2.429   2.240 -0.6812 -0.6379 -0.9217
 3928SOL     OW23245   3.843   2.004   2.400 -0.3963  0.0750  0.3065
 3928SOL    HW123246   3.748   1.993   2.400 -0.4056  0.3728 -2.8214
 3928SOL    HW223247   3.864   1.985   2.309  0.0164 -2.6239  0.9500
 3929SOL     OW23248   0.147   0.145   3.792 -0.1353  0.3392 -0.0316
 3929SOL    HW123249   0.080   0.196   3.838 -0.7954 -0.2373 -0.3519
 3929SOL    HW223250   0.125   0.057   3.823 -2.8258  0.8763 -0.4411
 3930SOL     OW23251   2.337   0.146   5.443  0.0314  0.0651 -0.0597
 3930SOL    HW123252   2.279   0.085   5.398  0.5195 -1.0841  0.8956
 3930SOL    HW223253   2.361   0.092   5.518  1.7297  0.5546 -0.2544
 3931SOL     OW23254   4.415   0.520   9.169  0.4924 -0.4754  0.2763
 3931SOL    HW123255   4.435   0.613   9.181 -1.2406  0.1130 -1.3368
 3931SOL    HW223256   4.481   0.501   9.103  1.2705 -0.6053  1.0912
 3932SOL     OW23257   2.084   1.879   5.615  0.0928 -0.0516  0.2017
 3932SOL    HW123258   2.072   1.853   5.707 -0.6336 -2.4760 -0.5730
 3932SOL    HW223259   2.132   1.807   5.573 -0.5935 -0.5529  0.2755
 3933SOL     OW23260   3.894   2.917   6.518  0.0456 -0.2192  0.5317
 3933SOL    HW123261   3.869   2.827   6.542 -0.2641 -0.1978  0.2894
 3933SOL    HW223262   3.816   2.969   6.537 -0.2782 -0.8902  1.0446
 3934SOL     OW23263   2.750   0.642  12.731  0.4144 -0.4497 -0.1995
 3934SOL    HW123264   2.705   0.574  12.780 -2.1189  1.6802  0.4085
 3934SOL    HW223265   2.819   0.670  12.791  1.2813 -2.2765 -0.3373
 3935SOL     OW23266   4.184   1.999   8.077  0.3146 -0.1028  0.4666
 3935SOL    HW123267   4.185   2.028   8.168 -0.5484 -0.1815  0.5076
 3935SOL    HW223268   4.180   2.086   8.038  1.5190 -0.1279  0.3088
 3936SOL     OW23269   4.465   3.388   8.523  0.2554  0.0246 -0.3738
 3936SOL    HW123270   4.559   3.401   8.510  0.5067 -0.4069  0.9765
 3936SOL    HW223271   4.433   3.430   8.444 -0.9764 -0.7486 -0.2811
 3937SOL     OW23272   4.593   3.312   2.971  0.2101 -0.0738  0.2396
 3937SOL    HW123273   4.549   3.382   2.924  0.1030 -1.2112 -1.3582
 3937SOL    HW223274   4.662   3.368   3.008  0.5410 -1.9435  2.5008
 3938SOL     OW23275   0.718   3.429   7.618 -0.6524  0.4983  0.3288
 3938SOL    HW123276   0.667   3.377   7.680  1.4106  1.2009  2.6081
 3938SOL    HW223277   0.670   3.415   7.537  0.7096 -0.9027 -0.2335
 3939SOL     OW23278   3.912   0.281   1.444  0.1139  0.0447  0.2934
 3939SOL    HW123279   3.871   0.205   1.404  0.2667  0.6697 -1.0477
 3939SOL    HW223280   3.857   0.295   1.521 -0.5643  0.3282 -0.2471
 3940SOL     OW23281   4.412   0.424   6.192 -0.2878  0.2045 -0.0608
 3940SOL    HW123282   4.366   0.345   6.164  0.5269 -0.6599  1.0373
 3940SOL    HW223283   4.458   0.461   6.117  0.3158 -1.3345 -0.4511
 3941SOL     OW23284   1.125   3.481   8.589  0.3249  0.4378 -0.4254
 3941SOL    HW123285   1.143   3.413   8.654 -2.1750 -1.1162 -1.3328
 3941SOL    HW223286   1.054   3.444   8.536 -2.0217  0.3380  2.7598
 3942SOL     OW23287   0.716   0.203   0.992  0.2597 -0.5754  0.0055
 3942SOL    HW123288   0.714   0.221   1.085  3.2923  1.5419 -0.3447
 3942SOL    HW223289   0.629   0.235   0.971 -0.2797 -0.8649  1.8394
 3943SOL     OW23290   1.513   3.306   2.127 -0.6532 -0.1265 -0.7283
 3943SOL    HW123291   1.444   3.286   2.063 -0.2857 -2.2068 -0.4578
 3943SOL    HW223292   1.587   3.308   2.067 -0.5313 -0.3373 -0.5846
 3944SOL     OW23293   4.698   4.582  11.099  0.1706 -0.1354 -0.5168
 3944SOL    HW123294   4.676   4.618  11.014  2.6533  0.5842 -0.8586
 3944SOL    HW223295   4.616   4.599  11.146 -0.2203 -0.7782 -0.9745
 3945SOL     OW23296   3.863   4.674   7.105  0.2335 -0.0048 -0.1092
 3945SOL    HW123297   3.921   4.701   7.034  0.0104 -0.4570 -0.4598
 3945SOL    HW223298   3.900   4.589   7.127  1.3084  0.7590  1.0840
 3946SOL     OW23299   3.716   0.247   1.656 -0.8226  0.1285 -0.3271
 3946SOL    HW123300   3.736   0.291   1.739 -0.3138  0.7801 -0.7930
 3946SOL    HW223301   3.706   0.157   1.686 -1.5122  0.1508 -0.4834
 3947SOL     OW23302   3.897   1.404   9.066  0.0312 -0.7733  0.2293
 3947SOL    HW123303   3.911   1.377   8.975  1.3340  0.7804 -0.0217
 3947SOL    HW223304   3.803   1.404   9.082 -0.3132 -2.1970 -1.8812
 3948SOL     OW23305   1.937   0.725   0.595  0.2708 -0.6001 -0.4342
 3948SOL    HW123306   1.985   0.660   0.646  0.6045 -0.8081 -1.0082
 3948SOL    HW223307   2.013   0.763   0.552  0.6183 -1.5812 -0.6990
 3949SOL     OW23308   2.313   3.815   6.881  0.7921 -0.0448 -0.1379
 3949SOL    HW123309   2.406   3.816   6.861  0.7125  1.5938 -0.4146
 3949SOL    HW223310   2.299   3.721   6.898  1.5607 -0.0766  0.2939
 3950SOL     OW23311   4.000   3.118  17.406  0.2564  0.1266 -0.1781
 3950SOL    HW123312   4.006   3.161  17.491  0.3374  0.3895 -0.3145
 3950SOL    HW223313   3.965   3.195  17.361  1.1377  0.4721 -0.2848
 3951SOL     OW23314   4.615   4.462   1.329 -0.1555  0.3104  0.5555
 3951SOL    HW123315   4.603   4.385   1.384  1.4591 -1.2889 -1.3458
 3951SOL    HW223316   4.570   4.531   1.378  0.0164 -0.5989  1.9613
 3952SOL     OW23317   3.493   2.532   5.717 -1.1893 -0.3350  0.6749
 3952SOL    HW123318   3.445   2.511   5.638  1.8470  0.9966 -1.5089
 3952SOL    HW223319   3.499   2.443   5.753  1.2277 -0.3361  0.2472
 3953SOL     OW23320   4.072   0.578   6.744  0.3525  0.4097 -0.3318
 3953SOL    HW123321   4.091   0.537   6.660  2.5913 -1.4724  1.0656
 3953SOL    HW223322   4.008   0.518   6.782  1.9541 -1.1940 -0.1548
 3954SOL     OW23323   0.783   4.126   1.978  0.0934  0.2056 -0.3092
 3954SOL    HW123324   0.765   4.213   1.942 -0.1940  0.7846  1.2163
 3954SOL    HW223325   0.815   4.076   1.903 -0.8808 -1.7684  0.5976
 3955SOL     OW23326   3.817   3.621  12.885 -0.3770  0.5371 -0.5940
 3955SOL    HW123327   3.807   3.715  12.904  0.8008  0.5414  0.0191
 3955SOL    HW223328   3.870   3.627  12.806 -1.1385 -0.4686 -1.1655
 3956SOL     OW23329   2.448   2.782   7.420  0.6091 -0.3407 -0.6342
 3956SOL    HW123330   2.392   2.860   7.416  0.7466 -0.1376  1.1950
 3956SOL    HW223331   2.533   2.815   7.449  1.5807 -2.0994 -1.4558
 3957SOL     OW23332   3.815   3.980   9.339  0.0132 -0.5043  0.4512
 3957SOL    HW123333   3.854   3.997   9.426 -1.5791  0.1247  1.0433
 3957SOL    HW223334   3.794   3.888   9.352  2.4261 -1.3596 -1.7570
 3958SOL     OW23335   1.209   3.475   3.729 -0.0895  0.4378  0.0406
 3958SOL    HW123336   1.125   3.466   3.773  0.3908 -0.0184  0.8773
 3958SOL    HW223337   1.195   3.433   3.644  3.1315  0.7338 -0.6444
 3959SOL     OW23338   0.618   0.212   2.691  0.0489 -0.1932 -0.3168
 3959SOL    HW123339   0.526   0.190   2.707  0.4784 -1.3052  0.5939
 3959SOL    HW223340   0.614   0.308   2.689 -0.1483 -0.2338 -2.0076
 3960SOL     OW23341   0.110   3.968  13.527 -0.2021 -0.2363 -0.0598
 3960SOL    HW123342   0.136   3.963  13.619 -3.2809  2.1461  0.9288
 3960SOL    HW223343   0.018   3.986  13.542 -0.2312  2.6991 -3.7195
 3961SOL     OW23344   0.187   4.170   3.230  0.6048  0.0324  0.3522
 3961SOL    HW123345   0.182   4.231   3.156  2.9285 -1.2215 -0.8359
 3961SOL    HW223346   0.136   4.100   3.189 -0.1887  0.3354  0.8250
 3962SOL     OW23347   2.603   4.254  12.391 -0.0110 -0.2101  0.1517
 3962SOL    HW123348   2.610   4.269  12.485  0.0224  1.3291 -0.0934
 3962SOL    HW223349   2.558   4.169  12.390  0.0978 -0.2585 -1.2765
 3963SOL     OW23350   3.644   2.304   5.298  0.1289 -0.3819  0.5022
 3963SOL    HW123351   3.632   2.398   5.308 -0.2025 -0.5069  1.3190
 3963SOL    HW223352   3.598   2.279   5.217 -0.3843 -0.6118  0.8605
 3964SOL     OW23353   3.058   4.228   8.677  0.0605  0.2854 -0.0368
 3964SOL    HW123354   2.977   4.277   8.689 -0.3052 -1.0352  2.8114
 3964SOL    HW223355   3.055   4.202   8.585 -1.8516 -2.4370  0.8034
 3965SOL     OW23356   3.803   0.093   2.777 -0.2156  0.1594  0.2398
 3965SOL    HW123357   3.860   0.167   2.756  0.4862 -0.1509  1.0918
 3965SOL    HW223358   3.769   0.089   2.687  0.1534 -1.6998  0.1769
 3966SOL     OW23359   3.748   0.968   9.185 -0.6405 -0.2071 -0.0880
 3966SOL    HW123360   3.799   0.972   9.104 -1.1173 -0.1613 -0.3901
 3966SOL    HW223361   3.666   0.933   9.150 -0.9970  0.4218  0.1300
 3967SOL     OW23362   4.165   0.828  16.745  0.0373  0.2485  0.1688
 3967SOL    HW123363   4.121   0.900  16.701 -1.5827 -0.0271  1.3134
 3967SOL    HW223364   4.134   0.841  16.835 -0.4295  0.2997 -0.0004
 3968SOL     OW23365   2.883   4.515   9.253  0.0558  0.5483  0.2730
 3968SOL    HW123366   2.840   4.588   9.208 -0.2396  0.7576  0.9036
 3968SOL    HW223367   2.807   4.457   9.266 -0.0334  1.0728  2.1078
 3969SOL     OW23368   0.173   0.258  16.243  0.0830 -0.2369 -0.2265
 3969SOL    HW123369   0.225   0.267  16.163 -0.3169  0.2974 -0.4259
 3969SOL    HW223370   0.085   0.237  16.211 -0.0528  1.3761 -0.9226
 3970SOL     OW23371   0.750   2.350   8.302 -0.4565 -0.1354  0.2074
 3970SOL    HW123372   0.821   2.376   8.360 -0.3577 -0.3475  0.1816
 3970SOL    HW223373   0.694   2.302   8.363  0.8781  1.7146  2.8702
 3971SOL     OW23374   0.681   1.855   0.557 -0.5086  0.4078 -0.4979
 3971SOL    HW123375   0.641   1.797   0.492 -0.5136 -0.4164  0.2301
 3971SOL    HW223376   0.774   1.852   0.535 -0.7301 -0.9215 -1.2779
 3972SOL     OW23377   3.110   1.590   5.295 -0.1263 -0.0540  0.1769
 3972SOL    HW123378   3.115   1.506   5.340  0.2467 -0.5624 -0.8282
 3972SOL    HW223379   3.198   1.623   5.313  0.3825 -0.0270 -2.3660
 3973SOL     OW23380   4.393   0.321  15.040  0.3435  0.1170  0.6675
 3973SOL    HW123381   4.421   0.359  14.957 -3.4374 -0.0935 -0.7060
 3973SOL    HW223382   4.450   0.244  15.034  0.0658 -0.0412  0.1100
 3974SOL     OW23383   4.351   2.538   0.963 -0.3039  0.0600 -0.2773
 3974SOL    HW123384   4.345   2.609   0.899 -0.7901  0.8016  0.5667
 3974SOL    HW223385   4.321   2.584   1.042  1.3349 -2.1978  1.6591
 3975SOL     OW23386   2.233   4.248  17.332  0.3608 -0.7205  0.4658
 3975SOL    HW123387   2.259   4.340  17.330  0.2674 -0.6632  1.5453
 3975SOL    HW223388   2.167   4.245  17.402 -1.1124  1.7500 -0.8191
 3976SOL     OW23389   0.586   2.276  14.607  0.2183 -0.0593 -0.1965
 3976SOL    HW123390   0.571   2.369  14.592 -0.6478 -0.7512 -3.6387
 3976SOL    HW223391   0.632   2.249  14.527  1.7807 -0.6910  0.9012
 3977SOL     OW23392   0.521   0.067   7.477  0.1626  0.8261 -0.3777
 3977SOL    HW123393   0.571   0.141   7.442  0.2370  0.4027 -1.1698
 3977SOL    HW223394   0.507   0.095   7.567 -2.9800  1.5693 -1.0592
 3978SOL     OW23395   2.424   0.320   8.303 -0.3623  0.4647  0.7059
 3978SOL    HW123396   2.509   0.348   8.271  0.5719 -0.2417  2.5977
 3978SOL    HW223397   2.375   0.297   8.224  0.9132 -0.6766  0.2374
 3979SOL     OW23398   1.935   3.888  13.997  0.6021 -0.1535 -0.2329
 3979SOL    HW123399   1.993   3.944  13.946 -1.8675  5.0154  2.6434
 3979SOL    HW223400   1.935   3.933  14.081 -4.1235 -1.1473  0.3154
 3980SOL     OW23401   0.433   3.361   8.344 -0.0258 -0.4130  0.3147
 3980SOL    HW123402   0.484   3.344   8.423  0.4177 -0.6566 -0.0235
 3980SOL    HW223403   0.345   3.378   8.379  0.0686  1.6118 -0.4771
 3981SOL     OW23404   1.259   2.757   2.584 -0.2104 -0.3260 -0.1104
 3981SOL    HW123405   1.255   2.661   2.592 -0.9456 -0.0476  2.9594
 3981SOL    HW223406   1.188   2.771   2.522 -1.0488  0.2848  0.9910
 3982SOL     OW23407   3.925   3.426   3.168 -0.2516 -0.5158  0.3731
 3982SOL    HW123408   4.005   3.427   3.115  0.1079  1.4618  0.9673
 3982SOL    HW223409   3.948   3.352   3.224 -1.9806 -0.3250  1.3414
 3983SOL     OW23410   3.614   3.313   0.348 -0.3645 -0.5707 -0.1634
 3983SOL    HW123411   3.536   3.369   0.352  0.0826  0.2021 -2.6011
 3983SOL    HW223412   3.643   3.299   0.439  0.4333 -1.3988 -0.5409
 3984SOL     OW23413   2.237   2.778   6.511 -0.2234 -0.7513  0.1804
 3984SOL    HW123414   2.228   2.773   6.416 -2.4712  0.6769  0.2996
 3984SOL    HW223415   2.164   2.731   6.552 -1.6606  0.4304 -1.0200
 3985SOL     OW23416   2.891   2.483   8.657  1.0057 -0.5260 -0.0726
 3985SOL    HW123417   2.928   2.567   8.685 -0.4932  0.2656 -0.4777
 3985SOL    HW223418   2.867   2.500   8.566 -1.8362 -1.5385  0.4856
 3986SOL     OW23419   3.165   2.254   5.939  0.6794  0.1114  0.5063
 3986SOL    HW123420   3.215   2.176   5.915  0.7485  0.2095  0.3300
 3986SOL    HW223421   3.227   2.306   5.989  1.5786  1.3600 -1.9286
 3987SOL     OW23422   4.322   1.178   1.466 -0.0406  0.3478 -0.6012
 3987SOL    HW123423   4.258   1.247   1.486  0.4096 -0.0327  2.0605
 3987SOL    HW223424   4.392   1.222   1.417  0.3025 -0.1619 -0.5687
 3988SOL     OW23425   2.375   3.955   2.965  0.0202 -0.0854 -0.9246
 3988SOL    HW123426   2.349   4.043   2.939 -1.5602 -0.4193 -0.4426
 3988SOL    HW223427   2.328   3.943   3.048  0.6866 -0.4867 -0.5954
 3989SOL     OW23428   4.358   1.358   0.829 -0.4192 -0.3876  0.6493
 3989SOL    HW123429   4.447   1.337   0.799 -1.0973 -0.5258 -1.2793
 3989SOL    HW223430   4.308   1.282   0.801 -0.0014 -0.0909 -0.9168
 3990SOL     OW23431   4.508   4.285   9.189 -0.1456 -0.1629  0.3748
 3990SOL    HW123432   4.601   4.270   9.207 -0.0653  0.7698  0.7494
 3990SOL    HW223433   4.503   4.307   9.096  1.4487  2.8783  1.0147
 3991SOL     OW23434   3.675   1.826  12.663 -0.8128  0.3935  0.6435
 3991SOL    HW123435   3.637   1.743  12.634 -3.0363  2.3910 -2.1841
 3991SOL    HW223436   3.744   1.812  12.728  0.1933 -3.0325 -1.1428
 3992SOL     OW23437   4.349   3.598   3.046 -0.3580 -0.5317  0.0955
 3992SOL    HW123438   4.322   3.536   3.115  0.4954  1.4464  2.1832
 3992SOL    HW223439   4.355   3.676   3.101 -1.7159 -0.8465  0.6915
 3993SOL     OW23440   0.634   1.589   7.612  0.1117  0.0886  0.2524
 3993SOL    HW123441   0.586   1.531   7.671 -1.3643 -0.8043 -1.8260
 3993SOL    HW223442   0.594   1.673   7.634  0.9431  0.0692  1.8576
 3994SOL     OW23443   0.768   4.666  12.962 -0.3654  0.2595  0.0116
 3994SOL    HW123444   0.694   4.627  13.010 -0.6277 -2.2828 -2.4462
 3994SOL    HW223445   0.839   4.638  13.019 -1.1280 -1.6053  0.0714
 3995SOL     OW23446   2.250   3.273   1.139 -0.1420  0.0535  0.4032
 3995SOL    HW123447   2.299   3.192   1.129 -0.6705 -0.4350  1.8276
 3995SOL    HW223448   2.264   3.297   1.230  1.4338 -0.7670  0.3778
 3996SOL     OW23449   3.179   4.503  14.658  0.2452  0.2647 -0.2747
 3996SOL    HW123450   3.248   4.535  14.715  2.6114 -2.5256 -1.5339
 3996SOL    HW223451   3.182   4.407  14.663  1.2024  0.3698  0.9776
 3997SOL     OW23452   1.436   2.456  13.554 -0.4311  0.2472  0.1977
 3997SOL    HW123453   1.420   2.434  13.646  1.1100 -0.2847  0.3429
 3997SOL    HW223454   1.360   2.509  13.530  0.9388  2.2004  0.1538
 3998SOL     OW23455   4.696   0.476  13.319 -0.8485 -0.3841  0.5209
 3998SOL    HW123456   0.057   0.501  13.342 -1.5294  1.8224  0.7351
 3998SOL    HW223457   4.692   0.492  13.224 -1.9079  1.9866  0.9702
 3999SOL     OW23458   0.072   4.161   8.225 -0.4083 -0.2598 -0.0160
 3999SOL    HW123459   0.059   4.235   8.284 -3.2495  0.5973 -1.7258
 3999SOL    HW223460   0.038   4.085   8.274 -1.8184 -1.2546 -2.5449
 4000SOL     OW23461   0.061   3.276   3.954  0.5239  0.0627  0.5360
 4000SOL    HW123462   0.061   3.181   3.950 -0.4201  0.1520 -1.5344
 4000SOL    HW223463   0.155   3.289   3.971  0.7958  0.0236 -0.9450
 4001SOL     OW23464   3.795   1.326   3.675  0.5710  0.0759 -0.0566
 4001SOL    HW123465   3.791   1.314   3.580  1.1579 -1.9303  0.1818
 4001SOL    HW223466   3.727   1.271   3.713  0.3945  0.1764 -0.2259
 4002SOL     OW23467   4.722   2.463   2.707  0.2341 -0.2126 -0.0837
 4002SOL    HW123468   4.700   2.407   2.782  2.5315 -1.4618 -0.3394
 4002SOL    HW223469   0.076   2.416   2.696 -0.1978 -0.3933 -2.5634
 4003SOL     OW23470   3.660   0.869  14.899  0.8979  0.6303  0.1827
 4003SOL    HW123471   3.671   0.777  14.874 -0.1098  1.0347 -1.7995
 4003SOL    HW223472   3.731   0.916  14.856  1.0159 -0.3846 -0.7633
 4004SOL     OW23473   2.583   1.122   4.005  0.0880  0.1442  0.1069
 4004SOL    HW123474   2.600   1.215   4.018 -0.1792  0.4444 -1.6951
 4004SOL    HW223475   2.533   1.113   3.923 -0.1070  0.2281  0.2167
 4005SOL     OW23476   0.380   1.128   4.708  0.1531  0.0708  0.2574
 4005SOL    HW123477   0.381   1.186   4.784  0.9189 -0.2143  0.4596
 4005SOL    HW223478   0.383   1.041   4.749 -1.1774  0.0689  0.3631
 4006SOL     OW23479   0.862   1.164   3.490 -0.8177 -0.0897  0.7454
 4006SOL    HW123480   0.778   1.158   3.536 -0.3059  0.9447  1.8328
 4006SOL    HW223481   0.873   1.259   3.501 -4.1927  0.5730 -1.5572
 4007SOL     OW23482   4.715   0.430   4.171 -0.0578 -0.2192  0.1673
 4007SOL    HW123483   4.706   0.481   4.251  1.0480  2.9317 -1.7454
 4007SOL    HW223484   0.014   0.498   4.110 -1.2532 -0.2586 -0.4124
 4008SOL     OW23485   2.982   1.162  16.316 -0.0114  0.3018  0.2000
 4008SOL    HW123486   2.935   1.188  16.395 -3.2634  1.2367 -2.0532
 4008SOL    HW223487   2.916   1.123  16.259 -0.8825  1.8448  0.1515
 4009SOL     OW23488   4.075   2.162   5.239  0.0257  1.1250  0.6559
 4009SOL    HW123489   3.996   2.155   5.294 -0.9980  2.4079 -0.6774
 4009SOL    HW223490   4.116   2.079   5.262 -1.3886 -0.2096 -1.6247
 4010SOL     OW23491   2.143   2.495   4.394 -0.7108 -0.0178 -0.0755
 4010SOL    HW123492   2.169   2.588   4.393 -0.6983 -0.0186  0.1082
 4010SOL    HW223493   2.064   2.510   4.343 -1.0897  1.5640  0.9525
 4011SOL     OW23494   2.803   1.375   5.467  0.2170  0.5181  0.1804
 4011SOL    HW123495   2.863   1.318   5.418 -1.6274 -2.2823  1.1664
 4011SOL    HW223496   2.777   1.312   5.534 -1.2122  2.5775  1.5239
 4012SOL     OW23497   0.027   4.342  11.594 -0.1467  0.1268 -0.5289
 4012SOL    HW123498   0.025   4.268  11.533 -1.6131  2.1700 -2.9697
 4012SOL    HW223499   4.727   4.411  11.534 -0.1859  0.5699  0.0033
 4013SOL     OW23500   0.791   0.148   7.633 -0.1626  0.0917 -0.7154
 4013SOL    HW123501   0.713   0.094   7.646  0.3325 -0.0502  1.7827
 4013SOL    HW223502   0.821   0.121   7.546 -1.4560 -2.1780 -0.4544
 4014SOL     OW23503   0.495   4.046  10.265  0.1219 -0.2084 -0.0511
 4014SOL    HW123504   0.530   4.131  10.241  1.7262 -0.9571 -0.3328
 4014SOL    HW223505   0.401   4.065  10.276 -0.0626 -0.8031 -0.5749
 4015SOL     OW23506   3.682   0.518   8.254  0.3572 -0.3370 -0.4380
 4015SOL    HW123507   3.641   0.588   8.203 -0.3169  0.0754  0.6628
 4015SOL    HW223508   3.680   0.450   8.186 -2.8492 -1.6075  0.9149
 4016SOL     OW23509   1.949   1.425   6.255 -0.5070 -0.0534  0.0294
 4016SOL    HW123510   1.937   1.466   6.169  1.8907 -0.8397 -0.6921
 4016SOL    HW223511   1.961   1.504   6.309 -2.2405  1.2494 -1.4810
 4017SOL     OW23512   3.114   1.290   4.216 -0.0301 -0.0023 -0.4110
 4017SOL    HW123513   3.142   1.355   4.280  0.4684 -1.4051  0.7932
 4017SOL    HW223514   3.028   1.326   4.192 -0.8497 -0.6962  1.4667
 4018SOL     OW23515   2.633   0.069   4.375  0.3082 -0.4253 -0.4489
 4018SOL    HW123516   2.577   0.034   4.444  1.2437 -0.6921  0.1730
 4018SOL    HW223517   2.569   0.067   4.303 -0.0362  2.1587 -0.2138
 4019SOL     OW23518   3.808   3.264   7.204 -0.0385  0.0060  0.1821
 4019SOL    HW123519   3.861   3.191   7.173  0.1631  0.3405 -0.2716
 4019SOL    HW223520   3.769   3.235   7.286 -1.9171  0.8561 -0.4195
 4020SOL     OW23521   4.379   2.968   8.405  0.4983 -0.3730  0.3715
 4020SOL    HW123522   4.472   2.988   8.392  0.0940  1.3220  0.0094
 4020SOL    HW223523   4.346   3.053   8.375  1.5021  0.1096  0.6143
 4021SOL     OW23524   1.160   0.138  10.260  0.5287 -0.0988  0.7004
 4021SOL    HW123525   1.187   0.226  10.233 -0.2122 -0.0178  0.2063
 4021SOL    HW223526   1.227   0.087  10.215  0.0898  1.0723 -1.3217
 4022SOL     OW23527   2.069   3.288   7.067  0.3948  1.1896  0.1757
 4022SOL    HW123528   2.074   3.233   7.145  2.0055  1.3433  0.1768
 4022SOL    HW223529   2.121   3.364   7.093  2.9648 -0.7103  0.6420
 4023SOL     OW23530   2.101   0.238   2.021  0.3545 -0.1466  0.4489
 4023SOL    HW123531   2.178   0.186   2.041 -0.6246 -1.6637  0.3130
 4023SOL    HW223532   2.083   0.235   1.927 -0.2559 -0.2428  0.5668
 4024SOL     OW23533   1.480   2.827  11.322  0.1492  0.0385  0.3487
 4024SOL    HW123534   1.419   2.882  11.271  1.6462  1.9485  0.6318
 4024SOL    HW223535   1.416   2.774  11.369  0.9167  0.5059  1.9399
 4025SOL     OW23536   1.970   1.528   5.467 -0.3431 -0.3952  0.0292
 4025SOL    HW123537   1.957   1.456   5.529 -0.0573 -1.2815 -0.9445
 4025SOL    HW223538   1.892   1.583   5.479  0.2719  0.1212  1.7473
 4026SOL     OW23539   0.804   1.575  11.199 -0.4846 -0.7556  0.4339
 4026SOL    HW123540   0.851   1.544  11.277  2.5889  0.1432 -1.0791
 4026SOL    HW223541   0.713   1.559  11.225 -0.8907 -1.1858 -1.2494
 4027SOL     OW23542   2.857   4.630   8.002  0.0570 -0.5249  0.0192
 4027SOL    HW123543   2.771   4.599   8.030 -0.5711  2.5622  1.5486
 4027SOL    HW223544   2.888   4.555   7.950 -0.5376 -0.9918  0.3395
 4028SOL     OW23545   2.654   1.344   2.831 -0.4458 -0.7371  0.6506
 4028SOL    HW123546   2.701   1.403   2.772 -1.9538 -0.5330 -0.3600
 4028SOL    HW223547   2.568   1.384   2.822  0.5517  1.6153  1.6551
 4029SOL     OW23548   3.019   1.817   6.422  0.5499  0.3341  0.0772
 4029SOL    HW123549   2.975   1.744   6.378  2.3653 -0.9921  0.4815
 4029SOL    HW223550   3.110   1.796   6.405 -0.2147 -1.3032 -2.0368
 4030SOL     OW23551   2.503   2.798   7.782 -0.0944  0.4435  0.2481
 4030SOL    HW123552   2.587   2.821   7.822  0.8499 -2.8247  0.1437
 4030SOL    HW223553   2.519   2.711   7.746 -0.2014  0.5732 -0.1135
 4031SOL     OW23554   2.676   3.257  14.486 -0.5978 -0.0314  0.2596
 4031SOL    HW123555   2.586   3.232  14.467 -0.1061 -0.3748 -1.5479
 4031SOL    HW223556   2.670   3.335  14.542  2.3821  0.1719  0.2928
 4032SOL     OW23557   1.147   2.482   1.794  0.0271  0.2955 -0.3564
 4032SOL    HW123558   1.191   2.453   1.714 -0.2150  0.0394 -0.4000
 4032SOL    HW223559   1.117   2.568   1.765 -0.5090 -0.7871 -3.0474
 4033SOL     OW23560   0.306   3.632   1.270 -0.4372  0.4388 -0.4938
 4033SOL    HW123561   0.320   3.619   1.364  0.9004 -0.1607 -0.7630
 4033SOL    HW223562   0.247   3.559   1.253 -0.7268  0.1725  1.6871
 4034SOL     OW23563   2.719   3.233   3.678 -0.8702 -0.5542 -0.0509
 4034SOL    HW123564   2.732   3.321   3.712  2.1775 -1.5917  1.5141
 4034SOL    HW223565   2.745   3.247   3.587 -0.9646  2.8151  0.4342
 4035SOL     OW23566   0.051   3.737   1.103 -0.0183 -0.4318  0.0892
 4035SOL    HW123567   0.012   3.800   1.043  0.7224  0.4953  0.5831
 4035SOL    HW223568   0.006   3.766   1.183  1.1421  0.0295  0.5694
 4036SOL     OW23569   3.852   1.064   9.406 -0.1366  0.4611 -0.0077
 4036SOL    HW123570   3.822   0.989   9.458  1.8901 -0.9620 -0.8854
 4036SOL    HW223571   3.815   1.040   9.321  3.0656  0.1061 -1.2876
 4037SOL     OW23572   2.657   0.265  15.995 -0.2024 -0.3915  1.0509
 4037SOL    HW123573   2.597   0.320  16.045 -0.0634 -0.3363  1.1568
 4037SOL    HW223574   2.615   0.179  15.990 -1.5536  0.4033 -1.3384
 4038SOL     OW23575   3.252   4.278   4.532 -0.2052 -0.4724  0.2066
 4038SOL    HW123576   3.186   4.307   4.470  0.4620  0.2704 -0.1504
 4038SOL    HW223577   3.204   4.303   4.611 -0.3505 -0.7773  0.2144
 4039SOL     OW23578   4.058   3.595   9.930 -0.6740  0.2514 -0.2548
 4039SOL    HW123579   4.025   3.590  10.019 -0.0073 -0.6460 -0.0573
 4039SOL    HW223580   4.148   3.561   9.936 -1.3102 -1.6631 -1.5842
 4040SOL     OW23581   3.365   0.678   9.834  0.5140 -0.1218  0.2060
 4040SOL    HW123582   3.277   0.664   9.868  1.0707 -0.1092  1.6230
 4040SOL    HW223583   3.368   0.774   9.837  0.4130 -0.1206  0.2478
 4041SOL     OW23584   1.444   3.511   6.707 -0.1301 -0.2401 -0.5292
 4041SOL    HW123585   1.538   3.497   6.704 -0.4055 -2.0383 -0.6033
 4041SOL    HW223586   1.427   3.505   6.801 -1.4275  0.2578 -0.7252
 4042SOL     OW23587   2.155   1.366   6.682  0.6424 -0.3207 -0.1047
 4042SOL    HW123588   2.144   1.355   6.777 -1.9508 -1.3645 -0.5290
 4042SOL    HW223589   2.096   1.300   6.646  0.1167  1.4970 -2.5880
 4043SOL     OW23590   3.385   3.870   6.631  0.2587 -0.0333  0.3406
 4043SOL    HW123591   3.440   3.893   6.706  1.5413  0.9125 -0.9009
 4043SOL    HW223592   3.350   3.784   6.655 -1.9485  0.4116 -1.2811
 4044SOL     OW23593   0.228   0.899   5.438 -0.7125  0.4797 -0.0982
 4044SOL    HW123594   0.307   0.897   5.383 -0.3789 -0.1847  0.3983
 4044SOL    HW223595   0.197   0.989   5.444 -0.3233  0.2747  4.9569
 4045SOL     OW23596   1.710   1.500   5.849  0.0555  0.2101 -0.1377
 4045SOL    HW123597   1.754   1.563   5.793 -0.7062  0.7049 -0.1870
 4045SOL    HW223598   1.734   1.536   5.935  1.2750  1.1240 -0.8694
 4046SOL     OW23599   0.977   0.767   1.835  0.2732  0.2230  0.3789
 4046SOL    HW123600   0.966   0.817   1.754 -1.2331 -0.7618 -0.0062
 4046SOL    HW223601   0.890   0.735   1.854  0.2774  0.9595  1.6410
 4047SOL     OW23602   2.489   0.270   2.696 -0.3291  0.0453  0.2145
 4047SOL    HW123603   2.565   0.274   2.754  0.9979  1.3974 -1.6023
 4047SOL    HW223604   2.423   0.305   2.755 -1.1747  1.2682 -1.4521
 4048SOL     OW23605   1.862   4.510  10.245  0.2903  0.2347  0.2128
 4048SOL    HW123606   1.786   4.564  10.266 -0.1439 -1.3579  2.7523
 4048SOL    HW223607   1.910   4.509  10.328 -1.5361 -3.5954  1.2625
 4049SOL     OW23608   1.069   0.812   1.392  0.2290 -0.0360 -0.3311
 4049SOL    HW123609   0.978   0.783   1.389  0.0361  0.3446  1.7401
 4049SOL    HW223610   1.054   0.906   1.383  0.8449  0.5394  4.6489
 4050SOL     OW23611   2.555   0.852   2.174  0.0972  0.6775 -0.2925
 4050SOL    HW123612   2.581   0.760   2.178 -0.6583  0.4480 -0.6684
 4050SOL    HW223613   2.636   0.893   2.203  0.7658 -0.7814 -0.0698
 4051SOL     OW23614   2.696   2.766   8.009 -0.3584  0.3265 -0.6931
 4051SOL    HW123615   2.656   2.809   8.085 -1.1901 -0.1003 -0.8830
 4051SOL    HW223616   2.649   2.683   8.019 -1.0847  0.9319  1.0971
 4052SOL     OW23617   0.824   1.784   5.035 -0.8254 -0.3550 -0.1086
 4052SOL    HW123618   0.764   1.709   5.039 -0.1935 -0.7794  1.2968
 4052SOL    HW223619   0.785   1.830   5.109  2.2608  0.2964  1.1028
 4053SOL     OW23620   4.039   2.530   7.967 -0.0178  0.4595 -0.0118
 4053SOL    HW123621   4.007   2.455   8.017  0.4225 -1.8698 -3.2197
 4053SOL    HW223622   4.128   2.543   7.999 -0.6069 -1.0067  2.2131
 4054SOL     OW23623   2.511   4.670   9.220  0.4739  0.0909  0.1059
 4054SOL    HW123624   2.545   4.726   9.150  0.2075  2.3955  1.8197
 4054SOL    HW223625   2.417   4.672   9.201 -0.2174 -0.3703  3.5380
 4055SOL     OW23626   0.276   2.978   3.468 -0.3760  0.5014 -0.9821
 4055SOL    HW123627   0.281   2.974   3.563  2.5307 -0.6395 -1.1672
 4055SOL    HW223628   0.369   2.986   3.446 -0.2208  1.3324 -0.0297
 4056SOL     OW23629   2.118   4.534   1.633  0.1364 -0.7035  0.5629
 4056SOL    HW123630   2.054   4.491   1.577 -1.1381  0.5925  1.0453
 4056SOL    HW223631   2.171   4.591   1.576 -0.7087  0.6899  1.1800
 4057SOL     OW23632   4.623   4.070   9.382  0.0473  0.0831 -0.0687
 4057SOL    HW123633   4.701   4.038   9.335 -0.0171 -0.8253  0.4360
 4057SOL    HW223634   4.554   4.038   9.324  0.7011 -0.9480 -0.2800
 4058SOL     OW23635   1.293   0.699   4.063  0.2516  0.0463 -0.4016
 4058SOL    HW123636   1.381   0.689   4.101  0.0172  2.3564  0.7964
 4058SOL    HW223637   1.278   0.605   4.055  1.0189 -0.2747  1.9621
 4059SOL     OW23638   4.704   0.899   8.264 -0.2778 -0.3554 -0.2357
 4059SOL    HW123639   4.676   0.925   8.176 -1.7093  0.7316  0.5443
 4059SOL    HW223640   0.017   0.978   8.298 -2.2234  1.2982 -1.6974
 4060SOL     OW23641   2.564   1.500   8.336  0.3283  0.1601  0.5380
 4060SOL    HW123642   2.557   1.592   8.310 -1.4230  0.3331  1.6549
 4060SOL    HW223643   2.577   1.507   8.430 -0.2365 -0.6669  0.6757
 4061SOL     OW23644   1.183   0.075   3.134 -0.1228 -0.6556 -0.0121
 4061SOL    HW123645   1.230   4.728   3.100  0.3211  0.2111 -1.3300
 4061SOL    HW223646   1.090   0.051   3.136 -0.6537  1.4194  0.5360
 4062SOL     OW23647   3.605   0.117  16.061 -0.2777  0.2962  0.2056
 4062SOL    HW123648   3.599   0.023  16.079  0.7237  0.0639 -0.7183
 4062SOL    HW223649   3.666   0.118  15.988  0.4777 -0.4704  0.8290
 4063SOL     OW23650   0.887   3.195   3.189 -0.2244 -0.5813  0.2750
 4063SOL    HW123651   0.864   3.156   3.104 -0.5701  2.0868 -0.8620
 4063SOL    HW223652   0.956   3.259   3.170 -1.5399  2.1112  4.6638
 4064SOL     OW23653   0.134   3.015   7.171 -0.2805  0.0000  0.4851
 4064SOL    HW123654   0.093   2.986   7.090 -0.5461 -2.9437  1.6941
 4064SOL    HW223655   0.198   2.945   7.183  0.6817  0.3381 -2.5294
 4065SOL     OW23656   2.238   4.707  13.455 -0.3892  0.1334 -0.2790
 4065SOL    HW123657   2.246   4.635  13.518  4.1590 -0.2853 -1.3417
 4065SOL    HW223658   2.281   0.047  13.507 -1.2378  0.0323  0.5599
 4066SOL     OW23659   3.111   3.548   7.756 -0.1048  0.7483  0.0500
 4066SOL    HW123660   3.095   3.639   7.730  0.6160 -0.0431 -3.1161
 4066SOL    HW223661   3.106   3.554   7.852  2.8146 -0.2414  0.2936
 4067SOL     OW23662   2.942   0.225   8.397 -0.4231  0.5559 -0.2832
 4067SOL    HW123663   2.877   0.194   8.459  0.9661 -0.7676  0.5340
 4067SOL    HW223664   3.026   0.220   8.444 -0.1207  0.2862 -0.8474
 4068SOL     OW23665   3.703   1.293   4.136 -0.2771 -0.0641  0.1725
 4068SOL    HW123666   3.766   1.232   4.173  1.2263  1.5528  0.2810
 4068SOL    HW223667   3.621   1.244   4.136 -0.6149  0.5086  1.3764
 4069SOL     OW23668   0.763   0.149   3.337 -0.0338  0.3126  0.3840
 4069SOL    HW123669   0.701   0.178   3.403 -2.8622 -0.7019 -1.8611
 4069SOL    HW223670   0.817   0.226   3.319  1.0654 -0.6419 -0.4301
 4070SOL     OW23671   1.810   3.160   3.117 -0.3523 -0.1566  0.1128
 4070SOL    HW123672   1.864   3.091   3.079 -0.3585 -1.2121  1.9985
 4070SOL    HW223673   1.730   3.108   3.112 -1.6400  1.9495 -1.4147
 4071SOL     OW23674   4.381   1.209   1.746  0.1285  0.0536  0.9096
 4071SOL    HW123675   4.306   1.255   1.784 -0.3956 -0.6615  0.7365
 4071SOL    HW223676   4.336   1.193   1.664  2.2243 -0.4359 -0.1490
 4072SOL     OW23677   0.129   3.283   4.857  0.3904 -0.5435 -0.1642
 4072SOL    HW123678   0.206   3.249   4.812 -1.1064 -1.8651 -1.7588
 4072SOL    HW223679   0.175   3.330   4.926 -0.5231  0.2219 -0.0652
 4073SOL     OW23680   2.500   2.985   6.002 -0.4323  0.2922  0.5724
 4073SOL    HW123681   2.564   2.952   6.065  2.0191 -0.5474 -2.3501
 4073SOL    HW223682   2.538   3.059   5.956 -1.6750 -0.1735 -1.2173
 4074SOL     OW23683   2.125   4.366   3.128  0.3619  0.4375  0.5993
 4074SOL    HW123684   2.156   4.455   3.143 -1.1508  0.7043  2.2236
 4074SOL    HW223685   2.075   4.341   3.206 -0.1145 -0.6513 -0.0523
 4075SOL     OW23686   1.629   3.017   2.327 -0.2857  0.3241  0.2029
 4075SOL    HW123687   1.712   3.057   2.349  0.2211 -0.1255 -0.8970
 4075SOL    HW223688   1.619   2.969   2.409  1.0278 -2.8614 -1.5055
 4076SOL     OW23689   1.498   3.259   2.396 -0.9069  0.6457  0.5925
 4076SOL    HW123690   1.534   3.173   2.372 -3.0778  0.1513 -0.8708
 4076SOL    HW223691   1.501   3.305   2.312  2.3031  0.4950  0.6324
 4077SOL     OW23692   0.937   2.035   8.617 -0.4374  0.7088  0.1902
 4077SOL    HW123693   0.985   2.115   8.637  0.4378 -0.1354  1.5113
 4077SOL    HW223694   0.932   1.994   8.703 -4.2269  0.7384 -0.0092
 4078SOL     OW23695   4.297   4.307   6.940 -0.0006 -0.7642 -0.0408
 4078SOL    HW123696   4.248   4.271   6.866 -1.8421  1.2542  0.1665
 4078SOL    HW223697   4.391   4.304   6.923  0.1514 -0.3546  0.7327
 4079SOL     OW23698   0.328   1.236   3.193  0.1876 -0.5838 -0.2862
 4079SOL    HW123699   0.241   1.249   3.231  0.2445  0.2053 -0.4130
 4079SOL    HW223700   0.329   1.323   3.152  1.1206  0.5325  2.0404
 4080SOL     OW23701   1.266   0.000  12.634 -0.4460 -0.3819  0.2709
 4080SOL    HW123702   1.311   0.020  12.716 -1.9738 -0.5499  1.1405
 4080SOL    HW223703   1.252   4.634  12.629 -0.2236 -0.3517 -1.0471
 4081SOL     OW23704   1.187   0.005   9.712 -0.5430 -0.1050 -0.7426
 4081SOL    HW123705   1.229   0.085   9.680  1.0115 -1.4252 -2.0220
 4081SOL    HW223706   1.238   4.715   9.791  0.1310  1.7699 -0.7490
 4082SOL     OW23707   2.636   2.055   4.652  0.2647 -0.3179 -0.9456
 4082SOL    HW123708   2.690   2.087   4.724 -0.5671  0.2496 -0.5744
 4082SOL    HW223709   2.570   2.124   4.657  0.9253  0.3421 -1.3915
 4083SOL     OW23710   3.089   0.836   4.697 -0.7960  0.4326  0.2920
 4083SOL    HW123711   3.113   0.863   4.609  2.3944 -0.6523  0.8273
 4083SOL    HW223712   3.004   0.798   4.674 -0.4701  0.4143 -0.8834
 4084SOL     OW23713   1.971   0.000   9.397  0.6942  0.1622  0.1721
 4084SOL    HW123714   2.009   0.086   9.414  0.9727  0.1180 -0.2489
 4084SOL    HW223715   1.892   0.002   9.453  2.0125 -1.4281  2.0722
 4085SOL     OW23716   0.680   2.598   7.182  0.0701  0.2259  0.0623
 4085SOL    HW123717   0.766   2.640   7.192 -0.0218  0.0861  1.4077
 4085SOL    HW223718   0.628   2.643   7.248  1.2854  0.5861  0.7818
 4086SOL     OW23719   4.581   4.469   2.867  0.0714 -0.3091  0.2918
 4086SOL    HW123720   4.653   4.407   2.856  0.4274  0.2833 -0.6670
 4086SOL    HW223721   4.580   4.509   2.780  0.0682 -0.9927 -0.0195
 4087SOL     OW23722   1.635   2.629  16.806  0.2054  0.0203  0.2328
 4087SOL    HW123723   1.551   2.661  16.773  0.1613 -2.3046 -1.8665
 4087SOL    HW223724   1.666   2.716  16.829  1.5864 -0.8203  1.5498
 4088SOL     OW23725   3.161   0.692   4.206  0.7039  0.3944  0.0939
 4088SOL    HW123726   3.070   0.675   4.185  1.3482 -1.7174 -1.0484
 4088SOL    HW223727   3.178   0.762   4.144  1.9778 -0.5569 -0.6536
 4089SOL     OW23728   2.868   4.404   7.628 -0.0383 -0.1198  0.4713
 4089SOL    HW123729   2.835   4.493   7.635  0.1850 -0.0398  0.4872
 4089SOL    HW223730   2.949   4.415   7.579  0.3334 -1.4720  0.7666
 4090SOL     OW23731   2.240   2.587  11.491  0.5098 -0.3898 -0.1366
 4090SOL    HW123732   2.150   2.606  11.516  0.4710  0.5645 -0.9898
 4090SOL    HW223733   2.273   2.579  11.581 -2.1956  0.2149  0.8833
 4091SOL     OW23734   1.443   1.447   3.645  0.1182  0.1904 -0.5412
 4091SOL    HW123735   1.487   1.502   3.581  0.5561 -1.0098 -1.2804
 4091SOL    HW223736   1.480   1.486   3.724 -1.4465  1.1525 -0.2867
 4092SOL     OW23737   1.881   3.588   5.079  0.3059 -0.2914 -0.0633
 4092SOL    HW123738   1.875   3.562   5.171 -1.7539 -0.5743 -0.2864
 4092SOL    HW223739   1.794   3.551   5.063  0.1272  1.0026 -2.0111
 4093SOL     OW23740   1.568   1.353   4.869 -0.1167  0.0006  0.2913
 4093SOL    HW123741   1.614   1.436   4.882 -2.2937  0.7358  3.3930
 4093SOL    HW223742   1.644   1.296   4.856  0.1987  1.0049 -2.2154
 4094SOL     OW23743   3.320   1.941   7.095 -0.2075 -0.6550  0.1575
 4094SOL    HW123744   3.332   1.899   7.180 -1.6524 -0.3611  0.4990
 4094SOL    HW223745   3.244   1.890   7.068 -1.5302  1.0354  0.6557
 4095SOL     OW23746   0.300   0.294   9.046  0.3620  0.1578  0.0611
 4095SOL    HW123747   0.382   0.246   9.058  0.4666  0.2172 -0.4260
 4095SOL    HW223748   0.229   0.242   9.084 -0.8265  0.3201 -1.9342
 4096SOL     OW23749   3.916   1.016   1.742  0.3861  0.1179 -0.3122
 4096SOL    HW123750   3.897   1.019   1.648  1.6324 -0.5035 -0.5843
 4096SOL    HW223751   3.861   1.085   1.778  1.7136  0.8513  0.2939
 4097SOL     OW23752   4.103   0.827   3.072 -1.0905  0.2016  0.7630
 4097SOL    HW123753   4.111   0.829   3.167 -0.0015  1.6077  0.6504
 4097SOL    HW223754   4.198   0.831   3.063 -1.4078  0.4087 -2.4556
 4098SOL     OW23755   2.580   3.454  11.451  0.5538 -0.2781 -0.3426
 4098SOL    HW123756   2.617   3.518  11.512  1.5307 -0.9198 -0.2517
 4098SOL    HW223757   2.489   3.451  11.479  0.8209 -1.1089  0.4429
 4099SOL     OW23758   1.641   1.462   2.465 -0.1558 -0.2851  0.3325
 4099SOL    HW123759   1.643   1.549   2.426  0.0675 -0.2361  0.4493
 4099SOL    HW223760   1.644   1.403   2.389  1.5409  0.5826 -0.2938
 4100SOL     OW23761   3.804   0.908   4.765  0.6663 -0.5793 -0.0905
 4100SOL    HW123762   3.719   0.872   4.789 -0.0397  3.0949  2.9668
 4100SOL    HW223763   3.820   0.967   4.839  1.5786  0.4471 -1.1012
 4101SOL     OW23764   2.485   3.181   2.815  0.0703  0.2196 -0.4941
 4101SOL    HW123765   2.532   3.160   2.897  0.0399  0.2842 -0.4603
 4101SOL    HW223766   2.543   3.239   2.766  0.4089 -0.0335 -0.3976
 4102SOL     OW23767   3.290   4.458   6.515 -0.2997 -0.6280 -0.0498
 4102SOL    HW123768   3.291   4.506   6.432  0.4984  0.8929  0.8414
 4102SOL    HW223769   3.230   4.509   6.571  1.4233  2.5524 -1.1062
 4103SOL     OW23770   2.486   0.377   7.358  0.5315 -0.1736  0.0632
 4103SOL    HW123771   2.468   0.354   7.267  0.9760  1.0656 -0.3264
 4103SOL    HW223772   2.465   0.302   7.414  0.0429  0.9263  1.3389
 4104SOL     OW23773   1.318   0.646   1.879  0.6912  0.4969 -0.0054
 4104SOL    HW123774   1.247   0.703   1.909 -0.4480 -2.3140  2.6177
 4104SOL    HW223775   1.348   0.603   1.959  0.4945  1.4496  0.5846
 4105SOL     OW23776   3.450   2.483   8.205  0.3892  0.1403  0.0036
 4105SOL    HW123777   3.505   2.474   8.282  0.3480  0.5761  0.0852
 4105SOL    HW223778   3.378   2.539   8.233  2.9912  2.9040  1.1776
 4106SOL     OW23779   3.041   3.101   5.093  0.5308  0.0943  0.6655
 4106SOL    HW123780   3.080   3.029   5.044  1.9286  0.6388  0.9583
 4106SOL    HW223781   3.121   3.149   5.115  1.1999 -1.0102  0.6203
 4107SOL     OW23782   2.105   3.063   6.235  0.0964 -0.3960  0.0370
 4107SOL    HW123783   2.184   3.016   6.257 -0.1221 -0.5440  0.4941
 4107SOL    HW223784   2.065   3.059   6.322  0.5982 -1.4158  0.2107
 4108SOL     OW23785   0.434   1.758  13.398  0.5381  0.2626  0.4655
 4108SOL    HW123786   0.517   1.744  13.351 -0.0091 -0.4662 -0.2903
 4108SOL    HW223787   0.413   1.669  13.425 -0.8572  0.7732  1.0493
 4109SOL     OW23788   2.959   1.666   1.716 -0.8115 -0.0608  0.0543
 4109SOL    HW123789   2.947   1.743   1.661 -1.4570 -0.2607 -0.0830
 4109SOL    HW223790   3.054   1.656   1.725 -0.7748 -0.1853 -0.4449
 4110SOL     OW23791   1.373   3.479   3.225  0.3823 -0.1860  0.1843
 4110SOL    HW123792   1.317   3.434   3.288  0.7512 -0.4006  0.3594
 4110SOL    HW223793   1.456   3.438   3.249  0.8538 -0.3195 -1.6715
 4111SOL     OW23794   3.948   3.443   7.594  0.1649 -0.5406 -0.0982
 4111SOL    HW123795   4.014   3.438   7.663 -1.3012 -1.3370  1.2426
 4111SOL    HW223796   3.983   3.379   7.532 -2.2246 -0.7847 -1.1584
 4112SOL     OW23797   0.892   4.142   5.701 -0.1129 -0.2993  0.0857
 4112SOL    HW123798   0.844   4.187   5.631 -1.4462 -0.8292  0.6580
 4112SOL    HW223799   0.823   4.135   5.767  2.4541 -0.3078  2.7678
 4113SOL     OW23800   2.429   0.472  17.341  0.1550 -0.0028 -0.1091
 4113SOL    HW123801   2.494   0.422  17.290  0.3047  0.2068 -0.1249
 4113SOL    HW223802   2.349   0.478  17.289 -0.0639  0.1714  0.2545
 4114SOL     OW23803   1.958   3.578  10.713 -0.2950  0.0914  0.4168
 4114SOL    HW123804   1.958   3.638  10.639  0.3042 -2.1704 -1.3988
 4114SOL    HW223805   1.882   3.612  10.761 -1.0233  0.0584 -0.7074
 4115SOL     OW23806   4.043   3.777   4.136  0.5606  0.2919  0.0499
 4115SOL    HW123807   4.106   3.844   4.108  1.0565 -0.6499 -1.0579
 4115SOL    HW223808   3.972   3.839   4.153 -0.6611 -1.6372  2.0218
 4116SOL     OW23809   3.522   4.561  17.713 -0.4325  0.2090  0.0839
 4116SOL    HW123810   3.451   4.601  17.662  0.8475  1.1396 -0.9480
 4116SOL    HW223811   3.594   4.559  17.650 -0.3182 -2.0482  0.2831
 4117SOL     OW23812   1.990   0.010  15.641  0.3669 -0.5227  0.3714
 4117SOL    HW123813   2.073   0.032  15.682  0.7505  2.7982 -2.2653
 4117SOL    HW223814   1.968   0.074  15.574  2.3031 -2.2760 -1.9390
 4118SOL     OW23815   1.356   2.994   7.230 -0.4201  0.8528 -0.3290
 4118SOL    HW123816   1.324   3.067   7.283 -1.0329  0.2467  0.1395
 4118SOL    HW223817   1.375   2.926   7.295  0.4259 -2.0463 -3.6542
 4119SOL     OW23818   0.753   4.213   6.323  0.2580  0.4667  0.6133
 4119SOL    HW123819   0.759   4.271   6.399 -1.2357 -0.3251  1.3403
 4119SOL    HW223820   0.763   4.276   6.251  0.0629  0.6303  0.7300
 4120SOL     OW23821   1.942   1.482  15.369  0.1859  0.2459  0.3263
 4120SOL    HW123822   1.952   1.387  15.375 -0.3237  0.2111  0.5736
 4120SOL    HW223823   1.855   1.497  15.405 -0.1997 -0.0416 -0.4848
 4121SOL     OW23824   4.557   1.991   4.161  0.4110  0.5181  0.2783
 4121SOL    HW123825   4.502   2.048   4.107  1.9954 -0.8228 -2.7312
 4121SOL    HW223826   4.551   2.049   4.237  2.0081 -0.1094  0.8873
 4122SOL     OW23827   1.759   2.996  13.762 -0.4264 -0.8234 -0.4046
 4122SOL    HW123828   1.801   3.071  13.720  0.4965 -1.2786 -0.2890
 4122SOL    HW223829   1.705   2.962  13.691  1.0587 -0.0287 -1.9177
 4123SOL     OW23830   0.439   2.950   6.909  0.0104 -0.3187 -0.1314
 4123SOL    HW123831   0.403   3.011   6.846  3.2883 -1.0507 -2.7241
 4123SOL    HW223832   0.400   2.868   6.881 -0.9160  0.4802 -1.1725
 4124SOL     OW23833   0.848   0.404   8.076  0.1358 -0.0997 -0.3825
 4124SOL    HW123834   0.781   0.376   8.013  0.5540  4.4481 -2.8885
 4124SOL    HW223835   0.801   0.472   8.125 -1.3751 -1.8591  0.5719
 4125SOL     OW23836   2.463   0.236   8.868  0.3016 -0.4158  0.0905
 4125SOL    HW123837   2.526   0.281   8.812  0.2362 -0.6075 -0.1319
 4125SOL    HW223838   2.391   0.298   8.851  0.4598 -0.6609 -1.4458
 4126SOL     OW23839   1.728   2.541   2.385 -0.0474 -0.4642 -0.0097
 4126SOL    HW123840   1.805   2.485   2.376  1.3689  1.1841  1.9029
 4126SOL    HW223841   1.711   2.562   2.293 -0.9171  1.2639  0.5643
 4127SOL     OW23842   0.412   2.138   7.153  0.1862  0.3151  0.6831
 4127SOL    HW123843   0.504   2.136   7.125 -0.7377 -1.1210 -2.2004
 4127SOL    HW223844   0.365   2.088   7.087  2.0078 -0.0112 -0.3824
 4128SOL     OW23845   3.614   2.939   2.115 -0.1813 -0.4325  0.4286
 4128SOL    HW123846   3.580   2.997   2.183 -1.9432 -1.8710  0.7532
 4128SOL    HW223847   3.703   2.974   2.106 -0.3382 -0.0899  0.2058
 4129SOL     OW23848   3.192   1.063   5.436  0.0962 -0.3750 -0.0157
 4129SOL    HW123849   3.129   1.008   5.390  0.8729  0.1258 -1.6868
 4129SOL    HW223850   3.215   1.006   5.509 -0.5357 -0.1525  0.3534
 4130SOL     OW23851   2.764   4.708   5.559  0.0450 -0.5133  0.3866
 4130SOL    HW123852   2.730   4.624   5.530  0.9580 -0.1470 -1.7024
 4130SOL    HW223853   2.675   0.014   5.573  0.6474  1.4261 -0.5454
 4131SOL     OW23854   0.654   4.392   8.515 -0.7698 -0.2085  0.8672
 4131SOL    HW123855   0.598   4.463   8.483  0.0614 -0.5887 -1.4026
 4131SOL    HW223856   0.617   4.389   8.603 -0.0659  1.4234  1.2188
 4132SOL     OW23857   1.149   2.082   9.797  0.0405 -0.0864  0.4673
 4132SOL    HW123858   1.147   1.989   9.775  3.1332 -0.1264  0.2696
 4132SOL    HW223859   1.212   2.124   9.739 -0.5398  1.8221  1.2218
 4133SOL     OW23860   1.955   2.905   3.439 -0.4191  0.0683 -1.1770
 4133SOL    HW123861   2.048   2.890   3.418  0.6204  2.6470  1.7553
 4133SOL    HW223862   1.949   2.999   3.423 -0.1947  0.2746 -0.0029
 4134SOL     OW23863   3.685   2.196   7.533  0.1757  0.0637 -0.5369
 4134SOL    HW123864   3.772   2.204   7.571  0.4925 -0.2960 -1.1754
 4134SOL    HW223865   3.667   2.102   7.538 -0.0764  0.2948  2.9348
 4135SOL     OW23866   4.188   2.554   8.973  0.3405 -0.1360 -0.3125
 4135SOL    HW123867   4.253   2.623   8.964  0.2680 -0.1132 -0.6420
 4135SOL    HW223868   4.133   2.598   9.038  0.8439 -0.8789  0.6096
 4136SOL     OW23869   0.310   0.477   8.442 -0.2110  0.1035 -0.0173
 4136SOL    HW123870   0.371   0.550   8.431 -2.0538  1.5031 -0.9654
 4136SOL    HW223871   0.315   0.473   8.537  0.3693  0.1963 -0.0418
 4137SOL     OW23872   3.537   0.242   4.208 -0.7253  0.2852  0.2084
 4137SOL    HW123873   3.509   0.332   4.227  2.2177  1.4732 -1.2041
 4137SOL    HW223874   3.455   0.192   4.202 -0.8361  0.0887  3.2915
 4138SOL     OW23875   2.773   4.346  11.964  0.3326  0.2253 -0.5862
 4138SOL    HW123876   2.857   4.357  11.919  2.1652  0.1333  2.7718
 4138SOL    HW223877   2.795   4.337  12.057 -2.4616 -0.7623 -0.0076
 4139SOL     OW23878   3.836   2.662   6.613  0.3024 -0.4702  0.0874
 4139SOL    HW123879   3.859   2.657   6.705  1.1579 -1.3525 -0.1802
 4139SOL    HW223880   3.789   2.579   6.601  0.1019 -0.5637  1.5728
 4140SOL     OW23881   3.359   1.120  12.751  0.4107 -0.0133 -0.4120
 4140SOL    HW123882   3.351   1.165  12.835  1.5566  0.3507 -0.5066
 4140SOL    HW223883   3.274   1.134  12.709  0.5569 -0.4253 -0.8420
 4141SOL     OW23884   3.799   2.260   3.442  0.0653  0.3878 -0.3148
 4141SOL    HW123885   3.867   2.291   3.501 -0.6451 -0.7835  1.1139
 4141SOL    HW223886   3.825   2.168   3.437 -1.4669 -0.1660  1.8297
 4142SOL     OW23887   3.067   2.228   9.073  0.3277  0.1303 -0.4212
 4142SOL    HW123888   3.055   2.224   9.168  1.1310 -0.7210 -0.3551
 4142SOL    HW223889   3.018   2.310   9.067 -2.7199 -1.6316  0.5706
 4143SOL     OW23890   4.042   3.575   3.952  0.3334 -0.0734 -0.5313
 4143SOL    HW123891   4.107   3.522   3.998  0.8220  1.6710  0.7707
 4143SOL    HW223892   4.035   3.650   4.011  0.2344 -0.0157 -0.6164
 4144SOL     OW23893   0.693   2.046  12.669 -0.0725 -0.9369 -0.1558
 4144SOL    HW123894   0.701   2.139  12.692 -0.3388 -1.8777  3.7243
 4144SOL    HW223895   0.776   2.035  12.622  0.0768  0.4447 -0.2294
 4145SOL     OW23896   3.535   1.729   4.529  0.4592  0.1069 -0.2174
 4145SOL    HW123897   3.543   1.762   4.440 -2.4653  0.5851 -0.2872
 4145SOL    HW223898   3.629   1.716   4.539  0.2021 -1.3707  0.3207
 4146SOL     OW23899   1.200   2.996  10.799  0.4186  0.9371  0.0373
 4146SOL    HW123900   1.191   3.055  10.724  0.5807 -0.2621 -0.9222
 4146SOL    HW223901   1.147   2.918  10.780 -0.4385  1.1779  1.4432
 4147SOL     OW23902   4.239   3.842  13.945 -0.5074 -0.0255 -0.2402
 4147SOL    HW123903   4.193   3.922  13.969  0.4894  0.7162 -0.8265
 4147SOL    HW223904   4.280   3.828  14.031 -1.0413  1.0551  0.1923
 4148SOL     OW23905   2.864   0.145   4.181 -0.2420 -0.2019 -0.0566
 4148SOL    HW123906   2.804   0.120   4.111 -0.2218  1.0049 -0.5006
 4148SOL    HW223907   2.835   0.091   4.255 -1.4444  0.9831  0.3395
 4149SOL     OW23908   3.042   3.927   7.198  0.2612 -0.0932  0.0047
 4149SOL    HW123909   3.017   3.861   7.263 -0.6928  0.0729 -0.1968
 4149SOL    HW223910   3.055   3.873   7.120  0.8753 -1.0106  0.7485
 4150SOL     OW23911   3.200   0.838   5.052  0.1682  0.3703  0.1107
 4150SOL    HW123912   3.190   0.909   4.988  0.7233  0.1386 -0.2360
 4150SOL    HW223913   3.138   0.863   5.120 -0.3718  1.6323 -0.8543
 4151SOL     OW23914   1.469   4.683   5.863  0.1584 -0.4510 -0.1019
 4151SOL    HW123915   1.476   0.007   5.943 -1.1461  1.2626 -1.0931
 4151SOL    HW223916   1.402   4.619   5.887 -1.7504  1.1644 -1.1543
 4152SOL     OW23917   0.541   1.750   3.615  0.8283 -0.3110  0.6500
 4152SOL    HW123918   0.619   1.783   3.571  0.3275  0.0938  0.0585
 4152SOL    HW223919   0.478   1.749   3.542 -1.3280  1.0321  2.4699
 4153SOL     OW23920   4.275   0.742  15.267  0.2636 -0.2583 -0.9950
 4153SOL    HW123921   4.337   0.676  15.236  2.1797  0.7829  0.6313
 4153SOL    HW223922   4.339   0.812  15.282  0.2270 -0.8567  1.8916
 4154SOL     OW23923   3.071   3.763   3.336  0.5217  0.2899 -0.7323
 4154SOL    HW123924   3.008   3.835   3.339  1.9249  1.4491  0.7250
 4154SOL    HW223925   3.133   3.798   3.272 -0.0135 -0.9303 -1.9228
 4155SOL     OW23926   3.146   0.959  14.633  0.2014 -0.2660  0.0351
 4155SOL    HW123927   3.160   1.005  14.550  0.5160 -1.1801 -0.4150
 4155SOL    HW223928   3.234   0.923  14.646  0.4969  0.8398  1.0975
 4156SOL     OW23929   3.594   3.937   7.161 -0.5002  0.5063  0.0656
 4156SOL    HW123930   3.516   3.917   7.212 -1.7105 -2.5786 -2.9904
 4156SOL    HW223931   3.651   3.864   7.186 -1.5088 -0.5477 -0.7129
 4157SOL     OW23932   0.191   2.342   5.985  0.0394  0.4179  0.1794
 4157SOL    HW123933   0.164   2.340   5.894 -2.3582 -1.9312  0.9627
 4157SOL    HW223934   0.111   2.312   6.028 -0.2428  1.3228  0.2975
 4158SOL     OW23935   2.431   0.786   7.586  0.4328 -0.3123 -0.6395
 4158SOL    HW123936   2.355   0.753   7.538 -0.3257 -4.1689  3.2153
 4158SOL    HW223937   2.441   0.879   7.566 -1.2235  0.2188  1.0177
 4159SOL     OW23938   0.567   0.040   4.337 -0.1269 -0.0463 -0.6485
 4159SOL    HW123939   0.550   0.065   4.428 -0.2886 -0.8386 -0.4545
 4159SOL    HW223940   0.500   0.087   4.288 -0.2259 -0.8142 -1.2574
 4160SOL     OW23941   3.795   4.153   7.746  0.3333  0.7405 -0.2722
 4160SOL    HW123942   3.828   4.138   7.834 -1.6267  3.5527  0.9382
 4160SOL    HW223943   3.710   4.110   7.749  0.2998  0.6374 -2.3577
 4161SOL     OW23944   0.097   1.794   4.310  0.4966  0.4259 -0.0777
 4161SOL    HW123945   0.104   1.782   4.215 -1.2553 -2.1224  0.1095
 4161SOL    HW223946   0.072   1.885   4.322  1.5465  0.4388  1.8743
 4162SOL     OW23947   1.155   1.621   6.256 -0.7896 -0.2372 -0.0129
 4162SOL    HW123948   1.168   1.535   6.216  0.8935  0.1493 -0.2767
 4162SOL    HW223949   1.206   1.608   6.336  0.7133  1.2372 -0.7407
 4163SOL     OW23950   1.288   2.039   5.631 -0.8656 -0.7595 -0.0556
 4163SOL    HW123951   1.207   2.066   5.674 -0.5406 -1.0650  0.7456
 4163SOL    HW223952   1.299   1.945   5.642  1.9602 -0.5979 -1.4091
 4164SOL     OW23953   4.340   3.968   0.200 -0.6219 -0.2155  0.8395
 4164SOL    HW123954   4.401   3.976   0.273  0.3559 -0.5054  0.0448
 4164SOL    HW223955   4.323   4.061   0.183 -2.0453 -0.4468  0.9506
 4165SOL     OW23956   4.583   3.347   5.238 -0.1818  0.5697 -0.4912
 4165SOL    HW123957   4.538   3.428   5.263 -0.7863 -0.2758  1.1853
 4165SOL    HW223958   4.592   3.360   5.143  2.5713 -3.3756 -0.7503
 4166SOL     OW23959   1.179   2.462   2.927 -0.1122 -0.7223  0.3256
 4166SOL    HW123960   1.192   2.406   2.851 -1.9131 -0.7834  0.0613
 4166SOL    HW223961   1.093   2.429   2.951  0.0014  0.1177  1.8373
 4167SOL     OW23962   2.821   0.304  12.526  0.1240 -0.0097 -0.4104
 4167SOL    HW123963   2.844   0.310  12.619 -1.6253  0.9249 -0.0494
 4167SOL    HW223964   2.894   0.359  12.496  0.9829  0.1024  1.8642
 4168SOL     OW23965   3.364   3.878   8.261  0.3992  0.4864  0.1695
 4168SOL    HW123966   3.311   3.831   8.325  0.9438 -0.4063 -0.0426
 4168SOL    HW223967   3.297   3.937   8.226  0.8350  0.8629 -0.0370
 4169SOL     OW23968   1.814   0.466   2.188 -0.0200  0.7994  0.2893
 4169SOL    HW123969   1.763   0.532   2.140 -2.0691  0.3725  1.8900
 4169SOL    HW223970   1.787   0.390   2.136 -0.0433  0.0646  1.3849
 4170SOL     OW23971   3.444   3.754   9.955 -0.1553  0.6142  0.2561
 4170SOL    HW123972   3.524   3.806   9.948  0.8859 -1.1733 -1.1521
 4170SOL    HW223973   3.388   3.795   9.889  0.3808  3.3151  1.4730
 4171SOL     OW23974   3.569   2.597   0.142 -0.0028  0.2488 -0.1962
 4171SOL    HW123975   3.640   2.659   0.160  0.4193 -1.0386  2.4660
 4171SOL    HW223976   3.492   2.655   0.144 -0.6658 -0.5873 -1.5833
 4172SOL     OW23977   1.814   0.682  16.855  0.2265 -0.2777 -0.2251
 4172SOL    HW123978   1.801   0.630  16.775  2.5779 -1.0619 -0.0880
 4172SOL    HW223979   1.908   0.693  16.841  0.2449 -0.0777  0.0623
 4173SOL     OW23980   1.827   0.857  17.318 -0.5531 -0.4250 -0.3268
 4173SOL    HW123981   1.761   0.814  17.263 -0.5833 -1.3813  0.4479
 4173SOL    HW223982   1.812   0.945  17.284 -1.9556  0.6114  2.9789
 4174SOL     OW23983   2.435   1.762   3.190  0.2605 -0.1828 -0.5461
 4174SOL    HW123984   2.367   1.726   3.132 -0.4315 -1.7998  1.2797
 4174SOL    HW223985   2.496   1.779   3.118  0.3450 -0.2352 -0.4865
 4175SOL     OW23986   1.214   3.662   7.965 -0.1073 -0.2228 -0.3769
 4175SOL    HW123987   1.264   3.736   7.999 -0.7168 -0.1947  0.4519
 4175SOL    HW223988   1.230   3.691   7.875  1.1964  0.0343 -0.0716
 4176SOL     OW23989   3.289   0.329   5.998  0.0581 -0.5390 -0.4755
 4176SOL    HW123990   3.256   0.239   5.994  1.9223 -1.2502  0.2304
 4176SOL    HW223991   3.344   0.322   6.075  0.4177 -1.7334 -0.8420
 4177SOL     OW23992   4.225   2.640   1.670  0.4700  0.3589  0.2860
 4177SOL    HW123993   4.302   2.633   1.614 -0.8769 -0.6266 -1.4626
 4177SOL    HW223994   4.256   2.685   1.748  0.3755 -1.9083  1.6567
 4178SOL     OW23995   4.218   1.277   5.348 -0.3271  0.4834  0.5856
 4178SOL    HW123996   4.130   1.289   5.312 -0.3159  2.7386  1.2669
 4178SOL    HW223997   4.223   1.187   5.316 -1.9461  0.6324 -0.0731
 4179SOL     OW23998   3.550   2.128   5.540 -0.3949  0.1161  0.6374
 4179SOL    HW123999   3.573   2.203   5.485 -1.1358  0.2247  0.4677
 4179SOL    HW224000   3.543   2.167   5.627  2.0174  1.1821  0.3490
 4180SOL     OW24001   2.162   2.901  16.071  0.1060 -0.1454 -0.1987
 4180SOL    HW124002   2.234   2.950  16.111  1.5546 -1.2969 -1.4360
 4180SOL    HW224003   2.084   2.948  16.100 -0.1303 -0.6451 -0.0231
 4181SOL     OW24004   0.013   1.993   9.109 -0.4096  0.5750 -0.7131
 4181SOL    HW124005   0.049   2.066   9.159 -3.1358  1.0152  0.5966
 4181SOL    HW224006   0.034   2.022   9.020 -0.2503  1.8698 -0.2554
 4182SOL     OW24007   0.989   1.916  16.882 -0.1331 -0.0178  0.2119
 4182SOL    HW124008   0.958   1.993  16.929 -2.7867 -0.7965 -0.2623
 4182SOL    HW224009   1.015   1.868  16.961 -1.4871 -0.8525  0.1553
 4183SOL     OW24010   2.151   0.050   1.450  0.3529  0.4633  0.8863
 4183SOL    HW124011   2.099   0.130   1.439  0.1320  0.1804 -0.0904
 4183SOL    HW224012   2.235   0.087   1.424  0.8380 -0.1175  1.6111
 4184SOL     OW24013   4.197   1.983   8.754  0.1008 -0.4453  0.3060
 4184SOL    HW124014   4.223   1.936   8.833 -0.8182 -1.4945 -0.0048
 4184SOL    HW224015   4.111   1.942   8.745  0.0946 -0.0509 -1.4859
 4185SOL     OW24016   0.322   2.521   0.055 -0.1646  0.2491 -0.0730
 4185SOL    HW124017   0.377   2.594   0.027 -0.2790  0.7128  0.9300
 4185SOL    HW224018   0.339   2.525   0.149 -1.4175 -0.7875  0.2023
 4186SOL     OW24019   2.847   3.217   2.805 -0.1199  0.3352  0.6078
 4186SOL    HW124020   2.882   3.219   2.894 -0.5231  0.6473  0.7636
 4186SOL    HW224021   2.927   3.249   2.763  0.3704  1.0572  2.0547
 4187SOL     OW24022   2.790   0.313   6.683  0.8879  0.3566  0.0977
 4187SOL    HW124023   2.773   0.221   6.703 -1.0890  1.0372  1.5320
 4187SOL    HW224024   2.839   0.312   6.600 -0.4446  2.8871 -0.7310
 4188SOL     OW24025   3.589   0.167   5.756 -0.0347 -0.1760 -0.2413
 4188SOL    HW124026   3.537   0.246   5.738 -3.1341 -1.8659  1.2318
 4188SOL    HW224027   3.593   0.172   5.852  0.3159  0.3488 -0.2861
 4189SOL     OW24028   1.284   2.287   4.700  0.5744 -0.8970 -0.9464
 4189SOL    HW124029   1.333   2.301   4.781 -0.5500  0.2038 -0.4613
 4189SOL    HW224030   1.205   2.252   4.742  0.5585 -0.1588 -0.3683
 4190SOL     OW24031   3.112   1.217   0.051 -0.2213  0.1649 -0.7616
 4190SOL    HW124032   3.163   1.272   0.110 -0.9959  1.0385 -0.9234
 4190SOL    HW224033   3.059   1.168   0.113 -0.1551  1.3000  0.1919
 4191SOL     OW24034   3.851   3.225   5.525 -0.0993  0.1906 -0.0668
 4191SOL    HW124035   3.793   3.181   5.586 -0.2462 -1.2705 -1.2449
 4191SOL    HW224036   3.868   3.146   5.474  2.9823 -0.9792  2.8387
 4192SOL     OW24037   3.423   0.727  10.980 -0.3166 -0.4059  0.0242
 4192SOL    HW124038   3.383   0.766  11.057 -0.5975 -1.1712  0.2719
 4192SOL    HW224039   3.494   0.790  10.975  0.4495 -1.3658 -1.1899
 4193SOL     OW24040   0.152   1.417   6.177  0.1762 -0.0269  0.2940
 4193SOL    HW124041   0.064   1.453   6.186 -0.6027 -2.4862  2.1883
 4193SOL    HW224042   0.144   1.385   6.087  0.8379  1.4706 -0.3105
 4194SOL     OW24043   3.465   2.032   3.243 -0.2304  0.2627  0.2047
 4194SOL    HW124044   3.438   2.039   3.152  0.4439  0.2817  0.0100
 4194SOL    HW224045   3.383   2.009   3.286 -0.9853  0.9076 -0.9052
 4195SOL     OW24046   3.427   4.391   4.087  0.6714 -0.5577  0.4502
 4195SOL    HW124047   3.498   4.450   4.064 -1.0585  1.1641 -0.5293
 4195SOL    HW224048   3.395   4.436   4.165  2.1390  0.2204  0.6054
 4196SOL     OW24049   1.648   2.359   3.715 -0.0308  0.1236 -0.4379
 4196SOL    HW124050   1.709   2.318   3.777 -1.7102 -1.2657  0.3065
 4196SOL    HW224051   1.684   2.327   3.632  0.2989  2.0651 -1.0459
 4197SOL     OW24052   2.540   1.369   5.717  0.0361  0.0172 -0.4441
 4197SOL    HW124053   2.597   1.310   5.667 -0.2650  1.0341 -1.9819
 4197SOL    HW224054   2.606   1.430   5.750  0.1656 -0.0389 -0.5991
 4198SOL     OW24055   0.019   2.712   2.566 -0.2937 -0.2529  0.2205
 4198SOL    HW124056   4.712   2.629   2.599  0.3122 -0.3584  0.6040
 4198SOL    HW224057   0.061   2.729   2.650 -0.5745 -0.9923  0.5180
 4199SOL     OW24058   3.153   3.211   6.324  0.4936 -0.0295  0.7261
 4199SOL    HW124059   3.076   3.162   6.296  0.9663 -0.4524  0.1675
 4199SOL    HW224060   3.226   3.151   6.309  0.4261  0.3018 -0.9824
 4200SOL     OW24061   1.191   3.847   2.547 -0.6018 -0.0526 -0.1687
 4200SOL    HW124062   1.210   3.815   2.635 -2.7982 -1.9572 -0.3746
 4200SOL    HW224063   1.191   3.767   2.493  0.1114 -0.6700  0.7516
 4201SOL     OW24064   3.100   2.444   8.082 -0.4218 -0.0420 -0.2150
 4201SOL    HW124065   3.140   2.520   8.125  0.2141 -1.0662  0.9898
 4201SOL    HW224066   3.039   2.414   8.149 -1.7687 -0.2696 -1.5483
 4202SOL     OW24067   2.797   0.817  10.954  0.1688 -0.0228  0.2830
 4202SOL    HW124068   2.787   0.850  11.044 -0.5041 -2.4284  1.0954
 4202SOL    HW224069   2.832   0.731  10.978  0.7175  0.8120  2.4941
 4203SOL     OW24070   1.014   3.247   5.381  0.2078  0.4493  0.6185
 4203SOL    HW124071   1.012   3.317   5.446  0.6870  0.0454  1.0660
 4203SOL    HW224072   1.104   3.215   5.388  0.1106  0.1970  0.7030
 4204SOL     OW24073   1.764   0.160   3.773 -0.1662  0.6278  0.1671
 4204SOL    HW124074   1.709   0.083   3.759  1.9308 -1.1068  1.3082
 4204SOL    HW224075   1.739   0.211   3.696  1.1314  0.3504 -0.4464
 4205SOL     OW24076   4.605   3.611  16.268  0.0339  0.6695  0.3877
 4205SOL    HW124077   4.523   3.659  16.254 -0.3929 -0.2539 -0.2938
 4205SOL    HW224078   4.646   3.653  16.343  0.4854 -0.4846  0.7839
 4206SOL     OW24079   1.808   1.390   6.824  0.0852  0.0678 -0.0261
 4206SOL    HW124080   1.733   1.450   6.825  1.0424  1.2711 -0.8125
 4206SOL    HW224081   1.809   1.354   6.735  0.9609 -1.7766  0.7388
 4207SOL     OW24082   3.275   0.916   2.924 -0.5108 -0.2789 -0.5664
 4207SOL    HW124083   3.317   0.959   2.999 -0.6561 -0.8122 -0.1760
 4207SOL    HW224084   3.307   0.826   2.934 -1.6311 -0.6277 -0.0019
 4208SOL     OW24085   1.444   3.097   0.046 -0.1462  0.2185 -0.3078
 4208SOL    HW124086   1.536   3.123   0.056 -0.0061  0.0931 -1.2740
 4208SOL    HW224087   1.447   3.008   0.011 -1.1503  0.2672 -0.5310
 4209SOL     OW24088   2.065   1.997  14.618 -0.3152  0.0549 -0.5308
 4209SOL    HW124089   2.143   1.961  14.660  0.1621 -0.4861 -1.8822
 4209SOL    HW224090   2.083   1.980  14.526 -0.1103  0.4198 -0.5587
 4210SOL     OW24091   2.098   4.090   7.240 -0.1971  0.7665  0.1010
 4210SOL    HW124092   2.185   4.084   7.201  0.7857  0.9986  2.2776
 4210SOL    HW224093   2.052   4.015   7.202 -0.9672  1.4692 -0.3516
 4211SOL     OW24094   1.673   4.633  16.012  0.0667 -0.6791 -0.0161
 4211SOL    HW124095   1.631   4.673  15.935  1.2263  2.6827  1.0905
 4211SOL    HW224096   1.598   4.585  16.046 -0.4627 -0.1404 -0.4054
 4212SOL     OW24097   0.127   3.193  10.706  0.6379  0.6035 -0.1559
 4212SOL    HW124098   0.202   3.144  10.673 -0.4397 -0.9153 -0.3363
 4212SOL    HW224099   0.152   3.199  10.798  3.9551 -1.7085 -0.8996
 4213SOL     OW24100   4.554   4.259  13.069  0.6553 -0.3526  0.3440
 4213SOL    HW124101   4.641   4.226  13.088 -0.1165 -1.5166  1.8732
 4213SOL    HW224102   4.504   4.218  13.140 -0.5907 -0.4173 -0.5732
 4214SOL     OW24103   2.802   0.598  11.757 -0.3967  0.3749  0.5557
 4214SOL    HW124104   2.750   0.582  11.679  0.6608 -1.7957  0.2947
 4214SOL    HW224105   2.782   0.691  11.766 -0.1503  0.4263  0.5815
 4215SOL     OW24106   3.550   2.680   3.457 -0.2739 -0.9395  0.5563
 4215SOL    HW124107   3.520   2.640   3.375 -0.6088  1.2077 -0.3778
 4215SOL    HW224108   3.632   2.719   3.426 -1.0845  2.1166  2.2768
 4216SOL     OW24109   0.931   2.798   5.352 -0.0094  0.2176 -0.3019
 4216SOL    HW124110   1.013   2.802   5.303 -1.2682  1.8631 -2.2561
 4216SOL    HW224111   0.873   2.737   5.307  0.8872 -0.5146 -0.4647
 4217SOL     OW24112   0.987   2.763   9.755 -0.4435 -0.3466  0.8325
 4217SOL    HW124113   1.017   2.700   9.690 -0.4512  1.1301 -0.6034
 4217SOL    HW224114   0.953   2.692   9.809 -0.7799 -0.5914  0.2841
 4218SOL     OW24115   0.026   2.417  13.174  0.8209 -0.1715 -0.8441
 4218SOL    HW124116   0.091   2.347  13.180  2.3680  1.2244 -1.2916
 4218SOL    HW224117   0.017   2.410  13.079 -1.9263  0.5928 -0.6411
 4219SOL     OW24118   1.059   4.662   5.106  0.1134 -0.2170  0.6754
 4219SOL    HW124119   1.044   0.015   5.059  1.7223 -0.7577 -0.7981
 4219SOL    HW224120   1.048   4.699   5.194 -0.1074  0.5153  0.3315
 4220SOL     OW24121   0.579   1.775   8.476  0.1359 -0.2606  0.2461
 4220SOL    HW124122   0.610   1.751   8.563 -0.2677  2.0663  1.0365
 4220SOL    HW224123   0.649   1.835   8.449  0.0994 -0.2219  0.2370
 4221SOL     OW24124   4.627   1.704   1.998  0.0733 -0.0217 -0.2544
 4221SOL    HW124125   4.658   1.617   1.977 -2.3863 -1.1016  0.5367
 4221SOL    HW224126   4.615   1.745   1.913  1.3695  1.9721  0.5120
 4222SOL     OW24127   1.071   2.204   3.166 -0.5826  0.7518  0.0651
 4222SOL    HW124128   0.984   2.166   3.156  0.2552 -0.6302 -2.1164
 4222SOL    HW224129   1.049   2.277   3.223 -0.5389 -1.0977  2.4303
 4223SOL     OW24130   4.583   2.225  12.788  0.2551 -0.0238 -0.5072
 4223SOL    HW124131   4.602   2.283  12.715  0.5101  1.1637  0.4944
 4223SOL    HW224132   4.489   2.204  12.785  0.0000  1.1981 -0.9463
 4224SOL     OW24133   3.316   0.782  17.588  0.7588 -0.0773  0.2749
 4224SOL    HW124134   3.231   0.803  17.627  1.0227 -0.4672  1.0471
 4224SOL    HW224135   3.379   0.830  17.640  1.3826 -0.1067 -0.4501
 4225SOL     OW24136   0.327   4.505   7.787 -0.2119  0.1538  0.2837
 4225SOL    HW124137   0.285   4.428   7.825 -2.4865  3.0318  3.5955
 4225SOL    HW224138   0.405   4.474   7.740  0.0170  1.6490 -0.3453
 4226SOL     OW24139   1.375   0.857   3.828 -0.1122  0.3956 -0.7157
 4226SOL    HW124140   1.337   0.813   3.903  2.3596  1.0743  0.9495
 4226SOL    HW224141   1.315   0.832   3.758 -1.2826 -0.6829  0.6820
 4227SOL     OW24142   3.407   0.970  14.894  0.4119 -0.1529 -0.1087
 4227SOL    HW124143   3.489   0.937  14.931 -0.5868 -0.9901  1.3750
 4227SOL    HW224144   3.404   0.910  14.820 -0.7598 -0.6431  0.3497
 4228SOL     OW24145   2.307   3.504  11.541  0.0656  0.1899  0.2188
 4228SOL    HW124146   2.274   3.548  11.463  0.0135 -0.5985 -0.2056
 4228SOL    HW224147   2.227   3.455  11.565  1.3688 -1.0292  2.1099
 4229SOL     OW24148   1.389   4.076   7.475  0.2163 -0.1773  0.1635
 4229SOL    HW124149   1.365   4.133   7.548 -1.1111  0.6854 -0.9345
 4229SOL    HW224150   1.337   4.002   7.505 -2.1897  1.1807 -0.6204
 4230SOL     OW24151   4.509   3.065  16.196  0.1546 -0.0895 -0.6355
 4230SOL    HW124152   4.530   3.006  16.268  2.6033  0.2572 -1.0856
 4230SOL    HW224153   4.553   3.145  16.226 -1.4954 -0.0227  1.6130
 4231SOL     OW24154   3.182   2.817   6.431  0.4301  0.0933  0.1318
 4231SOL    HW124155   3.162   2.752   6.498  0.0718 -1.3583 -1.3889
 4231SOL    HW224156   3.204   2.890   6.488  1.8123 -0.8846  0.8650
 4232SOL     OW24157   1.165   2.091  16.304  0.2083 -0.7443  0.2077
 4232SOL    HW124158   1.106   2.020  16.331  0.4624  0.0906  2.8922
 4232SOL    HW224159   1.106   2.164  16.288 -1.3822 -2.3291 -1.2043
 4233SOL     OW24160   1.215   4.054   6.026  0.0918 -0.3118  0.2438
 4233SOL    HW124161   1.246   4.054   6.116 -0.4915  1.9197  0.4485
 4233SOL    HW224162   1.156   3.978   6.030 -0.1059 -0.0833  1.6821
 4234SOL     OW24163   0.755   3.549   3.259  0.5852  0.1440  0.0416
 4234SOL    HW124164   0.674   3.533   3.212  0.4959  1.1230 -0.1312
 4234SOL    HW224165   0.784   3.636   3.233 -0.6811  1.1261  1.9339
 4235SOL     OW24166   2.989   2.913   8.541  0.2138  0.2582 -0.0219
 4235SOL    HW124167   2.966   2.881   8.628 -1.6828 -2.0021 -1.3449
 4235SOL    HW224168   2.942   2.996   8.539 -1.1895 -0.5348 -0.2044
 4236SOL     OW24169   1.648   2.635   2.620  0.3835  0.7898 -0.2054
 4236SOL    HW124170   1.612   2.721   2.598 -0.2893  0.5329 -0.1204
 4236SOL    HW224171   1.674   2.602   2.534 -0.5761 -0.4103 -0.0367
 4237SOL     OW24172   3.598   2.140  10.915  0.3978  0.0368 -0.7309
 4237SOL    HW124173   3.644   2.114  10.994 -2.8715 -2.0527  0.4993
 4237SOL    HW224174   3.668   2.161  10.853  1.2996 -0.8135  0.0232
 4238SOL     OW24175   2.705   0.867   4.101  0.7955 -0.3982 -0.7772
 4238SOL    HW124176   2.718   0.959   4.082  0.4019 -0.4188 -1.1255
 4238SOL    HW224177   2.784   0.833   4.058  1.7447 -0.1432  0.7595
 4239SOL     OW24178   2.617   1.767   8.263  1.0976  0.0266 -0.4582
 4239SOL    HW124179   2.667   1.819   8.200  1.6371 -0.6999 -0.6404
 4239SOL    HW224180   2.538   1.820   8.273  1.8895  1.2606 -0.8207
 4240SOL     OW24181   3.327   1.259  12.040  0.0051 -0.0514  0.1084
 4240SOL    HW124182   3.311   1.230  12.130 -1.0615  0.5327  0.1101
 4240SOL    HW224183   3.416   1.227  12.030  0.1389 -0.2064  1.7445
 4241SOL     OW24184   1.118   3.269  13.711 -0.0955 -0.0782 -0.1519
 4241SOL    HW124185   1.055   3.337  13.735 -1.3195 -0.9604 -0.8366
 4241SOL    HW224186   1.056   3.197  13.699  0.1264 -0.7943  2.9693
 4242SOL     OW24187   0.961   4.036   3.672 -0.0389 -0.4350  0.3151
 4242SOL    HW124188   0.894   4.103   3.683 -1.0238 -1.6840  2.0009
 4242SOL    HW224189   0.978   4.030   3.767 -2.4798  2.2828  0.8961
 4243SOL     OW24190   0.668   1.486   3.620 -0.6883  0.3891 -0.0271
 4243SOL    HW124191   0.581   1.460   3.590 -1.3948  0.4833  1.8891
 4243SOL    HW224192   0.648   1.576   3.647 -0.1943  0.2569  0.7843
 4244SOL     OW24193   4.528   1.861   7.922  0.2880 -0.0273  0.1006
 4244SOL    HW124194   4.496   1.947   7.897 -0.3286 -0.4753 -0.6430
 4244SOL    HW224195   4.462   1.837   7.987 -2.0239 -2.1245 -3.0077
 4245SOL     OW24196   4.518   0.796   4.590  0.0867 -0.3642 -0.2239
 4245SOL    HW124197   4.564   0.860   4.536 -1.7589  2.2137  1.2163
 4245SOL    HW224198   4.478   0.859   4.651 -0.8115 -1.3315  0.1835
 4246SOL     OW24199   3.421   4.079  13.604 -0.3903  0.8331  0.3125
 4246SOL    HW124200   3.411   4.089  13.698  0.5771 -0.1631  0.5309
 4246SOL    HW224201   3.465   4.161  13.583  1.0700  0.0362  0.2310
 4247SOL     OW24202   1.957   0.602   6.330 -0.1363 -0.3561  0.3494
 4247SOL    HW124203   1.985   0.563   6.413  0.9964 -1.5015 -0.5719
 4247SOL    HW224204   1.972   0.525   6.274 -0.4803  1.1405 -1.7946
 4248SOL     OW24205   1.458   0.982   1.747  0.4768  0.1093  0.0830
 4248SOL    HW124206   1.390   1.049   1.744  0.4095  0.1030  1.4295
 4248SOL    HW224207   1.453   0.955   1.655 -1.4478 -1.9206  0.7730
 4249SOL     OW24208   2.721   4.128   9.616  0.2222 -0.7536 -0.3871
 4249SOL    HW124209   2.640   4.152   9.572  1.2813 -1.4222 -2.7305
 4249SOL    HW224210   2.784   4.169   9.557 -0.9614  0.2984 -0.9139
 4250SOL     OW24211   0.046   1.230   1.930 -0.3116  0.5575  0.5590
 4250SOL    HW124212   0.073   1.144   1.898  1.8365  0.9315  1.3443
 4250SOL    HW224213   4.710   1.247   1.861 -0.5674  1.6693  1.0710
 4251SOL     OW24214   2.309   4.421   4.370  0.1767  0.0767 -0.8440
 4251SOL    HW124215   2.242   4.486   4.346  1.6876  1.0830 -2.3007
 4251SOL    HW224216   2.292   4.361   4.298  2.5975 -0.8950 -0.5868
 4252SOL     OW24217   0.723   2.310  10.091  0.3441 -0.4381 -0.2179
 4252SOL    HW124218   0.796   2.355  10.134 -0.6197 -0.7063  1.6997
 4252SOL    HW224219   0.765   2.251  10.028  3.0284 -0.1052  1.2612
 4253SOL     OW24220   4.228   0.033   1.875 -0.1867  0.1148  0.5278
 4253SOL    HW124221   4.159   0.053   1.938 -1.3705  1.5952 -1.2298
 4253SOL    HW224222   4.309   0.059   1.918 -0.5070  1.6264  0.2208
 4254SOL     OW24223   1.770   0.766   1.099  0.1613 -0.6062  0.3066
 4254SOL    HW124224   1.722   0.839   1.139  2.3939  2.3623 -2.4556
 4254SOL    HW224225   1.707   0.695   1.100  1.1892 -1.4898  2.4243
 4255SOL     OW24226   2.512   0.639  16.182 -0.6618  1.1157 -0.4098
 4255SOL    HW124227   2.448   0.699  16.145 -1.1519  1.4456  0.9547
 4255SOL    HW224228   2.471   0.560  16.148 -0.5184  0.1063  1.7326
 4256SOL     OW24229   1.174   1.565  11.844 -0.4840  0.7960  0.0964
 4256SOL    HW124230   1.238   1.513  11.794 -1.6297 -0.3983 -0.1207
 4256SOL    HW224231   1.212   1.652  11.831 -0.2183  0.8760  1.3706
 4257SOL     OW24232   1.240   2.787   7.034 -0.6942 -0.3471  0.2872
 4257SOL    HW124233   1.319   2.833   7.006  0.1182 -2.0714 -0.2502
 4257SOL    HW224234   1.260   2.790   7.127  2.2724 -0.1386 -0.3389
 4258SOL     OW24235   3.844   0.252   9.183  0.5033  0.0091 -0.0537
 4258SOL    HW124236   3.817   0.172   9.229  1.8364  0.1765  1.0492
 4258SOL    HW224237   3.822   0.316   9.251 -0.4974  0.4916 -0.8486
 4259SOL     OW24238   0.069   0.010  10.404 -0.2039  0.4032 -0.4363
 4259SOL    HW124239   0.109   4.676  10.343 -0.4647  0.8287 -1.0373
 4259SOL    HW224240   0.081   4.688  10.484  1.2443  1.8077  0.2251
 4260SOL     OW24241   4.563   0.392   6.919  0.2979  0.3262 -0.0068
 4260SOL    HW124242   4.613   0.392   6.837  0.5156 -0.3334  0.1303
 4260SOL    HW224243   4.481   0.350   6.892  0.8832 -0.3461 -0.7360
 4261SOL     OW24244   1.972   0.713  13.173 -0.1480 -0.2269 -0.1289
 4261SOL    HW124245   1.885   0.700  13.211 -0.6381 -0.1403 -1.2255
 4261SOL    HW224246   2.006   0.631  13.210 -1.2390 -0.3840  0.5346
 4262SOL     OW24247   0.574   1.969   4.849  0.1473  0.1684 -0.3793
 4262SOL    HW124248   0.630   2.002   4.920 -2.6170 -0.6111  2.1648
 4262SOL    HW224249   0.641   1.933   4.791  0.9331 -0.5166  0.9659
 4263SOL     OW24250   3.239   0.725   7.914  0.6520 -0.5019 -0.0844
 4263SOL    HW124251   3.247   0.636   7.882  1.7846 -0.2000 -0.6365
 4263SOL    HW224252   3.145   0.732   7.929  0.5319  0.0982 -1.1258
 4264SOL     OW24253   3.767   1.871   2.075 -0.0176 -0.1922  0.6509
 4264SOL    HW124254   3.690   1.924   2.056  1.0776  1.3379  0.5654
 4264SOL    HW224255   3.841   1.916   2.035  0.5018  0.0301  1.8676
 4265SOL     OW24256   2.196   2.046   7.467  0.1097 -0.1445  0.1206
 4265SOL    HW124257   2.183   2.092   7.384  3.0901  1.1911  0.3995
 4265SOL    HW224258   2.200   1.959   7.429  0.3330  0.0252 -0.2452
 4266SOL     OW24259   2.255   3.383   9.040 -0.1934 -0.4882  0.0000
 4266SOL    HW124260   2.193   3.314   9.019  0.0573 -0.8430  0.4250
 4266SOL    HW224261   2.273   3.356   9.130 -0.0763  3.1479  1.0641
 4267SOL     OW24262   0.041   1.854   4.038  0.0387 -0.2179 -0.1111
 4267SOL    HW124263   4.711   1.794   3.991  0.1515 -0.4038 -0.0117
 4267SOL    HW224264   4.708   1.918   4.075 -2.7629 -4.0796  1.8876
 4268SOL     OW24265   4.462   1.282   5.548 -0.4577 -0.4327 -0.3055
 4268SOL    HW124266   4.521   1.316   5.481 -0.2967  1.9052  1.0164
 4268SOL    HW224267   4.387   1.290   5.488  0.3360 -0.5709 -1.3268
 4269SOL     OW24268   2.535   2.165   6.417  0.3129 -0.1930 -0.0291
 4269SOL    HW124269   2.558   2.081   6.376 -0.0000 -0.5067  0.4415
 4269SOL    HW224270   2.624   2.184   6.447  0.7295 -0.9925 -0.7240
 4270SOL     OW24271   0.233   0.149  10.146 -0.3003 -0.0355  0.4579
 4270SOL    HW124272   0.220   0.068  10.195  0.3392 -0.2600  0.2456
 4270SOL    HW224273   0.270   0.124  10.062  0.9419  0.7206  0.7754
 4271SOL     OW24274   2.169   4.595   8.062 -0.2263 -0.0719  0.0834
 4271SOL    HW124275   2.137   4.572   7.975 -3.5203  0.7352  1.0934
 4271SOL    HW224276   2.139   4.527   8.123 -2.2526  0.6640 -0.1172
 4272SOL     OW24277   1.040   0.582  10.626 -0.6070 -0.3557 -0.3293
 4272SOL    HW124278   1.068   0.651  10.686 -0.6972 -0.0013 -0.6887
 4272SOL    HW224279   1.112   0.575  10.564 -0.3739 -2.2016  0.1676
 4273SOL     OW24280   0.450   1.352  14.291 -0.1539  0.5439  0.0771
 4273SOL    HW124281   0.513   1.391  14.351 -0.2470 -1.6900  1.6003
 4273SOL    HW224282   0.394   1.324  14.363 -1.1036 -0.9086 -1.2272
 4274SOL     OW24283   2.586   1.736  12.006 -0.0664 -0.1150  0.0723
 4274SOL    HW124284   2.560   1.825  11.979 -1.0551 -0.6979 -0.9138
 4274SOL    HW224285   2.665   1.751  12.058  0.4686  1.9791 -1.3591
 4275SOL     OW24286   4.313   3.623   1.030 -0.5373 -0.0115  0.6037
 4275SOL    HW124287   4.277   3.683   1.095 -0.8387 -1.5971  1.9092
 4275SOL    HW224288   4.376   3.581   1.089 -0.7747 -0.3824  0.5984
 4276SOL     OW24289   3.116   1.701   7.480 -0.3666  0.3529 -0.0432
 4276SOL    HW124290   3.091   1.773   7.537 -0.7238  1.5612 -1.7043
 4276SOL    HW224291   3.045   1.695   7.416  0.1152 -1.5367 -0.4173
 4277SOL     OW24292   2.137   0.317   1.471 -0.2266 -0.5510 -0.0162
 4277SOL    HW124293   2.145   0.334   1.377 -0.4914  0.7717  0.2092
 4277SOL    HW224294   2.097   0.400   1.497 -1.5944 -1.5561  1.1057
 4278SOL     OW24295   2.511   3.198   5.142 -0.1321  0.4403 -0.4536
 4278SOL    HW124296   2.421   3.172   5.121 -0.8808  2.4029  0.3638
 4278SOL    HW224297   2.525   3.272   5.084  0.5902 -0.3362 -1.2647
 4279SOL     OW24298   3.202   0.201   8.505 -0.3044 -0.2602  0.7490
 4279SOL    HW124299   3.258   0.261   8.554  2.8013 -0.4620 -2.6430
 4279SOL    HW224300   3.250   0.120   8.518 -2.1246 -1.1088  2.2358
 4280SOL     OW24301   4.493   0.088   4.624 -0.1904 -0.1138  0.6788
 4280SOL    HW124302   4.421   0.049   4.673 -2.2468 -0.1894 -2.4070
 4280SOL    HW224303   4.451   0.099   4.538  0.8705  0.0930  0.1942
 4281SOL     OW24304   4.437   3.578   0.794  0.4086  0.3573  0.6186
 4281SOL    HW124305   4.505   3.637   0.827  0.4325  1.7013 -1.7667
 4281SOL    HW224306   4.388   3.577   0.876  2.2909 -1.5388  1.7052
 4282SOL     OW24307   1.612   0.123   0.541 -0.0778 -0.1542  0.0826
 4282SOL    HW124308   1.593   0.164   0.625 -1.4889  1.1093 -0.8555
 4282SOL    HW224309   1.698   0.082   0.546 -0.1988 -0.5460 -0.9558
 4283SOL     OW24310   2.987   0.967   2.516  0.2857 -0.0117  0.2538
 4283SOL    HW124311   3.018   1.046   2.561 -0.0021  1.1729 -1.6161
 4283SOL    HW224312   2.957   0.907   2.584  1.8682  1.3480  2.1626
 4284SOL     OW24313   2.088   2.524  12.862  0.0975  0.3982  0.1022
 4284SOL    HW124314   2.107   2.608  12.821 -0.2104  0.6728  0.5109
 4284SOL    HW224315   2.002   2.539  12.902 -0.5572 -1.0038 -0.8127
 4285SOL     OW24316   3.723   4.189   1.249 -0.6412 -0.4897  0.1579
 4285SOL    HW124317   3.809   4.226   1.229 -0.5295 -0.2605  1.0480
 4285SOL    HW224318   3.712   4.232   1.334  1.7694  2.8637 -1.2745
 4286SOL     OW24319   2.281   2.978   7.482 -0.2001  0.2748 -0.3635
 4286SOL    HW124320   2.341   3.050   7.499 -0.4564  0.4465 -0.1781
 4286SOL    HW224321   2.221   3.000   7.411  0.5568 -0.2506 -1.1714
 4287SOL     OW24322   0.982   0.122   9.601 -0.7102 -0.4774  0.0987
 4287SOL    HW124323   1.055   0.080   9.645 -0.3598  0.2038  0.1621
 4287SOL    HW224324   1.018   0.156   9.519  0.6584  1.2835  1.4413
 4288SOL     OW24325   2.489   3.490  11.960  0.4496  0.9735 -0.5819
 4288SOL    HW124326   2.462   3.437  12.035 -0.8791  1.4601 -0.7112
 4288SOL    HW224327   2.583   3.474  11.968  0.1457  0.1676  1.4158
 4289SOL     OW24328   1.895   3.667   8.651  0.4428  0.6276 -0.1259
 4289SOL    HW124329   1.897   3.635   8.741 -3.6645  2.2179  0.5702
 4289SOL    HW224330   1.801   3.680   8.636 -0.1221 -1.5897  1.4284
 4290SOL     OW24331   4.544   2.186   9.342 -0.6416  0.0145 -0.0601
 4290SOL    HW124332   4.471   2.162   9.286  0.5891 -1.0974 -1.1768
 4290SOL    HW224333   4.584   2.106   9.377  3.3505  1.7503 -0.6620
 4291SOL     OW24334   2.290   0.085   0.616 -0.7168 -0.6041  0.1425
 4291SOL    HW124335   2.359   0.114   0.557  0.9948 -0.2695  2.2799
 4291SOL    HW224336   2.343   0.017   0.659 -0.3555  1.5020  3.0516
 4292SOL     OW24337   4.052   3.971  14.828 -0.2932 -0.4849  0.6017
 4292SOL    HW124338   4.003   3.968  14.746 -1.9668  1.9452  1.5228
 4292SOL    HW224339   4.000   4.035  14.877 -0.1062 -3.3257  4.5633
 4293SOL     OW24340   2.938   2.409   2.031 -0.0877  0.4707  0.1562
 4293SOL    HW124341   2.893   2.325   2.039  0.6074  0.1167  0.3729
 4293SOL    HW224342   2.926   2.412   1.936 -2.3124  2.5314  0.5256
 4294SOL     OW24343   2.022   1.629   7.473  0.6831 -0.3384 -0.1708
 4294SOL    HW124344   1.978   1.700   7.426  1.2943 -0.3440 -0.7479
 4294SOL    HW224345   1.973   1.557   7.434  1.6133 -0.9133 -0.2852
 4295SOL     OW24346   0.408   4.099   3.620  0.7459  0.1382  0.2373
 4295SOL    HW124347   0.356   4.044   3.561  0.1685 -0.1570  1.0121
 4295SOL    HW224348   0.364   4.183   3.611  1.8820  0.5720 -1.2035
 4296SOL     OW24349   1.632   3.361   3.228 -0.1575  0.1664  0.0042
 4296SOL    HW124350   1.704   3.304   3.202  1.0546  1.3597  0.7422
 4296SOL    HW224351   1.675   3.419   3.291  1.5354 -0.7187 -0.3462
 4297SOL     OW24352   4.388   1.259   4.712 -0.7281  0.0757  0.4226
 4297SOL    HW124353   4.347   1.205   4.645 -1.9993 -1.5884  2.5326
 4297SOL    HW224354   4.337   1.233   4.788 -1.1974 -1.6477 -0.4917
 4298SOL     OW24355   1.559   1.594   1.802 -0.6530 -0.6450 -0.0702
 4298SOL    HW124356   1.592   1.529   1.864  1.6062 -0.1711 -0.7830
 4298SOL    HW224357   1.631   1.657   1.807  0.4717 -1.9379  0.0664
 4299SOL     OW24358   0.476   2.659  17.050  0.1161 -0.0564  0.7380
 4299SOL    HW124359   0.545   2.726  17.058  0.0475 -0.2128  2.5697
 4299SOL    HW224360   0.478   2.649  16.955 -2.4877  0.6516  0.6025
 4300SOL     OW24361   2.288   3.108   9.392 -0.0178 -0.4642 -0.1029
 4300SOL    HW124362   2.225   3.088   9.462 -0.6321  1.3158 -0.1427
 4300SOL    HW224363   2.280   3.203   9.394  0.3600 -0.4448  0.5056
 4301SOL     OW24364   1.270   1.912   0.666  0.3432 -0.0837  0.1202
 4301SOL    HW124365   1.282   1.856   0.743 -0.3108 -1.0866 -0.4923
 4301SOL    HW224366   1.355   1.904   0.624  0.5635 -3.3277  1.1665
 4302SOL     OW24367   0.614   4.648  11.034 -0.1233 -0.1526 -0.0383
 4302SOL    HW124368   0.576   4.646  11.122  1.7456 -0.5311  0.7664
 4302SOL    HW224369   0.541   4.661  10.973 -1.0639 -1.4395  0.8161
 4303SOL     OW24370   3.563   0.665   1.158  0.2213  0.0082 -0.0851
 4303SOL    HW124371   3.556   0.627   1.070 -0.3377  1.1414 -0.5277
 4303SOL    HW224372   3.645   0.711   1.169  0.5259 -0.5574  0.0086
 4304SOL     OW24373   3.673   2.886   5.487  0.3746  0.2255 -0.7485
 4304SOL    HW124374   3.653   2.807   5.436  1.8073  0.2404 -1.3241
 4304SOL    HW224375   3.591   2.902   5.534  1.4237  0.7738  0.8874
 4305SOL     OW24376   1.832   0.644   5.686 -0.3376  0.7788  0.2068
 4305SOL    HW124377   1.758   0.589   5.711 -0.8467  1.9779  1.3053
 4305SOL    HW224378   1.815   0.661   5.593 -0.5936  3.0430  0.6663
 4306SOL     OW24379   2.359   2.935   7.980  0.2905 -0.4809  0.1534
 4306SOL    HW124380   2.376   3.011   7.925  1.0861 -1.0948 -0.4502
 4306SOL    HW224381   2.386   2.859   7.929 -0.5872  0.0482 -1.1028
 4307SOL     OW24382   4.594   3.147   8.777 -0.0603 -0.0162 -0.1533
 4307SOL    HW124383   4.591   3.241   8.760 -4.1236 -0.1077  0.0451
 4307SOL    HW224384   4.673   3.134   8.829  0.3596 -0.4046 -0.8911
 4308SOL     OW24385   1.967   3.554   4.447 -0.6004 -0.3139 -0.1237
 4308SOL    HW124386   2.055   3.591   4.456 -0.7726 -0.3275  1.7335
 4308SOL    HW224387   1.976   3.484   4.512 -1.2750 -0.0457  0.2602
 4309SOL     OW24388   3.489   0.296  11.873  0.1593 -0.2404 -0.0569
 4309SOL    HW124389   3.499   0.202  11.860 -0.3531 -0.2404 -0.4461
 4309SOL    HW224390   3.425   0.288  11.944  0.1613  0.5879  0.0368
 4310SOL     OW24391   3.166   3.365   1.949  0.1973 -0.3490 -0.2212
 4310SOL    HW124392   3.207   3.286   1.984  1.2483  0.0117 -0.6404
 4310SOL    HW224393   3.172   3.350   1.854  1.3664 -1.0585 -0.0350
 4311SOL     OW24394   3.482   1.183  13.651 -0.1125  0.6094  0.4451
 4311SOL    HW124395   3.510   1.272  13.674  0.3274  0.8295 -0.8964
 4311SOL    HW224396   3.433   1.207  13.572  0.0013  0.1140  0.2219
 4312SOL     OW24397   4.382   1.515  12.448 -0.6052  0.1541 -0.6129
 4312SOL    HW124398   4.363   1.539  12.538 -0.4891  1.4437 -0.9306
 4312SOL    HW224399   4.363   1.421  12.456  0.1466 -0.1250 -2.1200
 4313SOL     OW24400   1.267   2.485  15.482 -0.6832  0.0322  0.5966
 4313SOL    HW124401   1.301   2.490  15.572  3.6120  0.6558 -1.0566
 4313SOL    HW224402   1.299   2.403  15.446 -0.5922 -0.3449  1.5228
 4314SOL     OW24403   1.759   0.889   2.002 -0.4712  0.2334  0.6305
 4314SOL    HW124404   1.725   0.834   1.931  1.0455 -0.4068  0.3866
 4314SOL    HW224405   1.752   0.823   2.071  1.9087 -0.7931 -0.0960
 4315SOL     OW24406   1.126   0.612   6.120  0.3408  0.0460 -0.2741
 4315SOL    HW124407   1.125   0.698   6.163  0.0946  0.0980 -0.3854
 4315SOL    HW224408   1.218   0.586   6.118  0.5482  1.0431 -3.1647
 4316SOL     OW24409   2.085   2.439   5.782 -0.1242  0.1850 -0.1765
 4316SOL    HW124410   2.114   2.521   5.742 -0.7949 -0.0677 -1.1707
 4316SOL    HW224411   2.005   2.468   5.825  0.4299 -0.1771  1.1064
 4317SOL     OW24412   0.188   4.503   4.399  0.9595 -0.5758  0.2756
 4317SOL    HW124413   0.150   4.589   4.380 -1.1993 -1.4338  0.6415
 4317SOL    HW224414   0.187   4.467   4.310  2.0130  2.2082 -0.8838
 4318SOL     OW24415   0.533   2.657   4.413 -0.2342  1.1139 -0.1114
 4318SOL    HW124416   0.498   2.576   4.448  1.0664 -0.3314 -2.1813
 4318SOL    HW224417   0.494   2.660   4.326 -0.4937 -1.1203 -0.0679
 4319SOL     OW24418   3.908   3.882  14.139  0.1001  0.0706 -0.2754
 4319SOL    HW124419   3.905   3.803  14.086  0.7009  0.0612 -0.2874
 4319SOL    HW224420   3.995   3.920  14.130 -0.3930  1.1301 -0.6044
 4320SOL     OW24421   0.339   4.600   3.493 -0.1983  0.1172  0.1087
 4320SOL    HW124422   0.340   4.504   3.493 -1.8245  0.0980 -0.0267
 4320SOL    HW224423   0.246   4.616   3.480  0.0313  0.2428 -1.3116
 4321SOL     OW24424   3.838   1.095   1.483  0.1900 -0.1223  0.3135
 4321SOL    HW124425   3.843   1.110   1.388  0.9757  0.5206  0.4574
 4321SOL    HW224426   3.782   1.168   1.508  1.8701  1.0430  0.6223
 4322SOL     OW24427   0.349   3.053   8.975 -0.1796 -0.1163 -0.0725
 4322SOL    HW124428   0.412   3.056   8.904  2.9422 -2.0599  2.6184
 4322SOL    HW224429   0.399   3.063   9.056 -0.4696 -2.2399  0.3694
 4323SOL     OW24430   2.902   2.412   9.927 -0.1420  0.1622  0.4659
 4323SOL    HW124431   2.863   2.374  10.005 -0.6559  0.7697  0.5048
 4323SOL    HW224432   2.994   2.402   9.951 -0.1305  0.1666  0.4246
 4324SOL     OW24433   3.021   2.697   5.595  0.2946 -0.2933  0.4350
 4324SOL    HW124434   2.961   2.630   5.561  0.6193  0.2688 -1.2197
 4324SOL    HW224435   3.028   2.688   5.690 -0.5790 -1.0631  0.4302
 4325SOL     OW24436   2.156   4.658  15.963  0.6111 -0.6418  0.6236
 4325SOL    HW124437   2.065   4.645  15.987 -0.8619  2.1916 -3.4462
 4325SOL    HW224438   2.193   4.573  15.986  0.6419 -1.4302 -2.2437
 4326SOL     OW24439   3.905   0.229   4.559  0.4084 -0.2680  0.0086
 4326SOL    HW124440   3.889   0.249   4.651  0.4681  1.5455 -0.3776
 4326SOL    HW224441   3.834   0.284   4.524  0.7161  0.6981  0.9104
 4327SOL     OW24442   2.767   4.243  15.864 -0.1670 -0.2384 -0.7512
 4327SOL    HW124443   2.703   4.313  15.877 -1.1369 -1.1038 -0.8530
 4327SOL    HW224444   2.823   4.280  15.797 -1.1066  1.9035 -0.3429
 4328SOL     OW24445   4.430   0.016   6.276 -0.0380 -0.5758  0.3822
 4328SOL    HW124446   4.487   0.026   6.353  0.4654  0.3466 -0.1088
 4328SOL    HW224447   4.469   4.672   6.227  0.6866 -0.2700  0.4993
 4329SOL     OW24448   0.072   2.560   8.168 -0.3110 -0.0025 -0.1215
 4329SOL    HW124449   0.104   2.641   8.128 -1.4713  0.0779 -0.9050
 4329SOL    HW224450   0.155   2.524   8.200 -0.6997 -0.5017  0.3370
 4330SOL     OW24451   3.613   2.383   2.616  0.1890 -0.5195 -0.1142
 4330SOL    HW124452   3.607   2.390   2.521 -1.3037  0.6621  0.0488
 4330SOL    HW224453   3.542   2.321   2.634  0.1130 -0.3107  0.3082
 4331SOL     OW24454   0.097   3.649  16.028 -0.2002  0.0284 -0.3955
 4331SOL    HW124455   0.167   3.610  15.977  1.3239  1.4378  0.6364
 4331SOL    HW224456   0.141   3.710  16.087  1.6607  0.0367 -1.7842
 4332SOL     OW24457   3.197   0.034  14.369  0.4732 -0.1126 -0.6243
 4332SOL    HW124458   3.186   0.038  14.274 -1.5199  1.1977 -0.3379
 4332SOL    HW224459   3.110   0.000  14.392  0.1284 -0.0948 -1.8719
 4333SOL     OW24460   0.321   3.138   5.209 -0.0135 -0.6017 -0.1023
 4333SOL    HW124461   0.291   3.154   5.120 -0.7991 -2.2169 -0.1268
 4333SOL    HW224462   0.320   3.044   5.227  0.9371 -0.2579  1.7653
 4334SOL     OW24463   4.343   4.067   1.407  0.6102 -0.4073  0.1673
 4334SOL    HW124464   4.255   4.034   1.385  1.5336 -1.0388 -2.5509
 4334SOL    HW224465   4.380   3.996   1.459  0.5639 -0.8785 -0.4327
 4335SOL     OW24466   0.977   1.041   4.772 -0.9712 -0.1214  0.3281
 4335SOL    HW124467   0.968   1.026   4.678 -0.1661  0.1296  0.2110
 4335SOL    HW224468   0.903   0.986   4.798 -0.1666 -2.0159 -1.4008
 4336SOL     OW24469   3.438   0.004   9.255  0.0791 -0.0284  0.1820
 4336SOL    HW124470   3.468   4.643   9.275 -0.2797  0.0707  1.1682
 4336SOL    HW224471   3.512   0.054   9.290 -0.8025  2.5707 -1.6377
 4337SOL     OW24472   0.199   2.396  12.740 -0.0213  0.5757 -0.3761
 4337SOL    HW124473   0.258   2.452  12.691 -0.0280  1.1243  0.2339
 4337SOL    HW224474   0.214   2.310  12.701  2.6915 -0.4420  2.8598
 4338SOL     OW24475   2.226   3.978   4.298  0.1594 -0.0703  0.2002
 4338SOL    HW124476   2.160   3.937   4.243 -0.4792 -0.9120  1.6045
 4338SOL    HW224477   2.171   4.031   4.356  1.1432 -0.1616  1.2204
 4339SOL     OW24478   4.411   3.798  16.244  0.6463  0.7199  0.5924
 4339SOL    HW124479   4.365   3.861  16.299 -0.0975  0.2060  0.5487
 4339SOL    HW224480   4.335   3.762  16.198  1.9465 -1.8409  0.4233
 4340SOL     OW24481   2.131   3.208   1.691  0.2153 -0.5638  0.4878
 4340SOL    HW124482   2.226   3.194   1.688  0.1938 -1.1080  2.8339
 4340SOL    HW224483   2.119   3.243   1.779 -1.0977 -1.6755  0.7484
 4341SOL     OW24484   4.156   2.289   6.232 -0.3458 -0.8306 -0.3307
 4341SOL    HW124485   4.090   2.303   6.301 -1.0608 -0.1636 -1.1531
 4341SOL    HW224486   4.171   2.381   6.212  1.6923 -0.9292  0.7994
 4342SOL     OW24487   1.016   3.435   1.449 -0.2088  0.5020 -0.1913
 4342SOL    HW124488   0.996   3.342   1.465  1.9008 -0.0121 -0.5465
 4342SOL    HW224489   1.091   3.429   1.390 -1.1301  0.0384 -1.3080
 4343SOL     OW24490   4.155   0.663   2.502  0.0518  0.7124  0.1341
 4343SOL    HW124491   4.111   0.589   2.461 -0.0024  1.1967 -0.6659
 4343SOL    HW224492   4.102   0.733   2.466  0.6529  2.5958  2.9090
 4344SOL     OW24493   0.206   3.209   5.453  0.5092 -0.1543 -0.1065
 4344SOL    HW124494   0.249   3.213   5.368  0.4174  0.8212 -0.1015
 4344SOL    HW224495   0.277   3.244   5.507 -1.0538  0.8051  1.3268
 4345SOL     OW24496   2.403   0.623   1.127 -0.3551  0.1652  0.2027
 4345SOL    HW124497   2.397   0.583   1.213 -1.2998 -1.4047 -0.5872
 4345SOL    HW224498   2.375   0.548   1.074 -1.0964  0.7084 -0.1911
 4346SOL     OW24499   3.589   2.355  16.469 -0.1502  0.2563 -0.0256
 4346SOL    HW124500   3.573   2.336  16.377  1.0508 -1.8409  0.1985
 4346SOL    HW224501   3.685   2.356  16.470 -0.1416  0.8169 -1.5961
 4347SOL     OW24502   1.060   1.301   4.021 -0.0250  0.0821 -0.3073
 4347SOL    HW124503   1.035   1.379   4.071  0.8649 -0.7587  1.4879
 4347SOL    HW224504   1.154   1.301   4.038 -0.4085  3.7262  1.7779
 4348SOL     OW24505   3.350   2.512  16.415  0.2635 -0.6830  0.1629
 4348SOL    HW124506   3.417   2.450  16.442  0.5113 -1.4616 -2.1657
 4348SOL    HW224507   3.296   2.448  16.368  1.1816 -0.0823 -1.7090
 4349SOL     OW24508   3.523   1.889   0.416  0.1581  0.3311  0.1942
 4349SOL    HW124509   3.446   1.867   0.468  0.7011 -1.8776  0.0315
 4349SOL    HW224510   3.476   1.945   0.355  2.0762  1.5263 -0.1950
 4350SOL     OW24511   4.546   3.650   6.878  0.4499  0.4829 -0.0197
 4350SOL    HW124512   4.563   3.659   6.972  1.4361 -1.8148  0.0179
 4350SOL    HW224513   4.453   3.672   6.881  0.9336  2.5248 -0.2019
 4351SOL     OW24514   1.488   0.687   0.525 -0.0477 -0.5143 -0.3723
 4351SOL    HW124515   1.574   0.698   0.565 -0.0884 -0.5754 -0.2693
 4351SOL    HW224516   1.496   0.593   0.509 -0.0373 -0.7500  1.0663
 4352SOL     OW24517   3.411   3.928  11.207  0.1194 -0.6805  0.4990
 4352SOL    HW124518   3.480   3.952  11.269  0.5455  1.0130 -0.6362
 4352SOL    HW224519   3.401   3.833  11.220  1.5397 -1.2185 -2.2903
 4353SOL     OW24520   2.998   3.672   5.683  0.4468  0.3461  0.2603
 4353SOL    HW124521   2.924   3.729   5.661 -0.7292 -0.9182  0.9492
 4353SOL    HW224522   2.959   3.596   5.641  0.4352  1.1273 -1.1359
 4354SOL     OW24523   1.201   0.466   9.900  0.5453 -0.4375  0.0236
 4354SOL    HW124524   1.116   0.508   9.913  0.8752  0.0465  0.5986
 4354SOL    HW224525   1.212   0.416   9.981 -1.8549  0.5516  0.9330
 4355SOL     OW24526   4.664   2.231   6.352 -0.2534  0.4162 -0.1556
 4355SOL    HW124527   4.645   2.283   6.429 -0.4443 -0.5322  0.4344
 4355SOL    HW224528   4.655   2.140   6.378  1.7380 -0.2569 -1.7712
 4356SOL     OW24529   0.048   1.407   7.144  0.2308  0.2408  0.2900
 4356SOL    HW124530   4.725   1.389   7.223  0.6057 -0.7075  0.3204
 4356SOL    HW224531   4.702   1.406   7.083  1.1856  2.6497 -0.8848
 4357SOL     OW24532   2.895   0.442   6.430 -0.2850 -0.0674 -0.5929
 4357SOL    HW124533   2.908   0.534   6.411 -1.3815  0.2461  0.1864
 4357SOL    HW224534   2.862   0.420   6.343 -0.8223  0.5727 -0.5477
 4358SOL     OW24535   1.803   0.454   7.875 -0.6202 -0.4851 -0.0739
 4358SOL    HW124536   1.830   0.422   7.789 -1.6908  1.6753 -1.2396
 4358SOL    HW224537   1.837   0.544   7.870  0.5644 -0.8939  0.7706
 4359SOL     OW24538   0.137   2.523   8.850  0.2445 -0.0884  0.2697
 4359SOL    HW124539   0.182   2.449   8.890 -1.4770 -1.5192 -0.4636
 4359SOL    HW224540   0.214   2.569   8.816 -1.2337  1.0523 -1.5322
 4360SOL     OW24541   4.325   0.414  15.949  0.2998 -0.5376 -0.3993
 4360SOL    HW124542   4.347   0.425  15.856  0.6332 -1.5236 -0.4436
 4360SOL    HW224543   4.333   0.503  15.982  4.0115 -0.3117 -1.9282
 4361SOL     OW24544   0.861   1.413   7.996 -0.3072 -0.2376  0.1213
 4361SOL    HW124545   0.887   1.426   7.905  1.1406  0.5828  0.6433
 4361SOL    HW224546   0.839   1.321   8.005 -0.7755  0.0206  1.5099
 4362SOL     OW24547   3.979   0.032   2.496 -0.5554  0.7083 -0.2940
 4362SOL    HW124548   3.923   0.109   2.498  0.1182  1.1384  1.8575
 4362SOL    HW224549   3.950   4.723   2.413 -1.8128  0.2020  0.3668
 4363SOL     OW24550   0.803   4.570   8.765  0.2203  0.4195  0.5727
 4363SOL    HW124551   0.814   4.594   8.673  0.8325 -1.8384  0.0514
 4363SOL    HW224552   0.854   4.644   8.797  0.4707 -0.1731  1.5385
 4364SOL     OW24553   4.202   1.669   8.609 -0.2334  0.1388  0.1230
 4364SOL    HW124554   4.276   1.724   8.635 -0.7974 -0.2126  2.4659
 4364SOL    HW224555   4.148   1.686   8.686 -0.9863 -3.1028  0.2931
 4365SOL     OW24556   0.205   1.167  14.624  0.5524  0.0044 -0.0511
 4365SOL    HW124557   0.282   1.213  14.657 -0.2826  0.3286  1.4557
 4365SOL    HW224558   0.239   1.087  14.583  0.2406 -0.7136  1.1024
 4366SOL     OW24559   1.667   2.270   5.071  0.3355  0.0055 -0.3344
 4366SOL    HW124560   1.703   2.218   5.142  1.6790 -0.1306 -1.1103
 4366SOL    HW224561   1.724   2.347   5.066 -0.4161  0.4943 -1.4014
 4367SOL     OW24562   0.545   2.078   1.740 -0.7511  0.2854  0.4393
 4367SOL    HW124563   0.585   2.044   1.820 -1.3489 -0.5796  0.3733
 4367SOL    HW224564   0.606   2.149   1.719 -0.6359  0.0810  0.0825
 4368SOL     OW24565   1.912   2.395   7.847  0.5557 -0.0899  0.0491
 4368SOL    HW124566   1.985   2.345   7.883  1.7720  1.9986  0.4764
 4368SOL    HW224567   1.917   2.475   7.899  1.3755 -0.1991  0.1289
 4369SOL     OW24568   1.704   4.087   8.719  0.6099 -0.7738  0.0311
 4369SOL    HW124569   1.623   4.118   8.679  1.6037  0.9425 -0.6511
 4369SOL    HW224570   1.762   4.162   8.704 -1.0937  0.8479  1.6340
 4370SOL     OW24571   0.548   2.327   4.812  0.3233 -0.3465  0.2586
 4370SOL    HW124572   0.508   2.414   4.816  1.2317  0.1964 -2.1209
 4370SOL    HW224573   0.640   2.353   4.821  0.4144  0.8756 -4.0251
 4371SOL     OW24574   1.805   4.573   8.034 -0.5584  0.5813 -0.2597
 4371SOL    HW124575   1.863   4.510   7.991  0.1088 -1.2098  3.3456
 4371SOL    HW224576   1.834   4.657   7.997  1.1710  0.6136  1.1693
 4372SOL     OW24577   0.048   4.046  11.713 -0.6373  0.4388  0.0212
 4372SOL    HW124578   0.058   4.057  11.619 -1.4030  0.5186 -0.0548
 4372SOL    HW224579   0.091   4.123  11.750  2.0994 -1.4343  0.7128
 4373SOL     OW24580   1.203   3.425  10.031 -0.5750  0.3216  0.3173
 4373SOL    HW124581   1.111   3.415  10.007 -0.9713 -0.8782  2.3367
 4373SOL    HW224582   1.244   3.374   9.961  0.7182  2.1023 -0.2355
 4374SOL     OW24583   1.363   3.558   8.367  0.1202  0.3863 -0.1606
 4374SOL    HW124584   1.322   3.473   8.350 -1.5884  0.9337  1.2304
 4374SOL    HW224585   1.434   3.558   8.303 -1.5844  0.7915 -2.0539
 4375SOL     OW24586   0.311   1.868   8.891 -0.3034  0.0333 -0.6146
 4375SOL    HW124587   0.234   1.900   8.845 -1.9649  0.8458  2.7342
 4375SOL    HW224588   0.358   1.817   8.825 -0.1917 -0.5995 -0.0513
 4376SOL     OW24589   0.059   2.358  11.752 -0.8825  0.0556  0.1180
 4376SOL    HW124590   0.063   2.412  11.674  1.4613  1.5277  1.2502
 4376SOL    HW224591   0.153   2.340  11.760 -1.2772 -1.9828  0.1232
 4377SOL     OW24592   2.868   2.469   3.478 -0.0409 -0.1957 -0.1577
 4377SOL    HW124593   2.887   2.526   3.404  0.3566  0.6366  0.5875
 4377SOL    HW224594   2.953   2.481   3.520 -0.0247  0.8941 -0.5103
 4378SOL     OW24595   1.139   4.530   2.366 -0.1678  0.3502 -0.2100
 4378SOL    HW124596   1.168   4.530   2.458 -1.7698  0.9352  0.3013
 4378SOL    HW224597   1.109   4.439   2.361  1.6790 -0.2829  0.2126
 4379SOL     OW24598   1.771   3.622  11.119  0.2590  0.5022 -0.2191
 4379SOL    HW124599   1.705   3.554  11.113  0.4212  0.2152  1.3897
 4379SOL    HW224600   1.733   3.701  11.081  0.1501  0.0034 -1.1587
 4380SOL     OW24601   4.440   2.273   1.729 -0.3360  0.1325  0.2580
 4380SOL    HW124602   4.387   2.251   1.653 -2.0727  1.3529  1.1147
 4380SOL    HW224603   4.531   2.287   1.701 -0.1375 -0.2198  0.7193
 4381SOL     OW24604   1.129   1.618   3.113  0.0340  0.2819  0.3928
 4381SOL    HW124605   1.146   1.537   3.160 -1.0346  0.0187  0.3257
 4381SOL    HW224606   1.150   1.684   3.179  2.1815 -1.0593  1.0409
 4382SOL     OW24607   3.638   4.494   7.715  0.3309  0.2269  0.0925
 4382SOL    HW124608   3.640   4.470   7.622 -4.0014 -0.1548  0.1024
 4382SOL    HW224609   3.626   4.413   7.766  0.4653 -1.3740 -2.4035
 4383SOL     OW24610   3.204   4.627  16.959 -0.2589  0.4410  0.3715
 4383SOL    HW124611   3.226   4.712  16.921 -0.4707  1.0993  1.7170
 4383SOL    HW224612   3.145   4.646  17.033 -1.6383 -5.6318  0.8412
 4384SOL     OW24613   4.687   2.114   2.394  0.4659  0.2055 -0.5836
 4384SOL    HW124614   0.046   2.152   2.386  2.5371 -3.8644  2.8848
 4384SOL    HW224615   4.657   2.149   2.310  1.1871 -0.0323 -0.9350
 4385SOL     OW24616   2.451   2.496   6.357 -0.0902  0.0280  0.4670
 4385SOL    HW124617   2.453   2.450   6.273  0.2561 -1.2679  1.1859
 4385SOL    HW224618   2.358   2.482   6.377 -0.9863  3.2065 -1.5575
 4386SOL     OW24619   4.383   1.165   7.074  0.4477  0.0629  0.0436
 4386SOL    HW124620   4.302   1.143   7.120  0.3986  0.3891  0.1111
 4386SOL    HW224621   4.442   1.101   7.114 -0.4833 -1.4078 -0.9579
 4387SOL     OW24622   2.155   0.737   6.471 -0.1008  0.6919 -0.2808
 4387SOL    HW124623   2.080   0.733   6.412 -1.0341 -1.5126  1.0858
 4387SOL    HW224624   2.169   0.832   6.467  0.9549  0.4552 -2.1858
 4388SOL     OW24625   2.846   1.749   0.869  0.0608 -0.4004 -0.1142
 4388SOL    HW124626   2.898   1.691   0.812  1.4687 -0.0079  0.7792
 4388SOL    HW224627   2.893   1.758   0.952  1.3132 -1.6804 -0.6802
 4389SOL     OW24628   0.732   1.392   4.379 -0.0264 -0.6172  0.4269
 4389SOL    HW124629   0.667   1.424   4.316 -0.0625  0.0230  0.7954
 4389SOL    HW224630   0.816   1.421   4.344 -0.3216 -0.1685  0.0844
 4390SOL     OW24631   2.520   1.901   4.882  0.1209 -0.4160  0.4143
 4390SOL    HW124632   2.561   1.943   4.957  0.1873 -0.2065  0.2616
 4390SOL    HW224633   2.449   1.850   4.921 -0.6369 -0.3745 -0.8848
 4391SOL     OW24634   3.010   4.363   5.318 -0.6039  0.4599 -0.7126
 4391SOL    HW124635   3.002   4.272   5.348  0.4227  0.7124  0.3523
 4391SOL    HW224636   3.102   4.383   5.338 -0.7565 -0.4319  0.8587
 4392SOL     OW24637   3.122   0.417  15.387  0.8345 -0.0702  0.7639
 4392SOL    HW124638   3.134   0.423  15.292  2.8474 -1.2363  0.9597
 4392SOL    HW224639   3.048   0.474  15.409  0.4197 -0.7426  1.1072
 4393SOL     OW24640   3.420   4.698   3.374  0.6336  0.3758 -0.5531
 4393SOL    HW124641   3.428   4.605   3.355 -0.6046  0.2777 -0.5302
 4393SOL    HW224642   3.417   4.704   3.469  0.8826 -2.2161 -0.3780
 4394SOL     OW24643   4.454   3.266   7.969  0.3915 -0.1810  0.1266
 4394SOL    HW124644   4.465   3.171   7.976  3.1418  0.1068 -0.2342
 4394SOL    HW224645   4.396   3.285   8.043  0.5136  0.5251  0.0425
 4395SOL     OW24646   3.221   2.179   3.052 -0.5182 -0.3306  0.3422
 4395SOL    HW124647   3.138   2.165   3.006  0.9499  0.2279 -2.4950
 4395SOL    HW224648   3.238   2.272   3.039  1.0899 -0.6680  0.1174
 4396SOL     OW24649   1.519   3.687  11.435  0.0125  0.0461  0.2611
 4396SOL    HW124650   1.539   3.594  11.442 -0.8846 -0.1812 -0.0949
 4396SOL    HW224651   1.606   3.716  11.459 -0.2554  2.5894 -1.8236
 4397SOL     OW24652   3.413   3.695   8.032 -0.6408 -0.0487 -0.7528
 4397SOL    HW124653   3.325   3.657   8.031  0.4985 -2.6630 -1.0146
 4397SOL    HW224654   3.398   3.755   8.105 -0.2889 -0.9352  0.0455
 4398SOL     OW24655   1.882   4.265   9.219 -0.4149 -0.0976  0.8197
 4398SOL    HW124656   1.893   4.356   9.191  0.7822 -0.8010 -0.9386
 4398SOL    HW224657   1.952   4.259   9.284 -0.6249  1.0942  1.1581
 4399SOL     OW24658   0.027   0.589   3.950  0.2064  0.0444  0.2991
 4399SOL    HW124659   0.121   0.596   3.935  0.2331  1.1556  0.9743
 4399SOL    HW224660   4.715   0.642   3.881  0.4165 -0.5049 -0.2398
 4400SOL     OW24661   4.704   4.681   7.005 -0.1412  0.7146 -0.5940
 4400SOL    HW124662   0.068   4.696   7.025 -0.0039 -1.5823  0.5476
 4400SOL    HW224663   4.686   4.617   7.074 -0.6650  3.3179  1.6341
 4401SOL     OW24664   3.092   1.023   8.213 -0.2942  0.2421 -0.8649
 4401SOL    HW124665   3.051   0.953   8.264  2.7689  0.2494  1.6201
 4401SOL    HW224666   3.038   1.097   8.242  1.2445  0.4701  1.3932
 4402SOL     OW24667   0.519   1.218   7.617 -0.1119  0.7117 -0.3325
 4402SOL    HW124668   0.538   1.223   7.523 -0.1355  1.2410 -0.3067
 4402SOL    HW224669   0.488   1.303   7.646 -1.0382 -0.3487  1.7637
 4403SOL     OW24670   0.514   4.629   3.266  0.9671  0.0791 -0.4347
 4403SOL    HW124671   0.445   4.637   3.331  0.7269  2.0665 -0.9377
 4403SOL    HW224672   0.464   4.595   3.191  1.6056 -1.1583 -0.2999
 4404SOL     OW24673   0.734   4.277  10.240 -0.1582 -0.5817  0.1288
 4404SOL    HW124674   0.809   4.258  10.183 -1.0234 -0.1323 -1.1534
 4404SOL    HW224675   0.764   4.243  10.324 -0.6150 -2.5693 -0.5002
 4405SOL     OW24676   3.757   0.267  14.844  0.1621  0.6200 -0.6127
 4405SOL    HW124677   3.747   0.334  14.776  1.4658  0.8880 -0.5512
 4405SOL    HW224678   3.790   0.324  14.915  0.6060 -1.3496  0.7543
 4406SOL     OW24679   0.935   2.879   5.599 -0.0634 -0.4247  0.1470
 4406SOL    HW124680   0.938   2.863   5.505 -1.8995  2.1915 -0.3663
 4406SOL    HW224681   0.895   2.966   5.602  2.1320  0.5805 -0.0995
 4407SOL     OW24682   4.041   0.956  12.514 -0.4146  0.3452  0.3444
 4407SOL    HW124683   4.118   1.012  12.524  1.8909 -2.6024 -0.9506
 4407SOL    HW224684   4.031   0.946  12.420  1.3012 -1.0783  0.3272
 4408SOL     OW24685   2.941   1.833   2.093 -0.7307 -0.2044  0.3016
 4408SOL    HW124686   2.917   1.745   2.067  1.9161 -0.9319  0.2738
 4408SOL    HW224687   2.917   1.884   2.016  0.5878  0.5883  0.4100
 4409SOL     OW24688   2.549   1.475   6.240 -0.2461 -0.2786 -0.8139
 4409SOL    HW124689   2.514   1.529   6.169 -0.8606  0.2890 -0.0749
 4409SOL    HW224690   2.565   1.391   6.198 -0.4219  0.0020 -1.4446
 4410SOL     OW24691   3.260   2.885   3.732 -0.1872 -0.2942  0.1534
 4410SOL    HW124692   3.287   2.965   3.778 -1.3048 -1.1543  2.3043
 4410SOL    HW224693   3.189   2.860   3.791 -0.1008 -2.2227 -0.5787
 4411SOL     OW24694   0.739   0.118   8.078  0.1128 -0.1477  0.3302
 4411SOL    HW124695   0.824   0.161   8.080  1.3913 -2.6547 -0.0971
 4411SOL    HW224696   0.760   0.034   8.038 -0.8553 -1.1235  1.8622
 4412SOL     OW24697   3.355   4.229  13.151  0.3484  0.1347  0.6379
 4412SOL    HW124698   3.282   4.284  13.178 -1.2099 -2.6754  2.0866
 4412SOL    HW224699   3.334   4.137  13.164  0.0997  0.1623  0.4289
 4413SOL     OW24700   4.667   0.913   7.983  0.1644 -0.7201  0.1548
 4413SOL    HW124701   4.716   0.948   7.908 -1.1635 -0.2425 -0.4891
 4413SOL    HW224702   4.645   0.830   7.940  6.1103 -2.9117  1.3978
 4414SOL     OW24703   1.159   3.879   2.045  0.1927  0.0536  0.8987
 4414SOL    HW124704   1.157   3.784   2.052  1.1530 -0.1157 -1.2417
 4414SOL    HW224705   1.174   3.886   1.951 -1.0039  0.8500  0.7660
 4415SOL     OW24706   3.625   3.262  10.779 -0.1853 -0.1487  0.5411
 4415SOL    HW124707   3.647   3.320  10.852  0.3259 -0.9125  0.9878
 4415SOL    HW224708   3.569   3.317  10.723  3.5878  2.2806 -0.8886
 4416SOL     OW24709   2.627   1.021   5.895 -0.5304 -0.2095  0.4907
 4416SOL    HW124710   2.558   1.029   5.829 -0.2289  1.6254  0.4005
 4416SOL    HW224711   2.686   1.092   5.870  1.5390 -1.1313  2.7509
 4417SOL     OW24712   0.368   3.601   4.576 -0.3243 -0.5051  0.6454
 4417SOL    HW124713   0.304   3.548   4.529  1.1233 -0.7351 -1.0493
 4417SOL    HW224714   0.336   3.595   4.666  1.4937 -1.0776  1.2492
 4418SOL     OW24715   3.954   1.205   4.246 -0.0137 -0.4695 -0.2137
 4418SOL    HW124716   4.033   1.228   4.197 -1.4910 -1.5042 -3.1029
 4418SOL    HW224717   3.988   1.192   4.334 -2.3221 -0.4045  0.6967
 4419SOL     OW24718   0.798   3.133  16.981 -0.4777  0.2438 -0.0518
 4419SOL    HW124719   0.800   3.177  17.066  0.2958  1.1920 -0.5719
 4419SOL    HW224720   0.710   3.157  16.953  0.5756  0.3710 -3.2244
 4420SOL     OW24721   4.547   2.718   8.457  0.7181 -0.3066  0.4133
 4420SOL    HW124722   4.462   2.704   8.415  1.1632  0.7420 -0.8287
 4420SOL    HW224723   4.517   2.774   8.529  0.5448 -0.5841  0.5567
 4421SOL     OW24724   2.579   2.391   5.909  0.6783 -0.5714  0.4241
 4421SOL    HW124725   2.605   2.399   6.000  3.1265  1.1875 -0.4159
 4421SOL    HW224726   2.648   2.333   5.876 -0.2934 -1.6036  0.2402
 4422SOL     OW24727   0.008   1.798   6.658 -0.0690  0.4975  0.3023
 4422SOL    HW124728   4.717   1.707   6.634 -1.5648  0.7829  0.3852
 4422SOL    HW224729   4.708   1.783   6.748 -0.6458  0.4658  0.1210
 4423SOL     OW24730   0.285   3.287   6.144  0.5176 -0.3599 -0.2729
 4423SOL    HW124731   0.308   3.380   6.142  0.3637 -0.2850  1.7088
 4423SOL    HW224732   0.292   3.262   6.052 -1.3917 -0.1590 -0.4659
 4424SOL     OW24733   3.731   3.084   6.901 -0.1346  0.4179  0.4511
 4424SOL    HW124734   3.788   3.060   6.974  1.8402 -0.7832 -1.4847
 4424SOL    HW224735   3.689   3.166   6.928 -3.6653 -0.6183 -1.8230
 4425SOL     OW24736   1.962   3.187   8.337 -0.2106 -0.1572 -0.0309
 4425SOL    HW124737   2.038   3.177   8.280 -1.4605 -0.4360 -1.6493
 4425SOL    HW224738   2.015   3.163   8.413 -1.1871 -2.1414  0.0105
 4426SOL     OW24739   1.461   0.934   5.044 -0.0547  0.2567  0.2891
 4426SOL    HW124740   1.366   0.929   5.034 -0.0855 -0.0359  0.6947
 4426SOL    HW224741   1.485   0.966   4.957  0.4582  3.0478  1.4585
 4427SOL     OW24742   2.859   4.095  15.143  0.0586 -0.2374  0.3326
 4427SOL    HW124743   2.818   4.181  15.138 -4.6225 -2.6406 -2.3766
 4427SOL    HW224744   2.951   4.119  15.155  0.8189 -1.7943 -2.3124
 4428SOL     OW24745   4.310   1.484   3.466 -0.3446  0.2370 -0.4647
 4428SOL    HW124746   4.383   1.445   3.514  0.5583  0.7231 -1.4552
 4428SOL    HW224747   4.253   1.407   3.457 -0.5999  0.2900  0.7167
 4429SOL     OW24748   2.830   2.809   7.758  0.3034 -0.6043  0.4501
 4429SOL    HW124749   2.854   2.847   7.842  1.3822  1.4314 -0.7835
 4429SOL    HW224750   2.816   2.717   7.782  0.0794 -0.6758  0.0548
 4430SOL     OW24751   1.559   0.689   4.166 -0.0303  0.5056  0.5189
 4430SOL    HW124752   1.593   0.643   4.243  1.7200  0.5276 -0.2419
 4430SOL    HW224753   1.643   0.706   4.123 -0.7452  1.8544 -0.3557
 4431SOL     OW24754   4.114   3.582   8.592  0.2073  0.2983  0.3383
 4431SOL    HW124755   4.065   3.621   8.519  0.4571 -0.0650 -0.0195
 4431SOL    HW224756   4.087   3.622   8.674 -2.4888 -3.5393  1.3254
 4432SOL     OW24757   3.104   0.052   4.000  0.0369  0.0376 -0.1036
 4432SOL    HW124758   3.107   0.138   3.958 -1.5281  0.2023  0.1296
 4432SOL    HW224759   3.025   0.062   4.052  0.5608 -0.9204  0.8841
 4433SOL     OW24760   1.437   0.898  11.030 -0.2747  0.2696 -0.0552
 4433SOL    HW124761   1.499   0.963  10.995  1.0546 -1.6062 -1.1595
 4433SOL    HW224762   1.377   0.955  11.079  1.4044  0.9160  1.2538
 4434SOL     OW24763   0.132   2.643   1.821  0.4841 -0.4239 -0.0787
 4434SOL    HW124764   0.152   2.552   1.842  0.8905 -0.2126  0.4645
 4434SOL    HW224765   0.048   2.636   1.775  0.3762  1.6159 -0.1782
 4435SOL     OW24766   2.991   3.592   6.392 -0.4830  0.3629  0.3886
 4435SOL    HW124767   2.985   3.683   6.360  0.0387 -0.5497 -2.3173
 4435SOL    HW224768   3.076   3.576   6.352 -0.9997 -0.9790 -0.1781
 4436SOL     OW24769   3.505   4.468  11.983 -0.1760  0.2385 -0.2555
 4436SOL    HW124770   3.587   4.425  12.010  0.8253  1.0512 -2.0241
 4436SOL    HW224771   3.460   4.465  12.067  0.8853 -0.8151  0.2770
 4437SOL     OW24772   1.557   3.944   4.494 -0.2242 -0.0616 -0.0743
 4437SOL    HW124773   1.589   4.031   4.470 -1.7080  0.2123 -1.0833
 4437SOL    HW224774   1.634   3.892   4.472  0.3153  1.0912 -0.9300
 4438SOL     OW24775   0.322   3.175   4.719 -0.2932 -0.3071 -0.0415
 4438SOL    HW124776   0.392   3.241   4.719 -0.8359  0.2565  0.8150
 4438SOL    HW224777   0.380   3.099   4.720 -0.8062 -0.7133 -0.8118
 4439SOL     OW24778   4.255   1.727   3.572  0.3547 -0.0284 -0.2371
 4439SOL    HW124779   4.172   1.746   3.527 -0.8386  1.2662  2.5062
 4439SOL    HW224780   4.281   1.648   3.524  1.9880  0.2110  0.2824
 4440SOL     OW24781   2.612   1.081   4.328 -0.4949  0.1257 -0.4863
 4440SOL    HW124782   2.681   1.084   4.262  2.9358 -2.4881  3.0346
 4440SOL    HW224783   2.535   1.080   4.270  1.2674 -0.3386 -2.8104
 4441SOL     OW24784   2.701   4.708   6.493  0.0766  0.8294  0.6130
 4441SOL    HW124785   2.646   0.001   6.417 -1.3487 -1.4015  1.0003
 4441SOL    HW224786   2.773   0.042   6.480  0.5917 -0.1036 -1.0277
 4442SOL     OW24787   0.274   1.622   3.351 -0.5313  0.2696 -0.3756
 4442SOL    HW124788   0.242   1.711   3.339 -0.2608  0.4631  0.3250
 4442SOL    HW224789   0.196   1.581   3.389 -0.0371  1.1876  1.6309
 4443SOL     OW24790   1.864   3.807  12.439 -0.1473  0.2112 -0.4226
 4443SOL    HW124791   1.956   3.801  12.466  0.0830 -0.1461 -1.2639
 4443SOL    HW224792   1.824   3.725  12.469 -0.8553  0.7893  0.1918
 4444SOL     OW24793   4.032   2.820   1.641 -0.5468  0.4468  0.1343
 4444SOL    HW124794   4.087   2.743   1.656 -2.1400 -1.4496 -3.4771
 4444SOL    HW224795   4.015   2.808   1.547 -0.0355 -2.7643  0.4508
 4445SOL     OW24796   2.566   2.068  14.767  0.7397 -0.5077 -0.3926
 4445SOL    HW124797   2.643   2.054  14.822  0.5695  0.0958  0.0105
 4445SOL    HW224798   2.600   2.067  14.678  0.9475  0.4991 -0.3311
 4446SOL     OW24799   3.877   2.201   4.150 -0.1596  0.4314 -0.5055
 4446SOL    HW124800   3.924   2.118   4.153  0.2538  0.6753 -0.2054
 4446SOL    HW224801   3.790   2.165   4.129 -0.1832  0.2401 -0.0928
 4447SOL     OW24802   1.928   0.962   5.823  0.4078  0.3727 -0.6980
 4447SOL    HW124803   1.998   0.898   5.805 -0.5021 -1.1875  1.2930
 4447SOL    HW224804   1.965   1.003   5.902 -1.3482  2.7472 -1.1236
 4448SOL     OW24805   4.623   0.525   7.187  0.5129 -0.3542  0.3378
 4448SOL    HW124806   4.612   0.478   7.104 -3.2603 -0.5709  0.9756
 4448SOL    HW224807   4.679   0.471   7.242  0.2861 -0.3144  0.6019
 4449SOL     OW24808   4.160   0.662  16.543 -0.2140 -0.0326  0.0274
 4449SOL    HW124809   4.220   0.591  16.568 -0.8674 -0.0792  1.5021
 4449SOL    HW224810   4.166   0.712  16.625 -2.4055 -1.1451  0.8801
 4450SOL     OW24811   3.434   1.012  15.205 -0.3414 -0.2665 -0.8966
 4450SOL    HW124812   3.377   0.938  15.183  0.0646 -0.3922 -1.5009
 4450SOL    HW224813   3.453   0.995  15.298  1.7369 -0.6718 -1.4037
 4451SOL     OW24814   1.964   3.171   3.796  0.1642 -0.0523 -0.3727
 4451SOL    HW124815   2.024   3.141   3.728 -1.0249 -0.8634 -1.0498
 4451SOL    HW224816   1.881   3.174   3.748  0.0612 -2.9100 -0.3699
 4452SOL     OW24817   3.242   1.776  15.688  0.1734  0.1611  0.1006
 4452SOL    HW124818   3.169   1.750  15.632  0.9461 -2.7909  0.4533
 4452SOL    HW224819   3.224   1.868  15.707  0.1932 -0.5149  3.4991
 4453SOL     OW24820   2.298   3.668   0.386  0.0333 -0.1047 -0.0209
 4453SOL    HW124821   2.264   3.583   0.414 -3.2276  0.6175 -1.7675
 4453SOL    HW224822   2.365   3.691   0.449 -1.1205  2.5410  0.2616
 4454SOL     OW24823   1.423   4.465  15.946  0.1531  0.0639  0.1109
 4454SOL    HW124824   1.392   4.466  15.856 -0.2281 -0.8284  0.2300
 4454SOL    HW224825   1.351   4.411  15.979 -0.2070  1.9754  2.5124
 4455SOL     OW24826   2.857   1.425   8.525  0.1822  0.5200  0.2559
 4455SOL    HW124827   2.789   1.465   8.580  0.9286  0.1420  1.4667
 4455SOL    HW224828   2.838   1.466   8.441 -0.8047  1.4735  0.9394
 4456SOL     OW24829   1.239   2.495  12.617 -0.0903 -0.5915 -0.6684
 4456SOL    HW124830   1.212   2.445  12.693 -2.2361 -0.2195 -1.1681
 4456SOL    HW224831   1.201   2.578  12.647 -0.7279 -1.5814  1.2227
 4457SOL     OW24832   3.638   4.376   6.905 -0.6191  0.5823 -0.2073
 4457SOL    HW124833   3.602   4.331   6.828  1.7375  0.9514 -1.5629
 4457SOL    HW224834   3.658   4.294   6.951  0.0921  0.2558 -1.0755
 4458SOL     OW24835   0.041   0.366  15.505 -0.5108  0.2532  0.3069
 4458SOL    HW124836   0.103   0.294  15.493 -0.2951  0.7360 -1.5871
 4458SOL    HW224837   0.075   0.406  15.585  0.7466 -1.9136  0.8455
 4459SOL     OW24838   3.089   4.459   2.578 -0.0745  0.1717  0.4617
 4459SOL    HW124839   3.155   4.411   2.528  0.6085  0.6855  0.8604
 4459SOL    HW224840   3.108   4.413   2.660 -0.8341  1.1169  1.1681
 4460SOL     OW24841   4.287   3.465  15.277  0.6233 -0.0309 -0.5042
 4460SOL    HW124842   4.231   3.458  15.199  1.5364 -1.3361 -1.0411
 4460SOL    HW224843   4.351   3.395  15.263  0.7041 -0.2438  0.9589
 4461SOL     OW24844   3.342   3.949   4.255 -0.1596 -0.3329  0.0348
 4461SOL    HW124845   3.369   3.935   4.164 -2.1537 -1.2513 -0.4124
 4461SOL    HW224846   3.411   4.011   4.279 -1.0662  0.8374 -0.3840
 4462SOL     OW24847   1.324   0.695  13.563  0.3650  0.2759  0.8412
 4462SOL    HW124848   1.378   0.650  13.627  3.7137  1.0314 -1.4589
 4462SOL    HW224849   1.342   0.784  13.592 -1.1481  1.2807 -1.2473
 4463SOL     OW24850   2.555   2.382  10.242  0.2937  0.1897 -0.4591
 4463SOL    HW124851   2.622   2.333  10.194 -0.4687  0.6247 -1.9426
 4463SOL    HW224852   2.478   2.325  10.236 -0.4046  1.1211 -0.1523
 4464SOL     OW24853   0.635   3.667  16.397 -0.2340  0.4039  0.1278
 4464SOL    HW124854   0.549   3.687  16.433 -0.7881  2.2022 -2.2236
 4464SOL    HW224855   0.648   3.744  16.341  2.6665  0.1979  0.4782
 4465SOL     OW24856   3.970   0.639   0.668  0.4619 -0.1128 -0.1203
 4465SOL    HW124857   3.980   0.723   0.623  0.4821 -1.0379 -1.8537
 4465SOL    HW224858   4.041   0.637   0.732  0.1540 -1.1708  0.1977
 4466SOL     OW24859   4.440   3.860   7.655 -0.6034  0.2964 -0.1012
 4466SOL    HW124860   4.516   3.861   7.597 -0.0554 -0.5888  0.6008
 4466SOL    HW224861   4.476   3.922   7.719 -0.7446  1.3827 -1.0849
 4467SOL     OW24862   4.460   1.569   5.612  0.2373 -0.3370  0.1953
 4467SOL    HW124863   4.507   1.534   5.687 -2.3482  1.4424  2.6373
 4467SOL    HW224864   4.367   1.569   5.635  0.0299  1.9695 -0.7083
 4468SOL     OW24865   2.734   2.636   4.583  0.1445  0.2623  0.2293
 4468SOL    HW124866   2.799   2.656   4.650 -1.5904  1.3685  1.5793
 4468SOL    HW224867   2.677   2.713   4.593  0.9223  0.8232  0.3083
 4469SOL     OW24868   3.505   0.421   7.717 -0.1508 -0.0411 -0.1797
 4469SOL    HW124869   3.484   0.346   7.661  2.4158  0.2480 -1.5095
 4469SOL    HW224870   3.414   0.449   7.731 -0.3837 -1.0095  0.2509
 4470SOL     OW24871   2.745   4.183   2.934  0.1668  0.4149  0.0302
 4470SOL    HW124872   2.772   4.166   2.843 -0.4022  0.4031 -0.1404
 4470SOL    HW224873   2.820   4.155   2.986  0.1051  2.6653  1.3532
 4471SOL     OW24874   0.399   4.690  10.866  0.0566 -0.2952 -0.0387
 4471SOL    HW124875   0.401   0.056  10.883 -1.3580  0.2298 -2.8072
 4471SOL    HW224876   0.371   4.692  10.775  0.3330 -0.7080 -0.1332
 4472SOL     OW24877   2.916   1.689   7.319  0.1418  0.0162 -0.4499
 4472SOL    HW124878   2.841   1.723   7.269  0.6697  1.2568 -0.3899
 4472SOL    HW224879   2.893   1.597   7.309 -0.7274  0.2930 -1.0472
 4473SOL     OW24880   3.498   0.480  16.045 -0.4133  0.0382 -0.5109
 4473SOL    HW124881   3.460   0.490  16.132  1.4323  2.9272 -0.0251
 4473SOL    HW224882   3.431   0.449  15.984 -2.3034  0.2681  1.4376
 4474SOL     OW24883   4.693   2.122   6.846  0.7839 -0.2815  0.3904
 4474SOL    HW124884   0.027   2.191   6.824 -0.1600  0.0768 -1.1232
 4474SOL    HW224885   0.024   2.063   6.893  0.1499 -1.8685 -0.7813
 4475SOL     OW24886   4.706   3.211   3.551  0.0104 -0.0743  0.2983
 4475SOL    HW124887   4.725   3.217   3.457  0.3495 -3.3037  0.1665
 4475SOL    HW224888   0.020   3.288   3.589 -0.2022 -0.6623  1.7226
 4476SOL     OW24889   3.440   4.388   3.792  0.0625  0.2092 -0.4940
 4476SOL    HW124890   3.444   4.395   3.887 -0.7829 -2.3956 -0.2497
 4476SOL    HW224891   3.363   4.332   3.788 -0.1195  0.4057  0.3667
 4477SOL     OW24892   0.800   2.925   1.071 -0.1179 -0.2069 -0.0897
 4477SOL    HW124893   0.802   2.973   1.154  2.0069  1.7281 -1.2598
 4477SOL    HW224894   0.710   2.917   1.038 -0.2134  2.0172 -0.3488
 4478SOL     OW24895   0.538   2.393   9.190  0.3755 -0.5588 -0.3464
 4478SOL    HW124896   0.600   2.462   9.213 -0.1550  0.2731 -1.3594
 4478SOL    HW224897   0.551   2.333   9.263 -1.6127 -0.4701  0.0909
 4479SOL     OW24898   4.703   2.511   3.094  0.4181 -0.2275  0.9295
 4479SOL    HW124899   4.672   2.582   3.038  1.4629 -0.8581 -0.4476
 4479SOL    HW224900   0.051   2.550   3.137  0.0334 -1.8151  3.0560
 4480SOL     OW24901   2.006   4.560   6.155  0.1710 -0.5279  0.1505
 4480SOL    HW124902   1.960   4.480   6.130 -2.5655  0.6896  1.2416
 4480SOL    HW224903   2.043   4.576   6.068 -0.6416 -1.1374 -0.3071
 4481SOL     OW24904   3.417   2.121   0.331 -0.9928 -0.0235 -0.8015
 4481SOL    HW124905   3.373   2.205   0.320 -0.0243  0.8870  2.4591
 4481SOL    HW224906   3.438   2.105   0.239 -2.6646 -0.6497 -1.0890
 4482SOL     OW24907   2.674   0.856   2.783  0.1424  0.0744 -0.0633
 4482SOL    HW124908   2.721   0.935   2.812 -1.6794  1.3805 -0.6415
 4482SOL    HW224909   2.678   0.853   2.688  1.0332  2.0381 -0.0949
 4483SOL     OW24910   1.612   1.935   2.511 -0.1091 -0.1207 -0.0965
 4483SOL    HW124911   1.521   1.951   2.486  0.1709  1.0946 -0.3322
 4483SOL    HW224912   1.614   1.892   2.596  0.1296  2.0066  0.9531
 4484SOL     OW24913   4.485   0.348  15.403  0.6772  0.2240 -0.3688
 4484SOL    HW124914   4.515   0.269  15.357  1.8604 -0.8739  2.3075
 4484SOL    HW224915   4.549   0.349  15.474 -0.2407 -1.5354  0.4869
 4485SOL     OW24916   1.080   2.590  15.865 -0.2524 -0.1827  0.1980
 4485SOL    HW124917   1.171   2.619  15.872 -0.7771  1.3054  0.6700
 4485SOL    HW224918   1.043   2.650  15.930  0.8554 -0.2671  0.9014
 4486SOL     OW24919   0.263   0.244   6.553 -0.4405  0.3707  0.3921
 4486SOL    HW124920   0.194   0.180   6.564  0.1053 -0.4002 -0.6024
 4486SOL    HW224921   0.312   0.240   6.635 -1.5728  0.7872  1.0841
 4487SOL     OW24922   0.499   1.790   0.968  0.3513 -0.1925  0.3107
 4487SOL    HW124923   0.428   1.854   0.962  1.5469  0.9356 -1.9362
 4487SOL    HW224924   0.441   1.715   0.977 -0.4948  0.6093  1.5782
 4488SOL     OW24925   3.143   2.109   1.919 -0.0363  0.0002  0.1489
 4488SOL    HW124926   3.072   2.100   1.855  0.0848 -0.8222  0.1267
 4488SOL    HW224927   3.222   2.098   1.866  0.2381  0.0366  0.5481
 4489SOL     OW24928   0.428   0.628   0.492  0.0995 -0.3557  0.0288
 4489SOL    HW124929   0.371   0.604   0.419 -0.8074  1.6736  0.0899
 4489SOL    HW224930   0.507   0.582   0.464 -0.3542 -1.1668  0.0792
 4490SOL     OW24931   0.177   1.466   4.732  0.4375  0.7276  0.1459
 4490SOL    HW124932   0.142   1.385   4.768  1.0949 -0.1262 -1.1397
 4490SOL    HW224933   0.112   1.498   4.670  0.5201  0.7251  0.0591
 4491SOL     OW24934   1.925   4.296   6.118  0.0516 -0.0646  0.4647
 4491SOL    HW124935   1.969   4.255   6.193 -2.3729  0.9314  2.4595
 4491SOL    HW224936   1.843   4.313   6.166  0.8137  2.5561  0.8746
 4492SOL     OW24937   2.248   2.625   7.286 -0.1155  0.0031  0.2253
 4492SOL    HW124938   2.203   2.573   7.352  0.9954 -0.4777  0.6047
 4492SOL    HW224939   2.316   2.671   7.335 -0.1480  1.9297 -1.5001
 4493SOL     OW24940   2.714   0.976  16.312  0.2274  0.4793  0.1609
 4493SOL    HW124941   2.696   1.045  16.376  1.4632  0.0429  0.9912
 4493SOL    HW224942   2.648   0.984  16.243  1.8800  0.2583 -1.4514
 4494SOL     OW24943   4.696   2.464   8.434  0.5009 -0.0089 -0.5148
 4494SOL    HW124944   4.627   2.502   8.489  0.7606 -1.7668  0.9995
 4494SOL    HW224945   4.703   2.539   8.374  2.2590  0.2690  0.0313
 4495SOL     OW24946   0.059   2.963  11.880 -0.0597  0.2036  0.8426
 4495SOL    HW124947   0.099   2.932  11.962 -0.8595 -0.0916  1.1198
 4495SOL    HW224948   4.694   2.943  11.888  0.6384 -3.0668  0.8909
 4496SOL     OW24949   1.581   1.759  13.176  0.4376 -0.0246 -0.1675
 4496SOL    HW124950   1.574   1.728  13.086  0.2588  0.8032 -0.4341
 4496SOL    HW224951   1.572   1.676  13.222  2.4196  0.5914  1.3526
 4497SOL     OW24952   4.036   4.243   4.764  0.2809  0.0717  0.2315
 4497SOL    HW124953   3.968   4.301   4.798  1.9864  2.8383 -0.9884
 4497SOL    HW224954   3.992   4.199   4.691  0.6874 -0.1169  0.1021
 4498SOL     OW24955   2.999   2.800  17.429 -0.1384  0.0225  0.0448
 4498SOL    HW124956   3.045   2.799  17.513  0.1879 -3.3322 -0.1621
 4498SOL    HW224957   2.995   2.705  17.418  0.9729 -0.1708  1.2820
 4499SOL     OW24958   2.322   4.657  15.751 -0.3693 -0.0273  0.5011
 4499SOL    HW124959   2.260   4.662  15.824 -2.4220  0.8280 -1.2978
 4499SOL    HW224960   2.268   4.597  15.699 -2.2807  1.4193  0.8052
 4500SOL     OW24961   1.937   2.132   2.649  0.5340  0.2967  0.5916
 4500SOL    HW124962   1.915   2.182   2.727 -1.4450 -0.8332  0.7587
 4500SOL    HW224963   2.026   2.160   2.631  0.9408 -0.7063  1.0291
 4501SOL     OW24964   4.626   0.410   5.766 -0.0386  0.1149  0.3096
 4501SOL    HW124965   4.580   0.487   5.802  1.4950  0.6205  1.1552
 4501SOL    HW224966   4.583   0.337   5.809 -1.2319  0.0841 -0.9279
 4502SOL     OW24967   3.605   0.358   6.791  0.1779  0.1517 -0.3112
 4502SOL    HW124968   3.562   0.443   6.784  0.3340  0.0601 -2.2373
 4502SOL    HW224969   3.620   0.358   6.886  2.1696 -0.5935 -0.6382
 4503SOL     OW24970   3.591   0.771  15.505 -0.3757  0.0774  0.6351
 4503SOL    HW124971   3.519   0.832  15.490  0.3292  0.9877  0.9101
 4503SOL    HW224972   3.618   0.767  15.413 -1.9617  0.6570  0.1342
 4504SOL     OW24973   1.954   1.948   7.628  0.1184  0.1332 -1.0335
 4504SOL    HW124974   2.003   2.020   7.589  1.4547 -0.3650 -0.2728
 4504SOL    HW224975   1.887   1.918   7.566 -1.7614  1.6583  0.3169
 4505SOL     OW24976   2.233   3.286   8.650 -0.0696  0.0050  0.1423
 4505SOL    HW124977   2.195   3.212   8.602  1.4108 -0.7421  0.1185
 4505SOL    HW224978   2.171   3.295   8.722 -1.0428 -1.3134 -0.5158
 4506SOL     OW24979   4.460   3.265  15.248  0.0970 -0.3173  0.0931
 4506SOL    HW124980   4.464   3.179  15.208  0.0162 -0.3490  0.1538
 4506SOL    HW224981   4.537   3.305  15.207  0.3093 -2.0058 -1.1203
 4507SOL     OW24982   1.577   0.520   2.587 -0.1229  0.6683 -0.4580
 4507SOL    HW124983   1.494   0.554   2.553 -1.4074 -0.5137  1.4237
 4507SOL    HW224984   1.541   0.454   2.647  1.7018 -1.1549 -1.3631
 4508SOL     OW24985   4.485   4.602   7.788  0.2065  0.0552 -0.6620
 4508SOL    HW124986   4.462   4.674   7.847 -0.6032 -1.0476  0.3614
 4508SOL    HW224987   4.581   4.598   7.792  0.1577 -1.0460 -0.7018
 4509SOL     OW24988   3.921   0.192  10.226 -0.0710  0.1367 -0.3723
 4509SOL    HW124989   3.998   0.217  10.175  1.0130  1.6827  2.0735
 4509SOL    HW224990   3.854   0.151  10.171  0.9133  0.5442 -1.8818
 4510SOL     OW24991   1.610   3.445   6.057  0.0885 -0.0091 -0.9449
 4510SOL    HW124992   1.679   3.398   6.010  0.8139  0.4987 -0.3727
 4510SOL    HW224993   1.667   3.487   6.122 -0.2388 -0.2237 -0.5201
 4511SOL     OW24994   0.250   4.216   7.296 -0.0243 -0.3056  0.0004
 4511SOL    HW124995   0.292   4.172   7.370  2.6449 -0.8850 -1.8555
 4511SOL    HW224996   0.173   4.254   7.339  2.4109  3.9862  0.4957
 4512SOL     OW24997   1.496   0.246   7.926  0.5118 -0.1227  0.1759
 4512SOL    HW124998   1.568   0.264   7.986  1.5318 -1.3066 -0.6994
 4512SOL    HW224999   1.538   0.237   7.840 -0.7361  3.6982 -0.8461
 4513SOL     OW25000   4.499   3.503  11.171 -0.4986  0.0554 -0.2058
 4513SOL    HW125001   4.581   3.494  11.123 -0.7539  0.6229 -0.7389
 4513SOL    HW225002   4.529   3.550  11.249  1.2326  2.2825 -2.2456
 4514SOL     OW25003   4.612   0.444  10.754  0.5123  0.8836  0.2291
 4514SOL    HW125004   4.570   0.530  10.762  0.5773  0.8656  0.7645
 4514SOL    HW225005   4.693   0.456  10.803 -0.0235  2.5067  0.7255
 4515SOL     OW25006   2.011   1.762   5.871  0.0904  0.4596  0.4871
 4515SOL    HW125007   2.025   1.825   5.942  1.0479  0.2274  0.5022
 4515SOL    HW225008   2.059   1.690   5.911  1.5175  1.8708  1.3366
 4516SOL     OW25009   2.356   0.900   2.502 -0.3107  0.0522 -0.4398
 4516SOL    HW125010   2.379   0.817   2.544  0.5913  0.1344 -0.7765
 4516SOL    HW225011   2.293   0.940   2.562  0.7705  0.9265  0.0860
 4517SOL     OW25012   1.353   0.765   4.781  0.1431  0.6368 -0.2396
 4517SOL    HW125013   1.284   0.809   4.832  1.4220  1.9055  0.3952
 4517SOL    HW225014   1.333   0.671   4.784  0.7320  0.4786 -1.2174
 4518SOL     OW25015   3.408   0.843  11.247 -0.3353  0.1023 -0.2550
 4518SOL    HW125016   3.323   0.854  11.289 -0.4747 -1.4815 -0.1582
 4518SOL    HW225017   3.423   0.751  11.269  0.5737  0.5852  1.1864
 4519SOL     OW25018   2.753   4.116  13.580 -0.7245 -0.3935  0.1998
 4519SOL    HW125019   2.774   4.147  13.492 -1.9407 -0.3758 -0.0860
 4519SOL    HW225020   2.825   4.158  13.627 -1.3159  1.7399 -0.8275
 4520SOL     OW25021   0.093   3.580   5.151  0.2105  0.2351  0.1383
 4520SOL    HW125022   0.024   3.597   5.087  0.1917  2.6128  0.7726
 4520SOL    HW225023   0.104   3.489   5.124  0.0636  0.5924 -1.1169
 4521SOL     OW25024   3.277   3.404   0.091 -0.4807  0.2614 -0.3533
 4521SOL    HW125025   3.345   3.453   0.045  0.8445 -1.3575 -0.1271
 4521SOL    HW225026   3.201   3.448   0.053 -0.7240 -0.9658 -1.2814
 4522SOL     OW25027   2.595   3.097   8.096 -0.1776 -0.3005 -0.2605
 4522SOL    HW125028   2.551   3.180   8.114  1.8147  0.6782  0.0586
 4522SOL    HW225029   2.536   3.033   8.137 -0.9594  0.1246 -0.7485
 4523SOL     OW25030   1.124   3.484   1.719 -0.3599  0.2540 -0.0583
 4523SOL    HW125031   1.216   3.456   1.710  0.3770  2.5249  0.4614
 4523SOL    HW225032   1.091   3.465   1.631  1.9492 -1.1437 -0.6357
 4524SOL     OW25033   2.006   3.874  10.146 -0.4761  0.2184 -0.1690
 4524SOL    HW125034   2.019   3.894  10.239 -1.7575 -0.3332  0.1254
 4524SOL    HW225035   1.958   3.954  10.124 -2.2690 -0.6390  0.6270
 4525SOL     OW25036   2.409   1.641   2.680  0.8276  0.0922 -0.3730
 4525SOL    HW125037   2.373   1.560   2.715 -3.1168  0.9191 -2.5594
 4525SOL    HW225038   2.332   1.676   2.635 -0.8069  0.1991  2.4947
 4526SOL     OW25039   3.854   0.382  14.144 -0.1370  0.2082  0.0824
 4526SOL    HW125040   3.859   0.336  14.060 -0.0720  0.3612  0.0029
 4526SOL    HW225041   3.937   0.378  14.191  1.1055 -1.7273 -2.3076
 4527SOL     OW25042   0.323   4.587   2.979 -0.0537  0.1368  0.4361
 4527SOL    HW125043   0.406   4.541   2.968  0.7755  1.9049 -0.5727
 4527SOL    HW225044   0.306   4.616   2.890  0.0476  1.3732  0.8307
 4528SOL     OW25045   0.772   0.944   6.959 -0.1701 -0.5138  0.1026
 4528SOL    HW125046   0.864   0.924   6.943  0.3136  0.5661  1.5351
 4528SOL    HW225047   0.734   0.903   6.882 -0.4973 -1.7768  0.9335
 4529SOL     OW25048   3.222   0.180   8.044  0.2885 -0.2226 -0.2975
 4529SOL    HW125049   3.198   0.089   8.030 -0.9060  0.5095 -2.9930
 4529SOL    HW225050   3.313   0.181   8.016  0.6938 -0.6286  1.0129
 4530SOL     OW25051   0.396   1.266   4.938  0.4515 -0.2913  0.0638
 4530SOL    HW125052   0.446   1.339   4.974 -0.6150  0.3193  0.3108
 4530SOL    HW225053   0.311   1.278   4.980  0.4845 -2.5522  0.7896
 4531SOL     OW25054   3.964   2.023   1.557  0.7966  0.0178  0.4425
 4531SOL    HW125055   4.020   2.100   1.554  0.3371  0.2870 -1.9336
 4531SOL    HW225056   3.991   1.961   1.489 -2.1816 -0.4058 -0.3821
 4532SOL     OW25057   3.563   2.948   2.668  0.5376 -0.1687  0.1123
 4532SOL    HW125058   3.620   3.023   2.684  0.5289 -0.4538  1.4288
 4532SOL    HW225059   3.601   2.887   2.731 -0.3685 -1.6667 -0.7828
 4533SOL     OW25060   1.720   4.071   8.266 -0.4567  0.2033 -0.1072
 4533SOL    HW125061   1.673   4.151   8.287  1.4296  1.4448 -0.6125
 4533SOL    HW225062   1.699   4.011   8.337 -2.0437 -0.2342 -0.9336
 4534SOL     OW25063   2.821   4.537  15.753 -0.2278  0.2643  0.1920
 4534SOL    HW125064   2.848   4.564  15.841 -3.9821  3.0326  0.4562
 4534SOL    HW225065   2.744   4.592  15.744  0.0883  0.6531 -0.1391
 4535SOL     OW25066   3.061   0.927  17.309 -0.2277  0.1740 -0.3709
 4535SOL    HW125067   2.980   0.927  17.258 -0.9239 -2.4131  0.7786
 4535SOL    HW225068   3.025   0.954  17.394 -0.8072  2.1488 -1.2381
 4536SOL     OW25069   2.274   4.265  16.910  0.1492 -0.5430  0.7118
 4536SOL    HW125070   2.224   4.250  16.990 -0.6663  0.7450  0.4482
 4536SOL    HW225071   2.346   4.209  16.938 -0.6342 -1.6246  0.5381
 4537SOL     OW25072   2.146   0.396   7.840 -0.1297 -0.9817  0.0584
 4537SOL    HW125073   2.065   0.347   7.855 -1.4874  0.8793 -1.2394
 4537SOL    HW225074   2.132   0.423   7.749 -2.2246 -0.8924  0.4268
 4538SOL     OW25075   3.008   0.204   2.664  0.2083 -0.4818 -0.3759
 4538SOL    HW125076   2.970   0.197   2.576 -4.3429  1.3806  1.4365
 4538SOL    HW225077   3.028   0.116   2.696  0.2926 -0.4283 -0.2840
 4539SOL     OW25078   0.054   1.272   3.256 -0.2483  0.2413 -0.2019
 4539SOL    HW125079   0.016   1.219   3.187 -1.3708 -1.7982  1.9918
 4539SOL    HW225080   0.032   1.362   3.231  4.0414  0.8346 -1.8353
 4540SOL     OW25081   1.668   0.044   1.663  0.5108  0.5523  0.3282
 4540SOL    HW125082   1.618   0.079   1.737 -1.5589 -0.9503 -0.3668
 4540SOL    HW225083   1.604   0.069   1.597  0.5935 -0.0495  0.0256
 4541SOL     OW25084   3.198   4.363   7.749  0.2570  0.6006  0.0910
 4541SOL    HW125085   3.192   4.367   7.654  0.6818 -2.1111 -0.0395
 4541SOL    HW225086   3.267   4.303   7.777 -0.0560  0.5357  0.7238
 4542SOL     OW25087   3.198   0.613   0.951 -0.1455 -0.2288  0.1483
 4542SOL    HW125088   3.180   0.692   0.900 -0.0252  0.2324  0.8255
 4542SOL    HW225089   3.245   0.560   0.887 -2.9153 -2.3411 -0.1406
 4543SOL     OW25090   3.141   1.546  13.486 -0.2121  0.0681 -0.2214
 4543SOL    HW125091   3.193   1.596  13.424 -1.5029 -1.7058 -2.7395
 4543SOL    HW225092   3.065   1.605  13.491 -0.0759  0.3318 -1.2706
 4544SOL     OW25093   3.200   0.772  16.874  0.0889 -0.8186 -0.3424
 4544SOL    HW125094   3.214   0.807  16.786  1.2531  1.4566  0.7211
 4544SOL    HW225095   3.288   0.745  16.901  0.3384  1.8704  1.5364
 4545SOL     OW25096   1.310   2.717   1.910 -0.0230  0.0606  0.5740
 4545SOL    HW125097   1.230   2.704   1.859  1.9822 -0.6855 -2.3837
 4545SOL    HW225098   1.329   2.804   1.877 -2.8055  1.6339  3.1594
 4546SOL     OW25099   0.069   0.343   7.322 -0.1870  0.1644  0.1855
 4546SOL    HW125100   0.150   0.310   7.285 -1.1945  0.9169 -2.7155
 4546SOL    HW225101   0.010   0.306   7.257 -0.4609  0.6529  0.1511
 4547SOL     OW25102   3.231   2.629  16.817  0.1075  0.2805  0.2691
 4547SOL    HW125103   3.326   2.634  16.810  0.0850 -1.2329 -0.9749
 4547SOL    HW225104   3.202   2.642  16.727  1.8992  0.0271 -0.3339
 4548SOL     OW25105   1.284   1.531   2.667 -0.4654 -0.7281  0.5390
 4548SOL    HW125106   1.377   1.530   2.689 -0.5392  2.3459  1.0337
 4548SOL    HW225107   1.265   1.451   2.618 -0.8954 -2.1742  3.0866
 4549SOL     OW25108   4.111   2.825   7.190 -0.0958  0.1902  0.3592
 4549SOL    HW125109   4.101   2.732   7.167  0.5060  0.2354 -0.0801
 4549SOL    HW225110   4.185   2.846   7.134  0.3878  3.1239  2.1368
 4550SOL     OW25111   2.755   3.715   7.803  0.7969  0.4752 -0.0104
 4550SOL    HW125112   2.746   3.620   7.812  1.2513  0.4162 -0.1572
 4550SOL    HW225113   2.666   3.740   7.778  0.1676 -1.8130 -0.0273
 4551SOL     OW25114   0.659   1.668   0.769  0.4431  0.0522  0.3845
 4551SOL    HW125115   0.674   1.727   0.695  1.7127 -2.4141 -1.3502
 4551SOL    HW225116   0.608   1.725   0.826  1.0114  2.1168 -1.1649
 4552SOL     OW25117   4.117   2.360  16.141  0.0222  0.2652  0.4619
 4552SOL    HW125118   4.161   2.417  16.205 -1.6714 -0.2956  2.1526
 4552SOL    HW225119   4.088   2.420  16.073  0.5644  1.0384  0.9045
 4553SOL     OW25120   0.159   0.561   7.492 -0.5739 -0.0109 -0.3636
 4553SOL    HW125121   0.084   0.513   7.458  0.7205 -0.7970 -2.0720
 4553SOL    HW225122   0.232   0.504   7.516  1.2907  2.3999 -0.1912
 4554SOL     OW25123   3.140   2.473   3.609  0.4671  0.5280 -0.2223
 4554SOL    HW125124   3.162   2.496   3.518 -0.7491  1.2040 -0.3503
 4554SOL    HW225125   3.228   2.469   3.645  0.0237 -0.4438  0.7415
 4555SOL     OW25126   4.278   2.233   0.857 -0.3157  1.0360 -0.2227
 4555SOL    HW125127   4.192   2.251   0.894 -1.2119  0.4543 -2.0375
 4555SOL    HW225128   4.240   2.210   0.772 -2.0039 -1.8618  1.2895
 4556SOL     OW25129   1.989   1.287   1.916 -0.5075 -0.6679  0.0959
 4556SOL    HW125130   1.999   1.346   1.990 -2.0011 -0.2903 -0.0015
 4556SOL    HW225131   1.935   1.221   1.959 -0.4432 -0.6544  0.1958
 4557SOL     OW25132   1.441   1.600   2.106 -0.0220  0.3482 -0.3955
 4557SOL    HW125133   1.448   1.529   2.042 -0.9013  1.3130 -1.5617
 4557SOL    HW225134   1.349   1.595   2.131  0.0632 -4.3716 -1.0890
 4558SOL     OW25135   2.247   2.763   7.681 -0.3006  0.0690 -0.0670
 4558SOL    HW125136   2.249   2.829   7.612 -1.9860  0.9809  0.7487
 4558SOL    HW225137   2.333   2.781   7.718  0.2033 -0.6380 -0.8747
 4559SOL     OW25138   0.147   4.683   1.418  0.7522  0.8443  0.0774
 4559SOL    HW125139   0.109   0.022   1.474 -0.3112  0.0933  0.2538
 4559SOL    HW225140   0.201   0.014   1.365 -1.3336  2.6090 -0.1083
 4560SOL     OW25141   3.574   0.238   6.553 -0.1156  0.2404  0.2108
 4560SOL    HW125142   3.576   0.298   6.627 -0.3129  1.1752 -0.5529
 4560SOL    HW225143   3.547   0.160   6.603  2.1454 -0.5856  0.1490
 4561SOL     OW25144   2.516   1.353   8.800 -0.3506 -0.3640 -0.1230
 4561SOL    HW125145   2.514   1.414   8.874 -2.2174 -2.2011  1.3463
 4561SOL    HW225146   2.458   1.278   8.814 -0.5848 -0.0686  0.5351
 4562SOL     OW25147   2.812   1.889   7.924 -0.1262  0.4582  0.3295
 4562SOL    HW125148   2.820   1.951   7.997 -0.5219  1.1877 -0.2487
 4562SOL    HW225149   2.820   1.950   7.851 -2.7763  1.1565  0.6082
 4563SOL     OW25150   4.142   2.063   4.637 -0.6744 -0.4010  0.3428
 4563SOL    HW125151   4.163   2.154   4.616  1.7511 -0.9640  0.3047
 4563SOL    HW225152   4.047   2.072   4.646 -0.3684  2.7326  0.3734
 4564SOL     OW25153   3.072   0.450   2.532  0.2633  0.2367 -0.1016
 4564SOL    HW125154   3.049   0.419   2.445  1.0972 -0.7127  0.0042
 4564SOL    HW225155   3.023   0.392   2.590  0.3617  0.3287  0.0767
 4565SOL     OW25156   3.381   0.335   8.652  0.0268  0.2918 -0.0084
 4565SOL    HW125157   3.310   0.374   8.703 -0.5306  0.7060 -1.1226
 4565SOL    HW225158   3.447   0.404   8.656 -1.9560  2.0852  1.8116
 4566SOL     OW25159   2.794   0.916   0.931 -0.0911 -0.0444  0.1261
 4566SOL    HW125160   2.877   0.964   0.936  0.1324 -0.3863 -0.2768
 4566SOL    HW225161   2.760   0.945   1.015 -1.2991 -2.3696  0.4169
 4567SOL     OW25162   1.817   1.251   6.566 -0.4711 -0.6576 -0.0977
 4567SOL    HW125163   1.848   1.282   6.481  0.3843 -0.8701  0.1390
 4567SOL    HW225164   1.845   1.160   6.556  0.8063 -0.2343 -0.2723
 4568SOL     OW25165   3.649   4.234   5.174 -0.3404 -0.2908  0.0052
 4568SOL    HW125166   3.731   4.217   5.127 -0.0294  4.3725 -1.0769
 4568SOL    HW225167   3.599   4.174   5.119 -2.7942  0.8862  0.9384
 4569SOL     OW25168   2.217   1.625   3.919 -0.4086 -0.0707  0.0507
 4569SOL    HW125169   2.194   1.544   3.874 -0.0789 -0.9998  1.5853
 4569SOL    HW225170   2.172   1.686   3.859 -0.7912 -1.2641 -0.8655
 4570SOL     OW25171   4.215   1.464   6.839 -0.2588 -0.0039 -0.2678
 4570SOL    HW125172   4.218   1.400   6.768  0.0241 -0.3064  0.0176
 4570SOL    HW225173   4.142   1.434   6.892 -0.9724  0.5856 -0.9056
 4571SOL     OW25174   0.339   1.831   4.735 -0.0423 -0.1069  0.0532
 4571SOL    HW125175   0.403   1.896   4.764 -0.9781  1.0941 -0.5835
 4571SOL    HW225176   0.304   1.861   4.651 -0.0649  0.5522  0.2955
 4572SOL     OW25177   3.821   0.852   3.086  0.4275 -0.1441  0.1477
 4572SOL    HW125178   3.915   0.840   3.071  0.8067  0.2564  2.2628
 4572SOL    HW225179   3.812   0.814   3.173 -1.4551 -0.4258 -0.1880
 4573SOL     OW25180   2.999   1.657   4.772  0.1498  0.2401  0.1196
 4573SOL    HW125181   3.070   1.609   4.729  0.4101 -1.5053  2.4941
 4573SOL    HW225182   2.982   1.604   4.850  1.0955 -0.2504 -0.0048
 4574SOL     OW25183   1.394   2.403  11.234 -0.0791  0.2491 -0.0487
 4574SOL    HW125184   1.374   2.431  11.323 -2.3607 -1.6280  0.0326
 4574SOL    HW225185   1.381   2.309  11.250  1.2119  0.3401  1.4693
 4575SOL     OW25186   0.792   4.091   1.593  0.1913 -0.0096  0.6233
 4575SOL    HW125187   0.818   4.172   1.635  1.4774 -1.5795  2.8189
 4575SOL    HW225188   0.758   4.038   1.665  0.8471 -0.9162  0.2591
 4576SOL     OW25189   0.937   0.440   9.720 -0.3007 -0.4974  0.2920
 4576SOL    HW125190   0.939   0.450   9.625  0.5599  1.1833  0.4844
 4576SOL    HW225191   0.968   0.350   9.728  1.1393 -0.0586 -0.4958
 4577SOL     OW25192   1.180   2.475   2.527  0.0960  0.4203 -0.0265
 4577SOL    HW125193   1.100   2.464   2.578 -0.6703 -0.1578 -1.3691
 4577SOL    HW225194   1.146   2.484   2.438 -1.2625  0.7649  0.5244
 4578SOL     OW25195   3.346   4.407   8.064 -0.0918  0.0342 -0.0532
 4578SOL    HW125196   3.311   4.486   8.023 -0.3679 -0.5211 -0.9127
 4578SOL    HW225197   3.388   4.371   7.985  0.7637  0.0897  0.3836
 4579SOL     OW25198   1.195   2.181   9.152  0.2199  0.0697 -0.0691
 4579SOL    HW125199   1.214   2.089   9.165 -0.0608 -0.1109 -0.9339
 4579SOL    HW225200   1.223   2.204   9.240 -1.8512 -1.0990  0.9020
 4580SOL     OW25201   1.371   0.722  12.511 -0.4517  0.1414 -0.6957
 4580SOL    HW125202   1.448   0.667  12.526 -0.4433  0.4335  0.2763
 4580SOL    HW225203   1.319   0.708  12.589  1.0772  0.0366  0.2987
 4581SOL     OW25204   0.744   3.026   6.821 -0.4805 -0.9289  0.7544
 4581SOL    HW125205   0.823   3.019   6.767 -0.7670  0.6229  0.1452
 4581SOL    HW225206   0.779   2.989   6.902  0.5488  0.4809  0.9552
 4582SOL     OW25207   1.355   0.114   3.682  0.1400 -0.1325 -0.3476
 4582SOL    HW125208   1.360   0.157   3.597 -0.7618  0.6700 -0.0129
 4582SOL    HW225209   1.420   0.169   3.725 -0.0455  0.6570 -1.0754
 4583SOL     OW25210   0.161   2.705   5.523  0.2442 -0.9675  0.0163
 4583SOL    HW125211   0.155   2.783   5.579 -0.3527 -2.3769  1.9168
 4583SOL    HW225212   0.229   2.652   5.564 -0.0872  0.4642  2.4209
 4584SOL     OW25213   3.850   2.975   4.354 -0.0282  0.1757  0.1153
 4584SOL    HW125214   3.836   3.044   4.289 -0.0212 -0.6321 -0.7408
 4584SOL    HW225215   3.886   2.908   4.296  0.9886  0.5546  0.3117
 4585SOL     OW25216   3.904   0.523   5.876 -0.6350  0.2351  0.4390
 4585SOL    HW125217   3.888   0.508   5.969 -0.8423 -0.6280  0.2637
 4585SOL    HW225218   3.888   0.616   5.858  3.3183  0.6507 -1.0609
 4586SOL     OW25219   2.502   4.176   2.603  0.0821  0.4800 -0.2825
 4586SOL    HW125220   2.587   4.133   2.615 -0.0336  0.2443 -0.3038
 4586SOL    HW225221   2.500   4.222   2.687  0.0508  0.7277 -0.4199
 4587SOL     OW25222   3.730   3.306  15.783  0.0639  0.4980  0.1355
 4587SOL    HW125223   3.755   3.231  15.728 -3.1662  0.3200 -1.0868
 4587SOL    HW225224   3.794   3.374  15.764  3.9839 -3.1733  0.2118
 4588SOL     OW25225   1.367   4.374   3.245 -0.4076  0.6378 -0.1954
 4588SOL    HW125226   1.449   4.327   3.258  0.1305  0.8506 -2.8156
 4588SOL    HW225227   1.307   4.303   3.270  1.1468 -0.7090 -0.2921
 4589SOL     OW25228   2.044   3.473   3.468  0.2933 -0.7690 -0.0114
 4589SOL    HW125229   2.049   3.445   3.559  3.2980 -0.2911 -0.0292
 4589SOL    HW225230   2.084   3.398   3.424  1.7891 -0.5193  0.9124
 4590SOL     OW25231   1.254   0.333   3.052 -0.0015  0.2232 -0.2381
 4590SOL    HW125232   1.223   0.253   3.094  1.1983  0.6250  1.4152
 4590SOL    HW225233   1.166   0.357   3.021 -0.2764  1.4639  1.4749
 4591SOL     OW25234   0.282   4.290   8.488  0.3281 -0.6290  0.3859
 4591SOL    HW125235   0.193   4.323   8.478  0.0192 -1.4950  0.3306
 4591SOL    HW225236   0.341   4.354   8.529  1.6315 -0.9896 -0.9034
 4592SOL     OW25237   2.505   4.027  15.719  0.0608 -0.1792 -0.4085
 4592SOL    HW125238   2.540   4.084  15.651 -0.1959  2.2090  1.4596
 4592SOL    HW225239   2.588   3.992  15.750  0.7157  1.0033 -0.8444
 4593SOL     OW25240   1.734   1.340   2.872 -0.4158  0.7186  0.0528
 4593SOL    HW125241   1.785   1.415   2.903 -0.3373  1.0244 -0.8445
 4593SOL    HW225242   1.693   1.294   2.946 -0.5167 -1.3083 -1.2906
 4594SOL     OW25243   4.254   2.244  16.623 -0.2663 -0.1717 -0.5041
 4594SOL    HW125244   4.302   2.253  16.541  1.8623 -0.5733  0.6913
 4594SOL    HW225245   4.180   2.191  16.594 -0.3876  0.2839 -1.0219
 4595SOL     OW25246   0.281   0.601  15.416 -0.2514  0.4602  0.0213
 4595SOL    HW125247   0.284   0.696  15.418 -1.2954  0.4609  1.3571
 4595SOL    HW225248   0.247   0.587  15.505 -0.6233  0.7636 -0.0779
 4596SOL     OW25249   2.768   4.316  12.968 -0.1010  0.0574  0.5257
 4596SOL    HW125250   2.788   4.223  12.958  0.8093 -0.0234  3.0261
 4596SOL    HW225251   2.814   4.346  12.889 -0.7412 -1.3044 -0.3582
 4597SOL     OW25252   1.284   1.199  11.352  0.5563  0.2981  0.0238
 4597SOL    HW125253   1.270   1.130  11.287  0.1273  0.3477  0.0622
 4597SOL    HW225254   1.202   1.203  11.401  1.1966  0.3639  1.0821
 4598SOL     OW25255   1.099   2.317  11.093 -0.0706  0.1172 -0.4089
 4598SOL    HW125256   1.191   2.327  11.119  0.3514  0.0683 -1.8878
 4598SOL    HW225257   1.043   2.313  11.171 -0.8399 -1.0252 -1.0152
 4599SOL     OW25258   3.700   1.657   9.649  0.3554 -0.5126 -0.6394
 4599SOL    HW125259   3.749   1.578   9.628 -0.2226 -1.1817  0.5193
 4599SOL    HW225260   3.717   1.675   9.742 -1.1238 -1.5768 -0.1522
 4600SOL     OW25261   3.877   1.810   7.908  0.3600  0.1078 -0.3729
 4600SOL    HW125262   3.831   1.894   7.909 -2.1420 -1.2320 -1.7490
 4600SOL    HW225263   3.845   1.762   7.832 -0.7047 -0.4030  0.3884
 4601SOL     OW25264   1.493   2.018   5.207 -0.3776 -0.4514 -0.4235
 4601SOL    HW125265   1.574   2.069   5.212  0.7011 -2.1271 -0.9433
 4601SOL    HW225266   1.425   2.074   5.169  0.2904  2.3380  2.4968
 4602SOL     OW25267   1.971   3.958   8.507  0.4067  0.4328  0.4946
 4602SOL    HW125268   1.926   3.887   8.552  1.4810 -0.4139  0.2382
 4602SOL    HW225269   2.065   3.948   8.517  0.4647  2.0069  1.4783
 4603SOL     OW25270   2.292   0.814  16.100  0.8671 -0.3171  0.0663
 4603SOL    HW125271   2.294   0.859  16.184 -0.1028  0.2921 -0.2340
 4603SOL    HW225272   2.300   0.891  16.043 -0.3299  0.8171  1.4387
 4604SOL     OW25273   1.115   0.854   2.966 -0.0635  0.5617 -0.3642
 4604SOL    HW125274   1.099   0.883   3.055  0.1206  0.5383 -0.3249
 4604SOL    HW225275   1.034   0.872   2.918 -0.3434  2.4071  0.7911
 4605SOL     OW25276   2.962   0.827   8.412  0.8451  0.3313 -0.1022
 4605SOL    HW125277   2.953   0.831   8.508 -0.6683  1.4695 -0.3020
 4605SOL    HW225278   3.015   0.747   8.401 -0.6691 -0.8021  0.8438
 4606SOL     OW25279   4.125   0.778  13.099  0.3818  0.0445 -0.3481
 4606SOL    HW125280   4.215   0.810  13.086 -0.1898  2.0766  0.7577
 4606SOL    HW225281   4.144   0.715  13.168  0.8375  0.4637 -0.0959
 4607SOL     OW25282   4.557   3.147  12.038  0.5354 -0.8470  0.4816
 4607SOL    HW125283   4.590   3.112  12.121  1.9162 -0.0774  0.2553
 4607SOL    HW225284   4.527   3.069  11.991  0.4894 -0.4812 -0.0886
 4608SOL     OW25285   2.386   1.732   6.222 -0.2170  0.6347 -0.3365
 4608SOL    HW125286   2.426   1.701   6.140  1.2493  1.1030  0.2049
 4608SOL    HW225287   2.464   1.781   6.247 -1.1776  2.4579 -0.9218
 4609SOL     OW25288   1.413   3.220  14.956  0.6804  0.1690 -0.8297
 4609SOL    HW125289   1.502   3.185  14.946  2.2241  3.0792  2.8047
 4609SOL    HW225290   1.420   3.231  15.050  0.2511 -0.7450 -0.6859
 4610SOL     OW25291   2.316   3.652   3.027 -0.0311  0.1205  0.1574
 4610SOL    HW125292   2.378   3.718   3.057  1.9339 -0.1302 -3.2896
 4610SOL    HW225293   2.250   3.655   3.096 -0.1812 -1.6040  0.0957
 4611SOL     OW25294   0.569   3.638   2.389  0.1089  0.5948  0.5264
 4611SOL    HW125295   0.567   3.731   2.411  1.2141  0.7511 -0.0325
 4611SOL    HW225296   0.476   3.619   2.399  0.1207  0.7201  0.8668
 4612SOL     OW25297   4.237   2.317  15.262  0.0357 -0.1324 -0.2892
 4612SOL    HW125298   4.148   2.284  15.269  0.5032 -1.1868  0.7239
 4612SOL    HW225299   4.233   2.353  15.351  0.6596  0.6995 -0.5886
 4613SOL     OW25300   4.397   2.143   6.901 -0.4496 -0.7206  0.2983
 4613SOL    HW125301   4.490   2.122   6.910  0.5897  3.6607 -0.1679
 4613SOL    HW225302   4.370   2.052   6.912 -2.4203 -0.1811 -0.0751
 4614SOL     OW25303   3.966   4.010   7.073  0.0383 -0.2089  0.1371
 4614SOL    HW125304   4.017   4.072   7.124 -2.2945  0.5678  1.4945
 4614SOL    HW225305   4.030   3.940   7.057 -1.2776 -1.6748  1.2579
 4615SOL     OW25306   1.528   4.341   6.034  1.0303  0.4318 -0.4613
 4615SOL    HW125307   1.485   4.424   6.053  1.9683  0.4340  1.6864
 4615SOL    HW225308   1.457   4.280   6.014 -0.2100  1.9996 -0.8724
 4616SOL     OW25309   2.551   2.978   7.185  0.0877 -0.5384  0.3047
 4616SOL    HW125310   2.497   2.907   7.149 -0.8848 -0.7191  2.1272
 4616SOL    HW225311   2.494   3.019   7.250 -1.0168  0.9450 -1.6015
 4617SOL     OW25312   1.320   3.002   6.700 -0.1921  0.0380 -0.7143
 4617SOL    HW125313   1.366   3.021   6.619 -2.1773  0.8300 -1.6479
 4617SOL    HW225314   1.302   3.091   6.731 -0.8351 -1.5027  3.3904
 4618SOL     OW25315   3.763   1.218   1.874 -0.1035 -0.1312 -0.0736
 4618SOL    HW125316   3.700   1.275   1.829  0.5928  0.1597 -0.6704
 4618SOL    HW225317   3.744   1.224   1.967 -0.1273  1.5223 -0.1894
 4619SOL     OW25318   2.812   1.164   7.569  0.3286 -0.6349 -0.2932
 4619SOL    HW125319   2.763   1.083   7.582 -0.1517 -0.3248 -0.1752
 4619SOL    HW225320   2.823   1.158   7.474  0.4988  3.3087 -0.5221
 4620SOL     OW25321   2.676   2.193   2.349  0.1809 -0.5635 -0.0848
 4620SOL    HW125322   2.712   2.106   2.335  1.7774  0.3082 -1.4260
 4620SOL    HW225323   2.643   2.186   2.438 -1.0940 -0.2717 -0.5393
 4621SOL     OW25324   1.775   3.905   0.590 -0.5886 -0.1639 -0.8188
 4621SOL    HW125325   1.733   3.965   0.528 -0.6416  0.9374  0.2740
 4621SOL    HW225326   1.867   3.930   0.581 -0.1797 -0.8310  1.4442
 4622SOL     OW25327   0.649   3.308   2.343  0.7322  0.4096 -0.1441
 4622SOL    HW125328   0.646   3.384   2.284 -2.1906  0.2712 -0.1428
 4622SOL    HW225329   0.739   3.317   2.375  0.3861  0.4219  0.8094
 4623SOL     OW25330   0.223   3.381   6.418  0.3997  0.5068  0.5495
 4623SOL    HW125331   0.153   3.439   6.388 -0.2750  0.6255  2.3833
 4623SOL    HW225332   0.222   3.403   6.511 -3.1128  0.1006  0.5896
 4624SOL     OW25333   3.984   2.289   0.905  0.1015 -0.1258  0.3197
 4624SOL    HW125334   3.928   2.329   0.971 -1.4662 -1.5064 -0.1802
 4624SOL    HW225335   3.939   2.315   0.824  1.8801 -1.3159 -1.0519
 4625SOL     OW25336   1.063   3.549  13.474 -0.1221 -0.3618  0.2923
 4625SOL    HW125337   1.069   3.634  13.518  2.2250  0.5932 -1.9229
 4625SOL    HW225338   0.996   3.510  13.530  0.0311 -1.7098 -0.4772
 4626SOL     OW25339   2.890   2.943   8.084 -0.4209  0.1420 -0.2936
 4626SOL    HW125340   2.889   2.897   8.169  0.6723  1.5053  0.4509
 4626SOL    HW225341   2.825   2.890   8.037 -3.6581  4.7635 -1.0082
 4627SOL     OW25342   1.746   1.397   8.242 -0.5996 -0.4164  0.6241
 4627SOL    HW125343   1.677   1.455   8.210  0.0048 -1.0881 -1.8592
 4627SOL    HW225344   1.766   1.364   8.154 -1.0320 -1.4895  0.9265
 4628SOL     OW25345   3.008   2.242   3.720 -0.5949 -0.0948 -0.0343
 4628SOL    HW125346   3.041   2.317   3.670  0.4907  0.2995  1.2714
 4628SOL    HW225347   2.989   2.273   3.809 -1.3392 -2.1175  0.5088
 4629SOL     OW25348   0.768   0.296  10.413 -0.6621  0.3137 -0.5981
 4629SOL    HW125349   0.695   0.349  10.381 -0.0299  0.6949 -1.4279
 4629SOL    HW225350   0.847   0.335  10.377  0.7381 -0.4104  1.6769
 4630SOL     OW25351   3.740   3.754   4.790 -0.4655 -0.2137  0.3814
 4630SOL    HW125352   3.834   3.741   4.783  0.0474  3.8863 -0.4733
 4630SOL    HW225353   3.738   3.845   4.759 -2.7288 -0.0162  1.0665
 4631SOL     OW25354   2.475   1.323   9.281 -0.1607 -0.4791  0.1865
 4631SOL    HW125355   2.416   1.313   9.356 -1.3941 -0.3307 -0.7598
 4631SOL    HW225356   2.514   1.236   9.271  1.2468  0.5147 -2.5962
 4632SOL     OW25357   3.195   0.322   5.376 -0.4040 -0.2641  0.0912
 4632SOL    HW125358   3.170   0.372   5.454  0.6492 -1.8507  1.4378
 4632SOL    HW225359   3.264   0.263   5.404  1.1364  2.3155  1.7667
 4633SOL     OW25360   0.138   2.874   8.311 -0.0736  0.6810  0.1322
 4633SOL    HW125361   0.169   2.851   8.224  0.9763  2.1784  0.1070
 4633SOL    HW225362   0.173   2.963   8.316  1.1579  0.2797 -1.3523
 4634SOL     OW25363   4.657   1.168   1.512  0.5551 -0.2839  0.1959
 4634SOL    HW125364   4.602   1.091   1.529  0.0480 -0.2309 -1.2245
 4634SOL    HW225365   4.606   1.189   1.433  0.3032  0.0288  0.4421
 4635SOL     OW25366   0.899   4.628  15.690  0.0850  0.1159  0.2669
 4635SOL    HW125367   0.939   4.709  15.723  1.9350 -1.6765  2.4235
 4635SOL    HW225368   0.874   4.588  15.773  1.3910 -1.7930 -0.2697
 4636SOL     OW25369   2.862   1.614   4.486 -0.0208 -0.4521 -0.0780
 4636SOL    HW125370   2.937   1.557   4.470 -0.6388 -1.1756 -0.4357
 4636SOL    HW225371   2.797   1.556   4.446 -0.1544  0.0531 -0.5998
 4637SOL     OW25372   2.641   0.073   1.679  0.2769  0.2601 -0.2850
 4637SOL    HW125373   2.694   0.042   1.606  0.3608 -0.9196  0.2843
 4637SOL    HW225374   2.592   4.721   1.697 -0.0846  0.7732  1.0091
 4638SOL     OW25375   3.807   1.668   4.918  0.3061  0.0546 -0.5153
 4638SOL    HW125376   3.873   1.734   4.899  0.5715  0.2027  0.9645
 4638SOL    HW225377   3.832   1.616   4.841  0.9422  0.2424 -0.4379
 4639SOL     OW25378   2.695   3.183   2.284 -0.3344  0.2334 -0.0120
 4639SOL    HW125379   2.610   3.174   2.240 -1.1516 -0.4263  1.6720
 4639SOL    HW225380   2.720   3.272   2.259  0.7667 -0.0149  0.2181
 4640SOL     OW25381   1.174   0.117   7.877 -0.1838 -0.6700 -0.5040
 4640SOL    HW125382   1.247   0.089   7.821 -0.0870 -0.7215 -0.3504
 4640SOL    HW225383   1.126   0.159   7.805 -2.2886 -0.8091  0.8160
 4641SOL     OW25384   0.884   0.953  16.826  0.0706 -0.3175 -0.3914
 4641SOL    HW125385   0.867   1.039  16.788  0.6835  0.5453  1.3182
 4641SOL    HW225386   0.915   0.910  16.746 -0.9209 -0.6375 -0.6103
 4642SOL     OW25387   2.775   4.464   6.417  0.0010 -0.0002 -0.1368
 4642SOL    HW125388   2.745   4.551   6.443  1.4080  0.6893 -0.8112
 4642SOL    HW225389   2.750   4.417   6.496 -0.7908 -0.8817 -0.9246
 4643SOL     OW25390   3.979   3.998   6.294  0.0042  0.4579 -0.2626
 4643SOL    HW125391   4.068   3.979   6.266  0.2170  2.3463 -0.8511
 4643SOL    HW225392   3.935   3.916   6.274  0.8955 -0.1239  0.1627
 4644SOL     OW25393   4.659   0.927   9.228 -0.4086 -0.2605 -0.0036
 4644SOL    HW125394   4.680   0.901   9.318 -0.0600 -0.7167 -0.2192
 4644SOL    HW225395   0.001   0.990   9.213 -3.2141  3.0614  0.9768
 4645SOL     OW25396   2.411   0.243   6.058 -0.6538 -0.3966 -0.3622
 4645SOL    HW125397   2.328   0.200   6.081 -0.6910  0.9433  2.0244
 4645SOL    HW225398   2.403   0.268   5.966 -3.1134  1.0346  0.2449
 4646SOL     OW25399   3.789   2.075   7.989  1.2542 -0.2016 -0.4005
 4646SOL    HW125400   3.791   2.048   8.081 -1.1277 -2.2861 -0.9408
 4646SOL    HW225401   3.744   2.159   7.994  0.3957 -0.6289 -1.0156
 4647SOL     OW25402   0.320   0.280   7.224  0.2781  0.0788  0.0702
 4647SOL    HW125403   0.344   0.236   7.306  0.2313 -0.9105 -0.4404
 4647SOL    HW225404   0.284   0.199   7.187  2.0631  0.4405 -2.3906
 4648SOL     OW25405   2.604   3.206   7.009 -0.3893 -0.2513 -0.4809
 4648SOL    HW125406   2.597   3.148   7.084 -0.5009  0.9859  0.4724
 4648SOL    HW225407   2.692   3.194   6.973 -0.0886  2.0931 -0.5352
 4649SOL     OW25408   0.106   2.355   1.861  0.3868  0.6998 -0.0014
 4649SOL    HW125409   0.126   2.279   1.806 -0.4611 -1.4830  2.6977
 4649SOL    HW225410   0.105   2.315   1.947  2.6329 -0.5216 -0.5534
 4650SOL     OW25411   2.662   1.423   2.428 -0.1747 -0.0336  0.5080
 4650SOL    HW125412   2.641   1.517   2.432 -1.7480 -0.2896 -1.2482
 4650SOL    HW225413   2.711   1.412   2.509 -0.8691 -0.6820  0.8377
 4651SOL     OW25414   3.602   3.598  14.404 -0.4233 -0.5613 -0.2261
 4651SOL    HW125415   3.595   3.505  14.382 -2.2820 -0.8727  1.6757
 4651SOL    HW225416   3.555   3.591  14.487  0.0194  1.8944  0.2369
 4652SOL     OW25417   0.313   4.495   4.947  0.0246 -0.3219  0.5255
 4652SOL    HW125418   0.401   4.475   4.977 -0.1203  1.4571  2.1642
 4652SOL    HW225419   0.331   4.565   4.884 -1.4030 -1.7465 -1.5068
 4653SOL     OW25420   0.566   3.924   0.977 -0.2962 -0.0360  0.4169
 4653SOL    HW125421   0.511   4.001   0.990  0.3550  0.9945 -2.8926
 4653SOL    HW225422   0.559   3.904   0.884  1.2302  1.4232 -0.0080
 4654SOL     OW25423   1.387   4.216   1.741  0.3674  0.2855 -0.6417
 4654SOL    HW125424   1.398   4.162   1.663  1.9469 -1.0611  0.5059
 4654SOL    HW225425   1.295   4.209   1.767  0.3506  0.8446 -0.5368
 4655SOL     OW25426   3.046   1.161   6.954 -0.3943  0.4534  0.3107
 4655SOL    HW125427   3.108   1.187   7.022  0.5221  1.9552 -1.0691
 4655SOL    HW225428   3.079   1.074   6.929 -1.7881  0.3229 -1.0487
 4656SOL     OW25429   0.044   1.570   1.803 -0.1687 -0.2256 -0.2213
 4656SOL    HW125430   0.127   1.541   1.841 -0.2244  0.9233  0.7882
 4656SOL    HW225431   0.011   1.486   1.772 -0.6270 -0.0751 -0.1426
 4657SOL     OW25432   1.891   3.745  14.468  0.2883  0.3421  0.0559
 4657SOL    HW125433   1.823   3.810  14.481 -1.3107 -1.2919 -0.0494
 4657SOL    HW225434   1.933   3.778  14.388  0.9029  0.7000  0.5274
 4658SOL     OW25435   2.565   3.407   4.998 -0.3904 -0.1475 -0.7103
 4658SOL    HW125436   2.502   3.470   4.961 -0.5442 -0.4807 -1.0191
 4658SOL    HW225437   2.649   3.424   4.956  0.5660  1.9809  2.0618
 4659SOL     OW25438   1.858   0.530   4.741 -0.3507  0.0193 -0.1005
 4659SOL    HW125439   1.866   0.436   4.725 -1.0043  0.1540 -1.2287
 4659SOL    HW225440   1.869   0.560   4.651  1.4205 -1.6764 -0.4633
 4660SOL     OW25441   1.388   3.278   6.033  0.4542 -0.1293 -0.6802
 4660SOL    HW125442   1.466   3.333   6.040 -1.3872  2.9586 -4.5894
 4660SOL    HW225443   1.395   3.225   6.113 -1.5845 -2.0637 -1.7825
 4661SOL     OW25444   1.070   0.379   2.738  0.0927  0.0518 -0.0426
 4661SOL    HW125445   1.060   0.474   2.742 -2.1683 -0.2214  0.8843
 4661SOL    HW225446   1.039   0.351   2.824 -0.9654  1.1282 -0.0780
 4662SOL     OW25447   2.646   4.297  14.660 -0.7017 -0.0042  0.5053
 4662SOL    HW125448   2.560   4.339  14.670 -1.4247 -1.1173 -1.1468
 4662SOL    HW225449   2.641   4.285  14.565  2.3730  0.9424  0.2280
 4663SOL     OW25450   2.310   1.075   4.607 -0.1074  0.1906 -0.3947
 4663SOL    HW125451   2.343   0.985   4.615 -0.4471  0.1004 -0.0282
 4663SOL    HW225452   2.395   1.118   4.617 -1.0292  1.8089  0.3921
 4664SOL     OW25453   4.170   3.789  16.132 -0.6231 -0.4478 -0.0564
 4664SOL    HW125454   4.127   3.871  16.107  2.1775  0.7157 -1.1225
 4664SOL    HW225455   4.102   3.727  16.156  1.4580 -1.6473  2.7290
 4665SOL     OW25456   1.915   0.979   3.609  0.1918  0.5247 -0.0079
 4665SOL    HW125457   1.995   0.933   3.634 -0.1330 -0.6954 -1.1940
 4665SOL    HW225458   1.850   0.930   3.658 -0.9245  0.7827 -1.2301
 4666SOL     OW25459   4.420   3.385  12.085  0.0698  0.2652 -0.1987
 4666SOL    HW125460   4.461   3.299  12.072 -2.5380 -1.0360  0.2518
 4666SOL    HW225461   4.409   3.396  12.180 -1.5025  0.7402 -0.4392
 4667SOL     OW25462   1.827   4.698  15.240  0.0469 -0.1297 -0.0554
 4667SOL    HW125463   1.899   0.006  15.188 -1.9693 -0.9001 -3.3229
 4667SOL    HW225464   1.881   4.633  15.285 -0.9111 -0.5622  0.4561
 4668SOL     OW25465   2.928   4.566  16.026  0.3175  0.0988 -0.1650
 4668SOL    HW125466   2.984   4.630  16.070  2.3631 -2.2062  0.5987
 4668SOL    HW225467   2.986   4.490  16.028  0.9254  0.5759  0.2334
 4669SOL     OW25468   3.113   0.864   5.661  0.0222 -0.3445 -0.0260
 4669SOL    HW125469   3.067   0.788   5.626  0.6783 -0.6712 -0.1661
 4669SOL    HW225470   3.155   0.832   5.740  1.0107 -1.2277 -0.9237
 4670SOL     OW25471   2.888   2.984   9.040  0.2363 -0.9571 -0.5263
 4670SOL    HW125472   2.927   2.919   9.099 -1.8810  1.6717  3.7500
 4670SOL    HW225473   2.937   3.055   9.080 -2.6693 -0.2906  1.8618
 4671SOL     OW25474   0.981   4.325   1.463  0.4540 -0.1894  0.1413
 4671SOL    HW125475   0.903   4.363   1.422  1.0681  1.2013  0.2399
 4671SOL    HW225476   0.948   4.315   1.552  1.0309 -0.5899  0.3107
 4672SOL     OW25477   0.670   1.883  16.287 -0.5691  0.2600  0.1064
 4672SOL    HW125478   0.640   1.811  16.231  3.4843 -1.3185  0.0211
 4672SOL    HW225479   0.599   1.896  16.350 -2.5542 -3.5685 -1.3150
 4673SOL     OW25480   3.925   0.503   1.255 -0.3195 -0.5822  0.2210
 4673SOL    HW125481   3.870   0.449   1.199  1.3895 -2.7318  0.5880
 4673SOL    HW225482   3.935   0.451   1.335 -1.7721  0.4945  1.0824
 4674SOL     OW25483   2.224   0.027   2.398  0.0329 -0.2445  0.5406
 4674SOL    HW125484   2.164   0.095   2.369  0.6820 -1.0618 -2.7528
 4674SOL    HW225485   2.304   0.079   2.408 -0.0716 -0.2170  1.1943
 4675SOL     OW25486   1.440   1.701  17.285 -0.3061 -0.2679 -0.1864
 4675SOL    HW125487   1.429   1.717  17.191  0.0498  0.8232 -0.0493
 4675SOL    HW225488   1.519   1.752  17.304  0.4517 -1.5714  0.1612
 4676SOL     OW25489   0.076   2.664   7.430  0.6594 -0.1264  0.7005
 4676SOL    HW125490   0.029   2.729   7.482  0.3503 -0.4248  0.7944
 4676SOL    HW225491   0.071   2.585   7.484 -0.3192 -0.1753  0.5361
 4677SOL     OW25492   0.550   4.669   6.843 -0.0413 -0.1897 -0.0685
 4677SOL    HW125493   0.646   4.672   6.844 -0.1228  2.1873  0.5846
 4677SOL    HW225494   0.536   4.574   6.842 -1.2760  0.0001 -0.9017
 4678SOL     OW25495   0.700   1.468   2.305  0.5860 -0.1409  0.5180
 4678SOL    HW125496   0.720   1.397   2.365  0.3089 -1.5763 -1.0975
 4678SOL    HW225497   0.696   1.426   2.219 -0.5409 -0.0819  0.5393
 4679SOL     OW25498   0.654   1.773  15.400  0.2360 -0.5155  0.5126
 4679SOL    HW125499   0.735   1.726  15.379  0.9026  1.3018 -0.9167
 4679SOL    HW225500   0.641   1.828  15.323  0.2301 -0.0610  0.8438
 4680SOL     OW25501   0.463   2.971   2.261  0.7594  0.2133  0.2940
 4680SOL    HW125502   0.399   2.907   2.292  2.0672 -2.2545 -2.0918
 4680SOL    HW225503   0.485   2.950   2.170  0.8547  0.8194  0.1742
 4681SOL     OW25504   4.104   2.251   2.849  0.2493 -0.1514 -0.1888
 4681SOL    HW125505   4.131   2.206   2.769 -1.1365  2.2351 -1.9833
 4681SOL    HW225506   4.193   2.274   2.875  0.3046 -0.7077  0.1132
 4682SOL     OW25507   3.802   0.493   2.975  0.1628 -0.3097 -0.2000
 4682SOL    HW125508   3.727   0.515   2.919 -0.1563  1.3066  0.8860
 4682SOL    HW225509   3.868   0.554   2.942 -0.8475  1.1295  0.4415
 4683SOL     OW25510   1.820   4.214   3.887 -0.3202 -0.7663  0.0098
 4683SOL    HW125511   1.904   4.255   3.908  0.2548 -1.7299 -0.3847
 4683SOL    HW225512   1.821   4.214   3.791 -0.5057  2.5594  0.0173
 4684SOL     OW25513   0.350   2.675  15.336 -0.4418  0.0753 -0.5763
 4684SOL    HW125514   0.369   2.700  15.426 -3.8924  2.0879 -0.4532
 4684SOL    HW225515   0.258   2.701  15.337 -0.1657  1.0407 -0.6673
 4685SOL     OW25516   3.818   2.478   6.212 -0.5736  0.3780 -0.1531
 4685SOL    HW125517   3.860   2.425   6.145  1.4826  0.8470  0.7601
 4685SOL    HW225518   3.850   2.426   6.286 -1.5389 -1.7110 -1.2332
 4686SOL     OW25519   2.406   4.111   9.694  0.0277 -0.5441 -0.1130
 4686SOL    HW125520   2.487   4.140   9.736  0.2495  1.1258 -1.6569
 4686SOL    HW225521   2.422   4.018   9.680  0.1851 -0.5711  0.2430
 4687SOL     OW25522   1.459   1.632   7.346 -0.0318 -0.0091 -0.2451
 4687SOL    HW125523   1.403   1.555   7.355 -0.2735  0.2327  0.3200
 4687SOL    HW225524   1.500   1.627   7.432 -1.0837  3.3345  0.4586
 4688SOL     OW25525   3.293   3.613  13.063  0.2266 -0.4132 -0.1656
 4688SOL    HW125526   3.319   3.523  13.042  0.9196  0.0423 -1.2923
 4688SOL    HW225527   3.366   3.647  13.114  1.2516 -0.3344 -1.6763
 4689SOL     OW25528   2.370   2.414   8.458 -0.6421 -0.0567  0.1850
 4689SOL    HW125529   2.282   2.390   8.429 -1.9617  4.0294  0.7779
 4689SOL    HW225530   2.351   2.402   8.551 -2.1471 -1.1275 -0.2595
 4690SOL     OW25531   0.574   4.510   0.634 -0.1569  0.1164 -0.4913
 4690SOL    HW125532   0.555   4.417   0.622  0.8010 -0.1581  0.0929
 4690SOL    HW225533   0.668   4.504   0.615 -0.5837 -1.9937 -2.0205
 4691SOL     OW25534   4.566   3.730   9.314 -0.2282  0.2528  0.0471
 4691SOL    HW125535   4.528   3.768   9.393 -3.2001 -2.1425 -0.1962
 4691SOL    HW225536   4.531   3.797   9.256 -0.2657 -0.5221 -0.8394
 4692SOL     OW25537   3.679   4.105   9.727  0.6105 -0.3078  0.0511
 4692SOL    HW125538   3.638   4.115   9.641 -0.6197 -0.5494  0.6085
 4692SOL    HW225539   3.671   4.194   9.761  0.2868 -0.6594  0.8716
 4693SOL     OW25540   3.322   0.825   1.152 -0.7392  0.2785 -0.3135
 4693SOL    HW125541   3.359   0.909   1.178  0.3979 -0.4995  0.5637
 4693SOL    HW225542   3.397   0.765   1.155  0.7116  2.1525  0.4408
 4694SOL     OW25543   0.430   4.370  11.651 -0.6065 -0.0966  0.7209
 4694SOL    HW125544   0.393   4.458  11.654 -3.7081 -1.4618  1.7705
 4694SOL    HW225545   0.390   4.335  11.572  0.2594  0.8570 -0.1510
 4695SOL     OW25546   4.053   2.704  15.289  0.4112  0.3127 -0.1979
 4695SOL    HW125547   4.138   2.747  15.298  1.8037 -2.1437 -1.6073
 4695SOL    HW225548   4.064   2.661  15.204 -1.8524 -2.3190  0.8509
 4696SOL     OW25549   2.692   3.355   3.059 -0.1154  0.6290 -0.7240
 4696SOL    HW125550   2.687   3.389   2.970 -1.9006  1.1251 -0.4416
 4696SOL    HW225551   2.600   3.358   3.084  0.6609  0.2053  2.2717
 4697SOL     OW25552   2.440   3.253   5.880 -0.0348 -0.0331 -0.4476
 4697SOL    HW125553   2.520   3.252   5.828  0.3216  0.0438  0.1047
 4697SOL    HW225554   2.421   3.342   5.850 -0.2887 -0.1940 -0.7623
 4698SOL     OW25555   1.637   3.522   3.621 -0.3638  0.5709  0.4170
 4698SOL    HW125556   1.672   3.521   3.532  0.3021 -1.0772  0.7125
 4698SOL    HW225557   1.576   3.448   3.625  0.7196 -0.3251  0.2438
 4699SOL     OW25558   2.463   0.988   6.758  0.4379  0.5257  0.1500
 4699SOL    HW125559   2.498   0.908   6.718  2.1954  0.2564  2.2247
 4699SOL    HW225560   2.456   0.974   6.853 -1.6959  1.0134  0.0546
 4700SOL     OW25561   2.015   4.393   3.939  0.4218  0.4889  0.6342
 4700SOL    HW125562   2.002   4.469   3.882 -0.3499  0.1406  0.3371
 4700SOL    HW225563   2.107   4.370   3.933 -0.2492 -1.8563 -0.6414
 4701SOL     OW25564   1.124   4.266   5.331  0.0868  0.1532 -0.1829
 4701SOL    HW125565   1.127   4.315   5.249  1.7198 -1.8844 -1.3418
 4701SOL    HW225566   1.096   4.176   5.313 -0.0780  0.3136 -0.7206
 4702SOL     OW25567   1.226   3.696   3.866 -0.0775 -0.1759  0.5429
 4702SOL    HW125568   1.241   3.625   3.804  0.8233 -1.8793  2.7295
 4702SOL    HW225569   1.205   3.658   3.951 -0.1859  0.0721  0.6261
 4703SOL     OW25570   0.520   1.344   9.290  0.0142 -0.0129  0.5484
 4703SOL    HW125571   0.466   1.342   9.369  0.3625 -1.0768  0.7679
 4703SOL    HW225572   0.509   1.256   9.252  2.0035  0.1952 -0.5124
 4704SOL     OW25573   2.626   2.343   3.489 -0.6781  0.3042 -0.2357
 4704SOL    HW125574   2.709   2.388   3.473 -0.2048 -0.5537 -0.2002
 4704SOL    HW225575   2.635   2.332   3.583  0.9442  2.4786 -0.1341
 4705SOL     OW25576   0.701   2.737  17.341 -0.1006  0.1864 -0.2646
 4705SOL    HW125577   0.771   2.773  17.287 -1.0128  2.1166 -0.1619
 4705SOL    HW225578   0.693   2.648  17.309 -1.9358  0.3972 -0.4221
 4706SOL     OW25579   0.471   3.169   6.431 -0.1479  0.2427 -0.1663
 4706SOL    HW125580   0.536   3.102   6.410  0.4101  0.9487 -0.6875
 4706SOL    HW225581   0.526   3.246   6.446  1.2586 -1.0962  1.4283
 4707SOL     OW25582   3.133   1.120   2.282 -0.3435 -0.8629 -0.2683
 4707SOL    HW125583   3.190   1.190   2.313  1.3572 -2.0184 -0.7900
 4707SOL    HW225584   3.076   1.096   2.355 -0.4127  1.3613  0.4024
 4708SOL     OW25585   1.469   0.240  12.480  0.3335  0.1533  0.1323
 4708SOL    HW125586   1.376   0.220  12.496 -0.1031  1.2581 -0.9491
 4708SOL    HW225587   1.469   0.297  12.557 -0.4547  0.0951  0.1756
 4709SOL     OW25588   0.963   2.719   7.221  0.3572  0.1436 -0.1663
 4709SOL    HW125589   0.990   2.782   7.288  1.6818 -0.4818 -0.1032
 4709SOL    HW225590   1.008   2.647   7.265  0.4226  0.7841  0.8390
 4710SOL     OW25591   3.872   1.901   5.146 -0.4905  0.0307 -0.6185
 4710SOL    HW125592   3.842   1.984   5.109  0.3755  1.1183  1.1330
 4710SOL    HW225593   3.833   1.913   5.233  0.8342  1.1608 -0.1946
 4711SOL     OW25594   1.963   0.602   2.388  0.1519  0.5839  0.0913
 4711SOL    HW125595   1.900   0.552   2.337 -0.3747 -1.2526  2.5549
 4711SOL    HW225596   2.037   0.606   2.327 -0.9187  0.2665 -1.2074
 4712SOL     OW25597   3.926   2.642  10.458 -0.3838 -0.3858 -0.2022
 4712SOL    HW125598   3.941   2.731  10.490  0.4177 -0.9182  0.8899
 4712SOL    HW225599   3.873   2.660  10.380  0.8564  1.2010 -0.6881
 4713SOL     OW25600   2.966   4.203   3.742 -0.0617  0.5059 -0.2236
 4713SOL    HW125601   3.003   4.167   3.662 -3.1965  1.4289 -2.0716
 4713SOL    HW225602   2.888   4.148   3.750 -0.5319  1.1761 -0.1546
 4714SOL     OW25603   1.104   0.140  17.684  0.2420 -0.0501 -0.0821
 4714SOL    HW125604   1.012   0.120  17.668 -0.0729  1.1172  0.3006
 4714SOL    HW225605   1.143   0.125  17.597  0.5012  2.7219 -0.4406
 4715SOL     OW25606   4.401   2.524   2.244 -0.0171  0.6334  0.2469
 4715SOL    HW125607   4.450   2.477   2.311  1.0761 -0.2758 -1.1772
 4715SOL    HW225608   4.480   2.528   2.189 -0.4667  5.1163 -0.0948
 4716SOL     OW25609   1.022   1.101   8.918  0.4354  0.6630  0.0001
 4716SOL    HW125610   0.961   1.105   8.992  0.8945  0.0571  0.4092
 4716SOL    HW225611   0.963   1.138   8.852  0.3335  1.3637  0.4759
 4717SOL     OW25612   1.399   3.001  15.197 -0.0666  0.1152 -0.4105
 4717SOL    HW125613   1.310   3.013  15.165  0.1285  3.3342  0.2129
 4717SOL    HW225614   1.425   2.912  15.176 -0.4240  0.4998 -2.5188
 4718SOL     OW25615   0.322   0.563   7.233 -0.4748 -0.6390  0.5583
 4718SOL    HW125616   0.351   0.593   7.147 -0.6832  0.1059  0.7440
 4718SOL    HW225617   0.331   0.468   7.226 -0.0188 -0.7767  2.7295
 4719SOL     OW25618   0.770   1.239   2.157  0.2982  0.3077  0.2759
 4719SOL    HW125619   0.756   1.277   2.070  0.9414 -1.4839 -0.6070
 4719SOL    HW225620   0.806   1.153   2.137 -1.6049 -0.1173 -1.3321
 4720SOL     OW25621   2.851   4.145   5.073  0.7429  0.9048  0.1326
 4720SOL    HW125622   2.945   4.132   5.080  0.5437  0.4120  1.9374
 4720SOL    HW225623   2.829   4.068   5.021  1.0504  1.3601 -0.6641
 4721SOL     OW25624   0.283   1.546   5.887 -0.0911  0.3573 -0.0871
 4721SOL    HW125625   0.350   1.578   5.947  0.1961 -1.2855  0.4641
 4721SOL    HW225626   0.214   1.609   5.905  0.8820  1.3778  0.0015
 4722SOL     OW25627   0.109   2.886   5.725  0.9191 -0.6223 -0.0314
 4722SOL    HW125628   0.098   2.971   5.768 -0.1731 -0.5399 -0.4696
 4722SOL    HW225629   0.020   2.855   5.714  0.3617  0.6514  0.9452
 4723SOL     OW25630   3.370   3.583  16.042  0.1886  0.4149  0.0909
 4723SOL    HW125631   3.354   3.516  16.109 -2.2095  0.3731 -0.4974
 4723SOL    HW225632   3.448   3.550  15.997  1.1514  0.0287  2.0386
 4724SOL     OW25633   1.916   4.334   3.331  0.1967  0.3932 -0.0281
 4724SOL    HW125634   1.831   4.292   3.316 -0.9961  2.5484  0.5720
 4724SOL    HW225635   1.891   4.403   3.393  0.7035 -0.5499  1.2227
 4725SOL     OW25636   0.111   1.391   8.250  0.0097 -0.4283 -0.2311
 4725SOL    HW125637   0.182   1.334   8.224 -0.4693 -0.6228 -1.1194
 4725SOL    HW225638   0.111   1.464   8.188 -0.0528 -1.0489 -0.9596
 4726SOL     OW25639   1.134   0.079   5.353  0.3143 -0.2937 -0.5760
 4726SOL    HW125640   1.142   0.091   5.448  1.0222  1.2186 -0.8239
 4726SOL    HW225641   1.196   0.149   5.331 -1.1958  1.7562  1.6225
 4727SOL     OW25642   2.888   3.076  13.053 -0.3330  0.0700  0.1983
 4727SOL    HW125643   2.860   3.062  13.144 -1.8559 -2.9337 -0.7062
 4727SOL    HW225644   2.898   3.171  13.051  0.1091 -0.0120 -1.3299
 4728SOL     OW25645   1.852   1.330   4.247  0.4148 -0.3509 -0.5297
 4728SOL    HW125646   1.884   1.307   4.160  2.3307 -1.9216  0.5787
 4728SOL    HW225647   1.916   1.289   4.306 -0.4855  1.7741  1.9422
 4729SOL     OW25648   1.795   3.787  11.803 -0.4901 -0.1261  0.2302
 4729SOL    HW125649   1.795   3.739  11.721 -0.1997 -1.9704  1.3193
 4729SOL    HW225650   1.790   3.876  11.766  3.1178  0.2495  0.5837
 4730SOL     OW25651   1.879   3.169   3.401  0.4957 -0.1055  0.4855
 4730SOL    HW125652   1.966   3.191   3.367 -0.4308  1.7156 -0.7011
 4730SOL    HW225653   1.842   3.146   3.315  2.7149 -1.2169 -0.1880
 4731SOL     OW25654   0.678   1.537   4.612 -0.0363  0.4159 -0.3433
 4731SOL    HW125655   0.722   1.509   4.531  2.7021 -1.1751  1.6985
 4731SOL    HW225656   0.586   1.543   4.586 -0.1230 -2.1951 -0.6152
 4732SOL     OW25657   1.376   4.392   7.283 -0.3813  0.3375  0.1489
 4732SOL    HW125658   1.350   4.484   7.283  2.7383  1.2169  0.5134
 4732SOL    HW225659   1.286   4.361   7.295 -0.6792  0.7035 -1.1683
 4733SOL     OW25660   3.993   3.742   7.925  0.2547  0.3988  0.2511
 4733SOL    HW125661   4.081   3.719   7.955 -0.9870 -1.0617  2.7832
 4733SOL    HW225662   4.000   3.837   7.916  1.5671  0.5295  2.7950
 4734SOL     OW25663   0.851   3.797   4.198 -0.4020  0.0236  0.3561
 4734SOL    HW125664   0.845   3.737   4.273  1.4786 -0.6409 -0.0284
 4734SOL    HW225665   0.815   3.734   4.136  0.4038 -0.7772  0.7032
 4735SOL     OW25666   4.208   1.470  10.932 -0.4300 -0.1798  0.4172
 4735SOL    HW125667   4.267   1.398  10.957  0.1587 -0.1727 -0.9882
 4735SOL    HW225668   4.259   1.520  10.869 -0.5455 -0.1417  0.3536
 4736SOL     OW25669   2.306   4.246   4.630 -0.2430  0.1698 -0.5207
 4736SOL    HW125670   2.295   4.285   4.543  4.0417  3.5907  0.4400
 4736SOL    HW225671   2.219   4.220   4.660  0.2329 -0.0595  0.6674
 4737SOL     OW25672   2.754   0.974   4.746  0.7978 -0.2994  0.1465
 4737SOL    HW125673   2.818   0.949   4.812 -0.1691  0.2699  1.2992
 4737SOL    HW225674   2.791   0.924   4.673 -1.8219 -3.3763  0.9289
 4738SOL     OW25675   1.178   2.952   3.175 -0.3412 -0.1435 -0.2291
 4738SOL    HW125676   1.203   3.037   3.138  0.4989 -0.5979 -0.6955
 4738SOL    HW225677   1.247   2.902   3.131 -0.3210  1.3810 -1.9517
 4739SOL     OW25678   3.397   1.912   6.099  0.1895  0.0102  0.2567
 4739SOL    HW125679   3.336   1.846   6.133 -2.0630  2.3183  0.6598
 4739SOL    HW225680   3.443   1.939   6.179  0.0969 -0.2003  0.3811
 4740SOL     OW25681   0.281   4.476   0.747  0.2559 -0.3415  0.5766
 4740SOL    HW125682   0.228   4.398   0.733 -3.3634  2.2310  0.0048
 4740SOL    HW225683   0.361   4.456   0.698  0.2038 -1.7807  1.0788
 4741SOL     OW25684   0.473   3.668  16.636  0.0726  0.4614 -0.6800
 4741SOL    HW125685   0.500   3.751  16.676  0.4998 -2.0606  4.2640
 4741SOL    HW225686   0.553   3.621  16.662  0.5088  1.0546 -0.9595
 4742SOL     OW25687   1.118   4.313  16.547  0.1319 -0.4841 -0.4418
 4742SOL    HW125688   1.053   4.335  16.614  0.3257  3.3601 -1.5446
 4742SOL    HW225689   1.200   4.329  16.593 -0.7118 -2.0578  1.6257
 4743SOL     OW25690   1.967   1.540   0.661  0.3844 -0.0617 -0.4623
 4743SOL    HW125691   2.010   1.459   0.631  0.7397 -0.7279  1.8857
 4743SOL    HW225692   1.941   1.571   0.574  1.4088 -2.0552 -1.4963
 4744SOL     OW25693   2.338   2.048   2.649  0.2344 -0.0044  0.6264
 4744SOL    HW125694   2.367   1.983   2.713  1.4428 -0.4746 -0.3893
 4744SOL    HW225695   2.425   2.082   2.625  0.4552  0.6579  2.3602
 4745SOL     OW25696   3.205   3.850   8.697  0.1401 -0.3184  0.1733
 4745SOL    HW125697   3.257   3.825   8.774  1.8045 -1.5698 -1.3588
 4745SOL    HW225698   3.178   3.936   8.731  1.8047 -0.2707  1.3662
 4746SOL     OW25699   2.010   3.659   8.030  0.5274 -0.2610  0.9996
 4746SOL    HW125700   2.006   3.570   8.066 -3.5865 -0.4033  0.1674
 4746SOL    HW225701   2.051   3.700   8.106 -1.0463  1.0610  1.1226
 4747SOL     OW25702   1.546   2.976   3.458  0.5895 -0.3281  0.2748
 4747SOL    HW125703   1.632   2.936   3.448  1.1622  1.4148 -1.6463
 4747SOL    HW225704   1.500   2.896   3.432 -1.1486 -0.2632  3.2040
 4748SOL     OW25705   3.212   3.312   5.176  0.6993 -0.0939  0.0860
 4748SOL    HW125706   3.254   3.267   5.250 -0.5057  1.4643  1.7309
 4748SOL    HW225707   3.284   3.331   5.116  1.1303 -2.0313 -0.0196
 4749SOL     OW25708   2.213   1.261   9.590  0.0886 -0.3990  0.0838
 4749SOL    HW125709   2.284   1.296   9.644  0.6066 -1.5267  0.1285
 4749SOL    HW225710   2.260   1.192   9.544  2.2225  0.1167  1.4738
 4750SOL     OW25711   0.068   1.345   5.702  0.7456 -0.6760  0.4683
 4750SOL    HW125712   4.703   1.325   5.710  0.9731 -2.1691 -0.4968
 4750SOL    HW225713   0.113   1.302   5.774  0.6090  0.0447  0.9832
 4751SOL     OW25714   4.725   1.250   2.374  0.0978 -0.1159  0.0711
 4751SOL    HW125715   0.076   1.283   2.332  0.3184 -1.3477 -0.4904
 4751SOL    HW225716   4.661   1.321   2.373  0.7088  0.4714  1.6494
 4752SOL     OW25717   0.107   2.699   4.610  0.3142  0.0737 -0.2155
 4752SOL    HW125718   0.015   2.678   4.626  0.6424  0.1414  1.7332
 4752SOL    HW225719   0.131   2.632   4.546 -2.2089  0.3026 -1.3837
 4753SOL     OW25720   4.500   0.192   5.869 -0.5327  0.2194  0.5720
 4753SOL    HW125721   4.431   0.179   5.934 -2.4089  1.0852 -1.2221
 4753SOL    HW225722   4.557   0.121   5.896 -0.9914 -0.7094 -0.8689
 4754SOL     OW25723   4.671   2.985  12.236 -0.1396  0.1273  0.7960
 4754SOL    HW125724   4.682   2.905  12.184 -2.9072 -0.4775  1.1448
 4754SOL    HW225725   4.599   2.959  12.293 -1.7483  1.0037 -0.8372
 4755SOL     OW25726   4.708   3.391   5.516 -0.2474 -0.1824  0.1592
 4755SOL    HW125727   4.686   3.385   5.423 -1.8650 -0.1797  0.5327
 4755SOL    HW225728   0.043   3.321   5.499  1.1660  0.8751  1.0869
 4756SOL     OW25729   2.166   2.737  12.742 -0.1344  0.0230  0.2074
 4756SOL    HW125730   2.236   2.793  12.777 -1.5728  1.1206  1.3650
 4756SOL    HW225731   2.183   2.729  12.648  0.6204 -0.8379  0.4250
 4757SOL     OW25732   1.411   2.177   2.718 -0.2002 -0.0522  0.1561
 4757SOL    HW125733   1.327   2.199   2.758 -0.2565  1.4849 -0.8102
 4757SOL    HW225734   1.434   2.265   2.689  0.0408  0.5221  2.1511
 4758SOL     OW25735   4.346   0.569   3.329 -0.4896  0.2703 -0.6532
 4758SOL    HW125736   4.433   0.608   3.326 -1.2789  2.1316  0.3015
 4758SOL    HW225737   4.340   0.528   3.243  0.4320  1.0629 -1.0870
 4759SOL     OW25738   3.929   0.037   6.834 -0.0470 -0.4847 -0.1383
 4759SOL    HW125739   3.892   0.108   6.781 -0.8780 -0.2302  0.7713
 4759SOL    HW225740   3.908   4.686   6.785  1.8811 -0.9853 -0.1625
 4760SOL     OW25741   0.130   4.022   4.847  0.2797 -0.3697 -0.5137
 4760SOL    HW125742   0.045   4.029   4.803 -0.8243 -1.9359  1.3719
 4760SOL    HW225743   0.135   4.115   4.868  0.4175 -0.4932 -0.0081
 4761SOL     OW25744   2.350   4.682   6.225  0.3426  0.1737  0.3798
 4761SOL    HW125745   2.429   4.635   6.200 -0.6088 -0.5658 -1.2900
 4761SOL    HW225746   2.342   4.652   6.315 -2.5825  0.3363  0.1818
 4762SOL     OW25747   4.041   4.606   5.179  0.0436  0.7381  0.1037
 4762SOL    HW125748   4.072   4.531   5.129  1.3101  1.0115  0.4961
 4762SOL    HW225749   4.071   4.592   5.268 -0.1447 -2.1634 -0.2978
 4763SOL     OW25750   4.475   0.059   5.590 -0.1729 -0.4357  0.4523
 4763SOL    HW125751   4.458   0.076   5.682 -1.7674 -1.0633  0.2809
 4763SOL    HW225752   4.430   0.134   5.551  1.0573  1.5811  2.9222
 4764SOL     OW25753   4.101   0.893   2.233 -0.3712  0.4179 -0.0305
 4764SOL    HW125754   4.116   0.986   2.215  3.4694 -0.0557  0.7581
 4764SOL    HW225755   4.041   0.896   2.308 -1.2376 -3.9910 -0.5411
 4765SOL     OW25756   2.383   3.484   8.487 -0.5035 -0.3932  0.4793
 4765SOL    HW125757   2.302   3.528   8.460 -0.4801  0.2036  1.3616
 4765SOL    HW225758   2.348   3.413   8.540 -1.8371  0.8069  1.2211
 4766SOL     OW25759   0.985   2.177   0.403 -0.3493 -0.6598  0.0544
 4766SOL    HW125760   0.983   2.124   0.324  1.7783  0.2532 -0.6302
 4766SOL    HW225761   0.924   2.247   0.381 -0.0398 -0.0405  1.1430
 4767SOL     OW25762   4.297   0.871  11.772 -0.4557 -0.0390 -0.3634
 4767SOL    HW125763   4.218   0.817  11.776 -1.5173  1.5707  0.4265
 4767SOL    HW225764   4.350   0.797  11.743 -1.7558 -0.4085 -1.8477
 4768SOL     OW25765   2.351   2.239   3.244 -0.6108  0.0476 -0.0993
 4768SOL    HW125766   2.351   2.188   3.325 -1.3506  1.2172  0.6447
 4768SOL    HW225767   2.262   2.268   3.223 -1.7526 -2.7905  0.8711
 4769SOL     OW25768   0.373   4.125   6.081  0.3917  0.5027  0.5762
 4769SOL    HW125769   0.383   4.105   5.988  4.1243  2.7764  0.5088
 4769SOL    HW225770   0.433   4.199   6.086  0.1816  0.4985  2.7931
 4770SOL     OW25771   3.657   4.546   9.622  0.0566  0.1579  0.1030
 4770SOL    HW125772   3.726   4.490   9.586 -0.3874 -0.7976  0.7296
 4770SOL    HW225773   3.651   4.596   9.540  0.7646  2.3743  1.4020
 4771SOL     OW25774   2.217   0.283  15.867 -0.5614  0.1631  0.4784
 4771SOL    HW125775   2.199   0.325  15.783  0.5907 -2.3140 -1.0302
 4771SOL    HW225776   2.155   0.210  15.876 -0.0186 -0.3974 -0.3325
 4772SOL     OW25777   2.482   0.138   0.420  0.5097  0.2501 -0.0022
 4772SOL    HW125778   2.492   0.221   0.373  1.6417  0.0170 -0.1726
 4772SOL    HW225779   2.571   0.105   0.408  0.0204 -1.4126  0.9808
 4773SOL     OW25780   0.382   4.045   5.204  0.2951  0.4012 -0.4138
 4773SOL    HW125781   0.434   4.075   5.129 -0.1409 -0.8182 -1.1953
 4773SOL    HW225782   0.320   3.981   5.171 -0.4621  0.0941  1.6238
 4774SOL     OW25783   0.576   0.299  17.240 -0.6202 -0.4302  0.2147
 4774SOL    HW125784   0.503   0.258  17.194 -0.7871 -0.0013  0.0946
 4774SOL    HW225785   0.622   0.324  17.160 -1.6080 -0.9922 -0.5284
 4775SOL     OW25786   0.984   1.924   7.018 -0.0498 -0.1652  0.0028
 4775SOL    HW125787   0.994   2.018   7.025  1.5631 -0.5231  2.4150
 4775SOL    HW225788   1.012   1.920   6.927 -1.2904 -1.1125 -0.3454
 4776SOL     OW25789   0.140   0.306   9.939 -0.5427  0.2713  0.1780
 4776SOL    HW125790   0.059   0.333   9.983 -0.0538 -0.7166  1.6627
 4776SOL    HW225791   0.182   0.265  10.015  0.9618  1.3084 -0.0943
 4777SOL     OW25792   3.000   1.896   5.844  0.4125  0.3102  0.3715
 4777SOL    HW125793   3.058   1.972   5.844 -1.0694  1.4359  0.0399
 4777SOL    HW225794   3.038   1.840   5.777 -0.9857 -1.1072  0.7653
 4778SOL     OW25795   2.320   0.645   3.490  0.3291  0.0785 -0.6526
 4778SOL    HW125796   2.234   0.604   3.482 -0.8823  2.6246 -0.7548
 4778SOL    HW225797   2.359   0.621   3.406  0.6555  1.6511 -0.9406
 4779SOL     OW25798   4.254   1.388   5.950  0.0752  0.1312 -0.4782
 4779SOL    HW125799   4.187   1.449   5.920 -1.1989 -0.6977  0.6743
 4779SOL    HW225800   4.250   1.320   5.883  0.8149 -0.7277  0.3395
 4780SOL     OW25801   1.688   1.940   5.671 -0.5231  0.0340  0.5671
 4780SOL    HW125802   1.717   2.029   5.652  4.1450 -1.7286 -0.5467
 4780SOL    HW225803   1.623   1.922   5.603  0.4313 -0.1363 -0.2936
 4781SOL     OW25804   1.576   3.417   5.237  0.9127 -0.6274  0.3083
 4781SOL    HW125805   1.619   3.450   5.158  0.5401 -2.7801 -0.7823
 4781SOL    HW225806   1.509   3.360   5.200 -0.7136  1.8985 -0.6299
 4782SOL     OW25807   3.619   0.984   8.137 -0.4220 -0.0420 -0.3144
 4782SOL    HW125808   3.607   1.015   8.047  3.0336  1.5064 -0.2253
 4782SOL    HW225809   3.549   1.033   8.181 -0.2168 -0.5616  0.5875
 4783SOL     OW25810   4.517   4.138   3.170  0.1787  0.1409  0.0222
 4783SOL    HW125811   4.448   4.082   3.135  0.1877 -0.4148  0.8915
 4783SOL    HW225812   4.591   4.116   3.113  1.1276 -1.6993  1.9543
 4784SOL     OW25813   2.421   4.028  17.379  0.4202 -0.2542  0.3961
 4784SOL    HW125814   2.384   4.112  17.351  0.1753 -0.2279  0.7935
 4784SOL    HW225815   2.417   3.980  17.296 -0.6207 -0.1196  0.3663
 4785SOL     OW25816   4.719   2.926   3.573 -0.4044  0.1153  0.1437
 4785SOL    HW125817   0.028   3.009   3.544 -1.0139  0.6185  0.8253
 4785SOL    HW225818   4.665   2.896   3.500  1.8475 -0.0765 -1.4703
 4786SOL     OW25819   1.013   3.158   6.703 -0.4306 -0.6676  0.3586
 4786SOL    HW125820   1.041   3.067   6.706  2.1181  0.0831 -0.0653
 4786SOL    HW225821   1.085   3.194   6.755  1.6740  2.0200 -4.3791
 4787SOL     OW25822   0.558   1.380   7.047 -0.0398 -0.0432  0.1561
 4787SOL    HW125823   0.497   1.324   6.999 -1.0149  1.5844 -0.4945
 4787SOL    HW225824   0.626   1.312   7.048  0.4283  0.4052 -2.0531
 4788SOL     OW25825   3.190   3.816   3.084 -0.5530  0.4668 -0.2674
 4788SOL    HW125826   3.112   3.796   3.032 -0.2259  1.1267 -1.0164
 4788SOL    HW225827   3.250   3.750   3.049  1.2701  2.2647 -0.5517
 4789SOL     OW25828   4.314   2.754  13.842 -0.0274  0.2911  0.0690
 4789SOL    HW125829   4.407   2.777  13.853  0.3506 -2.0769  1.7165
 4789SOL    HW225830   4.293   2.747  13.935  0.6349  4.0177  0.4947
 4790SOL     OW25831   2.952   1.885  12.463 -0.0026  0.0112 -0.2466
 4790SOL    HW125832   2.977   1.794  12.446  0.4384 -0.0436  0.6613
 4790SOL    HW225833   2.974   1.878  12.556  1.8763 -0.7492 -0.7353
 4791SOL     OW25834   0.593   3.904   4.814 -0.0851  0.4140  0.6498
 4791SOL    HW125835   0.682   3.928   4.788 -0.4909  2.3475  1.0306
 4791SOL    HW225836   0.536   3.911   4.737 -0.9757 -0.8818  1.1987
 4792SOL     OW25837   1.609   3.741   0.961 -0.2995  0.5909 -0.1584
 4792SOL    HW125838   1.526   3.697   0.942  0.5165 -0.7518 -0.6376
 4792SOL    HW225839   1.612   3.735   1.056 -2.4009  1.3090 -0.0611
 4793SOL     OW25840   2.866   2.424   3.900  0.2303 -0.1847 -0.2647
 4793SOL    HW125841   2.924   2.500   3.910 -1.4030  1.1261 -0.6021
 4793SOL    HW225842   2.803   2.454   3.835 -1.9162  0.1384  1.9525
 4794SOL     OW25843   3.480   0.034   2.593  0.6282  0.1123 -0.2269
 4794SOL    HW125844   3.462   0.045   2.686 -0.9462 -0.4255 -0.4693
 4794SOL    HW225845   3.409   0.092   2.564 -0.7493 -0.3040  2.3112
 4795SOL     OW25846   2.389   0.518   3.128 -0.4887  0.1897 -0.2362
 4795SOL    HW125847   2.384   0.614   3.124 -1.3956  0.1896  0.6666
 4795SOL    HW225848   2.390   0.479   3.041 -0.3482 -0.5557  0.1017
 4796SOL     OW25849   0.118   3.937   7.815 -0.5733  0.6950 -0.6524
 4796SOL    HW125850   0.087   3.860   7.862 -0.8155  3.0434  2.9747
 4796SOL    HW225851   0.069   3.934   7.732 -1.2584  0.3819 -0.2327
 4797SOL     OW25852   0.997   1.181   1.772 -0.5920 -0.4269  0.3856
 4797SOL    HW125853   1.027   1.242   1.705 -0.9406 -1.5296 -0.7822
 4797SOL    HW225854   0.945   1.240   1.828 -1.1356  0.0778 -0.6463
 4798SOL     OW25855   2.328   4.600   4.031 -0.8074  0.1638  0.9341
 4798SOL    HW125856   2.267   4.628   4.099  0.6104 -0.6304  2.5411
 4798SOL    HW225857   2.294   4.512   4.013  1.8062 -0.4315 -0.9337
 4799SOL     OW25858   1.077   0.125   9.357 -0.2500 -0.0335 -0.2183
 4799SOL    HW125859   1.147   0.067   9.326 -0.1965  0.3711 -0.8563
 4799SOL    HW225860   1.088   0.198   9.296 -0.2259  0.0268 -0.1422
 4800SOL     OW25861   0.177   2.343   3.709  0.1519  0.0405 -0.6303
 4800SOL    HW125862   0.239   2.292   3.657 -1.7448 -1.9016 -1.0026
 4800SOL    HW225863   0.219   2.430   3.708 -0.2867  0.2559  0.8870
 4801SOL     OW25864   3.536   2.383  15.168  0.7847  0.6396 -0.1858
 4801SOL    HW125865   3.569   2.422  15.249 -1.0888  0.0465  0.8722
 4801SOL    HW225866   3.442   2.380  15.187  1.2678  1.1253  2.2489
 4802SOL     OW25867   1.411   1.565  10.559 -0.3009 -0.1358 -0.0792
 4802SOL    HW125868   1.414   1.645  10.506  0.6952  2.4665  3.8992
 4802SOL    HW225869   1.455   1.498  10.507 -0.1016 -0.6427  0.7359
 4803SOL     OW25870   1.459   2.194   7.101 -0.8148  0.2952  0.3182
 4803SOL    HW125871   1.438   2.188   7.007 -0.1392  0.8670  0.1305
 4803SOL    HW225872   1.551   2.213   7.087 -1.0368 -0.0423 -1.6621
 4804SOL     OW25873   1.909   3.955  14.255  0.0851  0.3117 -0.0351
 4804SOL    HW125874   1.847   3.973  14.326  1.1195 -1.6513  1.3683
 4804SOL    HW225875   1.981   4.017  14.268  1.6245 -1.2340 -1.2801
 4805SOL     OW25876   1.559   3.913   7.716 -0.6484  0.1139  0.2261
 4805SOL    HW125877   1.564   4.007   7.735 -0.5951  0.4649 -1.4670
 4805SOL    HW225878   1.480   3.895   7.767 -0.0871  3.0456  2.1103
 4806SOL     OW25879   2.862   1.295   3.433  0.7801  0.8995  0.2235
 4806SOL    HW125880   2.853   1.336   3.519  1.1520 -1.3658  1.3274
 4806SOL    HW225881   2.779   1.251   3.419  0.4023  1.2431  1.3767
 4807SOL     OW25882   3.638   4.031  17.529  0.0542  0.1023 -0.1410
 4807SOL    HW125883   3.612   4.119  17.556 -0.6123 -0.8290  2.1855
 4807SOL    HW225884   3.597   4.035  17.443 -0.0079 -0.8085 -0.1525
 4808SOL     OW25885   0.937   2.164   1.623 -0.5662  0.1813 -0.1615
 4808SOL    HW125886   0.853   2.136   1.587 -0.0954  1.1587 -2.0524
 4808SOL    HW225887   0.960   2.229   1.556 -3.4143  3.6077  2.2302
 4809SOL     OW25888   1.056   0.174   3.505  0.1631  0.4565 -0.1487
 4809SOL    HW125889   1.135   0.146   3.459  0.2449 -1.6293  1.2630
 4809SOL    HW225890   1.014   0.088   3.512 -0.7279  0.8404 -0.7508
 4810SOL     OW25891   1.781   1.658   1.308  0.4894  0.4309 -0.1062
 4810SOL    HW125892   1.723   1.583   1.293 -0.7992  1.8005 -1.9895
 4810SOL    HW225893   1.789   1.695   1.220  1.3416  0.1550 -0.1433
 4811SOL     OW25894   2.259   2.739   9.864  0.0302 -0.2392 -0.3812
 4811SOL    HW125895   2.213   2.806   9.915 -1.6180 -2.1322  0.5973
 4811SOL    HW225896   2.301   2.801   9.804  1.1734 -1.5474 -0.9323
 4812SOL     OW25897   3.590   2.890  10.885  0.3324  0.2069  0.2729
 4812SOL    HW125898   3.554   2.816  10.933 -0.2491  0.4039  0.1455
 4812SOL    HW225899   3.516   2.947  10.862  1.6072  1.5454 -0.5039
 4813SOL     OW25900   0.931   3.897   1.467  0.2016  0.2596  0.3215
 4813SOL    HW125901   0.877   3.965   1.507 -2.1907 -0.9498 -0.8078
 4813SOL    HW225902   1.011   3.949   1.474  0.7939 -0.2406 -2.6973
 4814SOL     OW25903   3.320   0.143   2.799 -0.1662  0.5168 -0.6710
 4814SOL    HW125904   3.232   0.105   2.807 -0.5588  1.3647 -0.9035
 4814SOL    HW225905   3.337   0.157   2.892  0.4958  1.3480 -0.9092
 4815SOL     OW25906   4.157   1.242   2.949  0.2900  0.2259 -0.0344
 4815SOL    HW125907   4.226   1.178   2.968  0.6044  0.4773 -0.3514
 4815SOL    HW225908   4.204   1.323   2.970  0.0509  0.6610 -1.1783
 4816SOL     OW25909   2.090   1.587  14.792 -0.3977 -0.6287 -0.4780
 4816SOL    HW125910   2.184   1.603  14.800 -0.8737  0.1722  3.5521
 4816SOL    HW225911   2.077   1.620  14.703  0.8049  0.4810 -0.2517
 4817SOL     OW25912   4.256   4.327   8.461  0.8850  0.2215 -0.9230
 4817SOL    HW125913   4.203   4.401   8.431  2.0925  1.9590  1.2291
 4817SOL    HW225914   4.205   4.254   8.426  1.9890 -0.2761 -1.4800
 4818SOL     OW25915   3.176   0.627   8.365 -0.0369 -0.9890 -0.6340
 4818SOL    HW125916   3.229   0.687   8.418 -1.4117 -2.1217  2.0345
 4818SOL    HW225917   3.216   0.541   8.373 -0.0726 -0.9026  0.4697
 4819SOL     OW25918   1.765   4.032  13.249  0.4878  0.2753  0.2829
 4819SOL    HW125919   1.785   3.994  13.164  0.6367  1.9441 -0.4325
 4819SOL    HW225920   1.853   4.066  13.268  1.1124 -0.7578 -0.7595
 4820SOL     OW25921   2.156   4.640   1.970  1.0699 -0.3425 -0.7024
 4820SOL    HW125922   2.073   4.633   1.923  0.7651 -1.1756 -0.0313
 4820SOL    HW225923   2.130   4.622   2.061 -0.2061 -0.1068 -1.0247
 4821SOL     OW25924   2.287   3.090  16.221 -0.0251 -0.3814 -0.4482
 4821SOL    HW125925   2.204   3.132  16.245 -0.2185 -0.0461 -1.7081
 4821SOL    HW225926   2.322   3.146  16.151 -0.1255 -1.1573 -1.1281
 4822SOL     OW25927   1.617   4.136   2.522  0.0118  0.1672 -0.2335
 4822SOL    HW125928   1.550   4.182   2.472 -0.2992 -1.2313 -1.1141
 4822SOL    HW225929   1.692   4.150   2.465  0.9145 -2.6391  0.2702
 4823SOL     OW25930   2.430   0.610   2.454  0.1600  0.3971 -0.1249
 4823SOL    HW125931   2.472   0.535   2.495 -0.5461  0.1983  0.2405
 4823SOL    HW225932   2.491   0.631   2.384  0.9746  3.1684  1.4231
 4824SOL     OW25933   3.266   0.847   3.989 -0.1841 -0.7194  0.4890
 4824SOL    HW125934   3.301   0.894   3.914 -2.6598  1.4614  0.7171
 4824SOL    HW225935   3.291   0.759   3.961 -1.9016 -1.3532  0.9098
 4825SOL     OW25936   2.497   2.811   1.792  0.2305  0.2636 -0.1078
 4825SOL    HW125937   2.556   2.856   1.732  1.3353 -0.6669  0.2838
 4825SOL    HW225938   2.502   2.872   1.866 -0.9970  1.7687 -1.2684
 4826SOL     OW25939   3.527   2.328  13.094  0.2711 -0.3890  0.3354
 4826SOL    HW125940   3.486   2.355  13.176  0.5767 -0.5299  0.5359
 4826SOL    HW225941   3.583   2.405  13.084 -0.2859 -0.1281 -0.7344
 4827SOL     OW25942   4.292   3.489  10.297  0.6167 -0.3877  0.3885
 4827SOL    HW125943   4.225   3.464  10.360 -0.0467  3.1877  1.0914
 4827SOL    HW225944   4.372   3.475  10.347  0.5301 -1.7887  0.1392
 4828SOL     OW25945   3.533   0.587   8.740 -0.0485  0.2812  0.2044
 4828SOL    HW125946   3.557   0.577   8.648 -0.3231  0.8858  0.0630
 4828SOL    HW225947   3.601   0.532   8.778 -2.1748 -1.4340  1.5018
 4829SOL     OW25948   4.160   0.834   7.673  0.5588  0.5464  0.5409
 4829SOL    HW125949   4.216   0.763   7.704  1.2813  0.2465 -1.4665
 4829SOL    HW225950   4.093   0.838   7.741  1.6310 -1.2083  1.6944
 4830SOL     OW25951   3.776   0.745   7.933 -0.5572 -0.2661  0.4948
 4830SOL    HW125952   3.687   0.781   7.930 -1.2890 -2.1643 -0.6206
 4830SOL    HW225953   3.765   0.651   7.940  1.7488 -0.5396  0.4585
 4831SOL     OW25954   2.103   3.511   1.526  0.1883  0.4831 -0.3900
 4831SOL    HW125955   2.127   3.543   1.613 -1.3832 -1.2601  0.6780
 4831SOL    HW225956   2.012   3.487   1.541  0.5618 -0.0977  0.9191
 4832SOL     OW25957   4.526   1.532  12.219  0.2323 -0.0728 -0.0239
 4832SOL    HW125958   4.477   1.526  12.302 -0.4205  1.3781 -0.2977
 4832SOL    HW225959   4.461   1.580  12.168  0.2531 -0.3994 -0.3598
 4833SOL     OW25960   3.791   2.918   8.647 -0.1520  0.0532  0.0617
 4833SOL    HW125961   3.802   2.898   8.554 -3.3742 -1.8508  0.1152
 4833SOL    HW225962   3.768   3.011   8.649  0.8826  0.2831  1.8420
 4834SOL     OW25963   0.446   3.500   2.930 -0.6665 -0.1378 -0.3264
 4834SOL    HW125964   0.475   3.424   2.980 -1.3050  0.4435  0.9378
 4834SOL    HW225965   0.362   3.469   2.898 -0.9526  0.4176 -0.1244
 4835SOL     OW25966   3.628   1.165   3.796 -0.2282  0.1651  0.6052
 4835SOL    HW125967   3.545   1.128   3.825 -0.7597  1.2854  0.4907
 4835SOL    HW225968   3.668   1.079   3.783 -2.2761 -0.3838 -2.0112
 4836SOL     OW25969   2.546   2.445  15.805  0.1468  0.8657 -0.5125
 4836SOL    HW125970   2.572   2.459  15.715 -0.8642 -2.1431 -1.2751
 4836SOL    HW225971   2.630   2.438  15.850 -1.1010 -0.0441  1.7000
 4837SOL     OW25972   0.931   3.883  15.525  0.7655  0.2748  0.1090
 4837SOL    HW125973   0.999   3.857  15.463 -1.9063  0.4180 -2.8422
 4837SOL    HW225974   0.931   3.804  15.579  0.7709 -0.0008 -0.2924
 4838SOL     OW25975   3.090   4.316  10.732  0.1408 -0.0551 -0.3044
 4838SOL    HW125976   3.109   4.247  10.796  1.8138 -0.5672 -1.3701
 4838SOL    HW225977   3.088   4.266  10.650  1.5899 -1.5935  0.5875
 4839SOL     OW25978   1.174   0.550   7.463  0.7270 -0.2174 -0.3887
 4839SOL    HW125979   1.111   0.512   7.402 -0.0510 -5.2111  3.5525
 4839SOL    HW225980   1.124   0.610   7.518  0.2017 -2.9684  2.0989
 4840SOL     OW25981   1.284   2.525  11.484 -0.0693 -0.0033 -0.1322
 4840SOL    HW125982   1.262   2.456  11.547  0.8559 -0.4540 -0.3014
 4840SOL    HW225983   1.333   2.587  11.538 -0.2554  0.2928 -0.3112
 4841SOL     OW25984   0.807   0.481   6.313  0.0134  0.2334  0.9147
 4841SOL    HW125985   0.781   0.573   6.302  1.4440  0.4871 -0.3943
 4841SOL    HW225986   0.819   0.456   6.221 -1.5099 -0.3623  0.8719
 4842SOL     OW25987   2.692   2.120   6.136  0.4999  0.8235  0.1567
 4842SOL    HW125988   2.782   2.152   6.134  0.2635  1.5111  0.6713
 4842SOL    HW225989   2.650   2.200   6.104 -0.5295  0.4381  0.5615
 4843SOL     OW25990   2.149   0.563  10.091  0.3594  0.5412  0.2179
 4843SOL    HW125991   2.197   0.614  10.156  1.9143  0.2778 -0.6991
 4843SOL    HW225992   2.172   0.477  10.126  1.3760  1.1465  1.0423
 4844SOL     OW25993   3.294   4.645  14.853 -0.8358 -0.2135  0.3417
 4844SOL    HW125994   3.379   4.669  14.817 -1.5242  0.8206 -0.5871
 4844SOL    HW225995   3.255   4.726  14.884 -1.4602  0.3907 -2.0375
 4845SOL     OW25996   2.126   2.377   3.958 -0.4457 -0.0178 -0.2625
 4845SOL    HW125997   2.207   2.398   4.004 -0.2227  0.0157 -0.6700
 4845SOL    HW225998   2.088   2.462   3.939  2.7495  1.8464  1.6263
 4846SOL     OW25999   2.793   4.315   3.518  0.2420  0.3707 -0.3121
 4846SOL    HW126000   2.820   4.227   3.491  1.3795  0.3436  0.9159
 4846SOL    HW226001   2.726   4.299   3.584 -0.0477 -0.2461 -0.7511
 4847SOL     OW26002   2.376   2.898  12.815  0.0487 -0.8322  0.1914
 4847SOL    HW126003   2.321   2.956  12.868  2.9984  1.5772  0.5762
 4847SOL    HW226004   2.449   2.880  12.874 -0.1585  0.3180  0.7929
 4848SOL     OW26005   3.537   2.670   5.392  0.0180  0.0845 -0.1008
 4848SOL    HW126006   3.554   2.647   5.300 -0.1968 -2.2747  0.4382
 4848SOL    HW226007   3.450   2.632   5.397 -0.8875  2.4230  1.7462
 4849SOL     OW26008   3.584   0.268  11.010 -0.7306  0.0887  0.3937
 4849SOL    HW126009   3.651   0.318  10.964  1.9102 -0.9291  3.0920
 4849SOL    HW226010   3.583   0.190  10.956 -0.1412 -0.5808  1.3362
 4850SOL     OW26011   3.365   1.552  15.600 -0.1920 -0.0401  0.3255
 4850SOL    HW126012   3.297   1.507  15.650 -0.9063 -1.9693 -2.3557
 4850SOL    HW226013   3.330   1.639  15.615 -1.0055 -0.4416  0.7542
 4851SOL     OW26014   3.466   2.058  12.485 -0.4753 -0.3563  0.0896
 4851SOL    HW126015   3.393   2.099  12.439 -2.2111 -2.8946  0.5888
 4851SOL    HW226016   3.484   1.975  12.440  0.4905  0.4197 -0.9806
 4852SOL     OW26017   1.036   2.228   7.681  0.4967 -0.0679 -0.0084
 4852SOL    HW126018   1.040   2.226   7.586 -1.8726 -0.5040 -0.0842
 4852SOL    HW226019   1.043   2.134   7.700 -0.2775 -0.1558 -0.1844
 4853SOL     OW26020   2.119   0.810   1.992 -0.3328  0.1091 -0.5752
 4853SOL    HW126021   2.161   0.816   2.078 -0.8925 -0.2654 -0.2771
 4853SOL    HW226022   2.077   0.724   1.990  0.8154 -0.4215 -1.4521
 4854SOL     OW26023   2.358   3.114   7.755  0.0810 -0.4002  0.4788
 4854SOL    HW126024   2.281   3.074   7.713  0.7946 -0.5957 -0.6598
 4854SOL    HW226025   2.340   3.208   7.754 -0.2329 -0.4815 -1.9242
 4855SOL     OW26026   0.193   2.524   6.626 -0.6095 -0.3176 -0.1306
 4855SOL    HW126027   0.284   2.545   6.647 -0.2922 -0.9283 -0.9157
 4855SOL    HW226028   0.204   2.429   6.625 -3.0493 -0.6347  1.5401
 4856SOL     OW26029   2.188   0.072   8.245  0.0357 -0.0542  0.6332
 4856SOL    HW126030   2.179   4.724   8.189 -1.3105  0.7603 -0.2742
 4856SOL    HW226031   2.261   0.048   8.302 -1.3546 -3.3283  1.0428
 4857SOL     OW26032   4.609   4.094  17.474  0.1229  0.3700  0.6596
 4857SOL    HW126033   4.625   4.009  17.433 -0.9971 -0.1167  1.2200
 4857SOL    HW226034   4.514   4.085  17.481  0.2044 -1.1471 -0.2452
 4858SOL     OW26035   2.258   4.366   1.864 -0.5322 -0.3179 -0.1534
 4858SOL    HW126036   2.182   4.419   1.841  0.2993  0.1370 -1.8049
 4858SOL    HW226037   2.302   4.419   1.930  1.7284 -0.5329 -1.5106
 4859SOL     OW26038   1.391   0.276   9.201 -0.0591 -0.1134  0.1748
 4859SOL    HW126039   1.477   0.319   9.205  1.0592 -2.3870  0.2375
 4859SOL    HW226040   1.347   0.313   9.277 -0.5124 -1.3230  0.4972
 4860SOL     OW26041   1.332   0.435   8.386 -0.3237 -0.3858 -0.4881
 4860SOL    HW126042   1.243   0.463   8.406 -0.4400 -0.6440 -0.6529
 4860SOL    HW226043   1.369   0.520   8.361 -0.3084  0.0330  0.9189
 4861SOL     OW26044   0.278   3.318   1.177 -0.5971 -0.4606  0.0957
 4861SOL    HW126045   0.215   3.247   1.191 -0.6548 -0.7621 -1.6954
 4861SOL    HW226046   0.228   3.366   1.111 -1.8429 -1.2735  0.4405
 4862SOL     OW26047   2.134   2.324   8.311 -0.8871 -0.1141  0.1655
 4862SOL    HW126048   2.052   2.373   8.320 -0.8409  0.3344 -1.7939
 4862SOL    HW226049   2.106   2.232   8.314  0.3313 -0.5646 -2.0552
 4863SOL     OW26050   4.441   2.037   7.411 -0.3836 -0.7202 -0.3766
 4863SOL    HW126051   4.486   1.982   7.475 -3.1718  0.2535  2.4352
 4863SOL    HW226052   4.405   1.971   7.352  0.1316 -0.0541 -1.4325
 4864SOL     OW26053   4.495   0.777   7.469  0.6279 -0.6324 -1.0660
 4864SOL    HW126054   4.480   0.824   7.551 -1.6618 -3.2505 -0.0086
 4864SOL    HW226055   4.577   0.824   7.450 -0.2485  0.4040 -2.2420
 4865SOL     OW26056   2.741   0.184   4.869  0.0732  0.2879  0.0219
 4865SOL    HW126057   2.780   0.260   4.911  0.5755  1.3328 -2.3322
 4865SOL    HW226058   2.712   0.144   4.951  2.1345 -1.0729  0.0871
 4866SOL     OW26059   4.441   1.684   9.387 -0.2834 -0.3449  0.3576
 4866SOL    HW126060   4.507   1.638   9.335 -1.5673  0.4126 -1.9568
 4866SOL    HW226061   4.486   1.767   9.405  2.0255 -1.9407  1.9686
 4867SOL     OW26062   2.545   1.196   1.972  0.4746  0.3594  0.2986
 4867SOL    HW126063   2.495   1.226   2.048  0.4726 -1.8596  1.1759
 4867SOL    HW226064   2.521   1.254   1.900  1.7217 -0.2870 -0.6475
 4868SOL     OW26065   0.005   1.723   7.507  0.6683  0.1968 -0.2816
 4868SOL    HW126066   4.706   1.804   7.550  0.6576 -0.1043  0.2805
 4868SOL    HW226067   4.711   1.664   7.579 -0.1634 -0.0081 -0.7046
 4869SOL     OW26068   2.708   1.016   3.150 -0.1349 -0.2570  0.2267
 4869SOL    HW126069   2.673   1.098   3.186 -0.2466  0.5286 -1.6557
 4869SOL    HW226070   2.748   1.041   3.067  2.1458 -3.0309  0.4948
 4870SOL     OW26071   2.119   4.503   8.876 -0.1172 -0.5015 -0.4178
 4870SOL    HW126072   2.090   4.419   8.840 -2.6409 -0.4802  1.5895
 4870SOL    HW226073   2.187   4.463   8.929  1.0559  1.3772 -0.4847
 4871SOL     OW26074   4.215   2.838   5.779 -0.8080 -0.3575 -0.5463
 4871SOL    HW126075   4.142   2.900   5.786 -0.4278 -0.1560  1.7338
 4871SOL    HW226076   4.256   2.868   5.698  1.1184 -0.9667  0.2101
 4872SOL     OW26077   2.730   0.777  17.430  0.1848  0.2431  0.2267
 4872SOL    HW126078   2.685   0.857  17.403  1.1975  1.1005  1.0887
 4872SOL    HW226079   2.799   0.773  17.363  0.5628 -1.2761  0.7127
 4873SOL     OW26080   4.242   2.908   4.921  0.0786  0.5183 -0.2600
 4873SOL    HW126081   4.204   2.898   5.009 -0.8501  4.5591 -0.1904
 4873SOL    HW226082   4.323   2.955   4.940 -0.4409  0.6372  1.6556
 4874SOL     OW26083   0.334   1.688   9.747  0.3298 -0.0043 -0.4914
 4874SOL    HW126084   0.414   1.698   9.694 -0.6544 -0.1449 -1.9917
 4874SOL    HW226085   0.359   1.723   9.832 -2.4783 -1.6601  0.9971
 4875SOL     OW26086   3.869   0.629   1.939 -0.3985 -0.0910  0.0114
 4875SOL    HW126087   3.959   0.640   1.908 -0.5940 -0.4416 -0.6826
 4875SOL    HW226088   3.858   0.710   1.989  0.2245 -0.9417  1.5319
 4876SOL     OW26089   0.900   1.545   8.665 -0.4505  0.1770 -0.4637
 4876SOL    HW126090   0.922   1.454   8.682  0.1334  0.2719 -0.6765
 4876SOL    HW226091   0.985   1.573   8.701  0.4809  0.6414 -2.9870
 4877SOL     OW26092   1.785   1.634   6.579  0.1140 -0.1583  0.4886
 4877SOL    HW126093   1.712   1.639   6.517  1.3960 -1.7670 -1.1343
 4877SOL    HW226094   1.739   1.614   6.660 -0.3175 -2.3751 -0.3053
 4878SOL     OW26095   3.031   4.524   6.545  0.6876  0.1350  0.3355
 4878SOL    HW126096   2.971   4.510   6.472  1.2355  3.0350 -0.6577
 4878SOL    HW226097   2.973   4.549   6.617 -2.6337 -0.5116 -2.1391
 4879SOL     OW26098   4.405   2.620  12.325 -0.0631 -0.2677  0.0366
 4879SOL    HW126099   4.363   2.674  12.392 -0.4443 -1.4592  0.7424
 4879SOL    HW226100   4.334   2.569  12.286  1.9669 -1.5421 -2.0163
 4880SOL     OW26101   4.475   3.873   5.368 -0.7321  0.1307  0.0199
 4880SOL    HW126102   4.523   3.949   5.334 -0.7751  1.8071  3.7213
 4880SOL    HW226103   4.523   3.868   5.451 -0.9289  1.6281  0.2228
 4881SOL     OW26104   2.708   0.672  16.379  0.4323 -0.4644 -0.1985
 4881SOL    HW126105   2.722   0.766  16.377  0.5625 -0.4915 -0.7465
 4881SOL    HW226106   2.649   0.651  16.306 -2.9561 -1.3922  2.8153
 4882SOL     OW26107   3.963   0.216   5.927  0.2379 -0.5092 -0.4735
 4882SOL    HW126108   3.958   0.209   5.832 -1.0865 -1.5496 -0.3378
 4882SOL    HW226109   4.008   0.299   5.941  2.4141 -2.1426  2.3201
 4883SOL     OW26110   0.949   0.923  14.196  0.1708  0.2200 -0.4531
 4883SOL    HW126111   0.885   0.965  14.254 -2.1240 -0.7040 -2.3339
 4883SOL    HW226112   1.031   0.971  14.205  0.5616 -0.6185  0.5529
 4884SOL     OW26113   0.523   3.850  15.458 -0.1155  0.8281  0.0998
 4884SOL    HW126114   0.446   3.798  15.434  0.8932 -1.0203  0.9131
 4884SOL    HW226115   0.520   3.933  15.409 -1.0644  0.3838 -0.6097
 4885SOL     OW26116   0.003   3.310  13.332 -0.6801 -0.3740  0.3175
 4885SOL    HW126117   0.079   3.355  13.295 -1.5230 -0.1278 -1.1233
 4885SOL    HW226118   0.050   3.232  13.362  2.3424  2.0118  1.7989
 4886SOL     OW26119   4.403   3.607  13.934  0.5427 -0.1161 -0.3364
 4886SOL    HW126120   4.466   3.671  13.902  1.5652 -1.6605 -1.3764
 4886SOL    HW226121   4.338   3.670  13.967  0.9393 -0.5182  1.1562
 4887SOL     OW26122   0.580   3.504   2.629 -0.2420 -0.0176  0.2196
 4887SOL    HW126123   0.508   3.452   2.593  0.0066  0.1784 -0.5677
 4887SOL    HW226124   0.593   3.562   2.554 -2.4435 -0.5820 -0.6020
 4888SOL     OW26125   0.922   1.955  16.419  0.6603 -0.1432 -0.1438
 4888SOL    HW126126   0.939   1.891  16.488  0.8328 -1.7921 -1.7466
 4888SOL    HW226127   0.847   1.923  16.369 -0.7617  2.3362  0.3820
 4889SOL     OW26128   1.118   2.203  12.606  0.1029  0.4119 -0.0597
 4889SOL    HW126129   1.210   2.176  12.601  0.3020  0.5537  2.6299
 4889SOL    HW226130   1.062   2.126  12.621 -0.3369  0.4827 -1.3473
 4890SOL     OW26131   1.070   4.332  12.417 -0.6144  0.0595 -0.1023
 4890SOL    HW126132   1.118   4.375  12.488  0.5761  0.6265 -1.2454
 4890SOL    HW226133   1.012   4.401  12.384  0.5338  1.0478 -0.0815
 4891SOL     OW26134   0.696   2.584   8.193 -0.1026 -0.6291 -0.0315
 4891SOL    HW126135   0.637   2.580   8.119 -2.5324 -2.5104  2.0196
 4891SOL    HW226136   0.704   2.494   8.224 -2.4841 -0.0961  2.1287
 4892SOL     OW26137   1.286   0.468   8.733 -0.0676 -0.1206  0.3548
 4892SOL    HW126138   1.308   0.548   8.780 -0.0428  0.7978 -1.2380
 4892SOL    HW226139   1.239   0.504   8.658 -0.0208 -1.1558 -0.1682
 4893SOL     OW26140   1.602   2.536   4.007  0.1702 -0.3040 -0.4484
 4893SOL    HW126141   1.586   2.462   4.064 -0.6003  0.4131  0.2673
 4893SOL    HW226142   1.518   2.581   4.016  1.1308  1.8068 -1.9966
 4894SOL     OW26143   0.938   4.199   9.458 -0.5208  0.1396  0.4004
 4894SOL    HW126144   0.950   4.154   9.541  2.3600 -0.4160 -0.3467
 4894SOL    HW226145   0.845   4.223   9.466 -0.9925 -1.3160 -0.6534
 4895SOL     OW26146   4.646   1.909   9.378 -0.0718  0.1609 -0.4068
 4895SOL    HW126147   4.656   1.908   9.283 -2.7553 -0.2714 -0.6889
 4895SOL    HW226148   4.712   1.847   9.406  1.1037  1.2065 -0.8676
 4896SOL     OW26149   1.904   2.949  10.432  0.4925  0.0727 -0.4277
 4896SOL    HW126150   1.867   2.865  10.404  0.5048 -0.0630 -0.0366
 4896SOL    HW226151   1.995   2.925  10.449  0.3698  0.0540  0.1975
 4897SOL     OW26152   2.331   0.311   5.115 -0.3748 -0.5283 -0.0121
 4897SOL    HW126153   2.324   0.226   5.073  1.2122  0.0475 -1.4441
 4897SOL    HW226154   2.317   0.274   5.202  3.4328 -0.7331  0.5333
 4898SOL     OW26155   3.707   2.001   2.895  0.2056  0.1768  0.3525
 4898SOL    HW126156   3.618   2.034   2.889 -0.5424 -1.9057 -0.1120
 4898SOL    HW226157   3.757   2.051   2.830 -0.4792 -0.0418 -0.3398
 4899SOL     OW26158   3.520   0.330   5.335  0.1748 -0.8521 -0.0881
 4899SOL    HW126159   3.573   0.349   5.258 -1.7481  4.0376 -0.1928
 4899SOL    HW226160   3.453   0.280   5.289  0.1797 -0.5387 -0.4349
 4900SOL     OW26161   0.834   4.147   4.322  0.5065  0.2571 -0.2361
 4900SOL    HW126162   0.892   4.125   4.250  0.0918 -1.9609  0.0941
 4900SOL    HW226163   0.894   4.188   4.384 -1.8129  3.3946 -0.0794
 4901SOL     OW26164   1.794   2.089   1.320  0.0923  0.0519 -0.2871
 4901SOL    HW126165   1.798   2.087   1.224 -2.0607  1.6809 -0.4005
 4901SOL    HW226166   1.789   2.184   1.328 -1.8837 -0.1720  1.0115
 4902SOL     OW26167   3.323   1.323   2.274  0.4594 -0.3890  0.1704
 4902SOL    HW126168   3.396   1.385   2.265  0.9243 -0.7613  1.4845
 4902SOL    HW226169   3.354   1.274   2.350  2.0637 -0.7601 -0.7062
 4903SOL     OW26170   1.209   1.808  12.809  0.1069  0.1015  0.5373
 4903SOL    HW126171   1.128   1.767  12.777 -0.8136  2.1695  0.2097
 4903SOL    HW226172   1.265   1.731  12.809  2.3501  1.7087 -1.8409
 4904SOL     OW26173   2.476   2.044   7.753 -0.0953  0.7106  0.1532
 4904SOL    HW126174   2.443   2.090   7.831 -0.0516 -0.8770  1.1107
 4904SOL    HW226175   2.442   2.108   7.691 -0.4608  0.9736  0.6221
 4905SOL     OW26176   3.574   3.089   1.368 -0.2360 -0.0317  0.3537
 4905SOL    HW126177   3.525   3.134   1.298 -0.6331  0.0689  0.6951
 4905SOL    HW226178   3.567   2.999   1.335  1.3123 -0.7977  2.1419
 4906SOL     OW26179   2.290   4.328   3.932  0.5466 -0.2638  0.3245
 4906SOL    HW126180   2.306   4.280   4.013 -1.0692 -1.7157 -0.1991
 4906SOL    HW226181   2.382   4.325   3.907  0.4683  2.0589 -0.2736
 4907SOL     OW26182   1.334   0.607   2.509  0.1013 -0.0129 -0.1388
 4907SOL    HW126183   1.312   0.680   2.567  1.5980 -1.0256  1.6773
 4907SOL    HW226184   1.274   0.612   2.434  0.0461  0.4658 -0.0653
 4908SOL     OW26185   0.500   3.047   3.318 -0.2122  0.5857  0.1798
 4908SOL    HW126186   0.499   2.965   3.270 -0.1461  1.3054 -1.0361
 4908SOL    HW226187   0.590   3.052   3.348 -0.1126 -0.5871  0.0659
 4909SOL     OW26188   1.065   1.588  11.125 -0.5108 -0.0267  0.5686
 4909SOL    HW126189   0.975   1.608  11.149 -0.1563 -1.4075  3.1169
 4909SOL    HW226190   1.066   1.497  11.153  0.2280  0.3895  1.9151
 4910SOL     OW26191   3.287   3.165  15.616  0.3508  0.4388  0.1568
 4910SOL    HW126192   3.333   3.245  15.645 -0.2489  0.1038  2.0220
 4910SOL    HW226193   3.341   3.147  15.539  2.0422  0.0368  1.4276
 4911SOL     OW26194   2.845   2.320   5.405  0.5266 -0.3830 -0.1505
 4911SOL    HW126195   2.820   2.229   5.389 -2.2398  0.5525 -1.0449
 4911SOL    HW226196   2.900   2.341   5.329  0.4214 -0.6415 -0.2971
 4912SOL     OW26197   4.682   0.319   3.879 -0.3186 -0.1096  0.3870
 4912SOL    HW126198   4.615   0.335   3.813  0.0136  0.1410  0.1106
 4912SOL    HW226199   4.677   0.401   3.930  2.9109  1.0353 -1.1130
 4913SOL     OW26200   0.801   3.346   6.732  0.5210  0.5996  0.0531
 4913SOL    HW126201   0.759   3.360   6.647  0.2012 -0.6426  0.0146
 4913SOL    HW226202   0.859   3.271   6.715  0.6562  0.4859  0.9950
 4914SOL     OW26203   3.627   1.804   3.329 -0.0966 -0.1241  0.0467
 4914SOL    HW126204   3.671   1.801   3.243  1.5693  1.5478  0.8359
 4914SOL    HW226205   3.563   1.870   3.303  0.3728  0.9907  1.7408
 4915SOL     OW26206   0.317   1.717   8.499 -0.2749  0.5119  0.1634
 4915SOL    HW126207   0.410   1.697   8.510 -0.6435 -1.1604  0.2336
 4915SOL    HW226208   0.315   1.749   8.409 -1.2729  1.8758  0.6732
 4916SOL     OW26209   3.997   1.374   6.989 -0.7191 -0.7013 -0.6312
 4916SOL    HW126210   3.966   1.290   6.955  1.2599 -2.0156  0.8413
 4916SOL    HW226211   3.985   1.354   7.081 -0.1011 -0.7890 -0.5709
 4917SOL     OW26212   4.374   3.586   6.246  0.3871 -0.0990  0.0495
 4917SOL    HW126213   4.327   3.503   6.236  2.1899 -1.1686  0.4620
 4917SOL    HW226214   4.308   3.653   6.231  1.2662  0.4792 -1.2128
 4918SOL     OW26215   1.730   1.206   1.161  0.0873  0.1561 -0.3628
 4918SOL    HW126216   1.825   1.191   1.160 -0.2983 -2.0929 -2.3624
 4918SOL    HW226217   1.709   1.117   1.190 -0.4373  0.4515  0.1665
 4919SOL     OW26218   0.526   2.488  10.021  0.0768  0.5197 -0.3104
 4919SOL    HW126219   0.587   2.560  10.036  0.5599  0.9249 -4.3593
 4919SOL    HW226220   0.586   2.417  10.046  0.2364  0.8208  0.1709
 4920SOL     OW26221   2.980   1.064   4.479  0.1690  0.1083 -0.0318
 4920SOL    HW126222   3.069   1.062   4.443  0.1208 -1.9724 -0.0146
 4920SOL    HW226223   2.931   1.001   4.427 -1.3580 -0.2433  1.8475
 4921SOL     OW26224   3.256   4.113  10.387 -0.5459 -0.1705  0.6770
 4921SOL    HW126225   3.222   4.031  10.423 -1.2875 -0.2612 -0.2377
 4921SOL    HW226226   3.318   4.082  10.322  0.7457  1.3998  1.1417
 4922SOL     OW26227   2.977   3.152   3.998 -0.4372  0.6114 -0.5316
 4922SOL    HW126228   2.923   3.211   4.050 -0.6193  1.4643 -1.6815
 4922SOL    HW226229   2.904   3.106   3.957 -0.2242 -2.2200  2.3156
 4923SOL     OW26230   1.459   3.122   7.987 -0.0090  0.5692 -0.4137
 4923SOL    HW126231   1.462   3.038   8.033  2.6953  0.2441 -1.1632
 4923SOL    HW226232   1.446   3.183   8.059 -0.6864 -1.5537  1.2831
 4924SOL     OW26233   3.300   2.459  12.528  0.3981  0.1732  0.1961
 4924SOL    HW126234   3.258   2.393  12.472 -1.4826  1.0316  0.6156
 4924SOL    HW226235   3.243   2.535  12.517  1.9522  1.3159  0.0683
 4925SOL     OW26236   0.984   1.644  17.520  0.0490  0.3616  0.0026
 4925SOL    HW126237   1.078   1.655  17.510  0.3703 -2.7014 -0.4385
 4925SOL    HW226238   0.981   1.657  17.615 -1.6786 -2.5013  0.3302
 4926SOL     OW26239   0.982   4.389  15.158 -0.5434  0.1522 -0.7131
 4926SOL    HW126240   1.045   4.369  15.089 -2.8693  0.1013 -2.8265
 4926SOL    HW226241   0.959   4.477  15.129  2.7197  0.9178 -0.9870
 4927SOL     OW26242   1.174   1.609   5.262 -0.2768 -0.2676 -0.1643
 4927SOL    HW126243   1.120   1.688   5.257  0.9632  0.6115  0.4252
 4927SOL    HW226244   1.126   1.552   5.202 -0.6453 -0.1685  0.0357
 4928SOL     OW26245   2.805   3.958   6.879  0.0941 -0.4397  0.3036
 4928SOL    HW126246   2.844   4.017   6.814 -0.3038  0.4954  0.9144
 4928SOL    HW226247   2.861   3.881   6.871  1.8161  0.9339 -0.6561
 4929SOL     OW26248   0.326   3.926   1.325  0.5572  0.0432 -0.0426
 4929SOL    HW126249   0.401   3.963   1.279  0.5760 -0.4930 -0.4467
 4929SOL    HW226250   0.304   3.845   1.278 -0.5324  0.5206 -0.3474
 4930SOL     OW26251   2.070   4.199  11.127  0.1722 -0.0881  0.2900
 4930SOL    HW126252   2.082   4.115  11.082  3.2264 -0.3010  1.4651
 4930SOL    HW226253   2.058   4.250  11.047  0.0195 -1.8064 -0.8021
 4931SOL     OW26254   4.270   0.893   0.821 -0.0686  0.0961 -0.0323
 4931SOL    HW126255   4.219   0.812   0.824 -0.5160  0.4533  1.8646
 4931SOL    HW226256   4.345   0.871   0.765  0.1662  1.8702 -0.4068
 4932SOL     OW26257   2.667   0.590   4.709 -0.3468  0.2192  0.0112
 4932SOL    HW126258   2.637   0.660   4.768 -0.5821 -0.3432  0.5590
 4932SOL    HW226259   2.672   0.511   4.763 -1.6926  0.2815  0.2389
 4933SOL     OW26260   1.924   1.460   2.154 -0.1574  0.1895  0.7598
 4933SOL    HW126261   1.887   1.509   2.227  0.3847 -1.0358  1.8638
 4933SOL    HW226262   1.989   1.408   2.202 -0.4044  0.2896  1.2040
 4934SOL     OW26263   2.283   4.291  13.204 -0.5488  0.4790  0.5767
 4934SOL    HW126264   2.232   4.288  13.285 -2.0147  0.0359 -0.3494
 4934SOL    HW226265   2.362   4.247  13.235 -0.6250 -0.7681 -0.9874
 4935SOL     OW26266   4.592   3.413   1.733 -0.0374 -0.4014  0.2636
 4935SOL    HW126267   4.630   3.478   1.674 -1.0811 -0.9461 -1.0112
 4935SOL    HW226268   4.673   3.368   1.757  0.6923  0.6436 -0.2213
 4936SOL     OW26269   4.462   2.811   0.412  0.5247 -0.1324 -0.2792
 4936SOL    HW126270   4.530   2.783   0.351  0.7165 -0.6195  0.1590
 4936SOL    HW226271   4.381   2.799   0.363 -0.4290  0.5795  1.0983
 4937SOL     OW26272   0.155   1.136   8.198 -0.5009 -0.7322  0.6138
 4937SOL    HW126273   0.206   1.154   8.119  0.1489 -2.3756  0.6736
 4937SOL    HW226274   0.068   1.162   8.168  0.3542  0.1937 -1.0835
 4938SOL     OW26275   4.361   0.229   6.841  0.6932 -0.4204  0.1607
 4938SOL    HW126276   4.308   0.286   6.897 -0.0284 -0.3536 -0.5818
 4938SOL    HW226277   4.316   0.145   6.853 -0.8497  0.5973  1.5238
 4939SOL     OW26278   3.829   0.695   1.572  0.5494  0.5385 -0.3017
 4939SOL    HW126279   3.866   0.671   1.657  1.4486  0.1445 -0.8061
 4939SOL    HW226280   3.887   0.651   1.511 -0.3710 -0.4550 -0.4671
 4940SOL     OW26281   1.618   2.007   9.200  0.2413 -0.2126 -0.3505
 4940SOL    HW126282   1.662   1.946   9.259 -0.5795 -1.3809 -0.9557
 4940SOL    HW226283   1.693   2.059   9.169 -0.3722  0.3577 -0.8794
 4941SOL     OW26284   4.269   4.322   6.249  0.8162 -0.1706  0.9987
 4941SOL    HW126285   4.225   4.407   6.245  0.2866 -0.4758  0.3730
 4941SOL    HW226286   4.282   4.302   6.156 -1.0132  0.4521  0.6249
 4942SOL     OW26287   1.203   4.353   3.929 -0.5410 -0.1957 -0.0444
 4942SOL    HW126288   1.297   4.349   3.910 -0.5202  0.6584 -0.1176
 4942SOL    HW226289   1.200   4.439   3.971 -0.1220 -0.2638  0.1328
 4943SOL     OW26290   0.024   3.523  11.014 -0.2076  0.7460  0.1401
 4943SOL    HW126291   0.112   3.507  10.979 -0.4317 -0.6275  0.2064
 4943SOL    HW226292   4.703   3.550  10.938  1.1874  0.8360 -0.7348
 4944SOL     OW26293   0.570   4.469   8.879 -0.4284 -0.0993  0.0378
 4944SOL    HW126294   0.531   4.542   8.927 -0.0380 -1.2956  2.1713
 4944SOL    HW226295   0.636   4.523   8.835 -0.3046  0.2708  0.6729
 4945SOL     OW26296   1.577   3.200   1.698 -0.8497  0.1813  0.0577
 4945SOL    HW126297   1.645   3.184   1.763 -0.6576 -0.8479 -0.3932
 4945SOL    HW226298   1.613   3.158   1.619  1.1688 -0.6199  1.4150
 4946SOL     OW26299   1.114   0.462  12.583 -0.3555 -0.5616 -0.3284
 4946SOL    HW126300   1.156   0.463  12.669  3.2523  3.4648 -2.1713
 4946SOL    HW226301   1.149   0.388  12.534 -1.9157 -2.2802  1.1382
 4947SOL     OW26302   1.972   4.396   7.910 -0.5812  0.3270 -0.6270
 4947SOL    HW126303   2.058   4.397   7.868 -0.0434  0.1253  0.4682
 4947SOL    HW226304   1.968   4.307   7.945  1.6347  0.3973 -0.2119
 4948SOL     OW26305   4.411   4.102  15.612  0.7109 -1.0482  0.1128
 4948SOL    HW126306   4.440   4.029  15.558 -0.5671 -1.7770  0.4178
 4948SOL    HW226307   4.458   4.173  15.569 -2.3974  1.5122  0.9669
 4949SOL     OW26308   3.034   2.474  15.874  0.6603  0.4298  0.3451
 4949SOL    HW126309   3.085   2.434  15.803  3.0963 -0.1360  2.4060
 4949SOL    HW226310   3.069   2.562  15.862  1.9367 -0.2095 -0.7559
 4950SOL     OW26311   3.863   0.714  12.319  0.8362 -0.3844  0.6608
 4950SOL    HW126312   3.926   0.773  12.277  1.1517 -0.8472  0.4795
 4950SOL    HW226313   3.916   0.683  12.393  0.0315  0.0977  1.4317
 4951SOL     OW26314   0.765   3.389   2.824 -0.5813 -0.3332  0.0516
 4951SOL    HW126315   0.734   3.340   2.899 -1.1613 -0.5919 -0.3609
 4951SOL    HW226316   0.680   3.395   2.782 -0.8005  0.8600  0.6791
 4952SOL     OW26317   3.966   0.855   0.495  0.4277  0.4268  0.0384
 4952SOL    HW126318   4.059   0.850   0.472  0.4921 -0.3652  0.4743
 4952SOL    HW226319   3.952   0.950   0.495 -0.9001  0.2256 -0.3497
 4953SOL     OW26320   3.493   4.240   8.256  0.1179  0.1739  0.9437
 4953SOL    HW126321   3.430   4.258   8.187 -0.5969 -2.6823  0.8292
 4953SOL    HW226322   3.437   4.258   8.331 -1.2158 -1.5111  0.3390
 4954SOL     OW26323   1.997   1.100   5.163 -0.2569  0.5022 -0.6956
 4954SOL    HW126324   2.034   1.068   5.080 -1.7629  0.1628 -1.2209
 4954SOL    HW226325   1.927   1.036   5.168 -0.3546  0.7718  1.2781
 4955SOL     OW26326   1.339   1.220   4.959 -0.1240 -0.0200 -0.3282
 4955SOL    HW126327   1.359   1.164   5.034  0.2178  0.0989 -0.3317
 4955SOL    HW226328   1.423   1.266   4.957  0.8345 -1.6634  1.4639
 4956SOL     OW26329   0.529   1.884   8.100 -0.4351  0.9175  0.5322
 4956SOL    HW126330   0.578   1.942   8.041 -0.5175  1.0999  0.6444
 4956SOL    HW226331   0.593   1.865   8.169 -0.3712 -0.3698  0.1201
 4957SOL     OW26332   3.359   3.404  16.246 -0.4034  0.2134 -0.2571
 4957SOL    HW126333   3.420   3.429  16.315  1.9929 -2.2205 -1.4782
 4957SOL    HW226334   3.281   3.386  16.297  0.0493 -4.3365 -1.1698
 4958SOL     OW26335   3.186   2.824   3.483  0.0769 -0.3285  0.2743
 4958SOL    HW126336   3.224   2.854   3.566  0.1352  0.6430 -0.0982
 4958SOL    HW226337   3.202   2.730   3.493 -2.7531 -1.0852 -2.6080
 4959SOL     OW26338   2.447   2.569  13.347 -0.2232 -0.1024 -0.1004
 4959SOL    HW126339   2.366   2.616  13.323 -0.6007  0.0761  1.5065
 4959SOL    HW226340   2.474   2.608  13.430  0.0147  3.2003 -1.7283
 4960SOL     OW26341   3.613   0.326   6.070 -0.4448 -0.1598  0.1271
 4960SOL    HW126342   3.644   0.416   6.060  0.9670 -0.9320 -2.4747
 4960SOL    HW226343   3.666   0.296   6.143 -1.4184 -1.0971  0.4441
 4961SOL     OW26344   3.387   3.754  15.415  0.6544  0.1240 -0.1656
 4961SOL    HW126345   3.449   3.752  15.342 -1.1362  0.1198 -1.6807
 4961SOL    HW226346   3.321   3.811  15.377 -1.0990  0.3619  3.2705
 4962SOL     OW26347   2.538   4.658   2.590 -0.0821 -0.0228  0.3120
 4962SOL    HW126348   2.564   4.690   2.677 -0.6861  2.8193 -0.5763
 4962SOL    HW226349   2.473   4.725   2.568 -0.9454 -0.5802  1.1537
 4963SOL     OW26350   2.734   2.835   5.670 -0.0993 -0.4139 -0.0099
 4963SOL    HW126351   2.804   2.897   5.649 -0.9034  0.0799 -1.1770
 4963SOL    HW226352   2.754   2.812   5.761 -1.1679  0.1891  0.3718
 4964SOL     OW26353   3.318   0.270   6.843  0.0886 -0.4216  0.2134
 4964SOL    HW126354   3.392   0.244   6.788  0.1948 -0.7472  0.5066
 4964SOL    HW226355   3.357   0.328   6.908 -0.2472 -1.1562  1.0738
 4965SOL     OW26356   1.893   0.266   7.653  0.4470  0.2756 -0.3186
 4965SOL    HW126357   1.952   0.218   7.596  2.1945  0.2823  1.4993
 4965SOL    HW226358   1.836   0.298   7.583 -0.5606  0.9973  0.8035
 4966SOL     OW26359   1.857   3.045   1.167  0.2409 -0.8537  0.1078
 4966SOL    HW126360   1.848   2.959   1.208 -0.7195 -0.2189  1.2356
 4966SOL    HW226361   1.892   3.089   1.244 -2.2641  2.3584 -0.5973
 4967SOL     OW26362   4.367   3.786   2.162 -0.3519 -0.1313 -0.9465
 4967SOL    HW126363   4.319   3.705   2.147 -0.1629 -0.5862  0.9552
 4967SOL    HW226364   4.429   3.746   2.222 -0.9812  0.1818 -0.0910
 4968SOL     OW26365   0.547   2.081   5.414  0.1642 -0.6663  0.2979
 4968SOL    HW126366   0.487   2.008   5.402  1.0030 -1.7428  2.6140
 4968SOL    HW226367   0.492   2.143   5.366 -0.7019 -1.1351  0.6821
 4969SOL     OW26368   3.619   0.702   5.848  0.1781 -0.4336 -0.4592
 4969SOL    HW126369   3.633   0.645   5.772 -1.1991 -0.6608 -0.5465
 4969SOL    HW226370   3.532   0.666   5.863 -0.3192  1.2111  0.6322
 4970SOL     OW26371   3.833   2.968   8.147  0.2629  0.0084 -0.5067
 4970SOL    HW126372   3.845   2.923   8.063  1.2016 -2.4559  0.9528
 4970SOL    HW226373   3.780   2.902   8.191  0.9034 -1.0287 -1.2878
 4971SOL     OW26374   1.258   3.164  16.280  0.4620  0.2448 -0.1063
 4971SOL    HW126375   1.245   3.166  16.375 -0.4146  0.5539 -0.2376
 4971SOL    HW226376   1.207   3.239  16.251 -1.3494 -0.2254  1.8305
 4972SOL     OW26377   1.489   3.287   3.558 -0.7119 -0.5052  0.0272
 4972SOL    HW126378   1.461   3.244   3.476  1.9214  0.3597 -1.3127
 4972SOL    HW226379   1.443   3.242   3.629  0.7396 -2.4691 -0.2842
 4973SOL     OW26380   0.756   4.122  10.456 -0.0913 -0.4193  0.6167
 4973SOL    HW126381   0.713   4.134  10.540 -0.9058 -0.7488  0.2466
 4973SOL    HW226382   0.831   4.181  10.466 -1.6059  1.6825 -0.3595
 4974SOL     OW26383   4.351   0.587   4.268 -0.1924 -0.1397 -0.2109
 4974SOL    HW126384   4.298   0.588   4.348 -0.3787 -0.2513 -0.3335
 4974SOL    HW226385   4.423   0.644   4.295 -1.3002  1.3143 -0.3329
 4975SOL     OW26386   3.888   0.103  16.609  0.0076  0.1254  1.2495
 4975SOL    HW126387   3.927   0.019  16.633 -0.8907  0.0397  2.3620
 4975SOL    HW226388   3.840   0.081  16.529  3.2756  2.1259 -1.2934
 4976SOL     OW26389   3.531   2.407  17.661 -0.1782  0.6375 -0.2378
 4976SOL    HW126390   3.566   2.457   0.022  1.5752  0.3701 -0.8905
 4976SOL    HW226391   3.479   2.473  17.616 -0.7007  0.3073 -0.1295
 4977SOL     OW26392   3.769   3.733   9.424 -0.1362 -0.6712 -0.3860
 4977SOL    HW126393   3.728   3.741   9.510  1.3879  0.3529  0.2326
 4977SOL    HW226394   3.845   3.684   9.456 -0.0183 -0.3067 -0.1150
 4978SOL     OW26395   4.703   0.592   4.406  0.0208 -0.6034 -0.0701
 4978SOL    HW126396   0.034   0.583   4.481  0.4225  0.8536 -0.2020
 4978SOL    HW226397   4.625   0.548   4.442 -0.3198 -0.9649 -1.2613
 4979SOL     OW26398   2.164   0.680   7.871  0.1697  0.1582 -0.0463
 4979SOL    HW126399   2.246   0.667   7.919 -1.5990 -0.8101  2.7684
 4979SOL    HW226400   2.147   0.586   7.866 -0.4470  0.3392 -1.3031
 4980SOL     OW26401   4.227   3.065  14.307 -0.1439  0.3168  0.5760
 4980SOL    HW126402   4.319   3.091  14.305  0.9020 -3.4843 -0.7725
 4980SOL    HW226403   4.202   3.053  14.215  1.0842  1.7471  0.0406
 4981SOL     OW26404   1.263   0.736   1.061 -0.5934 -0.3545  0.3830
 4981SOL    HW126405   1.243   0.667   0.999 -2.7441  0.4181  0.2240
 4981SOL    HW226406   1.180   0.781   1.076  0.2308  1.4598 -0.4618
 4982SOL     OW26407   1.666   1.053   9.807 -0.7300 -0.3033  0.0113
 4982SOL    HW126408   1.574   1.045   9.833 -0.7299  1.5334  0.5479
 4982SOL    HW226409   1.673   1.147   9.790  3.0634 -0.7751 -1.1289
 4983SOL     OW26410   1.523   1.628   8.451  0.2782 -0.4094  0.6239
 4983SOL    HW126411   1.589   1.612   8.518  0.2156 -0.4659  0.6726
 4983SOL    HW226412   1.509   1.541   8.414 -4.0153  0.7276 -0.4595
 4984SOL     OW26413   4.303   4.701   8.020 -0.6027 -0.2575 -0.3479
 4984SOL    HW126414   4.285   0.049   7.966  0.6189 -0.3630 -0.9080
 4984SOL    HW226415   4.363   0.018   8.080  2.1021 -1.4325 -2.1321
 4985SOL     OW26416   2.245   4.498   2.273  0.4602 -0.1656 -0.6269
 4985SOL    HW126417   2.234   4.588   2.302  1.1404  0.4598 -2.2996
 4985SOL    HW226418   2.313   4.511   2.207  0.6432 -1.7755 -0.7707
 4986SOL     OW26419   0.879   3.450  14.487 -0.3291 -0.3934 -0.3260
 4986SOL    HW126420   0.876   3.533  14.440  1.0421  0.0287  0.3429
 4986SOL    HW226421   0.964   3.472  14.527  0.0872  2.0506 -2.5195
 4987SOL     OW26422   1.848   3.312  10.722 -0.5178  0.0570  0.1843
 4987SOL    HW126423   1.773   3.356  10.762 -1.3858 -1.6180  0.3932
 4987SOL    HW226424   1.900   3.389  10.702 -0.3012  0.2341  1.4491
 4988SOL     OW26425   2.399   3.263   2.492  0.0195 -0.3634 -0.3992
 4988SOL    HW126426   2.430   3.322   2.561 -1.5496 -1.4747  1.2598
 4988SOL    HW226427   2.417   3.313   2.413 -1.3477  0.6330 -0.0720
 4989SOL     OW26428   4.546   4.460   3.946 -0.0851  0.0474 -0.3241
 4989SOL    HW126429   4.469   4.517   3.946  0.5693  0.9335 -1.0028
 4989SOL    HW226430   4.506   4.385   3.903  0.4919  1.2319 -2.8946
 4990SOL     OW26431   3.608   0.349   4.540 -0.1334  0.2210  0.3030
 4990SOL    HW126432   3.598   0.444   4.546  0.3741  0.3683 -1.1664
 4990SOL    HW226433   3.562   0.324   4.460  0.3722 -0.0147  0.0827
 4991SOL     OW26434   2.733   2.837   6.671 -0.5267  0.8441 -0.0615
 4991SOL    HW126435   2.768   2.790   6.596 -1.8998 -1.1731  0.5561
 4991SOL    HW226436   2.638   2.836   6.658 -0.4426 -2.6577 -0.4580
 4992SOL     OW26437   1.896   0.395   2.822  0.1071  0.5642 -0.2192
 4992SOL    HW126438   1.948   0.354   2.753 -0.7237 -2.2700  0.8228
 4992SOL    HW226439   1.855   0.473   2.784  0.2254  0.5435 -0.3917
 4993SOL     OW26440   2.524   2.799   4.588 -0.3198  0.2228 -0.0439
 4993SOL    HW126441   2.497   2.888   4.610 -0.4362  0.8227 -2.5371
 4993SOL    HW226442   2.517   2.784   4.493 -3.2344 -0.1826  0.2351
 4994SOL     OW26443   2.141   3.564   7.148 -0.3015  0.2945  0.1556
 4994SOL    HW126444   2.151   3.569   7.053 -0.4451 -0.8518  0.0713
 4994SOL    HW226445   2.170   3.650   7.178  0.6690 -0.0260  0.1310
 4995SOL     OW26446   0.677   2.157   6.809 -0.3953  0.0401 -0.0329
 4995SOL    HW126447   0.701   2.163   6.717 -0.9085  0.7931 -0.1206
 4995SOL    HW226448   0.713   2.238   6.844  1.6634 -1.0568  0.3475
 4996SOL     OW26449   3.136   4.291   5.044 -0.4553  0.3658 -0.0860
 4996SOL    HW126450   3.139   4.373   4.994  1.0920  0.0525 -0.4948
 4996SOL    HW226451   3.109   4.317   5.132  0.6880 -0.6148  0.5481
 4997SOL     OW26452   3.357   2.734   2.326 -0.1301  0.6638 -0.2365
 4997SOL    HW126453   3.295   2.768   2.262 -1.0376  0.2484  0.4250
 4997SOL    HW226454   3.391   2.821   2.348 -0.5725  0.6491  0.5111
 4998SOL     OW26455   4.191   1.940   6.479  0.4426  0.3342  0.4166
 4998SOL    HW126456   4.246   2.014   6.457  2.0199 -0.7581  0.6816
 4998SOL    HW226457   4.235   1.872   6.429  2.2914  0.4266  1.9319
 4999SOL     OW26458   2.903   3.790   0.219 -0.2715 -0.2204  0.3139
 4999SOL    HW126459   2.881   3.883   0.226  0.8961 -0.0736  1.7295
 4999SOL    HW226460   2.907   3.780   0.314  2.4465 -0.7839  0.1202
 5000SOL     OW26461   1.895   0.932   9.862 -0.2078  0.2960  0.1560
 5000SOL    HW126462   1.921   0.974   9.781 -0.8010  0.1795 -0.0967
 5000SOL    HW226463   1.808   0.972   9.871 -0.3860 -0.0107 -0.1980
 5001SOL     OW26464   2.127   1.234   6.186  0.1632 -0.5438  0.3490
 5001SOL    HW126465   2.070   1.280   6.125 -0.8352 -2.9507 -0.5487
 5001SOL    HW226466   2.105   1.286   6.264 -1.3986 -1.6493  0.6443
 5002SOL     OW26467   3.581   2.662   3.910 -0.2410 -0.1979 -0.5289
 5002SOL    HW126468   3.510   2.675   3.972 -1.3071 -1.7021 -1.4350
 5002SOL    HW226469   3.541   2.617   3.836 -1.7732 -1.4390  1.0701
 5003SOL     OW26470   4.005   3.378  17.610 -0.7907  0.3798 -0.3459
 5003SOL    HW126471   4.039   3.461  17.576 -2.5187  1.7460  1.2268
 5003SOL    HW226472   3.979   3.393  17.701  2.1540  2.3646  0.1670
 5004SOL     OW26473   1.743   4.716   6.055  0.6136 -0.5382  0.2336
 5004SOL    HW126474   1.792   4.687   5.978 -0.1090 -3.4050  0.8382
 5004SOL    HW226475   1.729   0.082   6.046 -1.1100 -0.7642  0.4776
 5005SOL     OW26476   0.917   2.064   9.097 -0.2695 -0.1055  0.1421
 5005SOL    HW126477   0.934   1.976   9.131 -4.9568 -0.7288  0.8341
 5005SOL    HW226478   0.993   2.108   9.136  0.0337 -0.4806 -0.0257
 5006SOL     OW26479   3.506   3.890   3.478  0.2800  0.2381  0.1085
 5006SOL    HW126480   3.539   3.860   3.393 -1.1818  0.6003 -0.6022
 5006SOL    HW226481   3.510   3.986   3.477 -0.6757  0.2752 -0.1901
 5007SOL     OW26482   1.298   1.896   7.605 -0.2927  0.5461  0.0437
 5007SOL    HW126483   1.216   1.929   7.643  0.1789 -1.1489  2.5903
 5007SOL    HW226484   1.365   1.960   7.627  1.6860 -0.7924 -2.1978
 5008SOL     OW26485   0.209   2.262   8.972 -0.1063  0.0168  0.8489
 5008SOL    HW126486   0.182   2.225   9.056  0.8246  1.1058  1.6394
 5008SOL    HW226487   0.304   2.256   8.984 -0.0975 -1.5065  0.0001
 5009SOL     OW26488   0.876   2.265   2.386 -0.4039  0.4804 -0.0839
 5009SOL    HW126489   0.920   2.349   2.389  0.3095 -0.0312  3.6594
 5009SOL    HW226490   0.863   2.254   2.292  0.1706  0.4849 -0.1648
 5010SOL     OW26491   0.878   1.580   3.372 -0.1200  0.1767 -0.4058
 5010SOL    HW126492   0.940   1.516   3.405 -0.3912  0.1835  0.1206
 5010SOL    HW226493   0.923   1.624   3.299  0.5844  0.2977  0.1066
 5011SOL     OW26494   1.089   0.152  15.697  0.5982 -0.5217  0.3592
 5011SOL    HW126495   1.094   0.107  15.613 -0.5027  2.6148 -1.3806
 5011SOL    HW226496   1.049   0.234  15.668  1.0617  0.2947  2.0398
 5012SOL     OW26497   3.289   0.016  15.355  0.0456  0.1987  0.4642
 5012SOL    HW126498   3.227   0.075  15.397  0.6925  1.2953 -0.1194
 5012SOL    HW226499   3.315   0.081  15.289 -0.4479 -1.0590 -0.9760
 5013SOL     OW26500   0.241   1.578   6.647  0.1641  0.1700 -0.1296
 5013SOL    HW126501   0.312   1.626   6.688  0.0613 -0.0881  0.3460
 5013SOL    HW226502   0.257   1.493   6.686 -2.5314 -1.3392 -2.2257
 5014SOL     OW26503   3.120   2.019   1.583 -0.1697  0.0890  0.3146
 5014SOL    HW126504   3.176   1.946   1.554 -0.9778  0.8167 -3.0603
 5014SOL    HW226505   3.035   1.978   1.569 -0.5028 -0.5271  4.2097
 5015SOL     OW26506   3.031   4.518   1.913 -0.1046  0.1542  0.2859
 5015SOL    HW126507   2.958   4.569   1.877  0.1704  0.1827 -0.2286
 5015SOL    HW226508   3.043   4.461   1.838 -1.7638 -0.0803  0.1859
 5016SOL     OW26509   1.274   3.637   9.658 -0.0112 -0.0602  0.6462
 5016SOL    HW126510   1.227   3.554   9.645 -0.5133  0.2793  0.3337
 5016SOL    HW226511   1.303   3.642   9.567 -0.3103  1.9292  0.6783
 5017SOL     OW26512   0.402   0.373   3.325 -0.1710  0.1373 -0.0885
 5017SOL    HW126513   0.492   0.342   3.337  0.2165  0.7006 -1.5193
 5017SOL    HW226514   0.394   0.421   3.408 -0.2877 -0.5142  0.2819
 5018SOL     OW26515   4.502   4.157   5.533  0.0003  0.1168  0.1927
 5018SOL    HW126516   4.539   4.158   5.445 -1.1602  2.5854 -0.2726
 5018SOL    HW226517   4.572   4.126   5.591 -0.1268  0.5915  0.6106
 5019SOL     OW26518   3.456   3.932  17.324  0.3274 -0.1309  0.6536
 5019SOL    HW126519   3.409   3.880  17.389  0.4038 -0.1232  0.7165
 5019SOL    HW226520   3.389   3.944  17.258  1.4683 -1.2123 -0.6963
 5020SOL     OW26521   2.395   3.114   1.717 -0.2476 -0.4870 -0.4022
 5020SOL    HW126522   2.439   3.055   1.654 -1.0929 -0.7137 -0.7831
 5020SOL    HW226523   2.454   3.105   1.792 -0.6253  0.6672  0.0294
 5021SOL     OW26524   0.936   2.101   5.894  0.3612 -0.5156  0.4687
 5021SOL    HW126525   0.954   2.107   5.800 -1.6678  1.0450  0.1968
 5021SOL    HW226526   0.847   2.135   5.897 -0.2554 -2.0556 -0.1938
 5022SOL     OW26527   2.181   1.156  11.727  0.7529  0.9107 -0.8413
 5022SOL    HW126528   2.149   1.126  11.642 -2.3605 -0.0542  0.6729
 5022SOL    HW226529   2.154   1.248  11.727  0.9366  0.9655 -1.4848
 5023SOL     OW26530   2.857   3.169   8.496 -0.0585  0.0139  0.4146
 5023SOL    HW126531   2.919   3.218   8.442 -0.2870 -0.9751 -0.7382
 5023SOL    HW226532   2.858   3.213   8.581 -0.2916  1.8043 -0.5022
 5024SOL     OW26533   2.822   2.996  13.308 -0.0018  0.1638  0.3756
 5024SOL    HW126534   2.780   2.937  13.370  3.0815 -3.6241 -1.0866
 5024SOL    HW226535   2.915   2.994  13.329  0.1406 -0.8540 -0.3367
 5025SOL     OW26536   0.482   2.920   5.186 -0.3334 -0.3311 -0.2265
 5025SOL    HW126537   0.539   2.990   5.153 -0.1579  0.7322  2.3080
 5025SOL    HW226538   0.512   2.846   5.133  0.9204  0.8435 -1.1425
 5026SOL     OW26539   1.425   3.947   9.870 -0.3364  0.2671 -0.0121
 5026SOL    HW126540   1.373   3.997   9.933  0.3347  1.2794 -0.2584
 5026SOL    HW226541   1.502   3.928   9.924  0.1424  0.4913 -0.6027
 5027SOL     OW26542   4.343   1.662   2.377 -0.0458  0.4196 -0.6054
 5027SOL    HW126543   4.393   1.732   2.335  0.1797  0.3923 -0.3806
 5027SOL    HW226544   4.289   1.634   2.303  1.6026 -1.4770 -1.0903
 5028SOL     OW26545   1.352   0.700   9.970  0.2125  0.1153 -0.4180
 5028SOL    HW126546   1.305   0.728   9.891  1.2472 -0.0350 -1.1021
 5028SOL    HW226547   1.328   0.608   9.963  0.7087  0.0137 -0.8668
 5029SOL     OW26548   3.669   1.112  13.937 -0.0521 -0.1376 -0.0167
 5029SOL    HW126549   3.625   1.190  13.904 -0.3976 -1.1575 -1.9692
 5029SOL    HW226550   3.676   1.127  14.031  1.3949 -1.2712  0.0544
 5030SOL     OW26551   4.333   1.546  14.886  0.6153  0.2032  0.3333
 5030SOL    HW126552   4.422   1.534  14.851 -0.0896  0.5275 -1.5934
 5030SOL    HW226553   4.346   1.523  14.977 -0.4153  1.1330  0.7151
 5031SOL     OW26554   0.176   0.036   8.964 -0.2994  0.1146  0.4892
 5031SOL    HW126555   0.108   0.011   9.027 -1.0770 -1.5873 -0.9899
 5031SOL    HW226556   0.133   0.058   8.881  0.2032  1.6210  0.6352
 5032SOL     OW26557   1.260   1.717  17.484 -0.2990  0.1001 -0.1448
 5032SOL    HW126558   1.289   1.796  17.530 -1.5291 -0.1722  1.1207
 5032SOL    HW226559   1.303   1.723  17.399 -1.1055 -0.9955 -0.6254
 5033SOL     OW26560   3.560   3.084   5.122 -0.1129 -0.7986  0.4970
 5033SOL    HW126561   3.507   3.037   5.058  1.0151 -1.6600  0.1851
 5033SOL    HW226562   3.648   3.069   5.087 -0.5588 -0.9031 -0.5559
 5034SOL     OW26563   4.333   3.724   9.832  0.5714 -0.0260 -0.1877
 5034SOL    HW126564   4.417   3.769   9.830  0.3362  0.4276  0.3437
 5034SOL    HW226565   4.349   3.671   9.910  1.1524 -0.8652 -0.8716
 5035SOL     OW26566   3.527   3.425   6.777  0.0339  0.8588  0.2206
 5035SOL    HW126567   3.436   3.443   6.753  0.1011  1.5438  0.4683
 5035SOL    HW226568   3.557   3.413   6.687  0.2707  2.5132  0.0705
 5036SOL     OW26569   1.961   4.184   2.505  0.2453 -0.1968  0.0023
 5036SOL    HW126570   2.025   4.119   2.535  0.2057 -0.1448  0.2029
 5036SOL    HW226571   2.016   4.260   2.486 -1.1944  0.0866 -2.9709
 5037SOL     OW26572   1.462   2.929   6.085  1.2334  0.0343 -0.0804
 5037SOL    HW126573   1.430   2.949   5.997 -0.8020  4.2047  1.6143
 5037SOL    HW226574   1.405   2.972   6.148 -0.4751  0.7296 -2.0657
 5038SOL     OW26575   2.228   2.981   6.733 -0.4753  0.1312  0.3556
 5038SOL    HW126576   2.157   3.034   6.768 -0.1850  0.0466  1.0672
 5038SOL    HW226577   2.179   2.925   6.672  1.4844 -0.3026 -0.8419
 5039SOL     OW26578   3.954   2.938   1.254 -0.0336  0.1432  0.5669
 5039SOL    HW126579   3.975   2.953   1.162 -0.7630 -1.5475  0.1236
 5039SOL    HW226580   4.035   2.982   1.280  1.6273 -2.8593  0.4849
 5040SOL     OW26581   4.588   2.432   2.046  0.0792  0.2297 -0.3390
 5040SOL    HW126582   4.546   2.498   1.991  0.1181  1.1626  0.7696
 5040SOL    HW226583   4.641   2.395   1.975  1.1983  0.4335  0.4076
 5041SOL     OW26584   4.503   0.284   3.626 -0.2162  0.2211  0.1953
 5041SOL    HW126585   4.416   0.323   3.616  0.5831  1.6979 -1.0174
 5041SOL    HW226586   4.471   0.197   3.646 -0.2212  0.0432 -0.5996
 5042SOL     OW26587   0.962   3.489   4.101  0.2957  0.5221  0.2458
 5042SOL    HW126588   0.917   3.569   4.075 -2.4186 -1.3515 -0.7355
 5042SOL    HW226589   0.963   3.517   4.193 -0.1773  0.2996  0.3169
 5043SOL     OW26590   0.979   4.207   6.523  0.0144  0.1918  0.1693
 5043SOL    HW126591   1.068   4.186   6.551  0.1723 -2.2940 -2.1391
 5043SOL    HW226592   0.932   4.134   6.564 -0.3778 -0.4481 -1.4275
 5044SOL     OW26593   1.177   1.261   8.213 -0.3498  0.3775 -0.6372
 5044SOL    HW126594   1.171   1.182   8.159  1.1316 -0.0252 -0.1996
 5044SOL    HW226595   1.140   1.324   8.151 -0.5883  0.2527 -0.6214
 5045SOL     OW26596   4.010   1.483   3.667  0.3724  0.1336  0.0010
 5045SOL    HW126597   3.924   1.441   3.669  0.8883 -0.9850 -0.8211
 5045SOL    HW226598   3.989   1.572   3.694 -0.9628 -0.7105  1.7164
 5046SOL     OW26599   4.486   0.727   9.627  0.5127  0.2657 -0.2840
 5046SOL    HW126600   4.462   0.809   9.584 -3.3426 -0.6429  0.1270
 5046SOL    HW226601   4.450   0.669   9.560 -0.1015  0.5497 -0.2015
 5047SOL     OW26602   2.027   3.211   0.994  0.4352 -0.0354 -0.0655
 5047SOL    HW126603   1.971   3.163   1.055  0.5165  0.5136  0.4393
 5047SOL    HW226604   2.107   3.222   1.045  1.3609 -1.1174 -1.2807
 5048SOL     OW26605   3.346   1.202   7.837  0.3522 -0.3336  0.0190
 5048SOL    HW126606   3.358   1.107   7.842 -1.7807 -0.5164  1.5565
 5048SOL    HW226607   3.280   1.203   7.768  0.3216 -0.0199  0.0529
 5049SOL     OW26608   3.286   3.574  10.523  0.2536 -0.0522  0.5740
 5049SOL    HW126609   3.258   3.661  10.554  0.1431 -0.0511  0.4700
 5049SOL    HW226610   3.350   3.548  10.589  1.7442  2.0346 -0.0482
 5050SOL     OW26611   1.906   2.517   2.118  0.4177  0.3711 -0.6374
 5050SOL    HW126612   1.971   2.576   2.156 -1.0360  2.3313 -1.1902
 5050SOL    HW226613   1.971   2.447   2.108 -0.9532 -0.5873 -2.8437
 5051SOL     OW26614   4.130   0.579  13.285  0.5551  0.3970 -0.3926
 5051SOL    HW126615   4.105   0.609  13.372  2.3666 -1.2451  0.6733
 5051SOL    HW226616   4.104   0.488  13.296  2.4410  0.1214  1.6215
 5052SOL     OW26617   1.192   4.494   5.738 -0.4200  0.0224  0.0780
 5052SOL    HW126618   1.121   4.537   5.783 -0.1535  0.9329 -0.3699
 5052SOL    HW226619   1.174   4.402   5.759 -0.6333 -0.3280 -1.5622
 5053SOL     OW26620   2.892   4.057   0.277 -0.0423 -0.6367 -0.0832
 5053SOL    HW126621   2.828   4.117   0.317 -0.0839 -0.4719 -0.3947
 5053SOL    HW226622   2.977   4.099   0.288  0.7866 -2.2495 -0.4193
 5054SOL     OW26623   0.971   2.340   6.851 -0.1269  0.0302 -0.5117
 5054SOL    HW126624   0.986   2.285   6.927 -0.0216 -2.1714 -2.1167
 5054SOL    HW226625   0.897   2.393   6.880 -0.6095 -2.7868  3.2905
 5055SOL     OW26626   1.455   0.658   0.836 -0.1704 -0.1069 -0.0906
 5055SOL    HW126627   1.523   0.599   0.868  1.0572  1.1115 -0.4537
 5055SOL    HW226628   1.514   0.707   0.779  1.4778 -0.1692  1.5656
 5056SOL     OW26629   0.838   0.917   3.907  0.2641  0.1786 -0.3091
 5056SOL    HW126630   0.873   1.000   3.873  1.3802  0.3290  1.2243
 5056SOL    HW226631   0.916   0.876   3.942 -0.6964 -0.7914  0.6919
 5057SOL     OW26632   2.621   2.177   0.324  0.6991  0.2656  0.8413
 5057SOL    HW126633   2.530   2.162   0.350 -0.2326  2.7309 -1.0151
 5057SOL    HW226634   2.627   2.272   0.326  0.1018  0.3449 -1.6773
 5058SOL     OW26635   0.545   1.380  12.745 -0.3517  0.2375  0.3613
 5058SOL    HW126636   0.577   1.353  12.831 -1.9581  0.1496  0.9441
 5058SOL    HW226637   0.476   1.318  12.718 -0.2155  0.2765 -0.0752
 5059SOL     OW26638   4.246   2.173   8.952 -0.2722  0.2290 -0.1944
 5059SOL    HW126639   4.300   2.247   8.923 -1.3982  0.4475 -1.6732
 5059SOL    HW226640   4.264   2.105   8.887  1.0970  0.0505  0.3734
 5060SOL     OW26641   2.505   2.351   9.268 -0.1935  0.2134  0.5072
 5060SOL    HW126642   2.557   2.422   9.305  0.1805  0.3997 -0.3918
 5060SOL    HW226643   2.489   2.300   9.347  1.1486  1.5233  1.6191
 5061SOL     OW26644   3.335   4.478  15.430 -0.3363 -0.4509  0.1544
 5061SOL    HW126645   3.306   4.570  15.431  3.0201  0.6005  0.7795
 5061SOL    HW226646   3.268   4.432  15.379  2.2004 -1.5806 -2.1085
 5062SOL     OW26647   0.216   2.127   1.730 -0.4431  0.5225  0.0180
 5062SOL    HW126648   0.279   2.147   1.660 -1.8875 -0.5515 -1.5740
 5062SOL    HW226649   0.197   2.035   1.715  0.2030  0.2263  1.0095
 5063SOL     OW26650   2.430   1.618  11.758 -0.5829  0.5996  0.1279
 5063SOL    HW126651   2.463   1.707  11.771  2.8310 -0.6144 -0.2243
 5063SOL    HW226652   2.504   1.559  11.772 -2.1901 -2.1324 -2.7895
 5064SOL     OW26653   3.629   1.662  11.255 -0.0112  0.2679 -0.1749
 5064SOL    HW126654   3.692   1.594  11.280  0.1281  0.3099 -0.4044
 5064SOL    HW226655   3.649   1.682  11.163  0.9264 -2.7273 -0.6250
 5065SOL     OW26656   0.249   1.957   3.283  0.0472 -0.3770  0.4944
 5065SOL    HW126657   0.180   1.971   3.219 -0.0095  1.4715  0.9819
 5065SOL    HW226658   0.328   1.967   3.229  0.5894  0.7884  1.5127
 5066SOL     OW26659   3.661   3.653   8.222  1.0404 -0.5985 -0.2188
 5066SOL    HW126660   3.578   3.646   8.270  0.8050  0.1162 -0.5208
 5066SOL    HW226661   3.627   3.631   8.136  1.0150  0.0705 -0.3764
 5067SOL     OW26662   0.576   0.279   3.525  0.1326  0.4161 -0.1490
 5067SOL    HW126663   0.491   0.242   3.548 -0.3071 -0.6436 -3.4453
 5067SOL    HW226664   0.564   0.364   3.568 -0.3077 -0.1726  0.8698
 5068SOL     OW26665   3.258   1.830   8.011 -0.4892  0.2991 -0.0506
 5068SOL    HW126666   3.230   1.787   7.931 -0.6601  1.0347 -0.3846
 5068SOL    HW226667   3.352   1.814   8.011 -0.3670  1.0648 -1.0624
 5069SOL     OW26668   0.446   4.643  11.248 -0.2245  0.1119 -0.6538
 5069SOL    HW126669   0.366   4.660  11.200 -0.6573 -0.7814 -0.2424
 5069SOL    HW226670   0.410   4.591  11.320 -1.0250  0.9869 -0.4181
 5070SOL     OW26671   4.222   2.586   5.274  0.4341 -0.1073 -0.0044
 5070SOL    HW126672   4.183   2.506   5.311  1.1271 -0.8361 -0.8293
 5070SOL    HW226673   4.161   2.597   5.201  2.3282  1.0572 -1.4077
 5071SOL     OW26674   4.081   2.719   6.398  0.3414  0.3346  0.0256
 5071SOL    HW126675   4.111   2.687   6.313  1.6627  1.2666  0.1479
 5071SOL    HW226676   3.990   2.743   6.379 -0.1275 -2.5151 -1.4920
 5072SOL     OW26677   4.254   1.997   1.698  0.5395 -0.2067 -0.4806
 5072SOL    HW126678   4.213   1.970   1.780 -0.8342  0.1302 -1.0551
 5072SOL    HW226679   4.267   1.919   1.644 -1.6912 -0.1331 -1.1193
 5073SOL     OW26680   2.601   2.414   2.681 -0.0768  0.7007  0.6356
 5073SOL    HW126681   2.640   2.440   2.598 -0.2849 -1.0113 -0.0098
 5073SOL    HW226682   2.568   2.497   2.716  1.7206  2.0711 -0.9366
 5074SOL     OW26683   0.712   2.097   8.111  0.1327 -0.3805 -0.1629
 5074SOL    HW126684   0.647   2.168   8.110  1.0024  0.4113 -1.3969
 5074SOL    HW226685   0.753   2.115   8.195 -1.3497 -1.6892  0.8486
 5075SOL     OW26686   1.793   0.535   5.983 -0.2262  0.1392 -0.4710
 5075SOL    HW126687   1.886   0.557   5.981 -0.2120  0.3098  1.9565
 5075SOL    HW226688   1.772   0.524   6.076 -2.3758 -0.4572 -1.0193
 5076SOL     OW26689   0.850   4.700   4.543  0.1389 -0.4167 -0.3024
 5076SOL    HW126690   0.784   0.017   4.594  0.4581 -0.1978 -0.0803
 5076SOL    HW226691   0.850   0.017   4.458 -2.4495  1.3345  0.6413
 5077SOL     OW26692   4.337   1.023  17.372  0.1733  0.8437 -0.0586
 5077SOL    HW126693   4.307   1.022  17.463 -0.8896  0.9162 -0.4060
 5077SOL    HW226694   4.420   1.069  17.376 -0.6982  2.5360 -1.4923
 5078SOL     OW26695   1.804   2.044   6.037 -0.5235  0.2401  0.2318
 5078SOL    HW126696   1.788   2.135   6.063  0.5125  0.5572 -0.2441
 5078SOL    HW226697   1.847   2.060   5.953  1.2958 -1.6959  0.8192
 5079SOL     OW26698   3.408   4.067  10.169 -0.1767 -0.6368  0.5259
 5079SOL    HW126699   3.420   3.999  10.102 -0.1063  0.7529 -0.8690
 5079SOL    HW226700   3.379   4.145  10.122  0.5562 -1.2188 -0.8878
 5080SOL     OW26701   1.145   3.903   9.629 -0.2115 -0.0709 -0.3842
 5080SOL    HW126702   1.153   3.814   9.663 -1.0194  0.1224  0.3017
 5080SOL    HW226703   1.237   3.931   9.626 -0.7389  1.9101  1.5747
 5081SOL     OW26704   2.351   0.892   4.171 -0.2315 -0.1379  0.2326
 5081SOL    HW126705   2.355   0.800   4.143 -0.3400  0.3619 -1.4005
 5081SOL    HW226706   2.413   0.926   4.106 -0.1338 -0.6896  0.0342
 5082SOL     OW26707   2.353   1.095   8.100  0.2509  0.6261 -0.4334
 5082SOL    HW126708   2.364   1.061   8.189  1.5551 -1.0172 -1.2302
 5082SOL    HW226709   2.439   1.135   8.088  1.7789 -1.7073  2.5478
 5083SOL     OW26710   3.799   3.478   2.867  0.2884 -0.4709  0.2201
 5083SOL    HW126711   3.806   3.554   2.809 -1.5413  0.2499  0.9460
 5083SOL    HW226712   3.815   3.522   2.950 -0.7436  1.2585 -0.5076
 5084SOL     OW26713   1.523   3.649  10.134 -0.5541  1.1237 -0.2434
 5084SOL    HW126714   1.597   3.623  10.188 -0.2137 -0.2200 -1.3580
 5084SOL    HW226715   1.561   3.711  10.072  1.0118  1.6308  1.2397
 5085SOL     OW26716   3.908   0.247  13.908  0.3993 -0.5949  0.3106
 5085SOL    HW126717   3.976   0.301  13.866 -0.0063 -1.4508 -1.4160
 5085SOL    HW226718   3.964   0.169  13.909 -1.2373 -1.7687 -0.7453
 5086SOL     OW26719   2.672   0.614  14.055 -0.1011 -0.1432 -0.1193
 5086SOL    HW126720   2.736   0.573  13.996 -0.1369  1.5151 -1.3064
 5086SOL    HW226721   2.724   0.624  14.135 -0.5388 -2.2841  0.4417
 5087SOL     OW26722   1.388   3.996   9.621 -0.8326 -0.3066 -0.1082
 5087SOL    HW126723   1.429   4.023   9.703  2.1724 -2.8331 -0.7855
 5087SOL    HW226724   1.378   4.078   9.573 -1.0614  1.5483  3.1571
 5088SOL     OW26725   3.297   0.201  16.082 -0.1456 -0.4585 -0.3688
 5088SOL    HW126726   3.389   0.211  16.059 -0.6705 -0.1890 -2.3876
 5088SOL    HW226727   3.262   0.289  16.096 -0.6714 -0.5911 -0.8701
 5089SOL     OW26728   1.058   4.146   8.167 -0.3575  0.6182 -0.3967
 5089SOL    HW126729   0.997   4.077   8.195 -0.3578  1.3645  1.4411
 5089SOL    HW226730   1.063   4.199   8.247  0.1907 -0.5742  0.3637
 5090SOL     OW26731   4.232   0.871   8.526 -0.1391 -0.2924  0.2139
 5090SOL    HW126732   4.274   0.813   8.589 -0.0110 -1.1363 -0.6573
 5090SOL    HW226733   4.179   0.922   8.588 -1.8451 -1.6192 -0.1606
 5091SOL     OW26734   1.330   1.457  11.237  0.2036  0.1180  0.2658
 5091SOL    HW126735   1.340   1.374  11.282  2.8839  0.1595 -0.2228
 5091SOL    HW226736   1.396   1.509  11.283  0.0088  2.7118 -2.3189
 5092SOL     OW26737   3.902   0.093   1.991 -0.1477  0.3107  0.8075
 5092SOL    HW126738   3.823   0.146   1.991 -1.8380 -2.1961 -0.1932
 5092SOL    HW226739   3.970   0.147   2.031  1.2725 -2.4050  2.1078
 5093SOL     OW26740   0.583   4.406   7.718  0.1958 -0.1368  0.1490
 5093SOL    HW126741   0.546   4.412   7.630  0.2705 -0.5915  0.0856
 5093SOL    HW226742   0.678   4.398   7.706 -0.0821 -0.7858 -1.5023
 5094SOL     OW26743   1.137   0.587   8.052 -0.0841  0.0195 -0.8973
 5094SOL    HW126744   1.126   0.499   8.087 -1.3028 -0.1614 -1.7461
 5094SOL    HW226745   1.172   0.571   7.964 -0.7575 -1.0984 -0.9637
 5095SOL     OW26746   2.867   4.101   5.984 -0.2987 -0.2422  0.5737
 5095SOL    HW126747   2.877   4.122   6.077 -0.3016 -1.2197  0.8003
 5095SOL    HW226748   2.796   4.036   5.981 -1.3532  1.0054 -1.4973
 5096SOL     OW26749   3.364   0.231   3.303 -0.5417 -0.1595 -0.5302
 5096SOL    HW126750   3.444   0.282   3.308 -0.9714  0.5084 -0.4679
 5096SOL    HW226751   3.394   0.141   3.295  1.9547  0.6249  0.1418
 5097SOL     OW26752   3.211   2.234   6.915  0.1171  0.1031 -0.1606
 5097SOL    HW126753   3.276   2.170   6.888 -2.3376 -2.0786 -0.8207
 5097SOL    HW226754   3.240   2.259   7.003 -0.5243 -0.2744  0.1557
 5098SOL     OW26755   2.567   0.684   8.691 -0.0319 -0.0200 -0.0601
 5098SOL    HW126756   2.544   0.751   8.626  1.1944  0.7165  0.2583
 5098SOL    HW226757   2.494   0.623   8.696 -1.4106  1.5397 -1.0223
 5099SOL     OW26758   2.897   3.837   6.292  0.0259  0.0866 -0.0988
 5099SOL    HW126759   2.850   3.875   6.218 -1.4776 -0.8171  0.3924
 5099SOL    HW226760   2.972   3.896   6.293  0.4048 -0.3999  0.3972
 5100SOL     OW26761   1.055   3.653   9.367  0.5933  0.2833 -0.0314
 5100SOL    HW126762   0.998   3.614   9.301 -1.3277 -0.3373  2.0152
 5100SOL    HW226763   1.011   3.610   9.441 -2.4659  1.1686 -1.3518
 5101SOL     OW26764   0.200   4.245   9.595 -0.4141 -0.5421  0.0511
 5101SOL    HW126765   0.122   4.231   9.542 -0.5185  2.2785 -0.5156
 5101SOL    HW226766   0.160   4.248   9.682  1.3735 -0.4467  0.8645
 5102SOL     OW26767   1.315   3.867   4.619 -0.1765 -0.1744 -0.2428
 5102SOL    HW126768   1.343   3.855   4.709 -0.4066  1.2453  0.0099
 5102SOL    HW226769   1.398   3.894   4.579  1.3595 -2.3045  1.4924
 5103SOL     OW26770   0.377   2.226  16.871  0.1764  0.1212  0.4649
 5103SOL    HW126771   0.472   2.223  16.864  0.2367 -0.0616  1.3422
 5103SOL    HW226772   0.354   2.215  16.779  0.7580  1.2034  0.1848
 5104SOL     OW26773   4.252   2.406   4.889  0.6069 -0.2160  0.2956
 5104SOL    HW126774   4.296   2.335   4.937 -1.5271 -1.5301  0.2927
 5104SOL    HW226775   4.190   2.425   4.959 -0.2704  1.4478 -0.9496
 5105SOL     OW26776   3.416   3.463   9.955 -0.0591 -0.4876  0.6873
 5105SOL    HW126777   3.386   3.551   9.979 -0.1946 -1.0762  2.7048
 5105SOL    HW226778   3.346   3.429   9.899 -0.9779  0.9319  0.9540
 5106SOL     OW26779   2.803   0.727   3.861 -0.8132  0.3665 -0.1359
 5106SOL    HW126780   2.760   0.648   3.828 -0.0475  0.2332 -0.8151
 5106SOL    HW226781   2.823   0.768   3.777  1.6491 -1.2073 -0.3345
 5107SOL     OW26782   2.891   3.214   7.042 -0.3611  0.2988  0.1783
 5107SOL    HW126783   2.903   3.131   6.995 -2.6777 -0.7202  1.3959
 5107SOL    HW226784   2.982   3.244   7.039 -0.3458  0.1137 -1.2985
 5108SOL     OW26785   1.124   1.036   3.492 -0.1822  0.3367  0.0937
 5108SOL    HW126786   1.179   1.103   3.530 -0.3465 -0.9885  2.6359
 5108SOL    HW226787   1.036   1.074   3.492 -0.7657 -1.0148 -0.3677
 5109SOL     OW26788   1.580   0.351   2.835  0.1062 -0.2729  0.0714
 5109SOL    HW126789   1.568   0.264   2.875 -0.7008 -0.0120  0.3963
 5109SOL    HW226790   1.673   0.350   2.813  0.1214  0.6269  0.1047
 5110SOL     OW26791   3.716   0.255  10.609 -0.1772  0.1140 -0.2609
 5110SOL    HW126792   3.734   0.202  10.687  1.0038 -0.6283 -1.0415
 5110SOL    HW226793   3.632   0.217  10.581  0.4948 -1.8619  0.3747
 5111SOL     OW26794   2.349   4.201   8.346  0.2231 -0.4968  0.4209
 5111SOL    HW126795   2.422   4.219   8.405  1.4429  0.3808 -1.3248
 5111SOL    HW226796   2.281   4.235   8.404  0.6376  0.7792  0.1595
 5112SOL     OW26797   1.415   2.444   7.697 -0.3263  0.3050 -0.2617
 5112SOL    HW126798   1.357   2.438   7.773 -1.3235 -0.4172 -1.0777
 5112SOL    HW226799   1.497   2.411   7.733  0.8391  0.7391 -2.5750
 5113SOL     OW26800   1.976   1.695   7.087  0.4444  0.0675 -0.2953
 5113SOL    HW126801   2.036   1.766   7.064 -1.2565  1.8724  0.8399
 5113SOL    HW226802   1.977   1.647   7.004  2.0961  2.0256 -1.3856
 5114SOL     OW26803   4.386   2.667   7.701 -0.2840 -0.1815 -0.6030
 5114SOL    HW126804   4.344   2.718   7.771  1.4771  0.9068 -0.3379
 5114SOL    HW226805   4.347   2.582   7.722  0.0600  0.2927  1.9687
 5115SOL     OW26806   1.787   4.479   9.037 -0.3776  0.6903 -0.6010
 5115SOL    HW126807   1.794   4.554   8.978  0.4355  0.5294 -0.7255
 5115SOL    HW226808   1.703   4.493   9.079  0.4786 -1.0712  1.6695
 5116SOL     OW26809   0.276   1.517   3.854 -0.3293  0.2256 -0.0016
 5116SOL    HW126810   0.250   1.544   3.942 -0.6448 -0.3934  0.0913
 5116SOL    HW226811   0.306   1.596   3.809  0.1260 -0.5190 -1.0133
 5117SOL     OW26812   3.436   2.119   8.955 -0.2546  0.1389  0.2442
 5117SOL    HW126813   3.410   2.180   9.024 -0.5966  0.2142  0.0490
 5117SOL    HW226814   3.349   2.090   8.928  0.8676 -1.4759 -1.6483
 5118SOL     OW26815   1.358   2.146   1.430  0.1521 -0.0342  0.0868
 5118SOL    HW126816   1.408   2.100   1.496  0.6724  0.7014  0.2089
 5118SOL    HW226817   1.417   2.198   1.375  1.0582 -0.8898  0.2496
 5119SOL     OW26818   1.255   3.536   5.331 -0.1184 -0.1363  0.3539
 5119SOL    HW126819   1.347   3.538   5.356 -0.0437 -0.8958  0.1448
 5119SOL    HW226820   1.212   3.528   5.416  2.6818 -0.6079  1.7254
 5120SOL     OW26821   4.028   1.013   1.255 -0.0937  0.3933  0.3958
 5120SOL    HW126822   4.021   1.106   1.271  0.3269  0.7199 -1.2402
 5120SOL    HW226823   4.122   1.004   1.237 -0.1456 -0.2531  0.4382
 5121SOL     OW26824   4.514   0.752   5.545  0.1067  0.0689 -0.3397
 5121SOL    HW126825   4.552   0.830   5.504 -2.5209  1.8195  0.5621
 5121SOL    HW226826   4.501   0.779   5.636 -0.0765 -0.3576 -0.2382
 5122SOL     OW26827   1.583   3.099   8.885  0.0370 -0.3225 -0.3148
 5122SOL    HW126828   1.658   3.141   8.928 -0.7706 -0.2954  1.0583
 5122SOL    HW226829   1.506   3.147   8.916  0.6970  0.4457  0.1435
 5123SOL     OW26830   2.481   4.072   6.604 -0.3657 -0.1001  0.1926
 5123SOL    HW126831   2.534   4.089   6.526  0.2095  1.0799  0.8362
 5123SOL    HW226832   2.416   4.018   6.559 -0.4199  0.4556 -0.4005
 5124SOL     OW26833   3.784   2.481  10.225 -0.2719  0.1508  0.3058
 5124SOL    HW126834   3.698   2.480  10.267 -0.5942 -0.5580 -0.3849
 5124SOL    HW226835   3.796   2.575  10.212  1.0373 -0.2935 -1.6695
 5125SOL     OW26836   0.826   0.061  17.664 -0.1597  0.1936  0.3702
 5125SOL    HW126837   0.821   4.694  17.657 -0.6953  0.3505 -1.1979
 5125SOL    HW226838   0.818   0.090  17.573 -1.9794 -1.1894  0.1007
 5126SOL     OW26839   3.365   3.856  16.255 -0.3031  0.4073 -0.8217
 5126SOL    HW126840   3.286   3.802  16.263 -1.4904  2.2827 -0.0253
 5126SOL    HW226841   3.320   3.938  16.273 -1.2792 -0.6564  1.6587
 5127SOL     OW26842   0.545   4.665  11.939  0.4025  0.0190 -0.5430
 5127SOL    HW126843   0.530   0.029  11.958 -0.6028 -0.4670  1.0141
 5127SOL    HW226844   0.457   4.629  11.937 -0.1493  1.3803 -0.6761
 5128SOL     OW26845   0.296   4.023   6.815  0.3320 -0.0772 -0.0910
 5128SOL    HW126846   0.283   3.952   6.878  1.2238  0.9920  1.2872
 5128SOL    HW226847   0.384   4.005   6.784  1.5205  2.4718  1.8543
 5129SOL     OW26848   2.762   0.627   5.034  0.0445  0.1437 -0.2362
 5129SOL    HW126849   2.800   0.714   5.022 -0.6584  0.7505  1.9313
 5129SOL    HW226850   2.681   0.649   5.079 -1.1934 -1.9639 -1.4337
 5130SOL     OW26851   4.105   1.388   1.477 -0.1312  0.2794  0.0695
 5130SOL    HW126852   4.075   1.469   1.519 -2.5740 -0.2805 -0.5633
 5130SOL    HW226853   4.046   1.383   1.402  1.1669  1.6462 -1.0540
 5131SOL     OW26854   3.895   3.037   5.333  0.1476 -0.4012 -0.3129
 5131SOL    HW126855   3.823   3.060   5.275 -0.3331 -0.1278  0.3965
 5131SOL    HW226856   3.898   2.942   5.327 -0.3776 -0.4558  0.3893
 5132SOL     OW26857   2.038   1.427   7.704  0.3919  0.0513 -0.1073
 5132SOL    HW126858   2.125   1.409   7.669  0.3632  0.9359 -0.6275
 5132SOL    HW226859   1.982   1.353   7.679  1.0627 -0.5777  0.2575
 5133SOL     OW26860   0.000   0.279   1.232 -0.3889 -0.0242 -0.3985
 5133SOL    HW126861   0.033   0.306   1.146  0.6078  2.3032  0.7260
 5133SOL    HW226862   0.079   0.233   1.259  0.5135  1.7995  0.0729
 5134SOL     OW26863   2.472   1.124   2.760 -0.4741 -0.2444  0.2520
 5134SOL    HW126864   2.441   1.070   2.832 -0.2296  2.9094  2.7329
 5134SOL    HW226865   2.564   1.125   2.787 -0.1547  0.9706 -0.8658
 5135SOL     OW26866   2.977   2.249   6.709  0.0514  0.1016 -0.7936
 5135SOL    HW126867   2.956   2.334   6.671  1.6582  1.6791  1.8167
 5135SOL    HW226868   3.071   2.248   6.727  0.2520 -2.5874 -1.9743
 5136SOL     OW26869   2.002   1.287   1.105 -0.0565  0.2303  0.2130
 5136SOL    HW126870   2.010   1.362   1.164  3.2475 -0.5077  0.6798
 5136SOL    HW226871   1.977   1.340   1.029  0.5550 -1.0060 -0.8673
 5137SOL     OW26872   2.414   1.115   2.316 -0.7891 -0.5702 -0.7184
 5137SOL    HW126873   2.373   1.178   2.375 -1.2644 -0.5333 -1.0890
 5137SOL    HW226874   2.378   1.035   2.354  0.8345 -0.9766 -0.0279
 5138SOL     OW26875   1.653   4.477   1.579  0.3545 -0.0404  0.6436
 5138SOL    HW126876   1.657   4.550   1.640  0.9681  0.2909  0.2171
 5138SOL    HW226877   1.737   4.493   1.535 -0.8064 -0.2200 -1.6452
 5139SOL     OW26878   0.323   2.583   6.073  0.5866 -0.4224  0.1096
 5139SOL    HW126879   0.378   2.591   5.995 -0.8458  2.4859 -0.6166
 5139SOL    HW226880   0.269   2.506   6.056 -1.5601  1.4986 -1.8179
 5140SOL     OW26881   2.379   2.262  15.106  0.2855  0.2637  0.2869
 5140SOL    HW126882   2.451   2.246  15.168 -0.8972  0.6240  1.7582
 5140SOL    HW226883   2.322   2.192  15.137 -0.6617  1.5845  1.5719
 5141SOL     OW26884   2.682   3.220  11.041 -0.0204 -0.3819 -0.4048
 5141SOL    HW126885   2.687   3.297  11.098  1.5011 -2.3677  2.1756
 5141SOL    HW226886   2.692   3.145  11.100  0.1710  0.4323  0.6011
 5142SOL     OW26887   2.440   1.105   6.512 -0.1682 -0.1035  0.1682
 5142SOL    HW126888   2.427   1.076   6.602 -0.8042 -1.4742 -0.3663
 5142SOL    HW226889   2.428   1.198   6.529 -2.4020 -0.5814  1.2006
 5143SOL     OW26890   1.223   0.886   7.856  0.0340 -0.5251 -0.2671
 5143SOL    HW126891   1.134   0.920   7.868  0.2636  0.7404 -2.3147
 5143SOL    HW226892   1.227   0.850   7.768 -1.0070 -1.0451 -0.0992
 5144SOL     OW26893   4.174   1.888   4.351  0.0367  0.4134 -0.0313
 5144SOL    HW126894   4.200   1.964   4.403 -0.4028  0.2304  0.4674
 5144SOL    HW226895   4.127   1.930   4.279 -0.6698  0.0123  0.1913
 5145SOL     OW26896   2.178   0.779   0.199 -0.3305 -0.0188 -0.0055
 5145SOL    HW126897   2.097   0.781   0.148  0.7870 -0.8668 -1.8379
 5145SOL    HW226898   2.241   0.797   0.128 -0.3622 -1.4356 -0.3888
 5146SOL     OW26899   4.401   1.840   6.878  0.2682 -0.4747  0.2401
 5146SOL    HW126900   4.451   1.781   6.822  1.0152  1.0908 -0.7326
 5146SOL    HW226901   4.423   1.800   6.962 -0.9684  0.2643  0.9242
 5147SOL     OW26902   3.074   1.475   5.679  0.1211 -0.4076  0.8877
 5147SOL    HW126903   3.133   1.435   5.743 -0.3342 -1.5358  0.6053
 5147SOL    HW226904   3.095   1.428   5.598  1.0175  2.0598 -0.3054
 5148SOL     OW26905   4.026   1.715   8.807 -0.0119  0.5029  0.1101
 5148SOL    HW126906   3.993   1.675   8.888  1.1516  0.1107  0.3860
 5148SOL    HW226907   3.967   1.790   8.813 -1.2764 -0.3544 -1.6163
 5149SOL     OW26908   4.310   4.442   2.923 -0.5247 -0.1472  0.0259
 5149SOL    HW126909   4.281   4.530   2.897 -1.4831 -0.1555  1.0745
 5149SOL    HW226910   4.404   4.457   2.937 -0.5708  0.3750 -0.2062
 5150SOL     OW26911   3.461   1.069   2.773  0.8449  0.2969 -0.2090
 5150SOL    HW126912   3.383   1.036   2.817  1.8079  0.7409  1.8179
 5150SOL    HW226913   3.518   0.994   2.790  2.9614  1.8317 -0.5564
 5151SOL     OW26914   1.800   2.076  13.665  0.2533  0.3509 -0.6829
 5151SOL    HW126915   1.869   2.047  13.726  0.2639  1.8856  0.0312
 5151SOL    HW226916   1.851   2.143  13.620  0.2519  0.7450 -0.1050
 5152SOL     OW26917   2.258   3.062   5.592 -0.6186 -0.0925 -0.3552
 5152SOL    HW126918   2.224   3.005   5.523 -0.2620  0.5533 -1.0541
 5152SOL    HW226919   2.350   3.034   5.588  0.1142  2.2623  0.5194
 5153SOL     OW26920   1.563   1.537   8.104  0.1790  0.1496  0.4023
 5153SOL    HW126921   1.486   1.584   8.138  1.0467  2.1922 -0.4879
 5153SOL    HW226922   1.521   1.471   8.048 -0.8814  0.6873  0.5693
 5154SOL     OW26923   2.347   0.823   5.988  0.2411 -0.5307  0.2988
 5154SOL    HW126924   2.346   0.908   6.034 -1.4352 -0.1500 -0.4360
 5154SOL    HW226925   2.301   0.778   6.059  0.0874 -1.5960 -0.4895
 5155SOL     OW26926   4.499   1.924   2.421 -0.4589 -0.6102 -0.1558
 5155SOL    HW126927   4.475   1.933   2.328  1.8697  1.7097 -0.5278
 5155SOL    HW226928   4.568   1.989   2.435 -1.3293  0.1103  0.7762
 5156SOL     OW26929   1.233   0.762  15.083  0.6752  0.3899 -0.0902
 5156SOL    HW126930   1.186   0.746  15.001 -0.2891  1.9756  0.1536
 5156SOL    HW226931   1.277   0.842  15.054 -0.3047  1.0925  0.3797
 5157SOL     OW26932   2.077   1.144   4.733 -0.5673  0.7242  1.1340
 5157SOL    HW126933   2.094   1.229   4.774  1.0879  0.6327  0.6163
 5157SOL    HW226934   2.161   1.126   4.691 -1.0071  1.7296 -0.1759
 5158SOL     OW26935   4.110   0.739  16.275 -0.2760 -0.0646  0.1423
 5158SOL    HW126936   4.135   0.830  16.260 -1.7956  0.1120 -1.3263
 5158SOL    HW226937   4.089   0.731  16.368 -0.7075  0.1256  0.0590
 5159SOL     OW26938   1.828   2.651   4.026  0.1152 -0.3603  0.5424
 5159SOL    HW126939   1.869   2.616   3.947 -0.0707 -2.7579  1.5349
 5159SOL    HW226940   1.739   2.622   4.008  0.6142 -0.1428 -2.1864
 5160SOL     OW26941   3.333   0.303  12.960  0.2814  0.6415  0.0295
 5160SOL    HW126942   3.238   0.307  12.943  0.6554  0.1615 -2.2026
 5160SOL    HW226943   3.341   0.265  13.048 -0.5080 -0.7581 -0.5030
 5161SOL     OW26944   3.091   3.924   5.963  0.2697  0.8898 -0.1200
 5161SOL    HW126945   3.021   3.968   6.012  0.3326 -0.8499  1.5229
 5161SOL    HW226946   3.101   3.988   5.893  0.4426  2.8562  1.6811
 5162SOL     OW26947   2.437   4.277   5.223  0.0764 -0.0281  0.1814
 5162SOL    HW126948   2.390   4.205   5.264  1.7647 -0.7582  0.7951
 5162SOL    HW226949   2.528   4.268   5.251  0.4594  1.1354 -0.6576
 5163SOL     OW26950   2.324   2.944   4.936  0.7845  0.1965 -0.0596
 5163SOL    HW126951   2.316   2.941   4.841  2.1416  0.9257 -0.1923
 5163SOL    HW226952   2.319   2.849   4.950  0.8883  0.3211  0.8388
 5164SOL     OW26953   4.566   2.981  15.935 -0.4278  0.0480 -0.8180
 5164SOL    HW126954   4.483   2.984  15.887  0.6522  3.4913 -2.4695
 5164SOL    HW226955   4.541   3.019  16.019  2.2016  0.9888 -0.4799
 5165SOL     OW26956   1.046   2.915   2.029  0.3151  1.0501 -0.2747
 5165SOL    HW126957   1.140   2.904   2.045  0.2332  0.1836 -0.3889
 5165SOL    HW226958   1.019   2.972   2.101  1.8527 -2.0556  2.7789
 5166SOL     OW26959   0.962   3.100   3.559  0.2871 -0.3608  0.4904
 5166SOL    HW126960   1.047   3.108   3.515 -0.7650 -0.7625 -1.6495
 5166SOL    HW226961   0.995   3.084   3.647  0.7816  1.5272  0.6448
 5167SOL     OW26962   4.376   2.431   8.438 -0.0422 -0.4999  0.2904
 5167SOL    HW126963   4.289   2.456   8.406 -1.0743 -1.6637  2.1684
 5167SOL    HW226964   4.427   2.429   8.358  0.1834 -1.2035  0.4522
 5168SOL     OW26965   2.253   3.433   7.387 -0.3911  0.0272  0.3341
 5168SOL    HW126966   2.239   3.484   7.467  0.6348  0.9439 -0.0734
 5168SOL    HW226967   2.249   3.495   7.315  0.0870  0.2530  0.5037
 5169SOL     OW26968   4.343   4.550   5.548 -0.3987  0.2936  0.2535
 5169SOL    HW126969   4.386   4.525   5.466 -1.1315 -2.3083  0.6505
 5169SOL    HW226970   4.385   4.636   5.555  0.1274 -0.0999  1.8242
 5170SOL     OW26971   1.796   3.768   9.229 -0.0171 -0.2493 -0.2508
 5170SOL    HW126972   1.808   3.815   9.311 -1.3478  3.6942 -2.2792
 5170SOL    HW226973   1.709   3.730   9.241  0.2155 -1.2086 -1.5146
 5171SOL     OW26974   3.002   2.124   7.036 -0.1971 -0.2211  0.2565
 5171SOL    HW126975   3.069   2.177   6.993 -0.5355  0.0068  0.0071
 5171SOL    HW226976   2.961   2.200   7.077  0.4806  0.4266 -0.2655
 5172SOL     OW26977   2.914   3.523   3.827  0.1905 -0.5370 -0.7685
 5172SOL    HW126978   2.976   3.594   3.806 -1.1081  0.3343 -1.6275
 5172SOL    HW226979   2.841   3.571   3.864  0.3222  0.2031 -1.4527
 5173SOL     OW26980   2.279   0.407   5.443 -0.2198  0.0830 -0.4613
 5173SOL    HW126981   2.196   0.402   5.490  0.0469  0.2506  0.0318
 5173SOL    HW226982   2.313   0.318   5.451  0.3171  0.4449  1.4351
 5174SOL     OW26983   3.552   2.323  17.287 -0.1443 -0.0385 -0.1750
 5174SOL    HW126984   3.527   2.284  17.371  0.0383 -0.2531 -0.2196
 5174SOL    HW226985   3.565   2.247  17.230 -1.9705 -0.5627  0.0928
 5175SOL     OW26986   3.775   3.147   3.174 -0.1234 -0.2038 -0.4545
 5175SOL    HW126987   3.788   3.166   3.081  4.4787 -1.0786  0.0359
 5175SOL    HW226988   3.713   3.219   3.187  1.1544  0.8603 -0.2561
 5176SOL     OW26989   3.171   3.355  17.093 -0.1421  0.5413 -0.2942
 5176SOL    HW126990   3.136   3.436  17.055 -0.7324  1.3194  1.9366
 5176SOL    HW226991   3.096   3.296  17.087  1.2799 -1.0818 -2.0391
 5177SOL     OW26992   3.909   3.000   7.442  0.2066 -0.2054 -0.2097
 5177SOL    HW126993   3.853   3.045   7.505 -0.2350  1.2405 -1.6239
 5177SOL    HW226994   3.850   2.964   7.376  0.3179  0.8827 -0.9014
 5178SOL     OW26995   2.614   4.082  15.386  0.3314 -0.8664  0.5282
 5178SOL    HW126996   2.542   4.067  15.325  0.5319  1.8085 -0.3833
 5178SOL    HW226997   2.622   4.177  15.373  0.3003 -0.9787 -0.3170
 5179SOL     OW26998   4.460   3.855   5.649 -0.0980 -0.3490 -0.5061
 5179SOL    HW126999   4.370   3.883   5.661  0.9185  1.3394  3.1984
 5179SOL    HW227000   4.512   3.929   5.679 -0.1215 -0.7594  0.5475
 5180SOL     OW27001   1.591   1.334  11.664 -0.4124 -0.0876 -0.0372
 5180SOL    HW127002   1.585   1.300  11.575  1.9573 -0.1630 -0.1585
 5180SOL    HW227003   1.614   1.425  11.646 -3.0414  0.6890  0.4306
 5181SOL     OW27004   4.325   3.987   3.061  0.5212 -0.4307  0.6928
 5181SOL    HW127005   4.276   3.984   2.979 -0.0290  1.4016  0.9648
 5181SOL    HW227006   4.278   3.932   3.124 -0.5266 -1.4744 -0.9932
 5182SOL     OW27007   3.178   0.580   2.068  0.1609 -0.3389 -0.9955
 5182SOL    HW127008   3.123   0.609   1.994  0.4559  1.0302 -0.6685
 5182SOL    HW227009   3.249   0.643   2.064 -0.3804  0.4106  1.0125
 5183SOL     OW27010   0.707   0.512   1.098  0.0469  0.8530  0.8577
 5183SOL    HW127011   0.683   0.506   1.191  0.4407  1.1607  0.9775
 5183SOL    HW227012   0.628   0.477   1.057  0.5941  0.8122 -0.1504
 5184SOL     OW27013   4.647   3.910   5.049 -0.0467 -0.8781  0.0243
 5184SOL    HW127014   4.575   3.969   5.025 -0.7452 -1.8670 -0.3017
 5184SOL    HW227015   4.697   3.909   4.968 -1.0711  0.2175 -0.6277
 5185SOL     OW27016   0.269   3.004   3.068  0.3674 -0.1108  0.5248
 5185SOL    HW127017   0.188   2.994   3.117 -1.0178 -0.3641 -1.7928
 5185SOL    HW227018   0.333   2.942   3.103 -0.2536 -1.0989 -0.1136
 5186SOL     OW27019   4.057   2.423   9.409  0.0740  0.3481 -0.3728
 5186SOL    HW127020   3.972   2.409   9.367 -0.7433 -0.2789  1.4774
 5186SOL    HW227021   4.021   2.484   9.473 -1.2420 -0.7981 -0.0164
 5187SOL     OW27022   3.739   2.231   2.054  0.0660  0.1296  0.1713
 5187SOL    HW127023   3.649   2.203   2.068  0.5670 -2.2700 -1.4191
 5187SOL    HW227024   3.757   2.193   1.968  1.8678  2.3594 -0.4663
 5188SOL     OW27025   1.506   3.354  10.327  0.2407 -0.3218 -0.1729
 5188SOL    HW127026   1.422   3.398  10.333 -0.1679 -1.2647  0.9486
 5188SOL    HW227027   1.541   3.418  10.265  0.6918 -0.6942 -0.3038
 5189SOL     OW27028   3.359   0.145   5.487 -0.5132 -0.0448 -0.2917
 5189SOL    HW127029   3.359   0.052   5.509  0.7500 -0.2360 -1.0637
 5189SOL    HW227030   3.436   0.162   5.540 -2.3497  0.0942  2.3026
 5190SOL     OW27031   4.271   0.666   5.583 -0.4477  0.1670  0.1173
 5190SOL    HW127032   4.350   0.707   5.548  0.5608 -0.9312  1.1038
 5190SOL    HW227033   4.292   0.667   5.677 -0.5013 -1.9892  0.1539
 5191SOL     OW27034   1.702   0.199   3.476 -0.5759 -0.2708 -0.4075
 5191SOL    HW127035   1.638   0.136   3.443  1.7250 -1.4471 -2.4900
 5191SOL    HW227036   1.685   0.282   3.430 -1.4876  0.4281  1.1387
 5192SOL     OW27037   0.271   3.467   3.377  0.8365  0.2344  0.1527
 5192SOL    HW127038   0.331   3.404   3.416  1.1095  2.0748  2.7381
 5192SOL    HW227039   0.274   3.529   3.450 -1.6774 -1.2699  1.5482
 5193SOL     OW27040   3.907   3.856   5.091  0.0681 -0.4738  0.4856
 5193SOL    HW127041   3.819   3.821   5.082 -0.1095 -0.1987  1.1424
 5193SOL    HW227042   3.923   3.821   5.179  0.1714  1.0977  1.0912
 5194SOL     OW27043   1.927   0.033   3.562 -0.4871  0.3316  0.1197
 5194SOL    HW127044   1.861   0.102   3.551 -1.1365 -0.3012  0.0042
 5194SOL    HW227045   1.871   4.686   3.540  0.2829 -0.3004  0.3015
 5195SOL     OW27046   0.641   1.198   3.618  0.0471  0.1726  0.1320
 5195SOL    HW127047   0.648   1.279   3.669  1.1664  0.9043 -1.1686
 5195SOL    HW227048   0.571   1.233   3.563 -0.4992 -1.1455 -0.0058
 5196SOL     OW27049   1.285   4.429   7.931  0.0146 -0.2411 -0.0002
 5196SOL    HW127050   1.250   4.434   8.020 -0.1978  1.0509 -0.1543
 5196SOL    HW227051   1.343   4.506   7.926 -0.2790  0.1432  2.4190
 5197SOL     OW27052   3.026   3.546   3.491 -0.3086 -0.5032  0.7808
 5197SOL    HW127053   3.047   3.615   3.427 -0.0079 -0.3579  1.0350
 5197SOL    HW227054   3.038   3.600   3.569 -0.6368  2.5405 -1.2626
 5198SOL     OW27055   3.884   1.460   6.553  0.7370  0.5954  0.6275
 5198SOL    HW127056   3.853   1.520   6.485 -2.2315 -0.7823  0.7365
 5198SOL    HW227057   3.922   1.531   6.604 -0.5838  2.4695 -1.0247
 5199SOL     OW27058   4.008   0.906   4.160 -0.9744  0.5197  0.6813
 5199SOL    HW127059   4.025   0.999   4.171  0.4577  0.1550  1.4995
 5199SOL    HW227060   3.928   0.879   4.205 -0.2521  0.4636  1.9439
 5200SOL     OW27061   4.127   2.258   5.731 -0.0066 -0.4848  0.0263
 5200SOL    HW127062   4.217   2.227   5.743 -0.2948 -0.8048  1.3607
 5200SOL    HW227063   4.149   2.336   5.681  1.4810 -1.0600 -0.2216
 5201SOL     OW27064   2.830   1.494  17.455 -0.0185 -0.5064  0.5847
 5201SOL    HW127065   2.847   1.400  17.450 -0.0078 -0.5275  1.0167
 5201SOL    HW227066   2.878   1.520  17.376  2.0927 -1.9992  1.3735
 5202SOL     OW27067   3.392   3.001  11.849  0.1749 -0.4698  0.6865
 5202SOL    HW127068   3.363   3.082  11.891 -1.1259 -0.7802  0.4019
 5202SOL    HW227069   3.487   3.009  11.851  0.0758  0.5633  1.1301
 5203SOL     OW27070   3.552   0.177   7.327  0.0270  0.3636 -0.0291
 5203SOL    HW127071   3.568   0.180   7.233 -2.2080  0.4916 -0.3908
 5203SOL    HW227072   3.457   0.168   7.325  0.0687  0.3549 -1.8033
 5204SOL     OW27073   2.890   1.125   7.264  0.5653  0.2462 -0.3434
 5204SOL    HW127074   2.842   1.208   7.268 -1.0245 -0.7136  0.5598
 5204SOL    HW227075   2.935   1.132   7.180 -2.0160  1.9381 -1.5964
 5205SOL     OW27076   3.460   1.806   5.679 -0.0141  0.3513  0.3626
 5205SOL    HW127077   3.530   1.861   5.715  0.2927 -0.4467  0.9676
 5205SOL    HW227078   3.504   1.759   5.608  1.8685  3.0014 -0.2262
 5206SOL     OW27079   2.691   0.618   2.908 -0.0027 -0.3826 -0.2452
 5206SOL    HW127080   2.785   0.603   2.911  0.1352  0.9499  2.4611
 5206SOL    HW227081   2.687   0.700   2.860  2.8895  0.0837  0.3376
 5207SOL     OW27082   1.128   1.994  12.334 -0.0530  0.7317  0.6809
 5207SOL    HW127083   1.195   1.947  12.384  1.9090  1.7254 -1.0113
 5207SOL    HW227084   1.051   1.983  12.389  0.1950  0.6365  1.0128
 5208SOL     OW27085   1.052   3.667  10.142 -0.7265  0.1814 -0.1576
 5208SOL    HW127086   0.963   3.632  10.137 -1.2930  1.6760 -0.5145
 5208SOL    HW227087   1.043   3.702  10.231 -0.4593  1.3428 -0.6012
 5209SOL     OW27088   4.136   0.971  12.828 -0.2307  0.1609 -0.7804
 5209SOL    HW127089   4.123   1.046  12.886  0.5273 -0.5873  0.3515
 5209SOL    HW227090   4.216   0.940  12.870 -0.2506 -1.1682 -1.7045
 5210SOL     OW27091   3.429   0.033   6.681  0.2823 -0.8420  0.1165
 5210SOL    HW127092   3.443   0.003   6.771  0.0883 -0.8248  0.1526
 5210SOL    HW227093   3.461   4.684   6.635 -1.9319 -1.0637 -1.0466
 5211SOL     OW27094   3.805   0.470   9.382 -0.4196  0.1287 -0.2953
 5211SOL    HW127095   3.761   0.543   9.339  1.1552 -0.2861 -2.6143
 5211SOL    HW227096   3.876   0.519   9.421 -0.2711 -1.4389  1.4223
 5212SOL     OW27097   4.585   3.823   0.403 -0.0726  0.1061 -0.0429
 5212SOL    HW127098   4.600   3.887   0.333  2.0804 -2.7000 -2.1314
 5212SOL    HW227099   4.516   3.855   0.461  0.4038 -0.5051  0.8593
 5213SOL     OW27100   2.644   4.187   1.835 -0.1208 -0.5447 -0.3157
 5213SOL    HW127101   2.591   4.110   1.817  1.6482 -1.7590 -0.4061
 5213SOL    HW227102   2.606   4.219   1.917  1.4989 -0.3438  0.3635
 5214SOL     OW27103   3.147   3.844  10.366  0.2025 -0.3411  0.6040
 5214SOL    HW127104   3.182   3.802  10.287  0.0611  2.0247 -0.7065
 5214SOL    HW227105   3.065   3.884  10.339  0.3911  0.8174  1.7561
 5215SOL     OW27106   0.305   1.176   8.687  0.1808 -0.7345 -0.5244
 5215SOL    HW127107   0.387   1.175   8.735 -0.2833  0.8604  0.2816
 5215SOL    HW227108   0.243   1.118   8.732 -0.4464  1.0692  0.9135
 5216SOL     OW27109   3.306   3.163   5.368 -0.4212  0.1075 -0.1357
 5216SOL    HW127110   3.388   3.171   5.415 -0.6263 -1.1562  0.4201
 5216SOL    HW227111   3.289   3.071   5.384 -1.5806  0.8990  3.1138
 5217SOL     OW27112   4.334   4.573   8.636 -0.1232  0.2624  0.2341
 5217SOL    HW127113   4.327   4.497   8.579  1.9797 -0.1852  0.5507
 5217SOL    HW227114   4.308   4.541   8.722  0.6424  1.7956  1.0476
 5218SOL     OW27115   1.983   0.202   5.891 -0.4278  0.2444 -0.0196
 5218SOL    HW127116   1.889   0.209   5.909 -0.7009  2.0317 -2.1377
 5218SOL    HW227117   2.017   0.211   5.980  0.8748 -1.1807 -0.3672
 5219SOL     OW27118   3.422   3.170   5.872  0.2448  0.1860  0.9556
 5219SOL    HW127119   3.500   3.131   5.832 -1.1376 -2.0486  0.3838
 5219SOL    HW227120   3.460   3.257   5.874 -1.3246  0.9065 -1.2094
 5220SOL     OW27121   4.231   1.612  13.553 -0.4319 -0.2073 -0.6768
 5220SOL    HW127122   4.200   1.656  13.474 -1.1604 -0.7182 -0.6738
 5220SOL    HW227123   4.172   1.652  13.616 -1.1317 -1.4357 -0.5529
 5221SOL     OW27124   3.669   2.466   6.986 -0.2825  0.1941 -0.0141
 5221SOL    HW127125   3.699   2.489   7.074  1.1062  1.1931 -0.7532
 5221SOL    HW227126   3.749   2.419   6.962 -1.0562 -1.6217  0.9662
 5222SOL     OW27127   1.723   1.247   5.385  0.0187  0.2441  0.2871
 5222SOL    HW127128   1.729   1.327   5.333  1.5735 -1.1296 -1.6229
 5222SOL    HW227129   1.669   1.196   5.325  0.4379 -0.9622  0.9167
 5223SOL     OW27130   0.489   0.709   8.381 -0.6776 -0.3623  0.4313
 5223SOL    HW127131   0.416   0.753   8.338 -0.2362  0.2668  0.3385
 5223SOL    HW227132   0.501   0.756   8.463  1.7466 -2.0225  1.0316
 5224SOL     OW27133   4.105   2.073   9.154 -0.1260  0.2763 -0.5264
 5224SOL    HW127134   4.151   2.107   9.077  1.0991 -1.3402 -0.5296
 5224SOL    HW227135   4.170   2.101   9.219 -0.8259 -1.4707  0.9356
 5225SOL     OW27136   2.534   2.765  10.049 -0.1766 -0.3714  0.0888
 5225SOL    HW127137   2.488   2.837  10.007 -0.5179 -0.6111  0.0538
 5225SOL    HW227138   2.566   2.718   9.972 -3.5365  0.4728 -1.8058
 5226SOL     OW27139   4.307   3.869   2.529 -0.2458  0.2537  0.3793
 5226SOL    HW127140   4.391   3.892   2.489  0.5807 -0.7511  1.5037
 5226SOL    HW227141   4.242   3.921   2.483  0.0214  0.1179 -0.1574
 5227SOL     OW27142   0.868   2.163   4.529  0.0947  0.2124  0.0677
 5227SOL    HW127143   0.779   2.134   4.509  1.2359 -1.2693 -2.9781
 5227SOL    HW227144   0.896   2.077   4.562 -3.0226 -0.8564 -0.0840
 5228SOL     OW27145   3.790   1.017  12.049  0.3674 -0.1091 -0.3577
 5228SOL    HW127146   3.876   1.047  12.018  1.5798 -0.3942  2.7029
 5228SOL    HW227147   3.817   0.971  12.129 -1.8602  0.7011  0.8541
 5229SOL     OW27148   0.789   4.002   1.107 -0.0727  0.3222  0.5447
 5229SOL    HW127149   0.728   3.946   1.059  3.0582  0.1890 -3.2667
 5229SOL    HW227150   0.845   3.938   1.151 -1.4507 -2.5003 -1.8184
 5230SOL     OW27151   4.381   0.621  17.343 -0.7007 -0.1255 -0.2485
 5230SOL    HW127152   4.379   0.676  17.421  0.6024 -1.9597  1.0995
 5230SOL    HW227153   4.286   0.619  17.332 -0.5100  0.1392 -2.0286
 5231SOL     OW27154   1.121   2.795   7.453 -0.4717 -0.2018 -0.1113
 5231SOL    HW127155   1.120   2.879   7.499  2.4539 -0.6986  0.8710
 5231SOL    HW227156   1.104   2.734   7.525 -0.1385  0.2529  0.3612
 5232SOL     OW27157   3.082   4.361  15.428  0.0874 -0.3808 -0.0106
 5232SOL    HW127158   3.076   4.310  15.347  0.2714  0.1685 -0.3650
 5232SOL    HW227159   3.005   4.418  15.427  0.3693  0.0051  1.4317
 5233SOL     OW27160   4.151   1.328   0.181 -0.6654 -0.1774  0.0114
 5233SOL    HW127161   4.213   1.351   0.251  2.4420 -0.3740 -2.6526
 5233SOL    HW227162   4.105   1.409   0.162 -0.9103 -0.5627 -1.0366
 5234SOL     OW27163   4.677   2.511   5.614  0.3405  0.5445  0.5440
 5234SOL    HW127164   4.658   2.503   5.521  0.8463  0.5038  0.4441
 5234SOL    HW227165   0.002   2.591   5.609  0.7426  0.0363 -3.3497
 5235SOL     OW27166   4.326   1.185  16.070 -0.1493 -0.1658 -0.3277
 5235SOL    HW127167   4.378   1.227  16.001 -0.2956 -2.4775 -1.8416
 5235SOL    HW227168   4.243   1.167  16.026 -0.7362 -2.1398  1.6218
 5236SOL     OW27169   2.570   0.171   3.774 -0.4791  0.4762  0.0126
 5236SOL    HW127170   2.518   0.112   3.719  1.5099 -0.0857 -1.2746
 5236SOL    HW227171   2.546   0.260   3.749 -2.0871 -0.5909 -2.2717
 5237SOL     OW27172   1.808   3.943   4.267 -0.3574  0.2861  0.1733
 5237SOL    HW127173   1.782   3.859   4.304 -0.6433  0.7721  1.0496
 5237SOL    HW227174   1.733   3.951   4.208 -0.2924 -0.0838  0.0392
 5238SOL     OW27175   2.579   4.634  14.469 -0.5522 -0.0702 -0.0691
 5238SOL    HW127176   2.638   4.657  14.397 -0.1505 -0.5374  0.1109
 5238SOL    HW227177   2.500   4.680  14.439 -0.1999  0.9137  0.4918
 5239SOL     OW27178   4.639   0.090  17.525 -0.3008 -0.2606  0.0947
 5239SOL    HW127179   4.717   0.105  17.578 -0.1131  3.0273 -1.1040
 5239SOL    HW227180   4.598   0.175  17.540  0.2056 -0.1441  0.8231
 5240SOL     OW27181   4.251   1.599   8.308  0.1448 -0.1519 -0.1050
 5240SOL    HW127182   4.228   1.643   8.390 -2.1984 -1.6914  0.0601
 5240SOL    HW227183   4.183   1.535   8.287  0.9488 -0.8931 -0.4515
 5241SOL     OW27184   1.002   0.850  11.254 -0.2497 -0.1172 -0.1656
 5241SOL    HW127185   0.967   0.794  11.323 -0.5357 -0.7487 -0.8226
 5241SOL    HW227186   0.962   0.825  11.171 -2.5517  3.3330 -0.1045
 5242SOL     OW27187   0.336   2.538   3.214  0.0167 -0.4863 -0.3982
 5242SOL    HW127188   0.372   2.457   3.251 -0.2172 -1.1870 -1.7361
 5242SOL    HW227189   0.327   2.597   3.289  1.4366 -1.3913  0.4873
 5243SOL     OW27190   0.028   4.254   4.493  0.1376  0.5588 -0.0600
 5243SOL    HW127191   0.091   4.263   4.422  1.2636 -2.7218  0.5390
 5243SOL    HW227192   0.073   4.313   4.554  0.5134  0.7345 -0.5063
 5244SOL     OW27193   3.402   2.945   6.675 -0.4198  0.2624  0.0504
 5244SOL    HW127194   3.435   2.929   6.764 -0.0289  0.1936 -0.1056
 5244SOL    HW227195   3.313   2.971   6.700 -0.1464  1.6889 -0.4550
 5245SOL     OW27196   4.224   2.083   3.598  0.1874  0.3527  0.8134
 5245SOL    HW127197   4.314   2.092   3.629  1.7907  1.3655 -3.9698
 5245SOL    HW227198   4.172   2.104   3.676  0.8470  0.7957  1.1346
 5246SOL     OW27199   0.568   1.320  12.990 -0.3732 -0.4933  0.0404
 5246SOL    HW127200   0.498   1.371  13.030 -0.5373 -1.1119  0.5364
 5246SOL    HW227201   0.633   1.312  13.059 -0.1839 -1.4092 -0.2418
 5247SOL     OW27202   3.808   1.850   9.474 -0.7019 -0.2493 -0.6032
 5247SOL    HW127203   3.808   1.759   9.506 -0.2264 -0.8519 -2.3131
 5247SOL    HW227204   3.797   1.833   9.380 -1.6842 -1.4956 -0.2564
 5248SOL     OW27205   4.122   0.416   5.750 -0.0646 -0.6613  0.0539
 5248SOL    HW127206   4.043   0.466   5.773  0.3323  0.5182 -1.1235
 5248SOL    HW227207   4.193   0.463   5.795  0.7465 -1.5861 -0.2740
 5249SOL     OW27208   2.948   2.168  13.456 -0.3653  1.1030 -0.0801
 5249SOL    HW127209   2.930   2.172  13.362 -0.0055 -0.1238 -0.1894
 5249SOL    HW227210   2.861   2.173  13.497  0.2977  2.0328  1.2282
 5250SOL     OW27211   0.871   1.897   7.448 -0.0710 -0.3996  0.1431
 5250SOL    HW127212   0.931   1.867   7.378  0.6049  0.5637  0.3115
 5250SOL    HW227213   0.883   1.834   7.519  1.1758 -0.0576  0.2340
 5251SOL     OW27214   0.146   2.287   4.226  0.2513  0.1947  0.0414
 5251SOL    HW127215   0.099   2.295   4.143  1.7960  0.0888 -0.8521
 5251SOL    HW227216   0.233   2.260   4.196  0.4450  0.9933 -0.1289
 5252SOL     OW27217   3.051   2.654   5.121 -0.5838 -0.5204  0.0993
 5252SOL    HW127218   3.060   2.645   5.026  1.1781  0.8688  0.1368
 5252SOL    HW227219   2.961   2.685   5.130 -0.0676  0.5687  1.3792
 5253SOL     OW27220   4.118   0.315   3.907 -0.0874 -0.1698 -0.4508
 5253SOL    HW127221   4.170   0.355   3.838 -0.6055  0.9072 -0.2129
 5253SOL    HW227222   4.169   0.248   3.952 -2.2302 -1.2154  0.4430
 5254SOL     OW27223   1.375   1.154   3.873  0.0450  0.6378  0.3031
 5254SOL    HW127224   1.409   1.185   3.957  1.0830 -1.3049  0.6010
 5254SOL    HW227225   1.363   1.061   3.893  3.2442  0.0034 -0.6681
 5255SOL     OW27226   3.685   1.521  14.123 -0.9289 -0.2733 -0.7423
 5255SOL    HW127227   3.603   1.501  14.078 -1.4354 -0.1643  0.1376
 5255SOL    HW227228   3.722   1.580  14.058  0.1104  0.0238  0.1207
 5256SOL     OW27229   2.786   0.561   5.424 -0.7563 -0.2593  0.4724
 5256SOL    HW127230   2.769   0.551   5.518 -0.4805  1.1320  0.6685
 5256SOL    HW227231   2.769   0.471   5.397 -0.0220 -0.7637  1.6471
 5257SOL     OW27232   4.567   1.329  15.906 -0.1275 -0.0730 -0.0169
 5257SOL    HW127233   4.614   1.321  15.989  0.2963 -1.4330 -0.3996
 5257SOL    HW227234   4.564   1.424  15.894 -2.7271 -0.0818  0.5953
 5258SOL     OW27235   0.956   4.369   4.917 -0.4080  0.6753 -0.4892
 5258SOL    HW127236   1.042   4.377   4.959 -0.8191  0.3168  0.3993
 5258SOL    HW227237   0.981   4.385   4.826 -0.8521  0.4499 -0.6476
 5259SOL     OW27238   1.318   4.387   2.641  0.1957  0.8943  0.3396
 5259SOL    HW127239   1.282   4.388   2.729 -0.6118 -2.3502  0.0295
 5259SOL    HW227240   1.294   4.296   2.622 -0.9121  0.7081  2.5999
 5260SOL     OW27241   3.941   3.690   8.887  1.0144  0.0989  0.0120
 5260SOL    HW127242   3.950   3.785   8.882 -0.4238  0.1743 -1.2306
 5260SOL    HW227243   3.916   3.686   8.979  0.2930 -0.6687 -0.2129
 5261SOL     OW27244   2.367   4.055  14.341  0.3545  0.2057  0.0170
 5261SOL    HW127245   2.364   4.147  14.317 -0.3937  0.0293 -0.5838
 5261SOL    HW227246   2.280   4.030  14.310  0.2135  2.4685 -1.3729
 5262SOL     OW27247   2.118   1.406  14.987  0.4856  0.4450 -0.4079
 5262SOL    HW127248   2.176   1.342  14.945  1.7353 -0.3815  2.6135
 5262SOL    HW227249   2.110   1.465  14.912  0.5851  1.5238  0.4302
 5263SOL     OW27250   4.360   3.883  13.680  0.3291 -0.6636 -0.7085
 5263SOL    HW127251   4.434   3.844  13.726 -0.8369 -1.3725  0.5666
 5263SOL    HW227252   4.283   3.851  13.727 -0.9697  1.0743 -1.6329
 5264SOL     OW27253   1.878   3.072   2.310  0.4356 -0.1050 -0.5841
 5264SOL    HW127254   1.944   3.142   2.308  0.0944  0.2292 -0.3739
 5264SOL    HW227255   1.922   3.019   2.244  0.6802 -1.6911  0.8647
 5265SOL     OW27256   1.695   4.722   9.270 -0.1721  0.1990 -0.3382
 5265SOL    HW127257   1.773   4.679   9.235 -0.0174 -0.0292  0.2709
 5265SOL    HW227258   1.626   4.660   9.244  1.2613 -1.3224 -0.5150
 5266SOL     OW27259   1.038   0.249   7.666  0.2036  0.0076 -0.3166
 5266SOL    HW127260   1.045   0.227   7.573  1.5881 -0.3328 -0.1306
 5266SOL    HW227261   0.950   0.216   7.684  0.9619 -0.5265  2.4536
 5267SOL     OW27262   1.944   3.508  11.338  0.4253 -0.0586 -0.0330
 5267SOL    HW127263   1.953   3.429  11.284  0.1526  0.5948 -1.0479
 5267SOL    HW227264   1.895   3.561  11.275  1.7131 -0.0926 -1.0650
 5268SOL     OW27265   3.054   1.478   2.838  0.5306  0.3161 -0.0152
 5268SOL    HW127266   3.047   1.439   2.925 -1.3373 -1.1010 -0.7929
 5268SOL    HW227267   3.147   1.459   2.829  0.9296  1.5335  1.5402
 5269SOL     OW27268   3.033   4.528   0.728  0.4452 -0.3895 -0.3517
 5269SOL    HW127269   3.129   4.532   0.720  0.3484 -0.0775 -1.3466
 5269SOL    HW227270   3.032   4.615   0.768  1.3451 -0.1002 -0.9528
 5270SOL     OW27271   2.447   4.121   4.934 -0.0946  0.4266 -0.0064
 5270SOL    HW127272   2.532   4.112   4.977  0.0755  0.2379 -0.3831
 5270SOL    HW227273   2.469   4.152   4.846 -2.1633 -0.1429 -0.7260
 5271SOL     OW27274   1.888   1.351   7.193  0.0601  0.2182 -0.0513
 5271SOL    HW127275   1.853   1.384   7.276 -0.4472 -1.4233  0.3870
 5271SOL    HW227276   1.817   1.297   7.156 -1.6954  0.9856  2.1825
 5272SOL     OW27277   3.251   1.587   2.007 -0.2654 -0.0891  0.2025
 5272SOL    HW127278   3.241   1.601   1.913 -0.1548 -1.9927 -0.1025
 5272SOL    HW227279   3.313   1.654   2.034  1.0686 -0.1268 -2.7468
 5273SOL     OW27280   3.929   3.867  12.968  0.0957 -0.6617  0.0783
 5273SOL    HW127281   3.992   3.928  12.930  0.5016 -1.3286 -0.3282
 5273SOL    HW227282   3.989   3.800  13.001 -0.5708 -0.2763  2.0773
 5274SOL     OW27283   0.660   1.460  14.454 -0.7322  0.0767 -0.5209
 5274SOL    HW127284   0.706   1.537  14.421 -0.6754  0.5219  0.5829
 5274SOL    HW227285   0.742   1.410  14.457  0.2270  1.6966 -0.2020
 5275SOL     OW27286   4.658   4.145   3.450  0.1004  0.4998 -0.3262
 5275SOL    HW127287   4.625   4.062   3.485 -1.2475  1.0207 -0.4053
 5275SOL    HW227288   4.616   4.146   3.365 -2.9643 -1.2476  1.1820
 5276SOL     OW27289   2.265   2.761  13.964 -0.2251 -0.0872 -0.0453
 5276SOL    HW127290   2.178   2.748  14.002  0.1139  1.5653  1.2772
 5276SOL    HW227291   2.248   2.824  13.894  1.6413  1.8316  1.2331
 5277SOL     OW27292   1.133   4.289   6.807  0.0107  0.3648  0.3999
 5277SOL    HW127293   1.077   4.364   6.828  1.8724  1.6609  0.7987
 5277SOL    HW227294   1.215   4.328   6.774 -0.9953  2.6440  0.5750
 5278SOL     OW27295   4.530   1.209   6.081 -0.2171  0.1150  0.1317
 5278SOL    HW127296   4.445   1.164   6.089 -0.5309  0.6584 -0.1616
 5278SOL    HW227297   4.518   1.268   6.007 -1.6363  0.3415  0.5437
 5279SOL     OW27298   2.317   1.718   4.982 -0.4066 -0.1423 -0.0229
 5279SOL    HW127299   2.255   1.769   5.034 -0.2559  0.3782 -0.3581
 5279SOL    HW227300   2.267   1.636   4.973 -2.8599  1.7941 -3.7565
 5280SOL     OW27301   0.633   0.311   7.901  0.0146  0.5693  0.2008
 5280SOL    HW127302   0.647   0.234   7.956 -0.0291  1.2679  1.1896
 5280SOL    HW227303   0.669   0.274   7.821  0.4001 -0.8112  1.0164
 5281SOL     OW27304   3.383   0.042   3.678 -0.3001 -0.3639  0.5701
 5281SOL    HW127305   3.430   0.064   3.759  2.0775  0.4412 -1.0141
 5281SOL    HW227306   3.302   0.004   3.712  0.0982 -1.4436  0.3266
 5282SOL     OW27307   0.983   0.093   4.301 -0.3627 -0.8037 -0.2247
 5282SOL    HW127308   1.020   0.007   4.316  0.2831 -0.7957 -1.7115
 5282SOL    HW227309   0.944   0.094   4.213  0.1046  3.6734 -0.3964
 5283SOL     OW27310   1.677   3.358   5.583  0.2642  0.2331  0.2828
 5283SOL    HW127311   1.690   3.298   5.657  0.5195  1.0986  0.9403
 5283SOL    HW227312   1.731   3.432   5.611 -1.0933 -0.2560  4.2575
 5284SOL     OW27313   0.889   2.100   2.617 -0.1341  0.3093  0.0001
 5284SOL    HW127314   0.893   2.009   2.588  0.8931  0.2530  0.3114
 5284SOL    HW227315   0.854   2.146   2.541  0.5746 -2.5933 -2.0704
 5285SOL     OW27316   3.943   1.468   9.345  0.6088  0.0015  0.1820
 5285SOL    HW127317   4.026   1.512   9.330  0.1434  1.2104  1.1370
 5285SOL    HW227318   3.913   1.467   9.255  0.5604  0.0723  0.1975
 5286SOL     OW27319   0.111   3.800   3.274 -0.3916  0.3159 -0.8317
 5286SOL    HW127320   0.143   3.748   3.200 -0.4368 -0.3282 -0.3937
 5286SOL    HW227321   0.068   3.730   3.323 -1.8803  1.3729 -0.5995
 5287SOL     OW27322   2.392   0.051   2.030  0.3340 -0.3350  0.0372
 5287SOL    HW127323   2.417   4.696   2.069 -0.8787 -0.5236  0.4286
 5287SOL    HW227324   2.314   0.019   1.984  0.2605 -1.3754  0.8669
 5288SOL     OW27325   4.497   2.131   1.094  0.1129 -0.3884  0.6240
 5288SOL    HW127326   4.587   2.101   1.087 -0.3342 -1.5841 -0.0917
 5288SOL    HW227327   4.478   2.113   1.186  0.0937 -0.3963  0.6186
 5289SOL     OW27328   4.180   4.663   3.077  0.3181  0.3340  0.6307
 5289SOL    HW127329   4.189   4.686   2.985  0.9150  0.1317  0.6444
 5289SOL    HW227330   4.270   4.634   3.093  0.6441  1.1701  0.3053
 5290SOL     OW27331   0.979   0.002   7.488  0.1668 -0.1516 -0.1218
 5290SOL    HW127332   1.035   4.655   7.508 -0.0911 -0.3407 -0.1033
 5290SOL    HW227333   0.939   4.704   7.405  0.1013  0.8265 -0.4045
 5291SOL     OW27334   2.754   4.425  11.235 -0.4587 -0.1080 -0.2941
 5291SOL    HW127335   2.809   4.502  11.224  2.2527 -2.0502 -0.2504
 5291SOL    HW227336   2.813   4.350  11.236  0.3475  0.5389  0.1980
 5292SOL     OW27337   3.396   0.467   7.041 -0.1506  0.3337  0.1062
 5292SOL    HW127338   3.370   0.557   7.057  1.5419  0.7941  0.2490
 5292SOL    HW227339   3.483   0.495   7.013 -0.1772 -0.4997 -0.8290
 5293SOL     OW27340   2.382   1.804  13.606 -0.3031 -0.6757 -0.3368
 5293SOL    HW127341   2.321   1.733  13.629 -1.0246 -0.5387 -1.8638
 5293SOL    HW227342   2.322   1.878  13.611 -1.4220 -1.6721  1.1390
 5294SOL     OW27343   3.958   0.752   8.784  0.0113 -0.2293 -0.3440
 5294SOL    HW127344   4.018   0.813   8.828 -0.2066  1.2457 -2.0770
 5294SOL    HW227345   3.939   0.692   8.856  0.5425 -1.2878 -1.0924
 5295SOL     OW27346   4.364   4.069  10.160  0.5164 -0.7360  0.0349
 5295SOL    HW127347   4.328   4.014  10.231  0.1836  1.4521  1.5516
 5295SOL    HW227348   4.449   4.027  10.152 -0.1114 -1.8142 -1.0868
 5296SOL     OW27349   0.971   3.915  10.005 -0.0997  0.1632  0.5542
 5296SOL    HW127350   0.912   3.912  10.080 -0.0007 -2.8940  0.5207
 5296SOL    HW227351   1.015   3.839  10.042 -0.3129  0.9906  2.5009
 5297SOL     OW27352   0.809   2.541   3.257 -0.5907 -0.2769  0.1800
 5297SOL    HW127353   0.828   2.447   3.258 -1.8041 -0.5479 -2.4428
 5297SOL    HW227354   0.728   2.538   3.205 -1.9059 -2.1257  2.3376
 5298SOL     OW27355   3.976   0.855   3.858 -0.0733 -0.0949 -0.1635
 5298SOL    HW127356   3.979   0.846   3.953  2.5696  2.3983 -0.0285
 5298SOL    HW227357   3.969   0.950   3.849 -0.9879 -0.2054 -0.7022
 5299SOL     OW27358   1.224   3.476   4.044  0.1410 -0.0057  0.5950
 5299SOL    HW127359   1.145   3.486   4.097 -1.1581  0.1606 -1.3522
 5299SOL    HW227360   1.198   3.391   4.007 -0.1822  0.7771 -0.9950
 5300SOL     OW27361   0.102   0.877  14.665  0.1618 -0.1027 -0.5178
 5300SOL    HW127362   0.031   0.822  14.633 -1.0254  0.7952  0.5184
 5300SOL    HW227363   0.174   0.840  14.615  3.1354  1.8565  2.3696
 5301SOL     OW27364   2.560   2.420   3.175 -0.0225 -0.4991  0.4966
 5301SOL    HW127365   2.497   2.480   3.135 -0.1969 -1.5064 -0.7750
 5301SOL    HW227366   2.514   2.337   3.160 -2.3448  0.6614  1.1172
 5302SOL     OW27367   0.241   4.105  12.567  0.3978  0.6827 -0.2501
 5302SOL    HW127368   0.304   4.174  12.546  0.7215  0.2085 -0.8505
 5302SOL    HW227369   0.187   4.114  12.489  0.3620  0.8448 -0.2063
 5303SOL     OW27370   1.531   0.371   2.285  0.4195 -0.0144  0.3916
 5303SOL    HW127371   1.589   0.436   2.324  2.8991 -2.5907  1.0470
 5303SOL    HW227372   1.502   0.330   2.367 -4.0925  0.6043 -0.8821
 5304SOL     OW27373   2.867   0.669  16.658  0.3070  0.1816  0.0436
 5304SOL    HW127374   2.814   0.649  16.580  1.4928 -2.2632 -0.1192
 5304SOL    HW227375   2.886   0.760  16.635  0.3436  0.5590  1.6306
 5305SOL     OW27376   3.308   2.172   8.394  0.0328 -0.1078  0.6911
 5305SOL    HW127377   3.229   2.219   8.367  1.2366  0.3233 -2.1020
 5305SOL    HW227378   3.297   2.169   8.489  0.9895 -0.1271  0.8046
 5306SOL     OW27379   0.223   4.713  11.129  0.3605  0.4469 -0.3649
 5306SOL    HW127380   0.145   0.017  11.175  0.8912  0.2684  0.6498
 5306SOL    HW227381   0.168   4.656  11.076  2.5268 -1.8984 -0.0566
 5307SOL     OW27382   1.371   2.562   4.241 -0.1214  0.0532  0.1650
 5307SOL    HW127383   1.436   2.597   4.301  0.7123 -0.5923 -0.3508
 5307SOL    HW227384   1.290   2.608   4.263 -0.8630 -0.0728 -2.3213
 5308SOL     OW27385   3.931   4.448   4.541 -0.8067 -0.5981 -0.1127
 5308SOL    HW127386   4.014   4.449   4.588 -2.7611 -2.4776  3.3620
 5308SOL    HW227387   3.887   4.511   4.598  0.3591 -0.3556  0.5208
 5309SOL     OW27388   0.181   4.396   1.370 -0.0251 -0.1584  0.0427
 5309SOL    HW127389   0.090   4.401   1.341 -0.0148  0.2878  0.0787
 5309SOL    HW227390   0.186   4.484   1.410 -0.2714  0.1120 -0.5271
 5310SOL     OW27391   4.008   4.048   5.868 -0.1489 -0.1989 -0.1441
 5310SOL    HW127392   3.999   4.122   5.807  1.3542 -0.0669 -0.1947
 5310SOL    HW227393   4.035   4.091   5.949  1.8408  0.3145 -1.0762
 5311SOL     OW27394   1.068   2.592   6.263 -0.1426  0.0039 -0.8383
 5311SOL    HW127395   1.005   2.655   6.299 -0.1981 -0.1221 -0.7181
 5311SOL    HW227396   1.023   2.508   6.273 -1.1476  0.4754 -1.3571
 5312SOL     OW27397   3.854   2.584  11.948 -0.8522  0.7053  0.1846
 5312SOL    HW127398   3.828   2.508  12.001  0.1855  0.8309  0.8818
 5312SOL    HW227399   3.766   2.612  11.927 -0.2045  1.2049 -1.8380
 5313SOL     OW27400   2.174   3.594   9.457 -0.2218  0.7023  0.1069
 5313SOL    HW127401   2.079   3.585   9.452 -0.3719  2.3492  0.0954
 5313SOL    HW227402   2.184   3.624   9.548  3.1761  1.7659 -0.5997
 5314SOL     OW27403   1.822   1.665   3.738 -0.0059 -0.2383  0.5738
 5314SOL    HW127404   1.738   1.706   3.758  0.0434  0.5724 -0.9370
 5314SOL    HW227405   1.816   1.654   3.644 -2.9611  1.8702  0.5156
 5315SOL     OW27406   2.821   3.774   8.072 -0.0605 -0.6427  0.0736
 5315SOL    HW127407   2.818   3.726   7.989  2.3582  0.4801 -0.6625
 5315SOL    HW227408   2.730   3.802   8.075 -0.4157 -1.7543 -0.2318
 5316SOL     OW27409   0.285   3.814  13.378  0.1909  0.0351 -0.3289
 5316SOL    HW127410   0.223   3.867  13.428  0.0209  0.8835 -1.4322
 5316SOL    HW227411   0.229   3.808  13.300 -1.2980  1.7320  0.6001
 5317SOL     OW27412   4.200   1.616   7.488  0.3015  0.1071 -0.1703
 5317SOL    HW127413   4.139   1.592   7.418 -0.7661 -1.2001  1.2118
 5317SOL    HW227414   4.154   1.578   7.562 -0.7933  0.1861 -0.8041
 5318SOL     OW27415   3.338   0.998  13.897 -0.3372  0.0839 -1.0606
 5318SOL    HW127416   3.313   0.918  13.944  1.1664 -0.7147 -1.6279
 5318SOL    HW227417   3.260   1.052  13.907  0.4685  0.9083  0.7354
 5319SOL     OW27418   2.668   1.640   4.802  0.0900  0.1402  0.0665
 5319SOL    HW127419   2.680   1.640   4.897  3.2103  0.6269 -0.3419
 5319SOL    HW227420   2.757   1.626   4.771  0.4873 -1.2535  1.8634
 5320SOL     OW27421   1.284   3.953   6.271 -0.6095  0.1162  0.1713
 5320SOL    HW127422   1.227   3.876   6.268  1.3666 -1.2737 -1.6604
 5320SOL    HW227423   1.347   3.927   6.339  0.6190  1.3644 -0.4935
 5321SOL     OW27424   3.760   0.332   7.426 -0.1761 -0.4057 -0.0278
 5321SOL    HW127425   3.689   0.281   7.386 -1.9971  2.3898 -0.3248
 5321SOL    HW227426   3.703   0.394   7.471 -1.0588 -1.3267  0.1367
 5322SOL     OW27427   1.906   3.659   9.713  0.3190  0.1753 -0.4847
 5322SOL    HW127428   1.856   3.651   9.632 -0.1174 -0.8245 -0.1282
 5322SOL    HW227429   1.859   3.618   9.786  0.6717 -0.1375 -0.4369
 5323SOL     OW27430   1.629   0.434   3.346 -0.0259  0.1029  0.0857
 5323SOL    HW127431   1.672   0.451   3.262  0.7216 -3.3916 -0.2205
 5323SOL    HW227432   1.636   0.519   3.391  0.6537  0.7024 -1.1559
 5324SOL     OW27433   0.515   1.518  11.286  0.1445  0.2672 -0.4877
 5324SOL    HW127434   0.457   1.453  11.246  0.9344 -1.0264  0.5017
 5324SOL    HW227435   0.472   1.598  11.257  2.9007  1.8470 -0.2002
 5325SOL     OW27436   4.008   2.986  14.471  0.1004 -0.0893 -0.0027
 5325SOL    HW127437   3.973   3.052  14.531 -0.7053  0.7708 -1.4368
 5325SOL    HW227438   4.051   3.036  14.403 -0.1034  0.8723  0.5790
 5326SOL     OW27439   1.733   3.939  12.071  0.4814  0.0874 -0.3513
 5326SOL    HW127440   1.731   3.978  12.159  0.5088  3.4115 -1.8336
 5326SOL    HW227441   1.750   4.018  12.020  1.9638 -1.4558 -2.2679
 5327SOL     OW27442   0.668   4.060   5.887  0.0570  0.3223 -0.6589
 5327SOL    HW127443   0.601   4.116   5.848 -0.8328 -1.4047 -1.6509
 5327SOL    HW227444   0.637   3.970   5.873 -1.1969  0.6560 -0.0308
 5328SOL     OW27445   2.982   0.944   6.696  0.0067  0.6216 -0.4239
 5328SOL    HW127446   3.070   0.949   6.733 -0.2323  0.1072  0.2050
 5328SOL    HW227447   2.984   0.852   6.667  0.8539  0.9468 -1.4155
 5329SOL     OW27448   2.357   2.431  12.881  0.0350  0.3035 -0.1092
 5329SOL    HW127449   2.272   2.466  12.906 -1.3908 -1.8084 -2.0150
 5329SOL    HW227450   2.380   2.390  12.964  1.5861  0.1480 -0.6240
 5330SOL     OW27451   2.202   1.980   4.757 -0.0645  0.5350 -0.2132
 5330SOL    HW127452   2.111   1.984   4.728 -0.8916  1.8402  2.5589
 5330SOL    HW227453   2.242   1.903   4.717  0.2445 -0.1688  1.4440
 5331SOL     OW27454   3.512   2.289   4.439  0.0701  0.5416  0.2882
 5331SOL    HW127455   3.485   2.253   4.523  0.7876 -1.4957 -0.3664
 5331SOL    HW227456   3.605   2.268   4.449  0.2527  1.5868  0.8852
 5332SOL     OW27457   2.420   2.080   5.184  0.1344  0.2394  0.2091
 5332SOL    HW127458   2.387   2.025   5.255  1.7311 -2.0209 -0.7988
 5332SOL    HW227459   2.512   2.086   5.207  0.2662 -1.7898  0.2207
 5333SOL     OW27460   2.028   2.060   6.364 -0.0333  0.1031  0.3422
 5333SOL    HW127461   2.004   2.122   6.434  0.9882  0.8134  0.0704
 5333SOL    HW227462   2.107   2.023   6.403 -0.1454  0.4581  0.9087
 5334SOL     OW27463   1.164   2.765   5.222 -0.5343 -0.0944 -0.7017
 5334SOL    HW127464   1.205   2.690   5.179  1.1872  0.3164  0.2015
 5334SOL    HW227465   1.237   2.821   5.250 -1.2656  1.0541 -1.0857
 5335SOL     OW27466   1.070   4.478  14.151 -0.1263  0.6498  0.0487
 5335SOL    HW127467   1.151   4.443  14.186  0.2349  1.3615 -0.0712
 5335SOL    HW227468   1.096   4.503  14.062 -0.1217  0.9987  0.1455
 5336SOL     OW27469   4.262   3.630  11.468  0.2207 -0.3814  0.4932
 5336SOL    HW127470   4.284   3.539  11.489 -1.0594 -0.5754  1.0116
 5336SOL    HW227471   4.186   3.628  11.526  1.6069 -0.7285  2.2799
 5337SOL     OW27472   0.058   4.489  12.778 -0.2905  0.4813  0.1164
 5337SOL    HW127473   0.085   4.580  12.787 -2.9758  1.3559 -0.4699
 5337SOL    HW227474   0.090   4.457  12.862  1.9200  0.7790 -0.6361
 5338SOL     OW27475   1.048   4.136   8.784 -0.2719  0.0649  0.4559
 5338SOL    HW127476   0.994   4.199   8.737 -1.9650 -1.7067  0.0321
 5338SOL    HW227477   0.982   4.105   8.847  0.4314 -0.3678  0.9890
 5339SOL     OW27478   0.446   1.744   6.705  0.0525 -0.3221  0.4109
 5339SOL    HW127479   0.534   1.751   6.741 -0.0027 -1.7961  0.8381
 5339SOL    HW227480   0.462   1.736   6.611 -3.0687  1.2668 -0.2577
 5340SOL     OW27481   4.144   3.297   6.872 -0.2017  0.1258 -0.0965
 5340SOL    HW127482   4.234   3.329   6.871 -0.8809  2.0548  0.7646
 5340SOL    HW227483   4.107   3.367   6.925 -2.0950  1.1402 -2.7226
 5341SOL     OW27484   1.225   3.100  16.020 -0.1249  0.2469 -0.6470
 5341SOL    HW127485   1.256   3.186  15.991  2.6428  0.4655  3.0923
 5341SOL    HW227486   1.249   3.096  16.112 -2.4385  0.7055 -0.0191
 5342SOL     OW27487   1.509   4.117   6.786 -0.0477  0.3942 -0.7743
 5342SOL    HW127488   1.489   4.051   6.853  1.5263  0.7997  0.0849
 5342SOL    HW227489   1.517   4.075   6.701  1.9071 -1.6590  0.4326
 5343SOL     OW27490   0.658   2.389   6.564 -0.1245  0.0398 -0.4622
 5343SOL    HW127491   0.687   2.415   6.476  0.3872  0.2778 -0.2217
 5343SOL    HW227492   0.697   2.302   6.551  1.6643  0.6448  0.8263
 5344SOL     OW27493   0.310   0.645   3.885  0.8047  0.1745 -0.1145
 5344SOL    HW127494   0.332   0.557   3.856 -0.5809 -1.3467  3.3742
 5344SOL    HW227495   0.383   0.688   3.841  0.9897  1.6922  1.6902
 5345SOL     OW27496   2.648   3.950   6.136 -0.4005  0.5534  0.1522
 5345SOL    HW127497   2.617   3.864   6.110 -1.3299  0.7243  0.7102
 5345SOL    HW227498   2.610   3.999   6.063 -0.9412 -1.5717 -0.9789
 5346SOL     OW27499   4.443   1.796  14.720  0.0004  0.1584  0.0799
 5346SOL    HW127500   4.462   1.779  14.812 -0.7929 -0.5970  0.1033
 5346SOL    HW227501   4.359   1.839  14.736 -0.2632 -0.3863  0.1720
 5347SOL     OW27502   4.219   1.511   2.599  0.3379  0.0597 -0.1571
 5347SOL    HW127503   4.273   1.586   2.571 -0.8462 -0.5246 -3.9873
 5347SOL    HW227504   4.279   1.452   2.644 -2.3433 -1.7847  0.9955
 5348SOL     OW27505   3.341   1.939  17.057 -0.6444  0.1518 -0.6009
 5348SOL    HW127506   3.263   1.968  17.011 -1.5034 -0.4600  0.4499
 5348SOL    HW227507   3.305   1.871  17.115  1.6053 -0.4202  0.1342
 5349SOL     OW27508   4.564   1.450   8.710  0.3591  0.3001  0.2583
 5349SOL    HW127509   4.502   1.523   8.717 -2.6120 -2.1552 -0.2107
 5349SOL    HW227510   4.627   1.492   8.651  1.1235 -2.1549 -0.6858
 5350SOL     OW27511   3.902   3.363   8.811  0.6496 -0.0769  0.7134
 5350SOL    HW127512   3.982   3.368   8.863  0.8778 -0.7969  0.4343
 5350SOL    HW227513   3.840   3.408   8.868  0.1204  0.9468 -0.6479
 5351SOL     OW27514   1.066   2.636  11.599  0.8943  0.5302  0.5642
 5351SOL    HW127515   1.134   2.624  11.533  0.1140 -3.4546  0.4531
 5351SOL    HW227516   1.108   2.676  11.675 -0.1162  0.9132  0.9257
 5352SOL     OW27517   1.136   0.240   5.097 -0.2554  0.1295 -0.6406
 5352SOL    HW127518   1.231   0.245   5.108 -0.1828 -1.0650 -0.7992
 5352SOL    HW227519   1.135   0.263   5.004 -2.8943  1.9934 -0.1601
 5353SOL     OW27520   3.129   3.777   7.587 -0.6706  0.2847 -0.5665
 5353SOL    HW127521   3.073   3.844   7.627  0.7919  0.9012  0.4346
 5353SOL    HW227522   3.089   3.766   7.501  0.2582 -0.4640 -0.9009
 5354SOL     OW27523   1.318   4.543   4.757  0.9334 -0.8954 -0.8478
 5354SOL    HW127524   1.263   4.610   4.716 -0.1531 -2.5112 -2.0274
 5354SOL    HW227525   1.281   4.525   4.844  2.4515 -3.8274 -0.8284
 5355SOL     OW27526   3.414   4.091   4.659  0.0280  0.3369  0.2122
 5355SOL    HW127527   3.406   4.004   4.619 -1.4692  1.0880 -1.1362
 5355SOL    HW227528   3.351   4.139   4.605 -0.7053  0.0399  0.7994
 5356SOL     OW27529   3.398   4.114   4.003  0.0750 -0.1418  0.3735
 5356SOL    HW127530   3.360   4.110   3.915  1.0335 -1.4004  0.0256
 5356SOL    HW227531   3.367   4.201   4.029  0.5163  0.4271 -0.9699
 5357SOL     OW27532   4.268   0.965   6.512 -0.0576  0.1185  0.1750
 5357SOL    HW127533   4.306   0.879   6.531 -0.0818 -0.3733 -1.9363
 5357SOL    HW227534   4.226   0.994   6.593  0.6241 -1.5797  1.1489
 5358SOL     OW27535   4.549   0.517  16.259 -0.0975 -0.0609  0.6738
 5358SOL    HW127536   4.551   0.607  16.290  2.1362  0.7363 -1.8058
 5358SOL    HW227537   4.620   0.476  16.310 -0.1036 -0.3827  0.4253
 5359SOL     OW27538   1.024   1.139  11.458 -0.0654 -0.2736 -0.1609
 5359SOL    HW127539   1.026   1.044  11.471  0.4369 -0.4043 -1.1638
 5359SOL    HW227540   0.980   1.161  11.539 -0.4148  0.7981 -0.6474
 5360SOL     OW27541   2.159   2.673   5.694  0.6697 -0.1731  0.3951
 5360SOL    HW127542   2.119   2.741   5.749 -0.8025 -0.0063 -0.9012
 5360SOL    HW227543   2.252   2.690   5.703  0.9597 -2.1060  1.0506
 5361SOL     OW27544   3.140   2.360   5.619 -0.1792 -0.1435  0.5031
 5361SOL    HW127545   3.055   2.405   5.614 -0.6614 -1.2493 -1.2011
 5361SOL    HW227546   3.155   2.343   5.712  0.9039 -0.3261  0.2968
 5362SOL     OW27547   0.038   4.128  10.206 -0.3572  0.0672 -0.0014
 5362SOL    HW127548   4.708   4.055  10.185 -2.8304  2.3452 -1.0977
 5362SOL    HW227549   0.002   4.194  10.146 -2.1544 -2.1348 -1.3275
 5363SOL     OW27550   2.657   3.121   3.339  0.4580 -0.3593  0.3363
 5363SOL    HW127551   2.625   3.031   3.332 -0.2102  0.0423 -1.7891
 5363SOL    HW227552   2.574   3.168   3.332  0.5211 -0.2405  0.3883
 5364SOL     OW27553   0.493   2.018   0.703 -0.1456 -0.4705 -0.3183
 5364SOL    HW127554   0.555   1.951   0.675 -2.3338 -2.0793 -1.3939
 5364SOL    HW227555   0.525   2.095   0.658 -1.6531  0.4691  0.2136
 5365SOL     OW27556   0.935   2.564   9.926  0.0445  0.0363  0.1698
 5365SOL    HW127557   0.963   2.573  10.017  0.2209  2.2344 -0.0990
 5365SOL    HW227558   0.982   2.486   9.897 -0.3236 -0.6884  1.5166
 5366SOL     OW27559   3.420   2.620   2.614 -0.1283 -0.1453 -0.3171
 5366SOL    HW127560   3.514   2.620   2.630 -0.3330 -0.1584  0.9073
 5366SOL    HW227561   3.418   2.651   2.524 -1.3736 -1.3910 -0.7179
 5367SOL     OW27562   0.215   0.535  11.978  0.2538  0.4253 -0.3205
 5367SOL    HW127563   0.283   0.597  11.953  0.3685  0.5544  0.3077
 5367SOL    HW227564   0.238   0.466  11.915 -0.6430 -0.6542  0.5269
 5368SOL     OW27565   3.732   3.539   5.127  0.3724  0.8449  0.5405
 5368SOL    HW127566   3.667   3.578   5.185 -1.3869 -0.5926 -0.4693
 5368SOL    HW227567   3.803   3.520   5.189  1.2958 -0.3002 -0.8482
 5369SOL     OW27568   3.049   3.172  15.775 -0.1882  0.1141 -0.2310
 5369SOL    HW127569   3.088   3.252  15.811  0.1041 -0.4311  0.6556
 5369SOL    HW227570   3.120   3.150  15.714  1.1898 -0.2497  1.4978
 5370SOL     OW27571   0.450   0.461   1.009 -0.6398 -0.1553 -0.4518
 5370SOL    HW127572   0.493   0.515   0.942 -3.3179 -0.1595 -2.2092
 5370SOL    HW227573   0.378   0.441   0.949 -0.3882  2.2684 -1.5697
 5371SOL     OW27574   0.569   3.093   6.075 -0.2515  0.0655 -0.1153
 5371SOL    HW127575   0.505   3.107   6.005 -1.6384  3.0205  1.7139
 5371SOL    HW227576   0.637   3.045   6.029  1.6470  3.5218 -0.9789
 5372SOL     OW27577   0.639   3.662   1.068 -0.2710  0.1504 -0.2225
 5372SOL    HW127578   0.565   3.629   1.018  0.4110  0.8673 -1.7025
 5372SOL    HW227579   0.639   3.756   1.051  0.7533  0.0523 -0.7830
 5373SOL     OW27580   3.512   4.262   7.526 -0.3387  0.4279 -0.6958
 5373SOL    HW127581   3.566   4.233   7.452 -0.4751  3.7150 -2.0904
 5373SOL    HW227582   3.453   4.318   7.476 -0.0179  0.5053 -0.9929
 5374SOL     OW27583   0.853   1.183   8.685  1.0286 -0.0320 -0.2466
 5374SOL    HW127584   0.945   1.208   8.682  0.8899  0.4588 -0.4017
 5374SOL    HW227585   0.829   1.168   8.593  1.0388 -0.1483 -0.2310
 5375SOL     OW27586   3.751   0.040   1.443 -0.2694 -0.0335  0.8118
 5375SOL    HW127587   3.690   4.702   1.409 -1.5887  0.0081  3.0936
 5375SOL    HW227588   3.703   0.077   1.517 -0.8051 -0.8469  0.8721
 5376SOL     OW27589   4.083   4.258   7.413 -0.5482  0.3957  0.7933
 5376SOL    HW127590   4.013   4.197   7.440  1.3969 -2.5651 -0.8056
 5376SOL    HW227591   4.129   4.209   7.345 -0.0782  2.3160 -0.2513
 5377SOL     OW27592   1.360   0.418   5.643 -0.4880  0.0943  0.1202
 5377SOL    HW127593   1.276   0.428   5.599 -0.3282 -2.7608 -0.8622
 5377SOL    HW227594   1.422   0.443   5.574 -0.1862  2.0268  1.0885
 5378SOL     OW27595   0.673   1.977   9.406  0.0801  0.2480  0.3547
 5378SOL    HW127596   0.723   1.977   9.487  0.8620 -0.2178 -0.1288
 5378SOL    HW227597   0.675   2.070   9.382  0.9350  0.0722 -0.2778
 5379SOL     OW27598   3.149   3.048   4.355  0.6096  0.1768  0.3067
 5379SOL    HW127599   3.177   3.102   4.281  1.0895  0.7443  0.9005
 5379SOL    HW227600   3.150   3.111   4.427 -1.4698 -0.3799  0.8224
 5380SOL     OW27601   0.701   0.309   8.542 -0.3580 -0.2881  0.6706
 5380SOL    HW127602   0.674   0.260   8.464  1.7926 -0.8104  0.2507
 5380SOL    HW227603   0.780   0.343   8.501 -2.0490  1.1017 -1.4093
 5381SOL     OW27604   3.528   1.779   9.199  0.7206  0.2324 -0.3316
 5381SOL    HW127605   3.469   1.821   9.261 -0.1796 -0.0873 -0.9625
 5381SOL    HW227606   3.476   1.762   9.120  0.8904  0.4756 -0.4950
 5382SOL     OW27607   2.287   2.216  13.368 -0.0529  0.3217 -0.1963
 5382SOL    HW127608   2.306   2.181  13.455 -2.0645  2.0833  0.9469
 5382SOL    HW227609   2.192   2.207  13.364  0.0235  0.5441 -2.6088
 5383SOL     OW27610   4.728   3.042   5.308 -0.7608 -0.2516 -0.0420
 5383SOL    HW127611   0.034   3.098   5.377  2.6623  0.8533 -2.6021
 5383SOL    HW227612   0.003   3.100   5.231  1.0156  0.1342  0.3228
 5384SOL     OW27613   1.515   4.419   3.578  0.1140 -0.5514  0.2181
 5384SOL    HW127614   1.440   4.463   3.618  1.1014  0.0081  1.4847
 5384SOL    HW227615   1.474   4.353   3.522  1.2631  0.4172 -1.7360
 5385SOL     OW27616   1.171   1.044  14.252 -0.5433  0.0479 -0.2807
 5385SOL    HW127617   1.219   1.068  14.172  1.5129  0.2932  1.0231
 5385SOL    HW227618   1.243   1.050  14.315 -2.1334  1.3178  1.4250
 5386SOL     OW27619   0.725   4.143  11.409 -0.3655  0.0564 -0.1962
 5386SOL    HW127620   0.805   4.194  11.413 -0.6215  0.6076 -2.1380
 5386SOL    HW227621   0.750   4.068  11.356  0.6053  0.2451 -0.0033
 5387SOL     OW27622   4.113   4.409   3.479  0.2356  0.1393 -0.8120
 5387SOL    HW127623   4.110   4.401   3.574  1.2268  0.5788 -0.7439
 5387SOL    HW227624   4.114   4.316   3.454 -1.2363 -0.0538 -0.1568
 5388SOL     OW27625   3.599   2.880  14.465  0.5773  0.4476  0.2723
 5388SOL    HW127626   3.615   2.962  14.511 -2.2091  0.8031  0.6168
 5388SOL    HW227627   3.681   2.869  14.417  1.3313 -2.0718  2.0955
 5389SOL     OW27628   2.172   0.949  10.454  0.3823 -0.1199  0.0767
 5389SOL    HW127629   2.208   0.938  10.366  0.6448 -3.9334  0.6451
 5389SOL    HW227630   2.249   0.936  10.508  0.1081 -0.5059  0.3725
 5390SOL     OW27631   2.314   4.160   1.702  0.3878 -0.3319 -0.1504
 5390SOL    HW127632   2.230   4.121   1.727 -0.0444  1.0820  0.6271
 5390SOL    HW227633   2.312   4.245   1.746  0.8225  0.1596 -1.0725
 5391SOL     OW27634   0.088   3.139   8.929  0.0972  0.0903 -0.3052
 5391SOL    HW127635   0.181   3.120   8.941  0.2907  1.6022  0.6446
 5391SOL    HW227636   0.066   3.174   9.015  1.8394 -1.8111  0.9330
 5392SOL     OW27637   2.838   4.195  13.341  0.0989  0.4658 -0.3910
 5392SOL    HW127638   2.882   4.280  13.333 -0.2963  0.8125  1.0608
 5392SOL    HW227639   2.867   4.156  13.259 -1.0410 -0.6103 -0.2934
 5393SOL     OW27640   0.720   0.430   5.702 -0.8629 -0.9669  0.2209
 5393SOL    HW127641   0.798   0.482   5.720  0.2597 -2.3731 -0.6329
 5393SOL    HW227642   0.703   0.364   5.769  1.4078 -2.7207 -0.9501
 5394SOL     OW27643   3.707   4.541   2.269 -0.0476  0.2266 -0.5133
 5394SOL    HW127644   3.679   4.629   2.293  3.1937  0.7985  1.2268
 5394SOL    HW227645   3.629   4.516   2.220 -1.8474  0.6433  2.1080
 5395SOL     OW27646   3.066   0.951   1.626  0.5808 -1.2274 -0.3324
 5395SOL    HW127647   3.131   0.881   1.624 -1.6993 -3.4942  3.1148
 5395SOL    HW227648   3.050   0.958   1.720 -0.0262 -1.0924 -0.4451
 5396SOL     OW27649   2.999   4.623   1.057  0.1368 -0.3548 -0.3761
 5396SOL    HW127650   3.078   4.571   1.073 -0.0173 -0.2452  0.7101
 5396SOL    HW227651   3.037   4.698   1.011  0.5356 -1.0825 -1.2244
 5397SOL     OW27652   4.618   1.850   4.777 -0.1196  0.6988  0.0395
 5397SOL    HW127653   4.657   1.927   4.735  1.1756 -0.4827 -0.9509
 5397SOL    HW227654   4.616   1.797   4.697  0.0227 -0.2205  0.6454
 5398SOL     OW27655   1.869   0.886  14.656  0.2489  0.2314  0.3540
 5398SOL    HW127656   1.908   0.928  14.733  1.8868  1.4643 -1.1662
 5398SOL    HW227657   1.915   0.930  14.585 -0.3237  0.2424 -0.0078
 5399SOL     OW27658   4.155   3.267   9.023 -0.3896  0.0007  0.1470
 5399SOL    HW127659   4.222   3.335   9.025 -2.9416  2.4868 -0.6754
 5399SOL    HW227660   4.103   3.283   9.102  1.4645  0.6563  1.2325
 5400SOL     OW27661   1.662   2.624   3.696 -0.1549 -0.4746  0.1442
 5400SOL    HW127662   1.651   2.530   3.711  2.7666 -0.9553 -0.6841
 5400SOL    HW227663   1.722   2.639   3.770  0.7118 -1.2927 -0.3882
 5401SOL     OW27664   4.567   3.951   8.139  0.2762 -0.9725  0.7507
 5401SOL    HW127665   4.648   3.946   8.188 -0.4620  1.7508  2.2562
 5401SOL    HW227666   4.505   3.977   8.207  1.1465 -0.9868  1.5381
 5402SOL     OW27667   0.072   4.442  13.063 -0.7980  0.0403 -0.9521
 5402SOL    HW127668   4.720   4.472  13.105 -0.4546 -1.0041  0.4393
 5402SOL    HW227669   0.066   4.347  13.069  1.3974 -0.0614 -0.2219
 5403SOL     OW27670   1.110   2.760   8.678  0.3718 -0.6697  0.3314
 5403SOL    HW127671   1.029   2.757   8.728  0.8626  0.9428  1.2194
 5403SOL    HW227672   1.172   2.710   8.732  1.3151 -0.0850 -0.2022
 5404SOL     OW27673   0.224   2.388   4.649 -0.3889  0.1034 -0.2947
 5404SOL    HW127674   0.238   2.294   4.636  1.1279  0.6110 -2.3724
 5404SOL    HW227675   0.235   2.416   4.558 -3.4418  1.1642 -0.3407
 5405SOL     OW27676   2.505   1.324   6.984  0.3212 -0.1938  0.5398
 5405SOL    HW127677   2.522   1.400   6.929  2.9029 -0.8944  0.3658
 5405SOL    HW227678   2.537   1.253   6.928 -0.1698 -0.5645  0.7292
 5406SOL     OW27679   1.424   1.540   5.180  0.1939  0.2834  0.3774
 5406SOL    HW127680   1.416   1.632   5.155  0.2641  0.2855  0.3625
 5406SOL    HW227681   1.345   1.533   5.232  0.9622 -1.4907  1.2909
 5407SOL     OW27682   0.335   0.435   9.807  0.3312  0.6894  0.0156
 5407SOL    HW127683   0.279   0.474   9.740 -1.6276 -1.7712  0.2197
 5407SOL    HW227684   0.275   0.375   9.849 -0.0495 -1.2797 -3.3165
 5408SOL     OW27685   2.445   2.087   5.948  0.0435 -0.3217  0.4692
 5408SOL    HW127686   2.449   2.084   6.044 -0.9462 -1.0511  0.4880
 5408SOL    HW227687   2.361   2.130   5.934 -0.5102 -2.5107 -2.7124
 5409SOL     OW27688   4.353   1.788   8.131  0.8809 -0.1621  0.2905
 5409SOL    HW127689   4.310   1.726   8.191 -2.4700  1.4086 -0.5111
 5409SOL    HW227690   4.275   1.833   8.099  0.6645 -0.5332  0.2942
 5410SOL     OW27691   1.940   3.523   6.842 -0.0177  0.5670 -0.0260
 5410SOL    HW127692   2.035   3.526   6.843 -0.0150  0.7122 -0.5017
 5410SOL    HW227693   1.911   3.610   6.872 -1.4316  0.0645  0.0746
 5411SOL     OW27694   0.895   2.058   1.170 -0.2099  0.1944  0.3931
 5411SOL    HW127695   0.986   2.030   1.177 -0.1407 -0.0677 -1.5508
 5411SOL    HW227696   0.907   2.146   1.206  0.0689  0.9821 -1.6370
 5412SOL     OW27697   3.073   0.769   1.345 -0.2161  0.5238 -0.3945
 5412SOL    HW127698   2.982   0.768   1.376 -0.3951 -3.2444 -1.0102
 5412SOL    HW227699   3.121   0.782   1.426  1.6525  0.2684 -1.4741
 5413SOL     OW27700   0.633   4.108  14.907 -0.3801  0.1052 -0.0896
 5413SOL    HW127701   0.559   4.111  14.847  0.7618 -2.0351 -1.6154
 5413SOL    HW227702   0.698   4.064  14.853 -0.1833  0.3686 -0.0664
 5414SOL     OW27703   2.398   1.378   6.558 -0.2457  0.0472 -0.1989
 5414SOL    HW127704   2.320   1.388   6.613 -1.0295  2.4178 -1.7917
 5414SOL    HW227705   2.397   1.456   6.504  0.1808  0.7716  0.8293
 5415SOL     OW27706   3.729   4.029   3.910  0.1501 -0.3760 -0.3043
 5415SOL    HW127707   3.676   4.069   3.840 -0.6909  0.6340  0.9221
 5415SOL    HW227708   3.665   3.968   3.947  0.5640 -1.5166 -1.4606
 5416SOL     OW27709   1.595   3.030   8.616 -0.2376  0.5403  0.6226
 5416SOL    HW127710   1.656   3.087   8.569  0.4415  0.3085  1.2275
 5416SOL    HW227711   1.582   3.065   8.704  0.4129 -0.0889  0.9683
 5417SOL     OW27712   2.863   4.105   4.743 -0.1856  0.0258  0.1199
 5417SOL    HW127713   2.814   4.031   4.779 -0.0801 -0.8857 -1.6400
 5417SOL    HW227714   2.793   4.167   4.725 -0.4045  0.6090  2.8942
 5418SOL     OW27715   2.144   1.458   7.177  0.1118 -0.5623  0.4512
 5418SOL    HW127716   2.111   1.533   7.128 -2.5366 -1.3842  0.9341
 5418SOL    HW227717   2.065   1.404   7.182 -0.9030  0.9469  0.5999
 5419SOL     OW27718   1.332   3.262   9.528 -0.0299 -0.0658 -0.6441
 5419SOL    HW127719   1.390   3.195   9.562  0.6136  0.1295 -1.3557
 5419SOL    HW227720   1.327   3.236   9.436 -2.6897  0.9723 -0.8086
 5420SOL     OW27721   1.069   4.320   3.687  0.0554 -0.2449 -0.2715
 5420SOL    HW127722   1.149   4.301   3.736 -0.7093  1.2822  1.5803
 5420SOL    HW227723   1.016   4.337   3.765 -0.9108  1.2652 -1.2696
 5421SOL     OW27724   1.468   0.170   2.495  0.5855  0.0317 -0.1245
 5421SOL    HW127725   1.420   0.239   2.540  1.3754 -0.0022  0.7889
 5421SOL    HW227726   1.457   0.092   2.550 -1.9228  0.2451 -0.3666
 5422SOL     OW27727   3.371   3.660   8.891 -0.0362 -0.4448 -0.1265
 5422SOL    HW127728   3.400   3.735   8.944 -3.3636  1.2094 -0.6126
 5422SOL    HW227729   3.450   3.622   8.853  1.0145  1.4204  0.1714
 5423SOL     OW27730   2.900   3.116   4.860 -0.0132 -0.1144  1.1978
 5423SOL    HW127731   2.985   3.139   4.822  0.4077  0.4170  2.4816
 5423SOL    HW227732   2.931   3.086   4.945 -0.7691 -1.8248  0.8661
 5424SOL     OW27733   1.538   0.919  14.861  0.0208 -0.1565 -0.1865
 5424SOL    HW127734   1.628   0.899  14.885 -0.7029 -1.0075  1.7796
 5424SOL    HW227735   1.563   0.952  14.775 -1.3341  0.7532 -0.2451
 5425SOL     OW27736   2.542   4.553   7.793 -0.2213  0.2064 -0.4103
 5425SOL    HW127737   2.604   4.595   7.853  0.7256  0.2523 -1.4020
 5425SOL    HW227738   2.462   4.589   7.829 -1.0097 -0.5419 -1.4088
 5426SOL     OW27739   1.457   2.345   4.892 -0.3726 -0.8372 -0.4300
 5426SOL    HW127740   1.439   2.433   4.925  4.1815  1.1253 -3.2875
 5426SOL    HW227741   1.523   2.312   4.953  0.7229  1.9039 -0.1617
 5427SOL     OW27742   3.871   2.667   3.615  0.6425  0.1598 -0.3271
 5427SOL    HW127743   3.815   2.630   3.546  0.5636 -0.1496 -0.0972
 5427SOL    HW227744   3.841   2.757   3.617 -0.9676 -0.3301 -2.2099
 5428SOL     OW27745   2.067   2.180  13.734  0.7324 -0.0155 -0.1882
 5428SOL    HW127746   2.031   2.127  13.805 -0.2977 -0.0643 -0.7450
 5428SOL    HW227747   2.101   2.251  13.789 -2.1626 -0.5603  2.3041
 5429SOL     OW27748   2.243   0.998   7.269 -0.0270  0.1641 -0.5402
 5429SOL    HW127749   2.262   1.076   7.217 -1.1205  1.4261  0.9167
 5429SOL    HW227750   2.150   1.016   7.281 -0.0312  0.4881 -1.0653
 5430SOL     OW27751   2.855   1.911   4.911 -0.3171 -0.2103  0.1685
 5430SOL    HW127752   2.850   1.905   4.815 -3.0628  1.1130  0.2468
 5430SOL    HW227753   2.947   1.885   4.918 -0.6748 -1.2645  0.9228
 5431SOL     OW27754   4.156   1.423   1.073 -0.4743 -0.5198 -0.0204
 5431SOL    HW127755   4.180   1.393   0.985  2.4411  1.2274  0.1856
 5431SOL    HW227756   4.241   1.441   1.113 -0.1335  0.9031 -1.3460
 5432SOL     OW27757   2.596   2.692   9.755  0.3064  0.0238  0.1249
 5432SOL    HW127758   2.561   2.706   9.667  0.3960 -2.9248 -0.3718
 5432SOL    HW227759   2.683   2.653   9.745 -0.3220 -1.5925  0.9782
 5433SOL     OW27760   3.900   3.946  14.592 -0.4417  0.0763  0.2503
 5433SOL    HW127761   3.921   4.020  14.535 -1.9488 -0.3242 -0.8289
 5433SOL    HW227762   3.873   3.879  14.528 -1.3630 -0.6027  1.3599
 5434SOL     OW27763   2.798   2.581   3.029 -0.2522  0.1248  0.5212
 5434SOL    HW127764   2.760   2.586   2.941 -1.1535  3.6004  1.0923
 5434SOL    HW227765   2.802   2.486   3.040  0.7811  0.2923  1.6175
 5435SOL     OW27766   2.384   1.427  17.488 -0.3547 -0.2937 -0.3163
 5435SOL    HW127767   2.315   1.486  17.459 -0.1797 -0.2465 -0.6427
 5435SOL    HW227768   2.339   1.377  17.556 -0.6140  1.6880  0.9662
 5436SOL     OW27769   2.560   0.325   0.250  0.5286 -0.3441  0.0267
 5436SOL    HW127770   2.645   0.335   0.208 -0.1550  1.3023 -0.9741
 5436SOL    HW227771   2.513   0.380   0.187  1.3053  1.8511  1.3573
 5437SOL     OW27772   2.528   4.626  11.035  0.2505  0.0925  0.2981
 5437SOL    HW127773   2.564   4.709  11.065 -1.0062 -0.1106  2.3662
 5437SOL    HW227774   2.587   4.601  10.964  0.8105  0.4630  0.6425
 5438SOL     OW27775   4.240   4.510   7.116  0.0859 -0.4776  0.2386
 5438SOL    HW127776   4.260   4.452   7.043 -3.9705 -0.4565 -0.8901
 5438SOL    HW227777   4.167   4.471   7.164 -0.5037  0.1229 -0.1781
 5439SOL     OW27778   4.680   2.567  13.656 -0.0269 -0.1513  0.0054
 5439SOL    HW127779   4.585   2.578  13.659 -0.1201 -0.8348 -0.4962
 5439SOL    HW227780   4.684   2.484  13.702  1.4826  0.7347  1.4751
 5440SOL     OW27781   3.953   1.395   5.434  0.2612 -0.2405  0.5221
 5440SOL    HW127782   3.866   1.427   5.411  0.5362 -1.0666 -1.6923
 5440SOL    HW227783   4.011   1.463   5.401  1.0927 -1.2834 -0.1858
 5441SOL     OW27784   4.379   1.681   5.896 -0.3629 -0.5079  0.1368
 5441SOL    HW127785   4.391   1.775   5.884 -2.1284 -0.2423  0.3849
 5441SOL    HW227786   4.283   1.679   5.902 -0.3739  0.0148  0.0925
 5442SOL     OW27787   1.475   2.883   8.104  0.2022 -0.3687  0.3646
 5442SOL    HW127788   1.392   2.844   8.077  0.2113  0.9678 -1.5788
 5442SOL    HW227789   1.507   2.815   8.163  2.7828 -1.3089 -2.1271
 5443SOL     OW27790   2.602   1.488   7.862  0.5034 -0.1240  0.1880
 5443SOL    HW127791   2.581   1.578   7.837  2.2340  0.0323 -0.6800
 5443SOL    HW227792   2.633   1.446   7.782  1.9685  1.4385 -0.0659
 5444SOL     OW27793   0.769   4.633   3.776 -0.2537  0.5809  0.1045
 5444SOL    HW127794   0.696   4.600   3.724  0.8711 -0.9226 -0.5157
 5444SOL    HW227795   0.816   4.670   3.702 -0.4734 -2.4586 -1.5487
 5445SOL     OW27796   4.696   4.315   2.389  0.2047  0.1010 -0.4392
 5445SOL    HW127797   4.608   4.329   2.425  0.1374  0.7098 -0.8406
 5445SOL    HW227798   4.667   4.256   2.320 -0.2555  1.2059 -1.2043
 5446SOL     OW27799   1.246   2.628   3.927 -0.4499  0.1254  0.3254
 5446SOL    HW127800   1.152   2.611   3.923 -0.4184  0.2540 -0.8497
 5446SOL    HW227801   1.254   2.716   3.890  0.1595  0.6351  1.6486
 5447SOL     OW27802   2.318   2.884   3.625 -0.0287 -0.3324  0.1229
 5447SOL    HW127803   2.290   2.797   3.654 -1.2460 -0.6639 -2.0513
 5447SOL    HW227804   2.390   2.857   3.569  0.6066 -0.7022  1.1069
 5448SOL     OW27805   2.778   2.523   7.780  0.5128 -0.4319 -0.4122
 5448SOL    HW127806   2.763   2.442   7.828 -0.7853 -1.1906 -2.0780
 5448SOL    HW227807   2.737   2.502   7.696  1.4118 -0.3729 -0.8635
 5449SOL     OW27808   4.524   2.065  10.067 -0.1210 -0.1540  0.2442
 5449SOL    HW127809   4.606   2.027  10.035  0.2404 -0.5061  1.5806
 5449SOL    HW227810   4.464   2.018  10.010 -0.2786  0.8499 -0.4104
 5450SOL     OW27811   4.007   4.467   3.077 -0.1043  0.2044 -0.0026
 5450SOL    HW127812   4.067   4.542   3.075 -0.5061  0.5125 -0.4714
 5450SOL    HW227813   3.924   4.503   3.046 -0.8806 -0.9505  0.7463
 5451SOL     OW27814   2.628   1.195  16.746 -0.4133  0.5841  0.1810
 5451SOL    HW127815   2.619   1.289  16.763 -3.3898 -0.0366  1.9273
 5451SOL    HW227816   2.581   1.154  16.818 -0.0193  1.0088  0.6761
 5452SOL     OW27817   2.663   1.357   6.645  0.5346 -0.0844 -0.4883
 5452SOL    HW127818   2.578   1.353   6.601  1.9592  1.8398 -3.4123
 5452SOL    HW227819   2.686   1.449   6.638 -0.3059  0.2112  0.5812
 5453SOL     OW27820   1.998   4.717   6.679 -0.2473  0.3734  0.0699
 5453SOL    HW127821   1.994   4.702   6.585  0.3571  1.9862 -0.2103
 5453SOL    HW227822   2.033   4.632   6.707 -1.1737 -0.2937 -0.8281
 5454SOL     OW27823   3.361   1.717   4.976 -0.1450  0.4178 -0.1487
 5454SOL    HW127824   3.394   1.737   4.889  2.7945 -1.3713  0.5506
 5454SOL    HW227825   3.425   1.760   5.034  1.3212 -1.3573 -0.4391
 5455SOL     OW27826   1.411   1.605   6.000 -0.5670 -0.0619 -0.5509
 5455SOL    HW127827   1.474   1.675   5.985  1.2721 -1.2997  1.4335
 5455SOL    HW227828   1.459   1.545   6.057 -2.1999  0.2525  1.1539
 5456SOL     OW27829   2.027   1.015   6.105  0.1124  0.4311 -0.1368
 5456SOL    HW127830   1.945   1.031   6.152 -0.1551 -0.5863 -0.2716
 5456SOL    HW227831   2.079   1.094   6.121 -0.2223  0.6990 -0.3773
 5457SOL     OW27832   0.873   4.373   3.885 -0.0723  0.6902 -0.2348
 5457SOL    HW127833   0.786   4.334   3.894  0.9352 -1.7561 -1.2304
 5457SOL    HW227834   0.851   4.455   3.841 -0.7208  1.3313  1.2757
 5458SOL     OW27835   2.488   0.264  17.525  0.0954 -0.5171 -0.0059
 5458SOL    HW127836   2.447   0.344  17.493  0.8961  0.3667  1.2172
 5458SOL    HW227837   2.518   0.229  17.441  2.6453  2.1905 -0.2155
 5459SOL     OW27838   2.557   1.966  13.707 -0.3298  0.0033 -0.0545
 5459SOL    HW127839   2.498   1.897  13.676 -0.2521 -0.7687  1.5235
 5459SOL    HW227840   2.498   2.024  13.756  0.6103  1.9588 -1.2554
 5460SOL     OW27841   3.009   3.477   1.045  0.5662 -0.3254 -0.1650
 5460SOL    HW127842   2.977   3.432   0.967  0.2954 -0.9822  0.3300
 5460SOL    HW227843   2.980   3.567   1.025  2.7228  0.2196 -0.8592
 5461SOL     OW27844   2.291   3.208  16.590 -0.4187 -0.0362  0.3967
 5461SOL    HW127845   2.248   3.211  16.505 -1.9606  0.8104  1.2110
 5461SOL    HW227846   2.323   3.117  16.590  1.8701  0.7918  2.2723
 5462SOL     OW27847   3.494   3.863   3.993 -0.6136 -0.1660  0.4942
 5462SOL    HW127848   3.457   3.811   3.921 -1.0253 -1.0365  1.3413
 5462SOL    HW227849   3.461   3.951   3.974  0.8667  0.0304 -1.1979
 5463SOL     OW27850   3.770   0.233  15.221  0.3069  0.5219  0.1719
 5463SOL    HW127851   3.714   0.180  15.277  1.3360  0.1588  0.8420
 5463SOL    HW227852   3.710   0.301  15.189 -2.5378 -1.2085  1.8783
 5464SOL     OW27853   3.418   0.006   8.590  0.1235 -0.4567 -0.2375
 5464SOL    HW127854   3.407   4.639   8.587 -0.0013 -0.4727  0.6799
 5464SOL    HW227855   3.510   0.011   8.564 -0.0447 -1.5793 -1.0267
 5465SOL     OW27856   4.489   3.115  14.221 -0.1532  0.2430  0.2230
 5465SOL    HW127857   4.579   3.082  14.224  0.0598  0.8403  0.4610
 5465SOL    HW227858   4.503   3.209  14.223 -0.1075  0.2530 -0.8823
 5466SOL     OW27859   4.625   2.831   8.212  0.5018 -0.2024  0.2265
 5466SOL    HW127860   4.612   2.784   8.294  0.9830 -1.6504 -0.5253
 5466SOL    HW227861   4.719   2.847   8.220 -0.0179  1.4628  3.1553
 5467SOL     OW27862   3.761   0.031   7.911 -0.2437 -0.2351 -0.2861
 5467SOL    HW127863   3.820   0.106   7.917  2.3683 -2.1495 -2.3731
 5467SOL    HW227864   3.706   0.029   7.989  0.7464  2.7385  0.4856
 5468SOL     OW27865   3.578   0.953   4.125 -0.0262  1.0085 -0.0270
 5468SOL    HW127866   3.604   0.924   4.038 -0.3212 -1.5651  0.7299
 5468SOL    HW227867   3.489   0.987   4.114 -1.2485 -1.3524  2.4351
 5469SOL     OW27868   1.525   2.840  15.789  0.7921  0.3069 -0.2713
 5469SOL    HW127869   1.545   2.861  15.698  2.8289  1.8635  0.5431
 5469SOL    HW227870   1.611   2.834  15.831  0.5922 -1.1956 -0.0678
 5470SOL     OW27871   0.969   2.241   8.879 -0.4371  0.5572 -0.0656
 5470SOL    HW127872   0.887   2.284   8.905 -0.6748  0.1538 -0.1485
 5470SOL    HW227873   0.954   2.168   8.939  1.3746  1.5802  1.6597
 5471SOL     OW27874   0.067   2.104  11.580  0.1409 -0.8238  0.2610
 5471SOL    HW127875   0.008   2.179  11.586  0.7315 -0.2862 -0.5644
 5471SOL    HW227876   0.143   2.152  11.548  0.1304 -1.7403 -1.1551
 5472SOL     OW27877   4.554   4.330   4.325  0.3616 -0.2302  0.0080
 5472SOL    HW127878   4.623   4.332   4.392  0.1090  1.3197  0.2312
 5472SOL    HW227879   4.539   4.424   4.313  0.4257  0.1006  2.4116
 5473SOL     OW27880   3.248   2.828   5.253 -0.0709  0.1056  0.4271
 5473SOL    HW127881   3.316   2.820   5.186  1.5844 -2.4573  2.4048
 5473SOL    HW227882   3.173   2.785   5.211  1.1051 -2.1423  0.5983
 5474SOL     OW27883   1.968   2.685   4.846  0.3238 -0.3489  0.2163
 5474SOL    HW127884   2.061   2.662   4.844 -0.3388 -2.8310 -2.6160
 5474SOL    HW227885   1.943   2.643   4.764 -0.7805  1.7362 -0.5152
 5475SOL     OW27886   1.367   0.416   3.387  0.2417 -0.2005  0.1658
 5475SOL    HW127887   1.354   0.326   3.358 -1.9248  0.2177 -0.1242
 5475SOL    HW227888   1.461   0.422   3.368 -0.3791  2.0566 -2.2143
 5476SOL     OW27889   2.264   2.354  13.138 -0.7008  0.7441 -0.4977
 5476SOL    HW127890   2.187   2.305  13.113  0.3634 -1.5520  0.7249
 5476SOL    HW227891   2.282   2.310  13.221 -1.2518  2.6177  0.6300
 5477SOL     OW27892   3.745   1.612   7.289  0.2182 -0.0395  0.0571
 5477SOL    HW127893   3.678   1.554   7.326 -2.4599  0.5816 -3.7326
 5477SOL    HW227894   3.734   1.688   7.347  0.5365  0.5089 -0.5967
 5478SOL     OW27895   1.356   3.246   8.590  0.1992  0.1348 -0.7743
 5478SOL    HW127896   1.279   3.234   8.646 -0.3385 -1.6064 -1.8775
 5478SOL    HW227897   1.336   3.321   8.534  1.7969  0.8176 -0.4257
 5479SOL     OW27898   4.185   0.353   2.347  0.0554  0.6271 -0.1436
 5479SOL    HW127899   4.167   0.295   2.272  1.6548  0.1872 -0.2115
 5479SOL    HW227900   4.101   0.394   2.364 -0.9420 -1.7596  0.6415
 5480SOL     OW27901   0.747   0.838  17.541 -0.0880  0.1748  0.6607
 5480SOL    HW127902   0.744   0.760  17.485  2.3254  1.5323 -1.3362
 5480SOL    HW227903   0.798   0.795  17.610 -0.0514 -1.0221 -0.1018
 5481SOL     OW27904   2.556   2.124   4.276 -0.3815 -0.1390 -0.0536
 5481SOL    HW127905   2.462   2.135   4.260 -0.2483 -0.3785 -0.9981
 5481SOL    HW227906   2.590   2.085   4.196 -2.3505  0.5311 -1.2216
 5482SOL     OW27907   0.140   3.497   0.998  0.6436  0.4786 -0.2540
 5482SOL    HW127908   0.111   3.582   1.032 -0.9758 -0.4513  0.6593
 5482SOL    HW227909   0.077   3.471   0.931 -1.5021 -0.9278  2.2937
 5483SOL     OW27910   3.455   4.153   9.213 -0.3150 -0.0489 -0.0142
 5483SOL    HW127911   3.450   4.064   9.178  0.4642 -0.0861 -0.0263
 5483SOL    HW227912   3.519   4.135   9.282 -0.9487 -0.1097  0.5580
 5484SOL     OW27913   3.215   0.977   7.194 -0.4335  0.0677 -0.4259
 5484SOL    HW127914   3.222   0.997   7.288  0.5590  1.2258 -0.7418
 5484SOL    HW227915   3.292   1.019   7.155 -0.3752  1.2984  0.9746
 5485SOL     OW27916   0.436   4.257   4.674 -0.2008  0.1765  0.1812
 5485SOL    HW127917   0.376   4.330   4.688 -0.3818 -0.1284  0.9602
 5485SOL    HW227918   0.477   4.291   4.594 -0.7639 -0.8633 -0.5476
 5486SOL     OW27919   2.424   3.895   5.265  0.0972  0.4654  0.1233
 5486SOL    HW127920   2.413   3.802   5.283 -0.1760  0.3513 -0.6182
 5486SOL    HW227921   2.334   3.927   5.257  0.2296  0.1982 -2.3405
 5487SOL     OW27922   0.357   3.699   0.963 -0.6773 -0.3012  0.2791
 5487SOL    HW127923   0.371   3.714   1.056  1.0704 -1.8070  0.2534
 5487SOL    HW227924   0.288   3.632   0.959 -0.7646 -0.1146 -1.6784
 5488SOL     OW27925   2.287   3.608   8.933  0.2053  0.4459 -0.2627
 5488SOL    HW127926   2.268   3.531   8.986 -0.7236  0.2844 -0.8178
 5488SOL    HW227927   2.329   3.579   8.852  1.3860 -0.6178  0.7499
 5489SOL     OW27928   1.195   2.342   5.801  0.4069 -0.2064  0.3064
 5489SOL    HW127929   1.237   2.422   5.833  1.2017 -0.9294  1.0931
 5489SOL    HW227930   1.103   2.341   5.828 -0.1842  2.8958 -1.6563
 5490SOL     OW27931   0.505   1.839   7.136  0.5364 -0.2070 -0.0154
 5490SOL    HW127932   0.590   1.795   7.139 -0.4339 -2.2344 -2.2917
 5490SOL    HW227933   0.532   1.924   7.103 -0.8182  0.7185  1.3126
 5491SOL     OW27934   4.441   0.913   7.718 -0.2842  0.0616  0.4831
 5491SOL    HW127935   4.446   1.000   7.757 -3.2748  0.0944  0.8067
 5491SOL    HW227936   4.435   0.862   7.799  3.0463 -2.1705 -0.6721
 5492SOL     OW27937   4.698   4.624  10.802 -0.3793 -0.1716  0.1473
 5492SOL    HW127938   0.028   4.604  10.729 -0.1520 -0.9366  0.5458
 5492SOL    HW227939   4.609   4.640  10.771 -1.4201 -5.1698  0.6211
 5493SOL     OW27940   1.648   2.684  11.146  0.2383 -0.0399 -0.2156
 5493SOL    HW127941   1.582   2.726  11.201 -0.1411 -2.1880  0.9624
 5493SOL    HW227942   1.600   2.644  11.074  0.8871  0.1694 -0.7698
 5494SOL     OW27943   0.919   0.648   2.763 -0.3943  0.2474 -0.3661
 5494SOL    HW127944   0.919   0.744   2.770 -0.6374  0.1252  1.3126
 5494SOL    HW227945   0.836   0.627   2.807 -0.2401  1.1721  0.3821
 5495SOL     OW27946   3.269   2.453   3.032 -0.6059 -0.1946  0.2165
 5495SOL    HW127947   3.295   2.454   2.940 -2.2025 -1.1965 -0.2492
 5495SOL    HW227948   3.239   2.543   3.043  1.7271  0.7800 -1.4513
 5496SOL     OW27949   3.100   0.552  14.490  0.3370  0.0830 -0.3203
 5496SOL    HW127950   3.194   0.566  14.482  0.1814  1.3885  0.2652
 5496SOL    HW227951   3.065   0.622  14.434  2.3998  1.8117  0.5893
 5497SOL     OW27952   3.096   4.017   5.097 -0.4713  0.6022 -0.0798
 5497SOL    HW127953   3.144   4.097   5.076 -1.4626  1.3731  0.5748
 5497SOL    HW227954   3.137   3.950   5.043 -1.8835  0.0737 -0.5059
 5498SOL     OW27955   2.988   3.369  15.364 -0.4493 -0.2734  0.0582
 5498SOL    HW127956   3.028   3.295  15.320  0.5603 -0.0403  0.5941
 5498SOL    HW227957   2.913   3.384  15.307  0.2535  2.3204 -0.2013
 5499SOL     OW27958   4.541   2.756  12.123  0.5134 -0.0979 -0.3865
 5499SOL    HW127959   4.553   2.689  12.055  1.7481  0.9192 -1.1523
 5499SOL    HW227960   4.498   2.707  12.193  0.5642  0.9887  0.3838
 5500SOL     OW27961   1.104   1.583  15.700  0.3703  0.4984 -0.2468
 5500SOL    HW127962   1.121   1.670  15.665  2.0463 -0.3220 -1.4866
 5500SOL    HW227963   1.043   1.549  15.635  0.0577  1.4587 -0.4441
 5501SOL     OW27964   3.784   4.620   2.983 -0.5516  0.8500  0.7096
 5501SOL    HW127965   3.781   4.701   2.931  1.2644 -0.1029 -0.8896
 5501SOL    HW227966   3.697   4.596   2.952 -0.8201  2.7080 -0.0102
 5502SOL     OW27967   2.715   2.658   5.895  0.6857 -0.6295  0.0989
 5502SOL    HW127968   2.717   2.618   5.982  2.1988 -0.8862 -0.0558
 5502SOL    HW227969   2.633   2.616   5.869 -0.5786  0.9306  1.5916
 5503SOL     OW27970   2.506   0.388   4.917 -0.1420 -0.3810  0.4218
 5503SOL    HW127971   2.436   0.364   4.977 -0.3287  0.1510  0.4169
 5503SOL    HW227972   2.492   0.474   4.879 -1.5902  0.2149  2.3166
 5504SOL     OW27973   2.583   1.769   6.620 -0.4380  0.0752 -0.5988
 5504SOL    HW127974   2.660   1.825   6.611 -0.1322 -0.2277  0.1266
 5504SOL    HW227975   2.611   1.697   6.563 -0.6833 -0.4588 -0.0426
 5505SOL     OW27976   3.702   1.927   5.398 -0.0329  0.3205 -0.3299
 5505SOL    HW127977   3.642   1.974   5.456 -0.8897  0.0999 -1.0353
 5505SOL    HW227978   3.784   1.934   5.448 -1.8695 -0.0418  2.7413
 5506SOL     OW27979   4.563   3.056  10.191 -0.1910  0.1506  0.5173
 5506SOL    HW127980   4.588   2.992  10.258  2.0035  0.1789 -0.2828
 5506SOL    HW227981   4.637   3.042  10.132 -0.2138  0.9516  0.2992
 5507SOL     OW27982   0.869   3.245   6.354  0.6331  0.4129  0.2026
 5507SOL    HW127983   0.808   3.316   6.333 -0.7056 -0.5924  0.6848
 5507SOL    HW227984   0.805   3.175   6.342  0.3386  1.3490 -3.9134
 5508SOL     OW27985   1.487   0.385   8.927 -0.7807 -0.6097 -0.2418
 5508SOL    HW127986   1.558   0.325   8.949 -0.1490  0.6905  1.2434
 5508SOL    HW227987   1.530   0.416   8.847  0.7197  0.2070  0.8749
 5509SOL     OW27988   1.408   2.665  11.664  0.3405  0.3919 -0.2918
 5509SOL    HW127989   1.476   2.644  11.728  0.4193 -1.3443 -0.9526
 5509SOL    HW227990   1.338   2.702  11.718  0.0194 -0.3157 -0.2253
 5510SOL     OW27991   2.481   4.231   2.062 -0.0475 -0.1702 -0.2438
 5510SOL    HW127992   2.492   4.212   2.155 -2.8824  1.8601  0.5026
 5510SOL    HW227993   2.395   4.195   2.043  0.0486 -1.0365  1.0031
 5511SOL     OW27994   3.290   1.280   7.115  0.1675 -0.4980 -0.6053
 5511SOL    HW127995   3.383   1.298   7.127  0.0856 -2.1946  2.5936
 5511SOL    HW227996   3.258   1.352   7.169  0.7395 -0.0907 -0.8020
 5512SOL     OW27997   2.835   0.483   8.953  0.5380 -0.2338 -0.0097
 5512SOL    HW127998   2.905   0.482   9.018  1.1508 -0.2249 -0.6715
 5512SOL    HW227999   2.835   0.389   8.934  1.6568  0.1231 -1.7463
 5513SOL     OW28000   1.341   3.878   8.364  0.0554 -0.1299 -0.1726
 5513SOL    HW128001   1.330   3.968   8.392 -1.9200  0.1433 -1.8296
 5513SOL    HW228002   1.335   3.895   8.270 -0.4614  0.0271 -0.1104
 5514SOL     OW28003   0.445   3.838   9.964  1.0819 -0.3916  0.6467
 5514SOL    HW128004   0.538   3.849   9.986  1.0865 -0.4489  0.6542
 5514SOL    HW228005   0.421   3.927   9.938  3.4650  0.4405  1.2756
 5515SOL     OW28006   4.103   2.402  15.492 -0.4177  0.1798  0.3216
 5515SOL    HW128007   4.126   2.384  15.583 -0.7584 -0.2849  0.3135
 5515SOL    HW228008   4.055   2.484  15.504 -0.6079  0.0284  0.5949
 5516SOL     OW28009   0.399   3.313   7.931 -0.2756  0.5641 -0.1399
 5516SOL    HW128010   0.456   3.310   7.855  1.3937  1.2943  1.0976
 5516SOL    HW228011   0.444   3.381   7.981 -0.5532  1.6394 -1.3534
 5517SOL     OW28012   4.237   0.339   9.268 -0.2654 -0.2423  0.1756
 5517SOL    HW128013   4.154   0.381   9.246  0.9991  1.7211 -0.9218
 5517SOL    HW228014   4.303   0.403   9.240  0.6053  0.0820  3.0050
 5518SOL     OW28015   3.686   2.597   9.736 -0.1716  0.1240 -0.0574
 5518SOL    HW128016   3.674   2.663   9.667  1.3599  0.4256 -0.0300
 5518SOL    HW228017   3.781   2.604   9.748 -0.0498  0.8471 -1.3754
 5519SOL     OW28018   1.214   3.818   5.240 -0.0164 -0.7280  0.5845
 5519SOL    HW128019   1.230   3.724   5.234  0.1440 -0.4283 -3.7520
 5519SOL    HW228020   1.303   3.848   5.261 -0.2593 -0.1409  0.7626
 5520SOL     OW28021   0.363   3.514   3.879 -0.6826 -0.3514  0.3563
 5520SOL    HW128022   0.355   3.594   3.827  0.9279  0.0220  0.6775
 5520SOL    HW228023   0.284   3.535   3.930 -1.6520  0.9508 -1.6777
 5521SOL     OW28024   1.759   0.827   2.902 -0.5390 -0.1323  0.0367
 5521SOL    HW128025   1.770   0.751   2.845 -0.4830 -0.8302  0.9737
 5521SOL    HW228026   1.679   0.866   2.866  0.4099 -0.7183 -2.6460
 5522SOL     OW28027   0.050   1.323   2.762  0.6500 -0.5990 -0.0419
 5522SOL    HW128028   0.014   1.355   2.845 -0.7237 -0.5788 -0.6301
 5522SOL    HW228029   4.697   1.358   2.724  0.8681  1.1454  1.0699
 5523SOL     OW28030   3.032   0.688   1.822 -0.5168 -0.0370  0.0135
 5523SOL    HW128031   2.942   0.675   1.852 -0.6410 -0.3257 -0.4839
 5523SOL    HW228032   3.048   0.781   1.838  1.0995 -0.4876  0.9952
 5524SOL     OW28033   4.574   4.002  13.536  0.1184  0.2551  0.0200
 5524SOL    HW128034   4.547   4.027  13.447  0.5459 -1.0642 -0.4854
 5524SOL    HW228035   4.498   4.027  13.588  0.4636  0.1684  0.5626
 5525SOL     OW28036   0.704   4.252   5.282  0.3294 -0.2403 -0.0783
 5525SOL    HW128037   0.781   4.294   5.244 -0.0328  1.3396  0.9082
 5525SOL    HW228038   0.708   4.275   5.375  1.6240 -0.1246 -0.1631
 5526SOL     OW28039   0.534   3.100   9.160  0.3517 -0.4272  0.4779
 5526SOL    HW128040   0.561   3.035   9.225  2.0973 -0.5227 -0.3183
 5526SOL    HW228041   0.609   3.158   9.173 -0.1069  0.6063 -1.4814
 5527SOL     OW28042   1.293   0.053   6.355 -0.2062  0.0143 -0.3710
 5527SOL    HW128043   1.263   4.701   6.397  1.3826 -1.0802 -1.3263
 5527SOL    HW228044   1.362   0.075   6.417  0.2681  0.4652 -1.0560
 5528SOL     OW28045   2.958   3.444   3.210  0.4428  0.1716 -0.2956
 5528SOL    HW128046   2.981   3.489   3.130 -3.2034 -0.3326 -1.6301
 5528SOL    HW228047   3.035   3.466   3.263 -0.6922  3.4508 -0.0171
 5529SOL     OW28048   2.399   1.886   1.589  0.2009  0.6589  0.0020
 5529SOL    HW128049   2.395   1.855   1.498  0.7291 -1.0168  0.5411
 5529SOL    HW228050   2.335   1.827   1.629  0.2190  0.8686  0.3326
 5530SOL     OW28051   4.373   3.702   3.707 -0.3896  0.7984  0.1296
 5530SOL    HW128052   4.364   3.608   3.720 -1.3612  0.5068 -2.5314
 5530SOL    HW228053   4.281   3.730   3.704  0.1075  2.4685  0.5883
 5531SOL     OW28054   2.590   3.807   6.819 -0.2374 -0.3633 -0.0838
 5531SOL    HW128055   2.633   3.882   6.860 -1.5481  0.0669  0.4846
 5531SOL    HW228056   2.654   3.793   6.749  1.4382 -0.5582  1.4912
 5532SOL     OW28057   2.718   0.594  17.645  0.8256 -0.4144  0.3668
 5532SOL    HW128058   2.813   0.604  17.657  0.7419  0.0344  0.6782
 5532SOL    HW228059   2.716   0.642  17.563  1.4071 -0.2069  0.4750
 5533SOL     OW28060   1.143   4.250   5.816 -0.2480 -0.1493  0.4533
 5533SOL    HW128061   1.183   4.168   5.845 -1.1274 -0.6324  0.3335
 5533SOL    HW228062   1.077   4.213   5.757 -0.8734 -1.6897  2.0823
 5534SOL     OW28063   3.325   4.084   2.889  0.8150 -0.6020 -0.3587
 5534SOL    HW128064   3.380   4.008   2.907  0.7502 -0.3399  0.9390
 5534SOL    HW228065   3.389   4.149   2.861  2.5803 -0.9536  2.9271
 5535SOL     OW28066   2.625   1.669  16.011 -0.0958 -0.0552 -0.2762
 5535SOL    HW128067   2.615   1.756  15.973 -0.0059  0.0769 -0.0014
 5535SOL    HW228068   2.709   1.676  16.056  0.1182 -2.1944 -0.3369
 5536SOL     OW28069   4.065   3.228   7.441  0.0881  0.2727 -0.0029
 5536SOL    HW128070   4.019   3.152   7.407 -0.1191  0.6201 -0.4941
 5536SOL    HW228071   4.153   3.191   7.448  0.0972 -0.0816 -1.9859
 5537SOL     OW28072   1.042   1.505   2.273  0.1363 -0.0906  0.1219
 5537SOL    HW128073   0.979   1.548   2.330 -0.5747 -1.0297  0.0492
 5537SOL    HW228074   1.088   1.442   2.329 -2.3864 -0.1458  2.1464
 5538SOL     OW28075   2.476   3.911   9.208 -0.3485 -0.5089 -0.2005
 5538SOL    HW128076   2.514   3.900   9.121  0.0372  0.5280 -0.1689
 5538SOL    HW228077   2.397   3.860   9.191 -0.3555 -0.9422  1.1033
 5539SOL     OW28078   0.969   3.392  12.614 -0.2540  0.3580  0.7984
 5539SOL    HW128079   0.899   3.365  12.674  0.1544 -0.6906  0.8058
 5539SOL    HW228080   0.955   3.486  12.603 -0.0906  0.2964  0.0505
 5540SOL     OW28081   2.545   4.443   5.688  0.2863 -0.0564 -0.2537
 5540SOL    HW128082   2.473   4.391   5.723 -1.0661  0.9199 -1.6277
 5540SOL    HW228083   2.601   4.433   5.766  0.0486  3.1077  0.3399
 5541SOL     OW28084   2.236   3.340   5.605  0.4317  0.1521 -0.1714
 5541SOL    HW128085   2.311   3.340   5.546 -0.8051  1.1974 -1.7177
 5541SOL    HW228086   2.234   3.245   5.613 -1.5478  0.2949  1.2099
 5542SOL     OW28087   1.570   0.454   5.229  0.2175  0.5111 -0.2464
 5542SOL    HW128088   1.528   0.383   5.181  0.5347  1.4267 -1.8846
 5542SOL    HW228089   1.536   0.521   5.170  0.3215  0.8475  0.0719
 5543SOL     OW28090   4.532   3.533   1.149  0.7636 -0.3940 -0.1257
 5543SOL    HW128091   4.580   3.451   1.154 -0.8576 -1.3332 -0.0586
 5543SOL    HW228092   4.568   3.579   1.225 -0.9244 -1.3985  1.2800
 5544SOL     OW28093   2.219   3.605   4.455  0.1569  0.2539  0.3961
 5544SOL    HW128094   2.275   3.590   4.531  2.9235 -0.3555 -1.7372
 5544SOL    HW228095   2.246   3.692   4.425 -0.4676  0.9788  1.9576
 5545SOL     OW28096   2.950   0.839   8.682  0.1226 -0.0433  0.3868
 5545SOL    HW128097   3.019   0.899   8.710  2.1521 -1.6844 -1.0759
 5545SOL    HW228098   2.936   0.793   8.765  0.6811  0.5452  0.8059
 5546SOL     OW28099   4.314   2.838   7.881  0.0361 -0.2959  0.5509
 5546SOL    HW128100   4.260   2.908   7.844  0.9380 -0.5573 -1.2505
 5546SOL    HW228101   4.371   2.895   7.933  0.2345 -1.9084  2.0867
 5547SOL     OW28102   3.534   2.259   9.166  0.4142 -0.3068 -0.2572
 5547SOL    HW128103   3.603   2.306   9.119  0.9320 -1.3419 -0.5167
 5547SOL    HW228104   3.584   2.201   9.224  0.1631  0.2747  0.5437
 5548SOL     OW28105   2.507   2.187  17.103  0.0232  0.1004  0.3625
 5548SOL    HW128106   2.534   2.244  17.031  1.0379 -0.0590  0.6231
 5548SOL    HW228107   2.577   2.123  17.096  3.7352  4.1847  0.2717
 5549SOL     OW28108   2.537   2.741  14.807  0.7565  0.2151 -0.1371
 5549SOL    HW128109   2.456   2.741  14.857  0.8383  0.6585 -0.0067
 5549SOL    HW228110   2.522   2.815  14.748  0.8569 -1.3895 -2.1846
 5550SOL     OW28111   2.195   1.609   1.918  0.3342  0.0940 -0.4375
 5550SOL    HW128112   2.276   1.654   1.943  0.0128 -0.1500  1.0596
 5550SOL    HW228113   2.198   1.613   1.823  0.2424 -0.2684 -0.4569
 5551SOL     OW28114   2.136   3.597   5.343  0.8015 -0.2904 -0.4303
 5551SOL    HW128115   2.064   3.542   5.374  1.1342  0.5282  1.7934
 5551SOL    HW228116   2.195   3.527   5.317  0.7721 -0.1931 -0.7659
 5552SOL     OW28117   2.682   2.886  13.867  0.4805 -0.1302 -0.3839
 5552SOL    HW128118   2.598   2.931  13.868 -0.7641 -2.4861  1.3941
 5552SOL    HW228119   2.654   2.798  13.892  0.9743  0.2708  1.6223
 5553SOL     OW28120   1.107   0.768   0.234  0.4427  0.9157  0.4222
 5553SOL    HW128121   1.114   0.858   0.202  3.4063  0.8017  0.7281
 5553SOL    HW228122   1.015   0.770   0.261  0.6107 -0.8180  1.0842
 5554SOL     OW28123   4.728   3.120   5.850  0.4619 -0.1045  0.8798
 5554SOL    HW128124   4.660   3.139   5.786  2.2840  0.8456 -0.7641
 5554SOL    HW228125   4.686   3.082   5.927 -1.1092  0.1414  0.1443
 5555SOL     OW28126   1.036   1.221   9.711  0.2593 -0.0568 -0.0090
 5555SOL    HW128127   1.099   1.292   9.700 -0.9405  1.3176  2.0691
 5555SOL    HW228128   1.056   1.170   9.632 -0.3743  2.6493 -1.9080
 5556SOL     OW28129   4.257   2.057   3.342 -0.8739  0.0225 -0.0087
 5556SOL    HW128130   4.231   2.081   3.431 -5.0124 -2.8041 -0.4536
 5556SOL    HW228131   4.176   2.042   3.293 -1.4305 -0.1709  0.9674
 5557SOL     OW28132   0.739   2.276   3.338  0.1574  0.0227  0.2625
 5557SOL    HW128133   0.769   2.214   3.271 -1.2386 -0.0949 -0.2525
 5557SOL    HW228134   0.688   2.216   3.392 -1.4539  1.7814  0.6845
 5558SOL     OW28135   4.054   3.928   7.716 -0.0799  0.7017 -0.1090
 5558SOL    HW128136   3.969   3.959   7.747  0.5343  0.1340  2.1363
 5558SOL    HW228137   4.024   3.846   7.676  1.1688  0.9019 -1.4672
 5559SOL     OW28138   2.271   3.989   7.875  0.0191 -0.0431  0.1666
 5559SOL    HW128139   2.313   3.982   7.961 -0.9680  2.3648  0.8401
 5559SOL    HW228140   2.197   4.047   7.894  0.8427  0.4354  1.8855
 5560SOL     OW28141   1.282   3.504   0.041  0.2766  0.8596  0.2076
 5560SOL    HW128142   1.311   3.480  17.666  0.1227  0.8250  0.1652
 5560SOL    HW228143   1.367   3.492   0.084  0.3829 -0.4330 -0.3537
 5561SOL     OW28144   2.367   0.150   7.439 -0.6452  0.7859  0.0852
 5561SOL    HW128145   2.344   0.057   7.437  2.9807 -0.1300  2.4643
 5561SOL    HW228146   2.380   0.171   7.531 -0.3701  2.3320 -0.3007
 5562SOL     OW28147   3.317   2.980   3.334  0.4928 -0.7227 -0.0474
 5562SOL    HW128148   3.274   2.913   3.387  1.1994 -1.1941 -0.0735
 5562SOL    HW228149   3.408   2.970   3.362  0.0205  1.8899  2.4942
 5563SOL     OW28150   3.565   3.132   3.632  0.0064 -0.1018 -0.3291
 5563SOL    HW128151   3.560   3.038   3.653  0.1479  0.5533  2.5852
 5563SOL    HW228152   3.628   3.131   3.560 -0.0480  0.5851 -0.3832
 5564SOL     OW28153   1.440   2.489   2.222  0.3007  0.2864 -0.2077
 5564SOL    HW128154   1.520   2.486   2.169  0.0886 -1.4266 -0.4579
 5564SOL    HW228155   1.433   2.394   2.233 -2.8497  0.7921  2.1286
 5565SOL     OW28156   0.972   1.029   4.225  0.0811  0.0013  0.3714
 5565SOL    HW128157   0.996   0.958   4.165 -1.1034 -0.6913  0.7253
 5565SOL    HW228158   0.890   1.065   4.193 -0.0169  0.8203  1.5875
 5566SOL     OW28159   4.270   0.749  12.714  0.3622  0.1546 -0.2540
 5566SOL    HW128160   4.305   0.672  12.758  0.0581  0.5070  0.5980
 5566SOL    HW228161   4.291   0.729  12.623  0.4367  0.1193 -0.2291
 5567SOL     OW28162   1.305   4.661  17.574  0.1058 -0.0595 -0.1341
 5567SOL    HW128163   1.224   4.661  17.625 -0.0121 -0.1457 -0.3243
 5567SOL    HW228164   1.337   4.572  17.591  0.0851  0.0441  0.4447
 5568SOL     OW28165   2.723   3.666  11.563 -0.1532 -0.3275 -0.0753
 5568SOL    HW128166   2.789   3.608  11.526 -0.7967 -0.5072 -0.9409
 5568SOL    HW228167   2.769   3.742  11.598 -0.0216 -1.1986  1.6653
 5569SOL     OW28168   1.711   3.995  10.956  0.1710 -0.2164 -0.0740
 5569SOL    HW128169   1.678   4.030  10.873 -1.0727  0.5820  0.7573
 5569SOL    HW228170   1.637   3.967  11.010 -0.4003 -4.2063 -2.8708
 5570SOL     OW28171   3.575   3.270   7.015 -0.0924 -0.2710 -0.1173
 5570SOL    HW128172   3.599   3.345   7.069  0.6805 -0.6927  0.1273
 5570SOL    HW228173   3.539   3.313   6.938 -1.8143 -1.9774 -0.2749
 5571SOL     OW28174   1.380   0.018  13.676 -0.2499 -0.1243 -0.4323
 5571SOL    HW128175   1.460   0.064  13.702  1.5337 -1.7252 -3.1528
 5571SOL    HW228176   1.404   4.655  13.661 -2.1750 -0.8106  0.6327
 5572SOL     OW28177   2.946   4.183   3.149  0.0786  0.1084  0.1350
 5572SOL    HW128178   3.026   4.150   3.189  1.6995  3.3575 -0.4588
 5572SOL    HW228179   2.975   4.268   3.117 -0.0649 -0.3799 -1.2848
 5573SOL     OW28180   2.693   2.299   7.909 -0.0302 -0.8408 -0.0798
 5573SOL    HW128181   2.755   2.241   7.863 -2.7075 -2.6118 -1.4427
 5573SOL    HW228182   2.622   2.243   7.940 -0.1023 -0.9847 -0.4995
 5574SOL     OW28183   2.023   1.096   8.203  0.3062 -0.2702  0.1168
 5574SOL    HW128184   2.098   1.046   8.235  0.1957  1.5202  3.1895
 5574SOL    HW228185   1.952   1.054   8.252  0.2503  1.0406  1.1439
 5575SOL     OW28186   0.831   0.018   9.844  0.2155  0.0969 -0.1404
 5575SOL    HW128187   0.783   4.664   9.852  0.6622 -0.1100  0.3831
 5575SOL    HW228188   0.872   0.024   9.758 -0.2306  0.1768 -0.3491
 5576SOL     OW28189   0.517   3.229   7.696 -0.0088  0.1022 -0.3290
 5576SOL    HW128190   0.485   3.274   7.617 -1.3068  0.9267  0.6573
 5576SOL    HW228191   0.510   3.138   7.667 -0.7312 -0.1179  0.5268
 5577SOL     OW28192   3.270   2.448   8.893  0.1037 -0.1868  0.0785
 5577SOL    HW128193   3.232   2.472   8.977  0.3880  0.7320 -0.0528
 5577SOL    HW228194   3.363   2.445   8.915  0.6246  1.6057 -1.8560
 5578SOL     OW28195   1.281   0.670   8.890  0.5061 -0.1049  0.1334
 5578SOL    HW128196   1.248   0.745   8.938  1.9641  0.1615  0.7227
 5578SOL    HW228197   1.286   0.608   8.963 -0.3505 -0.4136 -0.0674
 5579SOL     OW28198   1.260   0.271   1.724  0.5127 -0.0646  0.0127
 5579SOL    HW128199   1.325   0.213   1.684 -0.1259 -1.0682  0.4352
 5579SOL    HW228200   1.312   0.315   1.791  2.2550 -0.2834 -1.1966
 5580SOL     OW28201   0.906   4.036   8.992  0.0002 -0.3347  0.0240
 5580SOL    HW128202   0.946   4.065   9.074 -0.1770  1.2715 -0.4555
 5580SOL    HW228203   0.939   3.947   8.991  2.1151  0.4462  0.6079
 5581SOL     OW28204   0.285   1.035   7.162  0.2538 -0.6114 -0.0195
 5581SOL    HW128205   0.335   1.041   7.243  0.8559  2.0047 -0.5892
 5581SOL    HW228206   0.237   0.955   7.186  1.6064 -1.2239  0.6119
 5582SOL     OW28207   3.169   1.883   4.798 -0.4430 -0.4162 -0.2589
 5582SOL    HW128208   3.196   1.905   4.709 -2.6027 -0.9982 -1.0485
 5582SOL    HW228209   3.119   1.804   4.778 -0.6164 -0.7443  1.4532
 5583SOL     OW28210   1.468   0.426   0.490  0.1233  0.2580  0.1668
 5583SOL    HW128211   1.511   0.345   0.463 -0.2016  0.5236 -1.1464
 5583SOL    HW228212   1.388   0.429   0.439 -0.2478  2.5964  0.8803
 5584SOL     OW28213   3.906   4.167   5.623  0.2709  0.3541  0.1571
 5584SOL    HW128214   3.859   4.201   5.546  1.2649  1.3579 -0.0130
 5584SOL    HW228215   3.993   4.206   5.609  0.6284 -0.4262  0.2006
 5585SOL     OW28216   1.553   1.974  14.774 -0.0441 -0.0640  0.0212
 5585SOL    HW128217   1.591   2.044  14.722 -2.8503  0.4384 -1.3028
 5585SOL    HW228218   1.544   2.026  14.854  1.0278  0.5358 -0.2464
 5586SOL     OW28219   2.246   2.662   9.034  0.0510  0.2766  0.1274
 5586SOL    HW128220   2.247   2.646   8.939  0.4193 -1.6540  0.4450
 5586SOL    HW228221   2.152   2.659   9.052  0.4822  1.0099  2.4875
 5587SOL     OW28222   0.934   1.397   3.612 -0.0279  0.1666  0.4472
 5587SOL    HW128223   0.848   1.439   3.606 -1.7143 -3.4935 -0.7050
 5587SOL    HW228224   0.995   1.468   3.632 -0.7568  0.7267  0.6879
 5588SOL     OW28225   2.275   4.036   6.438 -0.8641 -0.0404 -0.9111
 5588SOL    HW128226   2.202   4.001   6.385  1.9178  0.6053 -5.1952
 5588SOL    HW228227   2.299   4.105   6.375 -1.9262  0.4854 -0.7458
 5589SOL     OW28228   4.390   2.807   2.759 -0.1446  0.0190 -0.2934
 5589SOL    HW128229   4.393   2.900   2.778  2.8345 -0.3111  0.7944
 5589SOL    HW228230   4.339   2.810   2.678  0.0449  1.4671 -0.3491
 5590SOL     OW28231   3.812   0.757  16.054  0.1926  0.1566  0.8859
 5590SOL    HW128232   3.738   0.741  16.112 -1.3961 -1.1133 -1.5172
 5590SOL    HW228233   3.856   0.673  16.045  1.0776  0.7259 -0.1854
 5591SOL     OW28234   0.638   3.367   6.215  0.4582 -0.3071  0.0348
 5591SOL    HW128235   0.625   3.419   6.136 -0.4704  0.5085  0.7234
 5591SOL    HW228236   0.579   3.294   6.198 -0.8746  0.5527  0.9390
 5592SOL     OW28237   0.735   3.534  13.068  0.0918 -0.5632 -0.1148
 5592SOL    HW128238   0.809   3.518  13.127  0.6879  1.6336 -0.2693
 5592SOL    HW228239   0.765   3.511  12.980  0.7609 -2.0314  0.4983
 5593SOL     OW28240   1.945   4.678   6.411 -0.6298  0.3430 -0.1348
 5593SOL    HW128241   1.851   4.672   6.395 -0.7545 -1.1384  1.1356
 5593SOL    HW228242   1.964   4.650   6.321 -2.3199  0.5895 -0.5495
 5594SOL     OW28243   2.295   0.600   1.655 -0.0467  1.2164 -0.0498
 5594SOL    HW128244   2.211   0.608   1.609  0.2146  3.2545 -0.1788
 5594SOL    HW228245   2.288   0.508   1.677 -1.2944  1.4157  0.4062
 5595SOL     OW28246   2.358   3.436   6.649 -0.1213 -0.3336 -0.1031
 5595SOL    HW128247   2.448   3.423   6.677  0.1960  0.9269 -0.5367
 5595SOL    HW228248   2.373   3.475   6.563 -0.2698  1.5787  0.7492
 5596SOL     OW28249   4.309   3.174   8.247  0.2403  0.7105  0.2075
 5596SOL    HW128250   4.312   3.265   8.276  0.9593  0.8909 -0.4536
 5596SOL    HW228251   4.222   3.168   8.209  0.7848 -3.3321 -0.4345
 5597SOL     OW28252   3.850   2.723   0.777 -0.3438  0.5307  0.5232
 5597SOL    HW128253   3.830   2.654   0.839  0.2118 -0.7658 -0.7361
 5597SOL    HW228254   3.787   2.792   0.800 -0.1647  0.4580  1.2281
 5598SOL     OW28255   0.788   3.977   8.084 -0.1088 -0.2663 -0.0546
 5598SOL    HW128256   0.737   4.017   8.014 -1.4223 -0.3373  0.8633
 5598SOL    HW228257   0.752   4.031   8.154  0.3952 -0.8228  0.6336
 5599SOL     OW28258   0.684   2.708   4.649 -0.6916 -0.0056 -0.2805
 5599SOL    HW128259   0.606   2.736   4.600 -1.1920  1.3932  1.2970
 5599SOL    HW228260   0.718   2.638   4.593  1.2189  0.7769 -0.0824
 5600SOL     OW28261   3.749   4.283   5.824 -0.6415 -0.0291  0.3784
 5600SOL    HW128262   3.653   4.284   5.816 -0.7165  0.3127  1.3665
 5600SOL    HW228263   3.773   4.232   5.747 -1.8933  0.6741 -0.4731
 5601SOL     OW28264   4.626   1.014   4.464 -0.0175 -0.1039  0.0267
 5601SOL    HW128265   4.685   0.982   4.396  0.5525 -1.4352  1.1718
 5601SOL    HW228266   4.675   1.091   4.493  0.0537  0.0344 -0.4609
 5602SOL     OW28267   0.316   3.370  11.753 -0.5486  0.3461 -0.1150
 5602SOL    HW128268   0.283   3.362  11.663 -0.6476 -2.0252  0.1207
 5602SOL    HW228269   0.340   3.462  11.768  0.9760  0.0696 -0.7736
 5603SOL     OW28270   3.546   3.374  15.986 -0.5025 -0.5835 -0.6128
 5603SOL    HW128271   3.578   3.346  16.072  1.2337  1.0583 -0.7225
 5603SOL    HW228272   3.626   3.384  15.935  0.1383  1.4927  0.7784
 5604SOL     OW28273   1.573   1.398   5.578 -0.3918  0.4141  0.4495
 5604SOL    HW128274   1.607   1.354   5.500 -0.7629  0.0828  0.4759
 5604SOL    HW228275   1.529   1.471   5.535  0.9837  1.7370  1.3227
 5605SOL     OW28276   4.597   0.766  10.805  0.4274  0.4456  0.5981
 5605SOL    HW128277   4.530   0.746  10.870 -0.2717 -0.4938 -0.4265
 5605SOL    HW228278   4.672   0.717  10.838  0.9003  0.5530 -0.3341
 5606SOL     OW28279   4.275   3.503   8.993 -0.2111  0.4245 -0.9247
 5606SOL    HW128280   4.289   3.485   8.900 -2.1839 -0.2816 -1.0699
 5606SOL    HW228281   4.366   3.502   9.024 -0.6379  0.2816  0.2990
 5607SOL     OW28282   3.889   0.387   4.036  0.1110  0.3846 -0.8763
 5607SOL    HW128283   3.928   0.462   4.080 -0.9881 -0.7529  2.0476
 5607SOL    HW228284   3.963   0.346   3.992  0.0344 -2.2879  1.4243
 5608SOL     OW28285   1.016   1.628   0.763  0.1482  0.5441 -0.1785
 5608SOL    HW128286   0.922   1.617   0.782  0.4904 -0.8204  0.7137
 5608SOL    HW228287   1.002   1.684   0.687  1.2875  0.7666 -0.2217
 5609SOL     OW28288   4.022   0.083   0.609  0.0783  0.1427  0.0680
 5609SOL    HW128289   4.107   0.083   0.654 -0.5338  0.8642  1.2258
 5609SOL    HW228290   3.979   0.158   0.650 -0.2401  0.0638 -0.1243
 5610SOL     OW28291   1.817   1.710   5.692 -0.3505 -0.4295  0.1907
 5610SOL    HW128292   1.888   1.744   5.747  0.0609  1.8091 -1.7291
 5610SOL    HW228293   1.774   1.794   5.677  2.4900  0.7828 -1.1923
 5611SOL     OW28294   0.953   0.921   2.764  0.1389  0.0299 -0.1978
 5611SOL    HW128295   1.018   0.991   2.772 -1.4010  1.7889 -2.9290
 5611SOL    HW228296   0.874   0.967   2.791 -0.1451 -1.5187  1.6031
 5612SOL     OW28297   4.262   3.177   2.178  0.6188 -0.1127 -0.2053
 5612SOL    HW128298   4.211   3.209   2.104 -1.1722  0.5742  1.3274
 5612SOL    HW228299   4.276   3.258   2.226 -0.9453  1.7485 -2.8948
 5613SOL     OW28300   4.255   2.254   1.927 -0.1154 -0.0155  0.2441
 5613SOL    HW128301   4.187   2.311   1.892  1.0107 -0.2376 -2.3001
 5613SOL    HW228302   4.328   2.281   1.871  0.7463 -1.8902  0.4503
 5614SOL     OW28303   1.846   0.577   1.755  0.6691  0.0260 -0.2868
 5614SOL    HW128304   1.777   0.542   1.810  0.6126 -2.6147 -2.0671
 5614SOL    HW228305   1.916   0.593   1.819  0.7938 -0.9199 -0.1899
 5615SOL     OW28306   0.605   0.190  12.809  0.7404  0.0813  0.6298
 5615SOL    HW128307   0.669   0.120  12.823  0.8598 -0.3196 -1.9273
 5615SOL    HW228308   0.655   0.239  12.743  2.3658  0.6257  2.2907
 5616SOL     OW28309   1.692   0.483   6.224  0.1771  0.1852 -0.6368
 5616SOL    HW128310   1.755   0.447   6.286  1.5557  2.5951 -0.6352
 5616SOL    HW228311   1.633   0.534   6.279  0.6630  1.3150 -1.1604
 5617SOL     OW28312   4.604   1.282  14.998 -0.0932 -0.7197  0.0644
 5617SOL    HW128313   4.611   1.366  14.952 -2.4664 -0.8990 -0.6300
 5617SOL    HW228314   4.676   1.229  14.964  1.0177  1.5873 -1.2272
 5618SOL     OW28315   3.343   0.024   1.002 -0.1732 -0.0628  0.1509
 5618SOL    HW128316   3.309   0.107   1.036 -0.6113 -0.3346  0.3771
 5618SOL    HW228317   3.331   0.047   0.910 -2.2073  1.5735  0.8223
 5619SOL     OW28318   4.096   2.734   9.163 -0.0885 -0.7120  0.3212
 5619SOL    HW128319   4.058   2.820   9.146  0.7024 -0.2393  0.9776
 5619SOL    HW228320   4.028   2.699   9.220  0.5501 -2.3536  0.0849
 5620SOL     OW28321   4.027   0.939   9.192 -0.0580  0.2789  0.2087
 5620SOL    HW128322   3.986   1.017   9.230  0.6313 -0.7709  3.1468
 5620SOL    HW228323   4.079   0.917   9.270  1.2695 -2.7823 -1.5406
 5621SOL     OW28324   0.249   4.546   2.638 -0.2082  0.2190 -0.3393
 5621SOL    HW128325   0.229   4.532   2.545  0.0592 -1.5033 -0.1306
 5621SOL    HW228326   0.217   4.465   2.677  1.8533 -0.1956  0.5043
 5622SOL     OW28327   3.865   0.044  13.580 -0.0232 -0.6173 -0.1806
 5622SOL    HW128328   3.849   0.119  13.523 -1.9016 -0.7794  0.1304
 5622SOL    HW228329   3.943   0.072  13.628 -1.1281  0.9053  0.7219
 5623SOL     OW28330   1.720   0.809   4.664  0.1921 -0.3239 -0.3691
 5623SOL    HW128331   1.639   0.854   4.687 -0.0658 -1.3458  0.7417
 5623SOL    HW228332   1.708   0.811   4.569  0.8494  0.1620 -0.4422
 5624SOL     OW28333   3.328   1.716   5.394  0.0043 -0.2275  0.3797
 5624SOL    HW128334   3.306   1.809   5.402 -0.5640 -0.5870  3.0271
 5624SOL    HW228335   3.424   1.716   5.392 -0.0177 -1.4769 -0.6811
 5625SOL     OW28336   1.286   0.390  10.145 -1.0837  0.7491  0.4545
 5625SOL    HW128337   1.379   0.416  10.148 -0.8470  0.1880 -1.8161
 5625SOL    HW228338   1.237   0.461  10.185 -2.3715 -0.2295  0.5911
 5626SOL     OW28339   3.457   3.843   1.769 -0.5294  0.3806 -0.2740
 5626SOL    HW128340   3.406   3.876   1.695 -0.4535  0.3184 -0.3542
 5626SOL    HW228341   3.436   3.751   1.756  0.8334 -0.1662  1.3599
 5627SOL     OW28342   2.440   0.877   1.064 -0.1200 -0.5527 -0.1605
 5627SOL    HW128343   2.445   0.782   1.068  2.7211 -0.2643  3.2983
 5627SOL    HW228344   2.525   0.891   1.107 -0.1294 -3.0887  0.7072
 5628SOL     OW28345   2.078   1.134   0.152 -0.3819  0.5725 -0.2062
 5628SOL    HW128346   2.008   1.068   0.146  0.9935 -1.1207  2.2667
 5628SOL    HW228347   2.161   1.086   0.157  0.0876  1.3144 -0.8201
 5629SOL     OW28348   1.074   0.121   0.592 -0.3064 -0.0790 -0.3523
 5629SOL    HW128349   1.114   0.171   0.521  2.3481 -1.3882  0.2086
 5629SOL    HW228350   1.080   0.176   0.671 -2.1187 -0.3758 -0.0083
 5630SOL     OW28351   1.900   4.240  16.017  0.7462  0.2365 -0.1737
 5630SOL    HW128352   1.935   4.329  16.019 -0.9594  0.8509  1.3739
 5630SOL    HW228353   1.809   4.258  15.994  0.4702  0.2101  0.9497
 5631SOL     OW28354   0.437   0.821   7.647 -0.1662  0.4060  0.1460
 5631SOL    HW128355   0.492   0.743   7.639  0.4553  0.8970 -0.3629
 5631SOL    HW228356   0.356   0.792   7.687 -0.2283  0.4322  0.0412
 5632SOL     OW28357   1.985   4.339   7.207  0.0000  0.2365  0.1322
 5632SOL    HW128358   1.926   4.267   7.183 -0.3067  0.2998  0.7110
 5632SOL    HW228359   2.069   4.293   7.201  1.3997  3.0665 -2.5225
 5633SOL     OW28360   3.672   0.576   7.017  0.8731 -0.6221  0.6654
 5633SOL    HW128361   3.695   0.610   7.103 -0.5137  0.9025  0.4400
 5633SOL    HW228362   3.689   0.649   6.957 -1.7600 -0.4776  0.0926
 5634SOL     OW28363   0.368   3.261   3.759  0.3254  0.0425 -0.1216
 5634SOL    HW128364   0.284   3.286   3.721 -0.5024  0.3839  1.9538
 5634SOL    HW228365   0.399   3.337   3.808  3.1092 -0.6765 -0.7671
 5635SOL     OW28366   2.750   1.130   8.142 -0.1847 -0.1409  0.5755
 5635SOL    HW128367   2.810   1.202   8.161 -0.3224  0.1043  0.0931
 5635SOL    HW228368   2.685   1.177   8.088  2.8960  2.6031 -0.7883
 5636SOL     OW28369   0.077   4.158   4.100 -0.4344 -0.2833 -0.1658
 5636SOL    HW128370   0.029   4.076   4.087  1.0009 -1.3579  1.3411
 5636SOL    HW228371   0.091   4.192   4.012  2.8370  2.3859  1.3896
 5637SOL     OW28372   0.088   3.148  16.296  0.2925 -0.2832  0.3938
 5637SOL    HW128373   4.727   3.180  16.303  0.2484  0.0096 -1.5410
 5637SOL    HW228374   0.135   3.212  16.242 -2.0610  2.0221  1.1010
 5638SOL     OW28375   2.170   2.667   5.203 -0.4219  0.0849 -0.1665
 5638SOL    HW128376   2.209   2.677   5.116 -0.2661  0.6128 -0.0351
 5638SOL    HW228377   2.247   2.628   5.245 -1.3495 -0.9006  0.6267
 5639SOL     OW28378   1.946   1.804   1.478 -0.0031  0.2948  0.3279
 5639SOL    HW128379   1.984   1.788   1.392  0.6658  0.2009  0.6421
 5639SOL    HW228380   1.856   1.779   1.455 -0.0342  1.6854 -1.0185
 5640SOL     OW28381   4.169   0.917   1.770  0.0688 -0.6068  0.1196
 5640SOL    HW128382   4.172   0.893   1.677 -2.2436  0.5103 -0.2291
 5640SOL    HW228383   4.083   0.959   1.775  1.1394  1.5008  0.9710
 5641SOL     OW28384   3.613   4.521   3.625 -0.2014 -0.5503  0.3482
 5641SOL    HW128385   3.531   4.537   3.578  0.4339  0.4971 -0.3930
 5641SOL    HW228386   3.573   4.461   3.688 -1.2201  1.3596  1.5197
 5642SOL     OW28387   3.456   3.420  11.421 -0.1968  0.2029  0.0798
 5642SOL    HW128388   3.549   3.436  11.410 -0.0461 -0.1012  0.9512
 5642SOL    HW228389   3.471   3.385  11.509  0.8801 -1.3332 -0.7029
 5643SOL     OW28390   4.151   4.273   5.655  0.1735 -0.0501 -0.1843
 5643SOL    HW128391   4.152   4.363   5.688  2.7838 -0.4961  0.8902
 5643SOL    HW228392   4.213   4.287   5.584 -0.3163 -0.5211 -0.7062
 5644SOL     OW28393   3.318   3.775   5.000 -0.4277  0.3360 -0.0651
 5644SOL    HW128394   3.240   3.800   4.950 -1.3623 -1.9961  0.2110
 5644SOL    HW228395   3.375   3.749   4.929  1.3334  3.5799  0.1693
 5645SOL     OW28396   1.070   0.711   4.468 -0.4063 -0.4426  0.2729
 5645SOL    HW128397   1.032   0.687   4.383  1.1033  1.4506 -0.9369
 5645SOL    HW228398   1.163   0.693   4.453 -0.2000 -0.9782  2.1865
 5646SOL     OW28399   3.866   1.178   6.864 -0.0067 -0.1922  0.4518
 5646SOL    HW128400   3.903   1.228   6.791 -1.4692  0.9373  0.4871
 5646SOL    HW228401   3.785   1.150   6.821  0.9432 -1.7610 -0.3363
 5647SOL     OW28402   2.990   0.818  14.454  0.0944  0.3019  0.0812
 5647SOL    HW128403   2.959   0.901  14.419 -1.0086  0.0876  0.5650
 5647SOL    HW228404   3.049   0.851  14.522 -0.9488 -1.3814  1.7951
 5648SOL     OW28405   1.580   0.933   3.154  0.2674 -0.2618 -0.4601
 5648SOL    HW128406   1.510   0.876   3.122  1.8499 -2.6996  0.3870
 5648SOL    HW228407   1.653   0.874   3.139 -0.1510 -1.1580  0.9945
 5649SOL     OW28408   3.789   1.706   8.404  0.5780 -0.6394 -0.2669
 5649SOL    HW128409   3.838   1.641   8.455 -1.4875 -0.0276  2.5049
 5649SOL    HW228410   3.839   1.712   8.323 -0.4623 -1.3225 -0.9508
 5650SOL     OW28411   0.002   4.552  15.684 -0.0792  1.0745 -0.4318
 5650SOL    HW128412   0.077   4.492  15.680 -1.9944 -1.3436 -0.4456
 5650SOL    HW228413   0.032   4.620  15.624  1.4537 -0.2600 -1.1662
 5651SOL     OW28414   4.188   4.400  16.247 -0.5547 -0.3830  0.4924
 5651SOL    HW128415   4.242   4.330  16.211  1.7291  1.6149  0.0438
 5651SOL    HW228416   4.134   4.353  16.310 -2.2474  2.3167  1.0534
 5652SOL     OW28417   3.185   3.979  12.428  0.4922  0.0200  0.2110
 5652SOL    HW128418   3.252   4.038  12.463  2.5107 -0.9879 -1.9483
 5652SOL    HW228419   3.182   3.908  12.492  1.5701 -0.7246 -0.5608
 5653SOL     OW28420   3.683   0.137   0.482  0.2190 -0.0808  0.3166
 5653SOL    HW128421   3.711   0.213   0.431 -0.5110  2.2423  3.3141
 5653SOL    HW228422   3.694   0.176   0.569  0.3594  0.0719  0.2285
 5654SOL     OW28423   2.886   0.402   4.912 -0.0239 -0.4167  0.1982
 5654SOL    HW128424   2.956   0.360   4.961 -0.4325 -0.6591  0.5767
 5654SOL    HW228425   2.867   0.478   4.967  0.1741  0.5393 -1.0565
 5655SOL     OW28426   1.795   3.723  13.146 -0.0260  0.0393 -0.2572
 5655SOL    HW128427   1.725   3.677  13.101  0.5490 -1.9970  0.9274
 5655SOL    HW228428   1.803   3.799  13.089 -1.7788  0.5379  0.1661
 5656SOL     OW28429   2.928   3.072   3.206 -0.0303 -0.2824 -0.1531
 5656SOL    HW128430   2.978   3.118   3.139  1.6349 -0.2808  1.0893
 5656SOL    HW228431   2.894   2.996   3.158 -1.4435 -0.3574  0.9514
 5657SOL     OW28432   3.106   1.775   5.616  0.0969 -0.0922  0.5452
 5657SOL    HW128433   3.201   1.782   5.603  0.1813  0.0309  1.2195
 5657SOL    HW228434   3.085   1.686   5.645 -1.5907 -0.0373 -0.4817
 5658SOL     OW28435   1.949   4.480   0.195  0.3215 -0.7296 -0.2720
 5658SOL    HW128436   1.918   4.436   0.116  1.6469 -0.5228 -0.9219
 5658SOL    HW228437   1.952   4.422   0.271 -0.5994 -0.1050  0.2350
 5659SOL     OW28438   1.913   1.288  16.770 -0.6471  0.0017 -0.2217
 5659SOL    HW128439   1.826   1.299  16.810 -0.9243 -2.1624 -0.2530
 5659SOL    HW228440   1.958   1.366  16.801  2.0941 -1.0952 -1.4153
 5660SOL     OW28441   2.290   4.434   4.930  0.4724  0.0163 -0.1789
 5660SOL    HW128442   2.356   4.500   4.950  2.4477 -2.6977  2.0674
 5660SOL    HW228443   2.339   4.358   4.960 -2.4238 -1.4069  0.9630
 5661SOL     OW28444   1.011   0.550  17.678 -0.2719  0.0249 -0.6867
 5661SOL    HW128445   0.973   0.473   0.006 -4.0249  2.5189  0.4936
 5661SOL    HW228446   0.955   0.623  17.706 -0.9404 -0.4979 -0.6573
 5662SOL     OW28447   3.386   0.549   3.282 -0.1115 -0.2253  0.8562
 5662SOL    HW128448   3.369   0.643   3.279 -0.1843 -0.2134  1.6483
 5662SOL    HW228449   3.480   0.539   3.297  0.1349 -0.3316 -0.8503
 5663SOL     OW28450   0.435   2.778   8.092  0.2121  0.1412 -0.3884
 5663SOL    HW128451   0.453   2.696   8.048  2.7825 -0.5943  2.0482
 5663SOL    HW228452   0.517   2.822   8.070  0.0256  1.2805  1.1593
 5664SOL     OW28453   3.243   0.120   4.549 -0.5390  0.0800 -0.2209
 5664SOL    HW128454   3.185   0.098   4.623  0.3277  1.0127  0.7484
 5664SOL    HW228455   3.294   0.039   4.557 -0.6563  0.1368  1.1860
 5665SOL     OW28456   0.898   4.043   9.664  0.7978 -0.2142  0.4327
 5665SOL    HW128457   0.845   3.975   9.622  1.9405 -0.7127 -0.2319
 5665SOL    HW228458   0.983   3.998   9.658  0.8694 -0.0231 -0.0102
 5666SOL     OW28459   4.623   0.840   2.038  0.0537  0.4151  0.4823
 5666SOL    HW128460   4.550   0.885   1.994  1.2688  2.7301  0.8944
 5666SOL    HW228461   4.662   0.914   2.083  0.6942 -0.5431  1.4976
 5667SOL     OW28462   4.102   2.995   9.058 -0.3171  0.0842 -0.5883
 5667SOL    HW128463   4.113   3.089   9.043 -0.1191  0.2169  0.3668
 5667SOL    HW228464   4.019   2.983   9.012 -1.2007  2.6115  0.3056
 5668SOL     OW28465   1.127   3.898   8.614  0.3613 -0.5432 -0.8401
 5668SOL    HW128466   1.037   3.913   8.643  0.9898  0.2487  0.6991
 5668SOL    HW228467   1.178   3.973   8.643 -0.5412  0.3566 -1.5771
 5669SOL     OW28468   1.059   0.061  17.381  0.2482 -0.4326 -0.0158
 5669SOL    HW128469   1.054   4.706  17.334  1.3922 -0.4263 -0.1599
 5669SOL    HW228470   0.967   0.084  17.388 -0.0776 -2.5718  2.4598
 5670SOL     OW28471   4.672   4.077  15.149  0.2191 -0.1685 -0.3886
 5670SOL    HW128472   4.587   4.076  15.195  0.8401  1.5006  0.8028
 5670SOL    HW228473   4.653   4.053  15.059 -0.4410 -0.4546 -0.1795
 5671SOL     OW28474   2.145   1.342   8.180 -0.5412 -0.3374  0.0415
 5671SOL    HW128475   2.104   1.256   8.175  1.2579 -1.0430 -2.5486
 5671SOL    HW228476   2.107   1.381   8.101  1.3028  2.2469  0.4180
 5672SOL     OW28477   0.891   3.539   1.149 -0.1055 -0.5271 -0.5434
 5672SOL    HW128478   0.827   3.607   1.127  0.2801  0.4523  1.3760
 5672SOL    HW228479   0.880   3.495   1.065 -0.5154 -1.4380 -0.0177
 5673SOL     OW28480   0.381   4.169   9.264 -0.5381  0.7026 -0.2552
 5673SOL    HW128481   0.387   4.263   9.283  1.4731  0.9461 -2.0839
 5673SOL    HW228482   0.429   4.158   9.182  0.5128  2.0092  0.1797
 5674SOL     OW28483   1.520   0.308   4.821 -0.2804 -0.8119 -0.2992
 5674SOL    HW128484   1.520   0.274   4.731  0.1007  2.6899 -1.6234
 5674SOL    HW228485   1.571   0.239   4.863 -1.3771 -0.0680  2.2402
 5675SOL     OW28486   4.112   0.572   3.775  0.1073  0.2126 -0.0635
 5675SOL    HW128487   4.159   0.640   3.726  0.3596  1.9597  2.5821
 5675SOL    HW228488   4.132   0.602   3.864  0.6090 -0.7583  0.1520
 5676SOL     OW28489   3.732   0.612  14.820 -0.1515  0.6499  0.0454
 5676SOL    HW128490   3.795   0.556  14.865  0.1149 -0.5587 -1.8311
 5676SOL    HW228491   3.713   0.557  14.744 -3.5069  0.3853  1.0855
 5677SOL     OW28492   2.379   3.385   1.794 -0.3747 -0.4728 -0.0566
 5677SOL    HW128493   2.418   3.369   1.708 -0.9686 -3.0028  0.1499
 5677SOL    HW228494   2.460   3.399   1.842 -0.4604 -1.5602  0.4157
 5678SOL     OW28495   1.768   4.728  13.877 -0.3395  0.4133  0.0222
 5678SOL    HW128496   1.861   0.019  13.883 -0.3374  0.0384  1.1719
 5678SOL    HW228497   1.760   4.652  13.819  0.6981  0.5832 -0.3384
 5679SOL     OW28498   2.550   1.570   8.971  0.2180 -0.3220 -0.2579
 5679SOL    HW128499   2.583   1.609   8.890 -1.2969 -0.2979 -0.8560
 5679SOL    HW228500   2.472   1.625   8.972  0.9252  0.7506 -2.7474
 5680SOL     OW28501   0.114   1.153   5.420 -0.3938  0.3609 -0.5728
 5680SOL    HW128502   0.073   1.240   5.424  0.2967  0.6131  0.8274
 5680SOL    HW228503   0.177   1.161   5.491  0.0549  1.6209 -1.1084
 5681SOL     OW28504   1.014   0.371   9.219  0.0943  0.1164 -1.0757
 5681SOL    HW128505   1.094   0.390   9.170  1.8750 -0.2204  1.7002
 5681SOL    HW228506   0.964   0.322   9.154  0.4490  1.9144 -2.7019
 5682SOL     OW28507   3.752   0.219   3.314 -0.3048  0.0128  0.2661
 5682SOL    HW128508   3.798   0.147   3.270 -1.7478 -1.0946  0.5679
 5682SOL    HW228509   3.727   0.172   3.394 -0.5277 -0.8093 -0.2805
 5683SOL     OW28510   3.911   3.649   9.165 -0.0289  0.3233 -0.2154
 5683SOL    HW128511   3.920   3.644   9.260 -0.8713 -1.4406 -0.2199
 5683SOL    HW228512   4.006   3.654   9.150 -0.0370  0.1056 -0.3369
 5684SOL     OW28513   3.442   0.034  10.000 -0.7945  0.0137 -0.7136
 5684SOL    HW128514   3.458   0.027   9.906  0.5452 -1.6149 -0.3641
 5684SOL    HW228515   3.532   0.036  10.033 -0.8355  2.2030 -0.7490
 5685SOL     OW28516   3.062   0.456   9.108 -0.3908  0.2499 -0.4497
 5685SOL    HW128517   3.122   0.385   9.087 -1.0485 -0.5434  0.4022
 5685SOL    HW228518   3.045   0.451   9.202 -2.4612  0.1791 -0.8268
 5686SOL     OW28519   3.780   0.526  16.333 -0.0736 -0.3231 -0.3688
 5686SOL    HW128520   3.844   0.482  16.389  0.2031 -0.5431 -0.8622
 5686SOL    HW228521   3.724   0.454  16.303 -1.8076  0.9240 -0.1159
 5687SOL     OW28522   2.920   1.204   6.610 -0.1608  0.2949 -0.8058
 5687SOL    HW128523   2.832   1.228   6.641  0.4905  0.4270  0.9333
 5687SOL    HW228524   2.934   1.114   6.639  0.1020 -0.2712 -2.7248
 5688SOL     OW28525   0.371   3.458   1.845  0.2554  0.7303  0.6844
 5688SOL    HW128526   0.391   3.379   1.896  0.1947 -0.5413 -1.2805
 5688SOL    HW228527   0.453   3.508   1.855  0.1896  0.8119  0.8172
 5689SOL     OW28528   4.439   0.063   2.518  0.7282 -0.2036  0.0768
 5689SOL    HW128529   4.532   0.084   2.524  0.3000  1.8710 -0.5009
 5689SOL    HW228530   4.403   0.152   2.515 -0.9225 -0.9097 -0.5361
 5690SOL     OW28531   2.384   0.237   6.821 -0.3139  0.3268  0.0618
 5690SOL    HW128532   2.396   0.244   6.916 -0.1305  0.5443  0.0219
 5690SOL    HW228533   2.291   0.221   6.808 -0.1264  0.0067 -0.8698
 5691SOL     OW28534   2.936   3.851   2.935 -0.0343  0.4830 -0.9271
 5691SOL    HW128535   2.855   3.837   2.885 -0.2958  1.0877 -0.6784
 5691SOL    HW228536   2.984   3.922   2.892 -1.1995 -0.1185 -3.1873
 5692SOL     OW28537   3.717   1.732   9.906  0.3889  0.6314  0.9124
 5692SOL    HW128538   3.752   1.696   9.988  2.1583 -2.2192 -1.1087
 5692SOL    HW228539   3.749   1.822   9.913 -1.1138  1.1636  0.8884
 5693SOL     OW28540   2.303   0.835   1.370 -0.3581 -0.1537  0.1610
 5693SOL    HW128541   2.327   0.831   1.277 -0.0588 -1.7434  0.3136
 5693SOL    HW228542   2.210   0.814   1.363 -0.9943  2.2269  1.6633
 5694SOL     OW28543   0.720   0.785   1.763 -0.0272 -0.4568  0.3904
 5694SOL    HW128544   0.716   0.849   1.834 -0.8394 -1.0321  0.8664
 5694SOL    HW228545   0.739   0.853   1.699  1.7694  0.2184  1.6564
 5695SOL     OW28546   3.480   0.802   9.324 -0.0808 -0.0344 -0.2328
 5695SOL    HW128547   3.464   0.811   9.418 -0.0736  3.0497 -0.4978
 5695SOL    HW228548   3.440   0.883   9.291  3.0078  1.6947  0.2222
 5696SOL     OW28549   4.352   3.937  13.396 -0.0145 -0.5150 -0.2433
 5696SOL    HW128550   4.320   3.867  13.339  0.3748 -0.2208 -0.8275
 5696SOL    HW228551   4.358   3.897  13.483 -0.3715  0.6594  0.3228
 5697SOL     OW28552   1.142   3.702   3.310  0.5692 -0.0165  0.5514
 5697SOL    HW128553   1.222   3.723   3.261  0.6776 -0.5707  0.4923
 5697SOL    HW228554   1.170   3.732   3.396  0.6664 -1.1918  0.9215
 5698SOL     OW28555   0.169   1.553   4.117 -0.7178 -0.5483 -0.4677
 5698SOL    HW128556   0.229   1.576   4.188  0.0359 -1.2034 -0.8842
 5698SOL    HW228557   0.084   1.544   4.160  0.2975  1.7680  2.0227
 5699SOL     OW28558   4.052   1.665   1.129 -0.0560  0.3042 -0.5179
 5699SOL    HW128559   4.086   1.577   1.114 -0.1853  0.0982  0.4211
 5699SOL    HW228560   3.999   1.677   1.050 -0.3683  3.6112  0.1746
 5700SOL     OW28561   0.603   1.559  15.563  0.3349  0.3502 -0.3822
 5700SOL    HW128562   0.607   1.645  15.521  3.8553  0.0095 -0.7349
 5700SOL    HW228563   0.690   1.529  15.541 -0.7177 -0.0941 -3.8912
 5701SOL     OW28564   4.437   4.618   5.019  0.0286 -0.6985 -0.4491
 5701SOL    HW128565   4.507   4.654   4.964 -0.0497  0.0443 -0.0627
 5701SOL    HW228566   4.382   4.696   5.015  1.1232  0.0862 -0.2236
 5702SOL     OW28567   1.591   0.012   8.629 -0.3955 -0.0349 -0.1736
 5702SOL    HW128568   1.554   0.089   8.586 -0.2266  0.1621  0.0386
 5702SOL    HW228569   1.509   4.703   8.662  0.4900 -0.0324  1.9962
 5703SOL     OW28570   1.687   3.878   2.547 -0.5263  0.1497  0.1727
 5703SOL    HW128571   1.753   3.853   2.482 -0.1943 -1.6193  1.2120
 5703SOL    HW228572   1.708   3.971   2.554 -0.4318  0.2256 -1.1113
 5704SOL     OW28573   0.491   1.120   6.906  0.1382  0.2936 -0.1764
 5704SOL    HW128574   0.403   1.147   6.932  0.1001  0.9779 -1.0118
 5704SOL    HW228575   0.465   1.065   6.832  0.1936  0.5091 -0.3567
 5705SOL     OW28576   0.106   0.349   2.367 -0.6028  0.1646 -0.0763
 5705SOL    HW128577   0.033   0.408   2.389  0.4878  0.5304  2.4706
 5705SOL    HW228578   0.070   0.261   2.373 -0.5545  0.1074 -0.5875
 5706SOL     OW28579   1.871   4.124   9.689  0.6021  0.0042 -0.5258
 5706SOL    HW128580   1.869   4.215   9.720  0.4625  0.6848 -2.5448
 5706SOL    HW228581   1.825   4.129   9.605 -1.0758 -1.9283  0.2793
 5707SOL     OW28582   0.411   0.456  15.809  0.4841 -0.4657  0.1172
 5707SOL    HW128583   0.463   0.410  15.743 -0.7095 -1.2589 -0.2832
 5707SOL    HW228584   0.343   0.496  15.754 -0.1364 -0.1357  1.1234
 5708SOL     OW28585   4.274   2.395   3.906  0.4391 -0.9757 -0.3427
 5708SOL    HW128586   4.184   2.408   3.935 -0.0478 -3.2168 -0.8358
 5708SOL    HW228587   4.258   2.423   3.816  2.9426 -2.8308 -1.3676
 5709SOL     OW28588   1.436   2.062   4.547 -0.6301  0.7143 -0.5596
 5709SOL    HW128589   1.389   2.132   4.592 -0.0511  1.6740 -1.4360
 5709SOL    HW228590   1.482   2.025   4.622 -0.6851  0.3044 -0.7292
 5710SOL     OW28591   4.719   3.366  14.037  0.7253  0.3021  0.1396
 5710SOL    HW128592   0.053   3.305  14.076  1.4266  0.8271 -0.1461
 5710SOL    HW228593   4.641   3.359  14.092 -0.3059  0.3707 -1.3167
 5711SOL     OW28594   3.009   0.255   3.315 -0.1570  0.1005  0.1606
 5711SOL    HW128595   2.921   0.282   3.291 -0.0985 -0.9204 -1.1551
 5711SOL    HW228596   3.021   0.323   3.382  1.2950  1.1221 -1.1244
 5712SOL     OW28597   3.172   2.714   3.049  0.0493  0.2349 -0.0756
 5712SOL    HW128598   3.202   2.723   2.959  1.2308  4.0421  0.6897
 5712SOL    HW228599   3.122   2.796   3.051 -0.1559  0.0931  0.6925
 5713SOL     OW28600   2.203   4.442  11.285  0.1820  0.2568 -0.0088
 5713SOL    HW128601   2.289   4.443  11.326  0.7144  0.9382 -1.1443
 5713SOL    HW228602   2.214   4.524  11.236  1.9773  0.3176  0.5190
 5714SOL     OW28603   1.361   1.120   2.885 -0.4422  0.6095 -0.6333
 5714SOL    HW128604   1.304   1.180   2.932  1.2301  1.2411  0.5458
 5714SOL    HW228605   1.320   1.137   2.800 -0.7023 -0.8227 -0.7972
 5715SOL     OW28606   1.995   1.253   2.748  0.6469  0.2841  0.2292
 5715SOL    HW128607   1.995   1.341   2.709  0.3825 -0.0220 -0.4505
 5715SOL    HW228608   1.918   1.267   2.802  0.4710  3.3923 -0.7806
 5716SOL     OW28609   2.761   0.740   8.890  0.0917  0.4818 -0.2020
 5716SOL    HW128610   2.777   0.649   8.913 -0.2688  0.2497 -0.8710
 5716SOL    HW228611   2.678   0.726   8.845 -0.1405  0.9707  0.0779
 5717SOL     OW28612   0.965   3.509   5.417 -0.5003 -0.1057  0.5727
 5717SOL    HW128613   0.974   3.553   5.501 -1.0604 -1.6692  1.4577
 5717SOL    HW228614   0.901   3.569   5.377 -1.5249 -1.1197  0.6809
 5718SOL     OW28615   4.406   3.250  12.977 -0.0307 -0.0266  0.2859
 5718SOL    HW128616   4.431   3.171  13.025 -0.5822  1.5780  3.2322
 5718SOL    HW228617   4.450   3.319  13.026  0.1994 -0.9691  1.4220
 5719SOL     OW28618   0.204   4.227   0.622  0.8430 -0.5355  0.2126
 5719SOL    HW128619   0.185   4.298   0.560 -1.4199 -2.1855 -0.9870
 5719SOL    HW228620   0.118   4.205   0.658  0.6451 -0.1689 -0.0408
 5720SOL     OW28621   2.063   0.887   0.426 -0.1801 -0.3263  0.0595
 5720SOL    HW128622   2.102   0.845   0.349 -0.6922 -0.2856 -0.2205
 5720SOL    HW228623   2.037   0.971   0.391  1.7020 -0.7919 -2.4342
 5721SOL     OW28624   3.208   4.251   0.844 -0.0396  0.3521  0.0962
 5721SOL    HW128625   3.134   4.304   0.813 -0.3497 -0.6003 -0.7856
 5721SOL    HW228626   3.259   4.210   0.773  0.3668  0.5711  0.2639
 5722SOL     OW28627   4.656   0.406  11.781  0.2792  0.3137  0.1564
 5722SOL    HW128628   4.568   0.368  11.788  0.0499  0.9272  0.5911
 5722SOL    HW228629   4.714   0.333  11.800 -0.9442 -0.2173  1.8807
 5723SOL     OW28630   3.829   4.158   6.467 -0.0382  0.1731 -0.4505
 5723SOL    HW128631   3.748   4.134   6.422 -1.7993 -0.7038  3.2193
 5723SOL    HW228632   3.889   4.104   6.415 -0.3587 -1.4633  0.8770
 5724SOL     OW28633   0.992   1.301   8.419 -0.2670 -0.0767 -0.3773
 5724SOL    HW128634   1.067   1.281   8.363 -0.7797  0.2045 -1.1662
 5724SOL    HW228635   1.043   1.330   8.495 -1.3265 -0.4491  0.4875
 5725SOL     OW28636   1.048   2.151   4.157  0.1632  0.0761  0.4543
 5725SOL    HW128637   1.107   2.218   4.122  1.4326 -1.1228  0.3011
 5725SOL    HW228638   1.102   2.073   4.145  0.5442  0.3817  0.1830
 5726SOL     OW28639   4.403   0.517   7.973 -0.3731  0.4265 -0.0191
 5726SOL    HW128640   4.424   0.486   8.061 -2.1164 -2.5041 -0.6477
 5726SOL    HW228641   4.478   0.479   7.928  0.6236  1.3202  0.8666
 5727SOL     OW28642   4.317   4.228   9.942 -0.0661  0.2880  0.5844
 5727SOL    HW128643   4.234   4.270   9.962  0.9718  2.6064 -0.0336
 5727SOL    HW228644   4.322   4.164  10.013  0.6035  0.5703  0.7902
 5728SOL     OW28645   4.239   2.383   9.991  0.5227  0.5047 -0.4194
 5728SOL    HW128646   4.148   2.408  10.005  0.5470 -0.7689  2.0635
 5728SOL    HW228647   4.224   2.290   9.972 -0.9387  0.9512 -1.4716
 5729SOL     OW28648   1.615   3.551   3.015  0.3377  0.2438  0.1989
 5729SOL    HW128649   1.544   3.501   2.977 -1.1800  2.4948  0.0690
 5729SOL    HW228650   1.641   3.494   3.087 -0.7572 -0.0174  0.3790
 5730SOL     OW28651   0.926   2.945   7.049 -0.1087  0.4966 -0.2166
 5730SOL    HW128652   0.966   2.867   7.087  0.9656 -0.1032 -2.6018
 5730SOL    HW228653   0.831   2.940   7.064  0.1025 -2.2936  0.0865
 5731SOL     OW28654   2.454   0.252   1.533  0.3225 -0.3086  0.5620
 5731SOL    HW128655   2.545   0.233   1.556  0.1545 -0.5132  1.0631
 5731SOL    HW228656   2.439   0.201   1.454  1.8193 -0.8503  0.6214
 5732SOL     OW28657   1.359   3.155  13.764 -0.4474 -0.3584 -0.6333
 5732SOL    HW128658   1.274   3.199  13.764  0.9743  2.3025  2.3645
 5732SOL    HW228659   1.361   3.114  13.677  1.2802 -0.6680 -0.4365
 5733SOL     OW28660   1.673   4.143  11.724 -0.1766  0.0130 -1.0805
 5733SOL    HW128661   1.583   4.166  11.747 -0.7269 -1.4217 -1.7961
 5733SOL    HW228662   1.713   4.186  11.800  0.4767 -0.9693 -0.8673
 5734SOL     OW28663   0.502   3.449  12.321 -0.3670 -0.5065  0.1949
 5734SOL    HW128664   0.413   3.459  12.354 -0.9605 -0.0647 -1.5071
 5734SOL    HW228665   0.544   3.531  12.344 -0.0891 -0.4831 -0.3732
 5735SOL     OW28666   1.188   2.535   7.562  0.1673 -0.0548  0.2658
 5735SOL    HW128667   1.274   2.541   7.603  1.8948  1.7996 -3.6158
 5735SOL    HW228668   1.142   2.499   7.638  1.3757 -0.2502  0.9066
 5736SOL     OW28669   2.394   1.073   9.484 -0.5304 -0.7849  0.3855
 5736SOL    HW128670   2.339   1.032   9.417 -1.3991  0.4420  0.3346
 5736SOL    HW228671   2.462   1.006   9.481 -0.2681 -0.4548 -1.0570
 5737SOL     OW28672   0.401   4.165   9.984  0.0673 -0.1909 -0.2991
 5737SOL    HW128673   0.315   4.206   9.970 -0.3886 -0.5298  1.5327
 5737SOL    HW228674   0.435   4.226  10.049 -1.4336  0.8743 -0.4966
 5738SOL     OW28675   2.157   1.391  15.511  0.1519 -0.0468  0.1750
 5738SOL    HW128676   2.087   1.444  15.475 -1.6666 -1.4315  1.6776
 5738SOL    HW228677   2.132   1.300  15.497  1.3773 -0.6144  1.6595
 5739SOL     OW28678   1.839   3.873   1.983  0.5038  0.7016 -0.7296
 5739SOL    HW128679   1.882   3.837   2.061 -0.0444  0.3276 -0.5972
 5739SOL    HW228680   1.755   3.900   2.020 -0.5008 -0.9327 -1.8050
 5740SOL     OW28681   1.165   0.890   7.164 -0.1535 -0.1011 -0.0527
 5740SOL    HW128682   1.103   0.832   7.207  1.4157 -0.1946  2.0812
 5740SOL    HW228683   1.169   0.957   7.233  1.0174 -1.8832  1.6402
 5741SOL     OW28684   0.614   1.367   6.745  0.0598  0.4941 -0.8005
 5741SOL    HW128685   0.646   1.281   6.772  0.2569  0.6829 -0.4387
 5741SOL    HW228686   0.524   1.365   6.779  0.0617  3.3001 -0.6004
 5742SOL     OW28687   4.384   2.663   7.166  0.2817 -0.3162 -0.7569
 5742SOL    HW128688   4.353   2.591   7.111  0.9065 -1.0695 -0.1338
 5742SOL    HW228689   4.321   2.668   7.238  1.0054  0.6186 -0.1950
 5743SOL     OW28690   1.621   0.141   9.472 -0.6102 -0.6142 -0.4361
 5743SOL    HW128691   1.636   0.229   9.436 -0.6140 -0.0225  0.9997
 5743SOL    HW228692   1.609   0.087   9.394  0.3017 -0.6061 -0.5808
 5744SOL     OW28693   1.754   3.801   1.434 -0.0188  0.2784 -0.2851
 5744SOL    HW128694   1.764   3.747   1.513  1.7274  0.0172 -0.6813
 5744SOL    HW228695   1.731   3.884   1.475  0.3833  1.7558 -3.0879
 5745SOL     OW28696   3.053   1.278   3.874 -0.4530  0.1674  0.1758
 5745SOL    HW128697   3.049   1.372   3.893  1.5378  0.2049  0.3929
 5745SOL    HW228698   3.045   1.231   3.957 -1.4664  3.0924  1.7097
 5746SOL     OW28699   0.704   2.314  12.703  0.3690  0.0722  0.2542
 5746SOL    HW128700   0.748   2.399  12.697  0.2910  0.0146 -1.0053
 5746SOL    HW228701   0.635   2.346  12.761  0.5170  2.3766 -0.8150
 5747SOL     OW28702   0.827   3.623   1.527  0.1435  0.1101  0.0990
 5747SOL    HW128703   0.890   3.559   1.496 -0.2962 -0.2103 -0.1278
 5747SOL    HW228704   0.871   3.705   1.505 -2.4357  1.1153 -1.3005
 5748SOL     OW28705   0.073   3.441   3.062  0.6592  0.1582  0.2294
 5748SOL    HW128706   0.078   3.531   3.028 -0.0126  0.3475  0.6265
 5748SOL    HW228707   0.127   3.402   2.993  1.3896  0.3546  0.6855
 5749SOL     OW28708   3.952   4.518  13.451 -0.7208  0.3494 -0.0408
 5749SOL    HW128709   4.037   4.510  13.495  0.1407  0.4659 -1.7113
 5749SOL    HW228710   3.909   4.580  13.510 -3.1124 -1.8066  0.4699
 5750SOL     OW28711   2.789   0.349   6.194 -0.6953  0.0647  0.1974
 5750SOL    HW128712   2.879   0.346   6.162 -1.0377  1.9877 -0.9433
 5750SOL    HW228713   2.770   0.429   6.146  1.5925  2.1183  2.6975
 5751SOL     OW28714   2.139   3.138  15.864 -0.3690 -0.7791  0.2478
 5751SOL    HW128715   2.078   3.124  15.938 -2.1682  1.8938 -0.7259
 5751SOL    HW228716   2.222   3.126  15.911  0.0837 -0.1691 -0.4145
 5752SOL     OW28717   0.528   0.226   9.874  0.4151 -0.2892 -0.0051
 5752SOL    HW128718   0.575   0.149   9.843  1.3652  0.2467  0.0942
 5752SOL    HW228719   0.450   0.180   9.905  0.4247  0.2851  0.8671
 5753SOL     OW28720   4.308   2.394   8.779 -0.2087  0.1728 -0.1495
 5753SOL    HW128721   4.367   2.460   8.741 -0.6781  0.3744 -0.5378
 5753SOL    HW228722   4.271   2.442   8.853  0.3877  0.2165  0.1218
 5754SOL     OW28723   0.239   4.727   5.870  0.6323 -0.1345  0.0590
 5754SOL    HW128724   0.199   0.078   5.835 -0.3223 -1.2301 -1.3681
 5754SOL    HW228725   0.269   0.029   5.955 -1.2220 -1.1629  1.0941
 5755SOL     OW28726   0.350   1.629   9.414  0.8550 -0.3954 -0.3925
 5755SOL    HW128727   0.272   1.625   9.359  1.6155 -0.3195 -1.4586
 5755SOL    HW228728   0.364   1.535   9.429 -1.4249 -1.1124 -2.7112
 5756SOL     OW28729   0.727   1.186  16.929  0.3576 -0.2762  0.1769
 5756SOL    HW128730   0.785   1.230  16.867 -0.9833  1.9083  0.4687
 5756SOL    HW228731   0.793   1.161  16.994  1.7897 -1.2569 -1.6484
 5757SOL     OW28732   2.697   1.643   7.500 -0.0606 -0.1627  0.2718
 5757SOL    HW128733   2.635   1.693   7.553  0.2360 -0.4272  0.8708
 5757SOL    HW228734   2.719   1.692   7.421 -1.5110 -0.3342 -0.2406
 5758SOL     OW28735   0.883   2.308  16.063 -0.2320 -0.4451 -0.0073
 5758SOL    HW128736   0.949   2.366  16.102  1.1194 -0.8868 -1.6148
 5758SOL    HW228737   0.883   2.323  15.968 -0.5613  1.7600  0.3338
 5759SOL     OW28738   3.471   4.031   3.167  0.1173 -0.1344  0.2185
 5759SOL    HW128739   3.449   4.019   3.075 -0.5726 -1.7857  0.5882
 5759SOL    HW228740   3.532   3.960   3.187  1.4202  0.7854 -0.5087
 5760SOL     OW28741   0.850   1.698   5.822  0.1648 -0.2786  0.0314
 5760SOL    HW128742   0.915   1.731   5.759 -0.7904 -3.4111 -2.6059
 5760SOL    HW228743   0.900   1.657   5.892  0.1204 -1.6508 -0.7386
 5761SOL     OW28744   1.004   3.081   0.416 -0.4768 -0.1225  0.1060
 5761SOL    HW128745   1.083   3.034   0.389 -0.7949 -0.1088 -0.8176
 5761SOL    HW228746   1.025   3.174   0.412  0.5371 -0.3165  0.7672
 5762SOL     OW28747   3.461   2.419  15.517  0.1831 -0.2347 -0.4652
 5762SOL    HW128748   3.540   2.458  15.480 -1.2987  2.3598 -0.8582
 5762SOL    HW228749   3.457   2.338  15.466  0.9926 -0.1887 -0.5962
 5763SOL     OW28750   1.955   1.266  14.617  0.5932  0.5009 -0.2733
 5763SOL    HW128751   1.921   1.350  14.649  0.5296  0.4967 -0.3315
 5763SOL    HW228752   1.945   1.281  14.523  0.7190  1.0610 -0.1995
 5764SOL     OW28753   3.601   2.179  12.221 -0.4966 -0.1280 -0.5176
 5764SOL    HW128754   3.622   2.086  12.228  0.1862 -0.1452 -3.0622
 5764SOL    HW228755   3.585   2.195  12.315  3.2159  0.6297  0.0015
 5765SOL     OW28756   1.287   1.875   6.591 -0.4394 -0.1791  0.3561
 5765SOL    HW128757   1.302   1.883   6.497  0.7861 -0.5253  0.5199
 5765SOL    HW228758   1.375   1.857   6.625 -1.4687 -1.9042  2.0695
 5766SOL     OW28759   3.452   4.337  13.475 -0.1320 -0.3337  0.0298
 5766SOL    HW128760   3.446   4.423  13.516 -5.2878 -1.3234  1.2980
 5766SOL    HW228761   3.372   4.336  13.424 -0.0092 -1.5059 -0.1505
 5767SOL     OW28762   3.432   1.309   6.436  0.1236 -0.3966 -0.3550
 5767SOL    HW128763   3.375   1.241   6.401  1.2563 -1.7373  0.3681
 5767SOL    HW228764   3.468   1.267   6.515 -0.7441  0.5818  0.5419
 5768SOL     OW28765   1.485   0.233   1.539 -0.1840  0.3900 -0.2295
 5768SOL    HW128766   1.542   0.305   1.513  0.8326 -1.2851 -2.6630
 5768SOL    HW228767   1.452   0.214   1.451  1.0138  0.8447 -0.7780
 5769SOL     OW28768   4.718   2.282   8.218 -0.2589  0.4789 -0.3344
 5769SOL    HW128769   4.706   2.350   8.284  0.3164  0.5217 -0.2797
 5769SOL    HW228770   4.643   2.224   8.233 -0.7953  0.9817 -1.0454
 5770SOL     OW28771   0.436   3.345  10.781 -0.4859  0.2243 -0.1332
 5770SOL    HW128772   0.472   3.392  10.706  0.1191  0.6818  0.4427
 5770SOL    HW228773   0.418   3.262  10.737  0.4098 -0.4280  0.7421
 5771SOL     OW28774   2.345   1.885  14.705 -0.7827 -0.2270  0.0238
 5771SOL    HW128775   2.394   1.962  14.736 -2.6581  0.9756  0.0123
 5771SOL    HW228776   2.405   1.862  14.634 -0.3228 -1.8223  0.9237
 5772SOL     OW28777   0.005   0.072   2.412  0.5707  0.0610  0.4108
 5772SOL    HW128778   0.031   0.046   2.324  0.4837 -0.2334  0.4702
 5772SOL    HW228779   4.724   4.713   2.451 -2.2442  0.3668  0.4237
 5773SOL     OW28780   2.436   2.919  12.555  0.0685  0.3908 -0.2366
 5773SOL    HW128781   2.399   2.835  12.527  0.0285  1.1312 -2.4555
 5773SOL    HW228782   2.403   2.930  12.644 -1.6442 -0.3777 -0.7807
 5774SOL     OW28783   3.564   1.726   1.157  0.5550 -0.4564  0.3140
 5774SOL    HW128784   3.582   1.756   1.067  1.2292  0.4345  0.7432
 5774SOL    HW228785   3.521   1.642   1.139  1.3367 -0.7502 -0.1462
 5775SOL     OW28786   2.278   2.410  10.629 -0.1934 -0.1494  0.1503
 5775SOL    HW128787   2.324   2.487  10.661  0.5559 -0.8372  0.7276
 5775SOL    HW228788   2.187   2.426  10.655  0.7624  1.9660  2.1986
 5776SOL     OW28789   4.250   3.544   5.821  0.4812  0.0883  0.1350
 5776SOL    HW128790   4.209   3.490   5.888 -0.5239 -0.8299 -1.2219
 5776SOL    HW228791   4.199   3.624   5.838 -1.5536 -1.0419 -0.6904
 5777SOL     OW28792   2.357   0.916   2.981  0.5653 -0.4918 -0.4630
 5777SOL    HW128793   2.321   0.849   2.923 -2.0195  1.5914 -1.2415
 5777SOL    HW228794   2.437   0.870   3.008  0.1817  0.2841  1.9778
 5778SOL     OW28795   1.610   1.374   8.751 -0.2986  0.4088  0.2177
 5778SOL    HW128796   1.634   1.283   8.733 -1.2967 -0.5310  3.5280
 5778SOL    HW228797   1.687   1.424   8.723  0.9556 -0.2756  2.4137
 5779SOL     OW28798   3.978   1.406   2.658 -0.3955  0.2476 -0.1936
 5779SOL    HW128799   4.047   1.471   2.642  0.1243 -0.7025 -1.8346
 5779SOL    HW228800   3.906   1.439   2.604 -1.5803 -1.0848  0.5561
 5780SOL     OW28801   1.001   0.457   0.504 -0.7051  0.0171 -0.5563
 5780SOL    HW128802   1.081   0.468   0.453 -1.3997  1.5005 -1.3263
 5780SOL    HW228803   1.042   0.431   0.586 -0.6104  0.4580 -0.4625
 5781SOL     OW28804   1.704   2.094   7.728  0.6947 -0.2852 -0.1114
 5781SOL    HW128805   1.727   2.038   7.654  0.2170 -1.7804  0.8815
 5781SOL    HW228806   1.741   2.045   7.802 -1.1188  1.1918  1.7534
 5782SOL     OW28807   1.694   3.094   8.294  0.3637 -0.1175 -0.1652
 5782SOL    HW128808   1.702   3.036   8.218  0.5383 -0.4673  0.1212
 5782SOL    HW228809   1.786   3.117   8.306  0.7180 -0.4821 -2.1600
 5783SOL     OW28810   2.705   2.867   2.095 -0.8169 -0.0474 -0.4557
 5783SOL    HW128811   2.769   2.895   2.161  0.6508 -0.2952 -1.7900
 5783SOL    HW228812   2.689   2.947   2.044  2.5118  0.2159 -1.1178
 5784SOL     OW28813   3.324   0.715   7.101  0.6827  0.0223  0.0050
 5784SOL    HW128814   3.282   0.720   7.014  1.5644  2.8693 -0.2705
 5784SOL    HW228815   3.332   0.809   7.119  3.1000 -0.1147 -0.3710
 5785SOL     OW28816   2.134   3.801   5.141 -0.3357 -0.0733 -0.3042
 5785SOL    HW128817   2.071   3.866   5.170  0.0416  0.2776 -0.2676
 5785SOL    HW228818   2.128   3.731   5.206 -1.3749  2.0456  1.8831
 5786SOL     OW28819   0.839   0.930   0.224  0.3349 -0.3287  0.3239
 5786SOL    HW128820   0.913   0.987   0.205 -0.3240  0.7326  0.9147
 5786SOL    HW228821   0.808   0.957   0.311  1.9483  0.3362  0.6991
 5787SOL     OW28822   0.906   3.559   9.581 -0.3737 -0.2121 -0.0024
 5787SOL    HW128823   0.935   3.472   9.608  1.3574 -0.4192 -2.5636
 5787SOL    HW228824   0.911   3.597   9.668  1.0470  1.8561 -0.9838
 5788SOL     OW28825   0.188   0.898   9.634 -0.0930  0.0099  0.1225
 5788SOL    HW128826   0.244   0.841   9.687 -1.2608 -1.1665  0.0863
 5788SOL    HW228827   0.196   0.977   9.688 -2.7932  1.3783 -1.5076
 5789SOL     OW28828   0.520   4.041  12.815 -0.0332 -0.2440 -0.6428
 5789SOL    HW128829   0.595   3.986  12.792 -0.5852 -0.8310 -1.0501
 5789SOL    HW228830   0.566   4.107  12.866 -0.9790 -0.0520 -0.0543
 5790SOL     OW28831   3.809   3.048  10.882 -0.0513 -0.1253 -0.3871
 5790SOL    HW128832   3.758   2.978  10.922  1.8757 -0.2318  1.9397
 5790SOL    HW228833   3.742   3.109  10.851 -1.1360 -0.9719  0.3039
 5791SOL     OW28834   3.248   0.267   9.048  0.4674  0.1369 -0.2395
 5791SOL    HW128835   3.322   0.322   9.071  1.0988 -0.6039 -0.5135
 5791SOL    HW228836   3.281   0.211   8.977  4.6359  2.4796 -0.1074
 5792SOL     OW28837   1.826   3.084  11.501 -0.0366 -0.0694 -0.6570
 5792SOL    HW128838   1.805   3.167  11.544 -4.0547 -0.5512 -1.6550
 5792SOL    HW228839   1.766   3.086  11.427  0.2946 -1.8101 -0.9774
 5793SOL     OW28840   2.908   4.338  12.742  0.2748 -0.3437  0.0429
 5793SOL    HW128841   2.918   4.296  12.656  1.4045  1.8227 -0.8950
 5793SOL    HW228842   2.998   4.339  12.775 -0.2312  1.4069  1.3428
 5794SOL     OW28843   1.198   0.324   8.090 -0.2735  0.0194 -0.4514
 5794SOL    HW128844   1.277   0.370   8.121  0.7398 -0.9673 -1.5680
 5794SOL    HW228845   1.227   0.269   8.017 -0.4934 -1.2562  0.4151
 5795SOL     OW28846   4.165   4.201   6.727 -0.0380 -0.5424 -0.2092
 5795SOL    HW128847   4.080   4.161   6.742 -1.7562  2.3006 -2.3422
 5795SOL    HW228848   4.170   4.193   6.632 -2.6713 -1.3768 -0.2696
 5796SOL     OW28849   1.251   2.751   8.086  0.5705  0.0690 -0.1974
 5796SOL    HW128850   1.209   2.757   8.000  0.8869 -1.8284 -0.4912
 5796SOL    HW228851   1.178   2.770   8.145  1.2819  0.4509  0.5499
 5797SOL     OW28852   1.938   3.603   7.337  0.5252  0.1338 -0.2719
 5797SOL    HW128853   2.015   3.586   7.283  0.7824  0.5117 -0.0231
 5797SOL    HW228854   1.910   3.513   7.356  0.2567  0.1673 -0.5167
 5798SOL     OW28855   4.703   3.519   7.221 -0.4213  0.2612 -0.6341
 5798SOL    HW128856   4.714   3.425   7.208 -2.3231 -0.1801  0.9314
 5798SOL    HW228857   4.607   3.525   7.219 -0.6936 -3.9738  0.6471
 5799SOL     OW28858   0.659   2.191  16.790 -0.3300  0.3664  0.0971
 5799SOL    HW128859   0.701   2.158  16.711  1.3976 -0.7881  1.4834
 5799SOL    HW228860   0.740   2.218  16.833  1.1843 -4.1965  0.0250
 5800SOL     OW28861   4.297   1.104   6.818 -0.1133 -0.0361  0.1936
 5800SOL    HW128862   4.341   1.164   6.758 -0.9081 -0.9458 -1.3115
 5800SOL    HW228863   4.334   1.132   6.901  0.0083  0.3739  0.0016
 5801SOL     OW28864   3.062   4.331   5.650  0.2774  0.2945 -0.3774
 5801SOL    HW128865   3.010   4.408   5.672 -1.2957 -0.9873  0.5064
 5801SOL    HW228866   3.138   4.374   5.612  0.0864 -1.3253 -2.6024
 5802SOL     OW28867   1.960   2.167   6.619  0.0799  0.0003 -0.1337
 5802SOL    HW128868   1.871   2.185   6.647 -0.3572 -1.3670 -0.6162
 5802SOL    HW228869   2.007   2.242   6.655 -1.1620  1.2591 -1.1367
 5803SOL     OW28870   4.399   3.344   6.826 -0.2308  0.2098  0.4736
 5803SOL    HW128871   4.418   3.432   6.790  0.1805 -0.6680 -1.4828
 5803SOL    HW228872   4.421   3.352   6.918  3.4485  1.1115 -0.4798
 5804SOL     OW28873   2.751   4.104   2.577  0.7758 -0.1330  0.5664
 5804SOL    HW128874   2.789   4.191   2.572  0.7303 -0.2315 -1.5382
 5804SOL    HW228875   2.742   4.069   2.488 -0.1783  1.9557 -0.1492
 5805SOL     OW28876   4.468   0.796  16.288  0.0982 -0.0387  0.5356
 5805SOL    HW128877   4.544   0.838  16.250  0.3433 -1.3703 -0.4427
 5805SOL    HW228878   4.439   0.737  16.218  0.4721 -1.0589  1.2242
 5806SOL     OW28879   4.524   2.157   2.636  0.1965 -0.2935  0.5722
 5806SOL    HW128880   4.581   2.147   2.559  0.5124 -1.8578  0.9989
 5806SOL    HW228881   4.445   2.163   2.582  0.0847  2.6055  1.0704
 5807SOL     OW28882   2.393   0.272   9.699  0.2717  0.4628 -0.3501
 5807SOL    HW128883   2.455   0.199   9.692 -0.5735 -0.4044  1.3937
 5807SOL    HW228884   2.318   0.214   9.687  0.1954  0.1541  1.6188
 5808SOL     OW28885   1.257   2.393  12.365  0.6906  0.1642 -0.2023
 5808SOL    HW128886   1.239   2.408  12.458 -1.8524 -0.2816 -0.6069
 5808SOL    HW228887   1.308   2.313  12.372  1.7412  0.8102 -0.5367
 5809SOL     OW28888   1.612   4.701  12.296 -0.1066 -0.1027  0.3857
 5809SOL    HW128889   1.524   4.664  12.299 -0.8796  1.7105  0.3186
 5809SOL    HW228890   1.661   4.622  12.316 -0.0337  0.1553  1.2505
 5810SOL     OW28891   0.207   2.286   2.705 -1.1912 -0.1465  0.1478
 5810SOL    HW128892   0.169   2.199   2.690 -3.9986  0.8652  1.3583
 5810SOL    HW228893   0.274   2.261   2.770 -0.8337 -0.7165 -0.4386
 5811SOL     OW28894   4.446   0.529   7.392  0.2376  0.2730  0.2757
 5811SOL    HW128895   4.496   0.508   7.312 -0.4161  0.6973 -0.2457
 5811SOL    HW228896   4.478   0.615   7.418 -0.4786  0.4033  0.7211
 5812SOL     OW28897   0.175   0.012   6.675 -0.6580  0.1902 -0.1342
 5812SOL    HW128898   0.193   0.027   6.768  0.3006  2.3916 -0.6678
 5812SOL    HW228899   0.225   4.664   6.646 -1.4880  0.3183 -1.8975
 5813SOL     OW28900   2.634   3.734  14.921 -0.2804 -0.1683  0.2422
 5813SOL    HW128901   2.642   3.746  14.826 -2.0691  0.6368  0.1976
 5813SOL    HW228902   2.671   3.646  14.926 -1.8969 -0.9371 -1.6076
 5814SOL     OW28903   3.304   3.728   3.563 -0.0218 -0.2773 -0.0770
 5814SOL    HW128904   3.298   3.650   3.507 -1.6389  0.0847 -0.4215
 5814SOL    HW228905   3.353   3.792   3.511  0.0109  0.3075  0.6737
 5815SOL     OW28906   1.729   1.312   9.797 -0.0319  0.1584  0.0163
 5815SOL    HW128907   1.802   1.324   9.736  0.6780  0.9064  1.0228
 5815SOL    HW228908   1.776   1.316   9.880  2.0408  0.7724 -1.1794
 5816SOL     OW28909   3.959   1.168  14.652 -0.3014  0.0298 -0.6267
 5816SOL    HW128910   3.927   1.250  14.614  1.9718  1.2348  0.0293
 5816SOL    HW228911   4.045   1.198  14.682 -1.9411  1.5016  2.6156
 5817SOL     OW28912   3.343   3.615   6.018  0.2550 -0.3114 -0.1182
 5817SOL    HW128913   3.288   3.586   6.090  0.6558 -4.0780 -1.3503
 5817SOL    HW228914   3.271   3.636   5.958 -0.4239 -2.1127  0.0904
 5818SOL     OW28915   2.035   1.517   1.233 -0.2933 -0.6185 -0.3663
 5818SOL    HW128916   1.941   1.517   1.248  0.2538  2.7074  3.2108
 5818SOL    HW228917   2.053   1.602   1.193 -0.8070 -0.8234 -1.0244
 5819SOL     OW28918   0.997   1.572   9.481 -0.2768 -0.3026 -0.0994
 5819SOL    HW128919   0.989   1.609   9.569  0.2033 -1.4334  0.4245
 5819SOL    HW228920   0.906   1.580   9.452 -0.3078 -1.8469 -0.4332
 5820SOL     OW28921   1.882   3.796   6.934  0.1447  0.0625 -0.1713
 5820SOL    HW128922   1.951   3.861   6.930 -0.1199  0.3656  0.1840
 5820SOL    HW228923   1.810   3.846   6.972  2.7296  1.1304  3.2857
 5821SOL     OW28924   3.459   1.573  12.477  0.9479 -0.4642 -0.1976
 5821SOL    HW128925   3.518   1.536  12.543  0.7016 -1.8402 -0.7332
 5821SOL    HW228926   3.500   1.537  12.397  2.1498  1.8365 -0.6043
 5822SOL     OW28927   3.876   3.805   7.327 -0.5401  0.2655  0.9585
 5822SOL    HW128928   3.953   3.762   7.365  1.2534  2.4406 -0.2174
 5822SOL    HW228929   3.872   3.767   7.240  0.2945 -0.9829  1.4610
 5823SOL     OW28930   2.955   0.011   7.508 -0.0442 -0.6138  0.0216
 5823SOL    HW128931   2.907   0.094   7.508  0.2202 -0.4586 -1.3846
 5823SOL    HW228932   2.882   4.679   7.507 -0.4521 -0.0750 -2.5423
 5824SOL     OW28933   0.916   0.048  10.371 -0.3504  0.0641  0.7466
 5824SOL    HW128934   0.902   0.121  10.431  2.0827  0.6008  0.6559
 5824SOL    HW228935   1.011   0.052  10.361 -0.3531  0.9735  1.1051
 5825SOL     OW28936   0.074   2.997   3.859 -0.6254  0.0287 -0.2437
 5825SOL    HW128937   0.060   2.989   3.765  1.7806  1.1925 -0.7061
 5825SOL    HW228938   4.712   2.986   3.891  0.2188 -0.6604  1.9319
 5826SOL     OW28939   2.341   1.379   1.814 -0.0793  0.1330 -0.2184
 5826SOL    HW128940   2.274   1.357   1.749  1.6549  1.1458 -2.3743
 5826SOL    HW228941   2.284   1.402   1.886  0.0447 -1.4682  0.3967
 5827SOL     OW28942   3.515   0.913  17.087  0.4059 -0.3779  0.5902
 5827SOL    HW128943   3.550   0.901  17.175 -1.6964 -1.2327  1.3167
 5827SOL    HW228944   3.423   0.885  17.093 -0.0661  0.8756 -0.7686
 5828SOL     OW28945   4.459   0.547   6.465 -0.8625 -0.5334  0.4510
 5828SOL    HW128946   4.444   0.520   6.374  0.5024 -0.1074  0.1083
 5828SOL    HW228947   4.523   0.483   6.496 -1.4709 -1.2340  0.2679
 5829SOL     OW28948   0.307   3.562   0.057 -0.1738  0.1669 -0.2424
 5829SOL    HW128949   0.261   3.483   0.083  0.3124  0.5244  1.7197
 5829SOL    HW228950   0.280   3.617   0.131  3.2211 -0.0398  1.1475
 5830SOL     OW28951   3.548   1.124  12.013 -0.3808 -0.2503 -0.5224
 5830SOL    HW128952   3.584   1.176  11.942 -1.6748  1.0133 -0.2562
 5830SOL    HW228953   3.624   1.087  12.057 -2.3581 -2.0659  1.3934
 5831SOL     OW28954   3.964   2.725  14.520 -0.3492 -0.2182  0.8720
 5831SOL    HW128955   3.939   2.699  14.431 -1.0345 -2.5641  1.7567
 5831SOL    HW228956   3.998   2.811  14.494 -1.1397 -0.8401 -2.2150
 5832SOL     OW28957   1.931   3.814   3.850 -0.0816 -0.1498  0.7124
 5832SOL    HW128958   1.876   3.757   3.904 -0.8153 -1.4765 -1.4280
 5832SOL    HW228959   1.907   3.785   3.762  1.2864  0.2020  0.2259
 5833SOL     OW28960   1.208   0.429  15.164  0.3833 -0.1508 -0.7692
 5833SOL    HW128961   1.143   0.492  15.133  2.0654  1.7316 -0.4451
 5833SOL    HW228962   1.274   0.440  15.096 -0.3102  0.4524 -1.3414
 5834SOL     OW28963   0.030   0.449   0.392  0.0270  0.4172  0.1586
 5834SOL    HW128964   0.040   0.540   0.365  0.9186 -0.0888 -1.2512
 5834SOL    HW228965   4.694   0.450   0.463 -1.2186  0.4385 -0.9710
 5835SOL     OW28966   0.303   2.706   6.899  0.0195 -0.0896  0.0498
 5835SOL    HW128967   0.278   2.659   6.978 -1.4418  0.5648 -0.0172
 5835SOL    HW228968   0.351   2.641   6.849  1.6421  1.7239 -0.7201
 5836SOL     OW28969   2.147   3.352   1.930 -0.1860 -0.0768  0.1818
 5836SOL    HW128970   2.234   3.346   1.890  0.2836 -0.3703  1.2250
 5836SOL    HW228971   2.170   3.367   2.022  0.2605 -0.4982  0.1436
 5837SOL     OW28972   2.244   3.930   8.520  0.8473  0.1944  0.6206
 5837SOL    HW128973   2.302   4.006   8.520 -1.8213  2.2642  1.6445
 5837SOL    HW228974   2.246   3.909   8.614 -1.2674  1.0872  0.8798
 5838SOL     OW28975   1.038   1.294   4.840  0.0933 -0.1820  0.5735
 5838SOL    HW128976   1.113   1.300   4.780 -0.3843  1.5732  0.1628
 5838SOL    HW228977   1.019   1.201   4.828 -0.4679 -0.1785  1.4351
 5839SOL     OW28978   2.531   3.246   4.493 -0.2199 -0.2972 -0.3280
 5839SOL    HW128979   2.533   3.208   4.581  0.1891 -0.5671 -0.4539
 5839SOL    HW228980   2.606   3.207   4.448 -0.8171 -0.4137 -1.2083
 5840SOL     OW28981   3.224   0.379   6.503  0.0733  0.0155  0.1361
 5840SOL    HW128982   3.256   0.431   6.577 -1.1783  0.0978  0.6287
 5840SOL    HW228983   3.131   0.403   6.498  0.3807  1.1059 -0.4724
 5841SOL     OW28984   1.249   4.239   8.623 -0.1959  0.3234  0.0637
 5841SOL    HW128985   1.205   4.246   8.539  3.8906  0.8483 -2.0171
 5841SOL    HW228986   1.188   4.196   8.683 -0.3273  1.5558  0.8000
 5842SOL     OW28987   4.537   1.286   5.814 -0.3266  0.0618 -0.0444
 5842SOL    HW128988   4.494   1.307   5.731 -1.0570 -1.3051 -0.0132
 5842SOL    HW228989   4.562   1.194   5.810  1.1932  0.4306  1.1011
 5843SOL     OW28990   2.477   3.914   7.352  0.0680  0.4472  0.2318
 5843SOL    HW128991   2.571   3.916   7.334 -0.3173 -0.5240 -1.7932
 5843SOL    HW228992   2.483   3.915   7.448 -1.1509 -1.2681  0.3349
 5844SOL     OW28993   4.426   4.262   4.565 -0.2634  1.0512 -0.3245
 5844SOL    HW128994   4.470   4.177   4.560 -1.7007  0.2040  1.4690
 5844SOL    HW228995   4.458   4.309   4.488 -1.1632  0.6980 -0.9230
 5845SOL     OW28996   1.809   2.378   1.202 -0.2484 -0.3311 -0.2452
 5845SOL    HW128997   1.758   2.433   1.261 -1.5968 -2.2615  0.3682
 5845SOL    HW228998   1.744   2.369   1.132  1.9665  0.0438 -2.3862
 5846SOL     OW28999   2.387   2.075   3.508  0.1029  0.2467  0.1242
 5846SOL    HW129000   2.368   1.986   3.479  0.8304  0.7019 -1.7821
 5846SOL    HW229001   2.483   2.081   3.505  0.0942 -0.1248 -0.9588
 5847SOL     OW29002   0.615   2.579   7.709  0.2993 -0.4630 -0.0229
 5847SOL    HW129003   0.703   2.617   7.721  0.6072 -1.3213  0.3850
 5847SOL    HW229004   0.637   2.487   7.697 -2.6656 -1.3601  1.6350
 5848SOL     OW29005   2.781   0.217  12.253 -0.1073  0.0457 -0.2457
 5848SOL    HW129006   2.693   0.187  12.277  0.4584 -2.1488 -0.8536
 5848SOL    HW229007   2.801   0.246  12.342 -1.2120  0.2018 -0.0405
 5849SOL     OW29008   2.154   1.906   6.075 -0.8991 -0.0765  0.2041
 5849SOL    HW129009   2.239   1.879   6.042 -0.3430  0.3426  1.2706
 5849SOL    HW229010   2.163   1.888   6.169  1.6481  0.3915  0.0410
 5850SOL     OW29011   1.638   1.289  17.539 -0.3656 -0.0297 -0.2094
 5850SOL    HW129012   1.691   1.324  17.611  0.4619 -0.0447 -0.8145
 5850SOL    HW229013   1.628   1.365  17.482 -1.1799  0.8954  1.1625
 5851SOL     OW29014   1.719   1.668   7.487  0.3069 -0.5644 -0.4482
 5851SOL    HW129015   1.747   1.582   7.456 -1.7725 -1.4994  0.2405
 5851SOL    HW229016   1.767   1.725   7.428  0.1396 -0.3037 -0.3319
 5852SOL     OW29017   1.492   0.099   0.796 -0.2647 -0.1198  0.1699
 5852SOL    HW129018   1.516   0.011   0.826  0.6072 -0.0853 -0.4525
 5852SOL    HW229019   1.399   0.104   0.819  0.4894 -0.6631  3.3296
 5853SOL     OW29020   1.253   1.832  12.526 -0.1815 -0.4037  0.6404
 5853SOL    HW129021   1.274   1.863  12.614  1.0117  1.1637 -0.1942
 5853SOL    HW229022   1.179   1.777  12.551 -0.0818 -0.9595 -0.2803
 5854SOL     OW29023   2.959   3.368   8.799  0.2324 -0.1602 -0.2211
 5854SOL    HW129024   2.893   3.364   8.869 -0.2563 -0.5965 -0.7054
 5854SOL    HW229025   2.996   3.280   8.799 -0.0205 -0.2698  0.1973
 5855SOL     OW29026   1.675   2.350  16.850 -0.0900 -0.4171 -0.2778
 5855SOL    HW129027   1.666   2.442  16.826  1.0024 -0.1739  0.2296
 5855SOL    HW229028   1.769   2.330  16.849 -0.2714 -1.3827  1.2735
 5856SOL     OW29029   0.741   4.023   0.091  0.4213  1.2318 -0.5821
 5856SOL    HW129030   0.813   3.960   0.102 -1.1439 -0.4538  0.0839
 5856SOL    HW229031   0.708   3.994   0.005  1.9289 -0.2178 -0.6895
 5857SOL     OW29032   2.034   2.760   2.926  0.2513  0.2716 -0.2761
 5857SOL    HW129033   2.106   2.718   2.972 -1.1464 -0.6997  1.0070
 5857SOL    HW229034   2.068   2.761   2.836 -2.1182  2.1196 -1.1642
 5858SOL     OW29035   1.538   4.052  13.032 -0.2149 -0.1817  0.2756
 5858SOL    HW129036   1.494   4.109  13.096 -0.0310  0.3542 -0.0780
 5858SOL    HW229037   1.629   4.040  13.059  0.0511  2.7532  0.6706
 5859SOL     OW29038   1.172   3.176   0.130  0.1568 -0.5319  0.0435
 5859SOL    HW129039   1.195   3.251   0.184  1.7321 -1.8183  1.1627
 5859SOL    HW229040   1.247   3.172   0.071  0.1750 -2.1018  0.1661
 5860SOL     OW29041   4.676   1.619   1.138  0.3456  0.1682  0.6020
 5860SOL    HW129042   4.706   1.602   1.049  3.7349  0.5181  1.6788
 5860SOL    HW229043   4.708   1.709   1.141 -0.2254  0.3720  0.5618
 5861SOL     OW29044   2.189   3.040   4.425  0.3489 -0.4025  0.7788
 5861SOL    HW129045   2.185   3.013   4.333 -0.3352 -0.5439  0.8488
 5861SOL    HW229046   2.190   3.135   4.427  0.1284 -0.3885  0.3012
 5862SOL     OW29047   0.625   0.994   6.573 -0.4935 -0.0594  0.8788
 5862SOL    HW129048   0.542   0.973   6.531  0.7433  1.0970 -2.1356
 5862SOL    HW229049   0.648   1.061   6.508  0.0141 -0.8024  0.2880
 5863SOL     OW29050   4.028   4.516   8.399  0.1388 -0.3837 -0.0670
 5863SOL    HW129051   4.006   4.577   8.329  1.4353  0.8950  0.6336
 5863SOL    HW229052   4.049   4.567   8.477  4.1041 -0.1138 -1.3257
 5864SOL     OW29053   1.651   4.146   7.868 -0.1779 -0.0674 -0.3753
 5864SOL    HW129054   1.638   4.220   7.927 -1.7127  0.9250 -1.9392
 5864SOL    HW229055   1.712   4.091   7.917 -0.8207  0.5194  1.0669
 5865SOL     OW29056   1.284   2.699  14.511 -0.2622 -0.2338  0.5961
 5865SOL    HW129057   1.293   2.604  14.520  0.5990 -0.2876 -0.8769
 5865SOL    HW229058   1.373   2.733  14.505 -0.1859 -0.5998 -0.3485
 5866SOL     OW29059   1.377   3.742   5.673  0.3099 -0.3151  0.2697
 5866SOL    HW129060   1.422   3.741   5.757  1.3149  1.4170 -0.2402
 5866SOL    HW229061   1.429   3.673   5.633  0.6007 -0.6902  1.3044
 5867SOL     OW29062   1.392   2.739   6.665  0.0934  0.0306 -0.1615
 5867SOL    HW129063   1.377   2.831   6.686  1.6698  0.3794 -0.5812
 5867SOL    HW229064   1.304   2.713   6.638  0.1007  0.6750 -0.7971
 5868SOL     OW29065   3.710   0.622   9.613  0.7482  0.3248  0.5094
 5868SOL    HW129066   3.721   0.531   9.584  0.9319  0.0828  1.3197
 5868SOL    HW229067   3.789   0.661   9.651  1.1124  0.6319 -0.5825
 5869SOL     OW29068   1.153   2.165   7.417  0.0078 -0.3624  0.3878
 5869SOL    HW129069   1.181   2.212   7.339  2.2150 -1.0756  0.7582
 5869SOL    HW229070   1.227   2.184   7.474 -0.7348 -1.3850  1.6858
 5870SOL     OW29071   3.536   2.060  11.612  0.3720 -0.5786 -0.1463
 5870SOL    HW129072   3.614   2.097  11.653 -1.5092  0.8846  2.0707
 5870SOL    HW229073   3.572   1.982  11.569  1.1111 -0.7166  0.7163
 5871SOL     OW29074   4.495   0.829   6.170 -0.7239  0.8313  0.2268
 5871SOL    HW129075   4.410   0.788   6.189 -0.9540 -0.0175 -2.7230
 5871SOL    HW229076   4.464   0.919   6.159  0.8070  1.3744  0.4744
 5872SOL     OW29077   3.153   4.640   3.767 -0.1822 -0.1235 -0.3773
 5872SOL    HW129078   3.134   4.547   3.775 -2.0109  0.3438  0.5633
 5872SOL    HW229079   3.124   4.691   3.842  0.6836  0.8488 -0.7000
 5873SOL     OW29080   0.707   3.996  13.194  0.2758  0.0415 -0.4056
 5873SOL    HW129081   0.741   4.058  13.130 -3.4147 -0.3615 -2.7971
 5873SOL    HW229082   0.617   3.994  13.161 -0.7849 -1.9380  2.6270
 5874SOL     OW29083   3.180   0.653  17.259  0.2661 -0.0798 -0.0666
 5874SOL    HW129084   3.174   0.739  17.299  2.2551 -0.0832  0.2228
 5874SOL    HW229085   3.273   0.643  17.280  0.7741 -0.9813 -2.6982
 5875SOL     OW29086   3.622   3.135   8.933 -0.0155 -0.0817  0.5364
 5875SOL    HW129087   3.631   3.133   8.838  1.1894 -1.9576  0.6879
 5875SOL    HW229088   3.533   3.169   8.944 -0.7982 -1.9549 -0.1032
 5876SOL     OW29089   2.385   1.532  15.901 -0.1903  0.0700 -0.1838
 5876SOL    HW129090   2.333   1.597  15.948 -0.8099 -0.8548  0.4029
 5876SOL    HW229091   2.471   1.546  15.941 -0.6234  0.7261  0.5267
 5877SOL     OW29092   3.644   2.357   8.410  1.1385  0.0683  0.3079
 5877SOL    HW129093   3.614   2.270   8.383  2.5252 -1.0122  2.2613
 5877SOL    HW229094   3.739   2.344   8.416  1.1313 -0.9347 -1.7131
 5878SOL     OW29095   0.117   2.996   6.216 -0.2301  0.2777  0.0166
 5878SOL    HW129096   0.025   2.992   6.190 -0.2074  1.6737 -0.2524
 5878SOL    HW229097   0.146   2.927   6.156 -1.4611 -1.9272  1.9824
 5879SOL     OW29098   2.674   0.170   2.253  0.4835 -0.7893  0.4080
 5879SOL    HW129099   2.691   0.082   2.287  1.5530 -0.8241 -0.2029
 5879SOL    HW229100   2.647   0.163   2.161  1.4644 -1.6079  0.1728
 5880SOL     OW29101   2.912   3.203   6.039  0.1537  0.3027 -0.1144
 5880SOL    HW129102   2.885   3.267   6.105 -0.7363  0.5831 -0.7338
 5880SOL    HW229103   2.921   3.125   6.094  0.4883  0.8651  0.6235
 5881SOL     OW29104   3.029   0.060   0.826 -0.4651  0.1681 -0.3450
 5881SOL    HW129105   3.071   0.146   0.837 -1.3369  0.5895 -0.3164
 5881SOL    HW229106   2.935   0.077   0.830 -0.5122 -0.3109  0.6109
 5882SOL     OW29107   2.126   2.171   1.745  0.0460 -0.7756  0.0083
 5882SOL    HW129108   2.147   2.259   1.712  0.0679 -0.1716  1.6097
 5882SOL    HW229109   2.112   2.125   1.662  0.3395 -0.6413 -0.1154
 5883SOL     OW29110   0.580   0.373   5.046 -0.2169  0.3884 -0.1298
 5883SOL    HW129111   0.627   0.439   5.098  1.1184  0.2954 -1.2080
 5883SOL    HW229112   0.502   0.354   5.097  0.4973 -0.0247  0.8122
 5884SOL     OW29113   2.955   0.912  16.508  0.4136  0.2863  0.1307
 5884SOL    HW129114   3.046   0.939  16.497  0.7184 -0.1196  1.6403
 5884SOL    HW229115   2.942   0.881  16.419  2.2769  1.4921 -0.5644
 5885SOL     OW29116   2.019   2.625   3.817  0.5780 -0.0448  0.1194
 5885SOL    HW129117   2.108   2.598   3.796  0.5582  0.5615 -0.7704
 5885SOL    HW229118   1.982   2.636   3.729 -2.8668  1.0871  1.6777
 5886SOL     OW29119   2.240   3.521   6.897 -0.1425  0.4149  0.5391
 5886SOL    HW129120   2.301   3.502   6.825 -2.2423  1.0250 -1.3814
 5886SOL    HW229121   2.256   3.448   6.958  0.0394 -0.2792 -0.3296
 5887SOL     OW29122   1.029   3.686   8.377  0.4480 -0.2486  0.0530
 5887SOL    HW129123   0.986   3.767   8.351 -0.4108 -0.4997  0.6982
 5887SOL    HW229124   0.959   3.621   8.385 -1.8353  2.2672  0.4328
 5888SOL     OW29125   0.307   0.295  16.002 -0.3789  0.0256 -0.2906
 5888SOL    HW129126   0.340   0.210  15.974  1.8891  0.7032  0.3346
 5888SOL    HW229127   0.348   0.353  15.938  1.7571  0.0481  1.0730
 5889SOL     OW29128   3.917   2.469   2.054  0.0818  0.0586 -0.4678
 5889SOL    HW129129   3.987   2.497   1.995 -1.0191 -1.5410 -2.5344
 5889SOL    HW229130   3.893   2.380   2.031  1.9941 -0.4384 -0.5257
 5890SOL     OW29131   1.516   4.411   1.927  0.9431 -0.1699  0.2360
 5890SOL    HW129132   1.491   4.347   1.859  0.5893  1.6987 -1.4038
 5890SOL    HW229133   1.512   4.492   1.876  1.9314  0.2558  0.8371
 5891SOL     OW29134   1.185   2.091   2.422 -0.3685  0.0826 -0.1325
 5891SOL    HW129135   1.162   2.054   2.507 -0.0615 -0.7234 -0.3986
 5891SOL    HW229136   1.102   2.074   2.378  0.2555  0.3340 -1.3948
 5892SOL     OW29137   3.486   0.102  11.204  1.0076  0.1709  0.4835
 5892SOL    HW129138   3.504   0.169  11.138  1.8529 -0.1697  0.3699
 5892SOL    HW229139   3.519   0.152  11.279 -0.8011  2.9829 -0.5902
 5893SOL     OW29140   1.344   2.122  17.357  0.1562 -0.1491  0.6397
 5893SOL    HW129141   1.379   2.073  17.282 -2.2191 -0.8739  0.0008
 5893SOL    HW229142   1.366   2.214  17.342  0.2438 -0.1431  0.7994
 5894SOL     OW29143   2.906   1.756  10.125 -0.0576  0.5658 -0.0891
 5894SOL    HW129144   2.885   1.675  10.170  0.2908  0.4516 -0.1312
 5894SOL    HW229145   2.998   1.737  10.108 -0.3287 -2.7065  2.0805
 5895SOL     OW29146   4.239   2.231   9.369  0.2308 -0.4625 -0.6533
 5895SOL    HW129147   4.195   2.313   9.391  0.6605 -0.0043 -1.4723
 5895SOL    HW229148   4.304   2.213   9.436 -1.1082  0.9679  1.0267
 5896SOL     OW29149   2.125   0.392   1.227 -0.2784  0.5067  0.6428
 5896SOL    HW129150   2.188   0.419   1.160 -1.1783  2.6667  0.6555
 5896SOL    HW229151   2.045   0.394   1.174 -0.4133 -1.1069  0.7883
 5897SOL     OW29152   0.581   4.478  15.758  0.4133  0.1156  0.4923
 5897SOL    HW129153   0.660   4.526  15.786 -0.8659  1.7971  1.2095
 5897SOL    HW229154   0.543   4.526  15.685 -1.0912 -1.7133  0.0996
 5898SOL     OW29155   2.107   3.724  11.699  0.3522 -0.1001 -0.1650
 5898SOL    HW129156   2.086   3.773  11.779  1.3535  0.1093 -0.0303
 5898SOL    HW229157   2.163   3.789  11.656 -1.6835  0.9742 -1.2240
 5899SOL     OW29158   2.625   2.171   8.781  0.4406 -0.0435  0.3078
 5899SOL    HW129159   2.671   2.251   8.806  2.2717 -1.0285  0.0700
 5899SOL    HW229160   2.545   2.212   8.747  0.0706  0.1751  1.4414
 5900SOL     OW29161   4.685   2.925   0.690  0.5022 -0.5764 -0.2007
 5900SOL    HW129162   4.697   2.840   0.732  0.3271  0.0481  1.1398
 5900SOL    HW229163   4.593   2.921   0.667  0.0274  0.8489  1.3800
 5901SOL     OW29164   4.480   3.278   6.013 -0.2364  0.0244  0.4341
 5901SOL    HW129165   4.478   3.314   5.924 -1.3695  2.3860  1.4131
 5901SOL    HW229166   4.388   3.281   6.039 -0.2716  0.5658  0.2541
 5902SOL     OW29167   1.134   0.870  10.148  0.1567  0.3369 -0.2112
 5902SOL    HW129168   1.089   0.835  10.071  1.7873  0.1495 -1.0578
 5902SOL    HW229169   1.185   0.947  10.123  2.6936 -0.9935  0.9617
 5903SOL     OW29170   4.698   1.684  12.502 -0.2489  0.4929 -0.3643
 5903SOL    HW129171   0.010   1.765  12.533  0.4058 -0.1921  0.5553
 5903SOL    HW229172   4.716   1.688  12.408 -3.6661 -0.6577 -1.0893
 5904SOL     OW29173   1.921   3.836  13.370  0.2908 -0.6358 -0.3672
 5904SOL    HW129174   1.963   3.912  13.331 -0.6854 -0.6806 -1.4784
 5904SOL    HW229175   1.884   3.791  13.295 -0.7636 -0.6976  0.1930
 5905SOL     OW29176   3.966   3.846   3.083 -0.4667  0.4935 -0.0482
 5905SOL    HW129177   4.017   3.880   3.009  0.1848  0.8346  0.5533
 5905SOL    HW229178   3.882   3.877   3.049 -0.1359 -0.8973 -2.1647
 5906SOL     OW29179   1.755   2.028   1.603  0.1486  0.3682 -0.1339
 5906SOL    HW129180   1.753   2.013   1.509  0.0079 -2.2040  0.2841
 5906SOL    HW229181   1.793   1.948   1.638  0.3698 -0.5704 -2.5152
 5907SOL     OW29182   1.323   2.097   5.970  0.5945 -0.1763 -0.5380
 5907SOL    HW129183   1.255   2.099   5.903  0.3591  0.2329 -0.2856
 5907SOL    HW229184   1.359   2.186   5.965  0.4426 -0.1184 -0.6055
 5908SOL     OW29185   4.504   4.587   5.336  0.1588 -0.3287  0.2252
 5908SOL    HW129186   4.502   4.663   5.278  1.1650  0.9382  1.8142
 5908SOL    HW229187   4.597   4.579   5.358  0.2350 -2.4142 -0.9514
 5909SOL     OW29188   0.623   1.568   5.053 -0.0748 -0.1970 -0.2873
 5909SOL    HW129189   0.569   1.579   4.975 -3.8580 -0.2228  2.3156
 5909SOL    HW229190   0.675   1.495   5.021  0.6837 -0.9808  2.7147
 5910SOL     OW29191   1.030   4.524   4.330  0.1281  0.3019 -0.0121
 5910SOL    HW129192   0.935   4.517   4.342  0.0638 -0.8847 -1.2448
 5910SOL    HW229193   1.039   4.457   4.262 -2.3286  0.0730 -0.1008
 5911SOL     OW29194   1.063   4.174   6.234  0.4926  0.2638 -0.0956
 5911SOL    HW129195   1.070   4.081   6.212 -1.0453 -0.3026  1.7507
 5911SOL    HW229196   0.987   4.171   6.291  0.3055 -0.6543 -0.3968
 5912SOL     OW29197   2.501   2.660   3.575 -0.2220  1.0450  0.2533
 5912SOL    HW129198   2.532   2.665   3.485 -0.5688 -3.0349 -0.1047
 5912SOL    HW229199   2.580   2.662   3.630  0.3865 -0.4099 -0.5571
 5913SOL     OW29200   2.787   0.640   1.922  0.4449 -0.2482 -0.4894
 5913SOL    HW129201   2.808   0.547   1.931 -0.9386 -0.3664  1.4612
 5913SOL    HW229202   2.694   0.630   1.902  0.6390  1.0191 -2.0308
 5914SOL     OW29203   0.928   3.513   1.928  0.4388 -0.1071  0.1059
 5914SOL    HW129204   0.971   3.471   1.853 -0.4351  0.7664 -0.8811
 5914SOL    HW229205   0.867   3.573   1.884  2.1774  0.7883 -1.0695
 5915SOL     OW29206   0.864   4.279  15.607  0.2627  0.0850 -0.4028
 5915SOL    HW129207   0.926   4.307  15.540 -1.5220  0.2828 -1.9846
 5915SOL    HW229208   0.787   4.329  15.581  1.9814  1.2345 -3.2110
 5916SOL     OW29209   0.356   4.041  10.610 -0.5384  0.5645  0.8413
 5916SOL    HW129210   0.381   4.021  10.700  0.6466  2.1347  0.8666
 5916SOL    HW229211   0.389   3.975  10.550  2.3744  1.4854  1.3970
 5917SOL     OW29212   0.827   1.145   8.090  0.3144 -0.0172 -0.0754
 5917SOL    HW129213   0.835   1.058   8.050  0.5077  0.2458 -0.6071
 5917SOL    HW229214   0.876   1.133   8.171  1.6120 -1.9722 -1.1350
 5918SOL     OW29215   2.523   3.696  15.406 -0.0813 -0.1041  0.1959
 5918SOL    HW129216   2.603   3.705  15.458 -0.5630  1.6209  0.6373
 5918SOL    HW229217   2.485   3.775  15.445 -0.6786  0.0575 -0.7135
 5919SOL     OW29218   0.461   1.479   6.171 -0.6699 -1.0611 -0.1272
 5919SOL    HW129219   0.365   1.476   6.177 -0.7343 -0.9789 -1.0968
 5919SOL    HW229220   0.487   1.430   6.249  0.5967  2.5235  1.6973
 5920SOL     OW29221   2.055   3.446   6.295  0.6395  0.9065  0.7956
 5920SOL    HW129222   2.129   3.484   6.341  1.3610 -0.3947  0.7182
 5920SOL    HW229223   2.109   3.401   6.230 -1.4936  0.8929 -0.9696
 5921SOL     OW29224   2.301   0.718  15.436  0.5538  0.6731 -0.0890
 5921SOL    HW129225   2.304   0.659  15.511  2.4225  2.6551  1.4125
 5921SOL    HW229226   2.382   0.768  15.438  0.2743  1.0466  3.4927
 5922SOL     OW29227   3.979   4.203  11.791  0.4562  0.5189 -0.4747
 5922SOL    HW129228   4.050   4.145  11.764 -0.1158 -0.2579 -0.3275
 5922SOL    HW229229   3.919   4.161  11.853  0.9048  1.0027  0.2885
 5923SOL     OW29230   1.793   4.423   5.120  0.0212  0.3827 -0.2161
 5923SOL    HW129231   1.886   4.417   5.097  0.1598 -0.1206  0.4900
 5923SOL    HW229232   1.754   4.370   5.050 -2.5369  1.6708  0.2510
 5924SOL     OW29233   2.829   0.215  15.773  0.0977 -0.3996 -0.5246
 5924SOL    HW129234   2.796   0.227  15.861 -1.1407 -2.1542 -0.7436
 5924SOL    HW229235   2.920   0.185  15.782  0.3432  0.2000 -0.9725
 5925SOL     OW29236   4.587   3.007  12.798  0.0999 -0.0021 -0.6015
 5925SOL    HW129237   4.621   2.918  12.810 -0.4814  0.1231  2.0090
 5925SOL    HW229238   4.610   3.053  12.879  1.7460 -1.9121  0.0205
 5926SOL     OW29239   4.271   2.638   8.066 -0.4441 -0.1963  0.6808
 5926SOL    HW129240   4.365   2.624   8.069 -0.5630 -1.4553 -0.9988
 5926SOL    HW229241   4.260   2.686   7.984  1.9658  1.5647  1.4083
 5927SOL     OW29242   4.017   2.307   8.975 -0.4421 -0.1595 -0.1433
 5927SOL    HW129243   4.078   2.237   8.954 -1.6506 -0.4462 -2.6711
 5927SOL    HW229244   4.080   2.379   8.982 -1.7001  1.1114 -1.9945
 5928SOL     OW29245   0.563   1.046   6.094  0.2547  0.1915 -0.2348
 5928SOL    HW129246   0.526   0.988   6.027 -0.0313 -1.5631  1.4588
 5928SOL    HW229247   0.584   1.124   6.042  2.5176  1.1594  2.1467
 5929SOL     OW29248   3.193   0.625   7.386 -0.5273  0.2839  0.4409
 5929SOL    HW129249   3.242   0.619   7.304 -2.5615 -2.2583 -0.5873
 5929SOL    HW229250   3.139   0.702   7.366  0.1089  0.5012 -0.4414
 5930SOL     OW29251   3.263   0.777   5.889  0.2677 -0.6161  0.3245
 5930SOL    HW129252   3.319   0.832   5.944  0.0243 -0.4575  0.4167
 5930SOL    HW229253   3.302   0.690   5.896  1.2859 -0.2179 -0.3909
 5931SOL     OW29254   2.904   2.773   8.320 -0.1406 -0.0749 -0.7541
 5931SOL    HW129255   2.934   2.803   8.406  0.4216 -0.9370 -0.6532
 5931SOL    HW229256   2.808   2.773   8.325 -0.0290  0.0128  1.3587
 5932SOL     OW29257   2.928   2.865  10.069  0.0085  0.1317 -0.0151
 5932SOL    HW129258   2.956   2.951  10.101 -1.1039 -0.5402  2.7147
 5932SOL    HW229259   2.862   2.844  10.135  2.8027  2.2349  3.4304
 5933SOL     OW29260   4.219   1.905   5.548  0.2628 -0.0201  0.1126
 5933SOL    HW129261   4.285   1.901   5.480  0.7371 -1.5486  0.6630
 5933SOL    HW229262   4.279   1.906   5.623  0.4087  1.0209 -0.0149
 5934SOL     OW29263   1.629   3.407  10.865  0.7335  0.5291 -0.0559
 5934SOL    HW129264   1.605   3.400  10.958 -0.8954  2.8335 -0.3182
 5934SOL    HW229265   1.540   3.392  10.833  0.4504  2.5160 -0.1919
 5935SOL     OW29266   2.293   3.123  12.933 -0.5586 -0.6941  0.5037
 5935SOL    HW129267   2.224   3.151  12.993 -1.4320 -5.2474  1.6447
 5935SOL    HW229268   2.353   3.197  12.931 -2.1558  0.6172  1.1903
 5936SOL     OW29269   2.346   4.716   3.740 -0.2295  0.0467  0.4440
 5936SOL    HW129270   2.316   4.688   3.826  1.8639 -3.2053  0.1562
 5936SOL    HW229271   2.365   4.629   3.702  0.1397 -0.9721  2.9726
 5937SOL     OW29272   1.993   1.774   3.052  0.8325  0.4456  0.3510
 5937SOL    HW129273   1.911   1.815   3.078 -0.7241 -0.8953 -2.4325
 5937SOL    HW229274   2.053   1.846   3.033 -0.3406  0.6799 -2.4007
 5938SOL     OW29275   3.373   0.302   2.187 -0.0605  0.1433 -0.0925
 5938SOL    HW129276   3.284   0.300   2.223 -0.2635  1.0003 -0.5277
 5938SOL    HW229277   3.411   0.389   2.197  3.9665 -1.3783 -2.0128
 5939SOL     OW29278   2.988   0.639  17.670 -0.9752  0.8931  0.4595
 5939SOL    HW129279   3.064   0.581  17.671 -0.8202  1.0909  0.0379
 5939SOL    HW229280   3.024   0.717  17.713 -0.8477  0.1457  1.7228
 5940SOL     OW29281   4.098   3.707   3.686  0.3231 -0.3629 -0.1857
 5940SOL    HW129282   4.070   3.663   3.766 -0.4506 -2.5796 -1.6692
 5940SOL    HW229283   4.054   3.792   3.694 -0.4521 -0.7798 -0.0156
 5941SOL     OW29284   4.455   3.818   9.525  0.1320 -0.0330  0.1220
 5941SOL    HW129285   4.382   3.878   9.539 -0.0909 -0.2342 -0.1847
 5941SOL    HW229286   4.509   3.823   9.604 -0.0873 -0.2899  0.2896
 5942SOL     OW29287   2.441   0.440   4.555  0.3006  0.0160  0.0091
 5942SOL    HW129288   2.488   0.430   4.472 -2.1908  0.7512 -1.4962
 5942SOL    HW229289   2.516   0.482   4.597 -0.0563 -0.4819  1.1417
 5943SOL     OW29290   4.575   0.895   3.347  0.4048  0.0121 -0.0594
 5943SOL    HW129291   4.553   0.802   3.354  1.9258 -0.3279  0.1987
 5943SOL    HW229292   4.637   0.905   3.274  2.8891  0.2752  2.0707
 5944SOL     OW29293   0.609   1.633  10.932  0.0183  0.0463 -0.3730
 5944SOL    HW129294   0.660   1.659  11.009 -0.8158 -1.2840  0.6245
 5944SOL    HW229295   0.681   1.607  10.875 -1.2230 -0.7135 -1.5971
 5945SOL     OW29296   1.474   1.364   1.584  0.2880 -0.2366  0.5255
 5945SOL    HW129297   1.430   1.320   1.657 -0.8550  0.6644  0.3745
 5945SOL    HW229298   1.507   1.446   1.620 -2.2720  0.1520  1.9938
 5946SOL     OW29299   3.626   3.824  12.927  0.1317 -0.3007  0.3852
 5946SOL    HW129300   3.589   3.775  13.000 -0.8037 -1.6235 -0.9816
 5946SOL    HW229301   3.559   3.786  12.870  0.3508  1.0666 -0.8120
 5947SOL     OW29302   0.284   0.555  14.755 -0.2765 -0.0974  0.1601
 5947SOL    HW129303   0.253   0.564  14.845 -2.2913  1.8629 -0.7245
 5947SOL    HW229304   0.328   0.470  14.759  1.7379  0.9156 -0.4194
 5948SOL     OW29305   2.587   4.310  15.249 -0.0762 -0.4900 -0.1302
 5948SOL    HW129306   2.535   4.368  15.305  0.2588 -0.2903 -0.0220
 5948SOL    HW229307   2.659   4.362  15.212 -2.0969  2.6876  0.3865
 5949SOL     OW29308   2.587   1.757   7.829  0.1941 -0.3579 -0.3357
 5949SOL    HW129309   2.557   1.811   7.756 -2.1127 -0.1395  0.7569
 5949SOL    HW229310   2.656   1.809   7.870 -0.9904  0.5760  0.4802
 5950SOL     OW29311   0.176   3.671   5.398  0.5170 -0.0740  0.1655
 5950SOL    HW129312   0.260   3.646   5.359  0.4805  0.1791 -0.0781
 5950SOL    HW229313   0.122   3.632   5.329  2.4768 -1.7612 -0.3762
 5951SOL     OW29314   2.915   2.235  14.996 -0.0859 -0.2291 -0.4944
 5951SOL    HW129315   2.834   2.278  15.023  1.5812  1.4635  1.8095
 5951SOL    HW229316   2.987   2.279  15.041 -0.9263  1.3631 -0.7149
 5952SOL     OW29317   4.195   1.831  10.257  0.3764 -0.1225 -0.1724
 5952SOL    HW129318   4.193   1.798  10.347  1.5993 -1.4943 -0.6415
 5952SOL    HW229319   4.190   1.926  10.260  0.4946 -0.0742 -1.3713
 5953SOL     OW29320   2.833   2.394   8.904  0.3821 -0.8734  0.9193
 5953SOL    HW129321   2.851   2.429   8.817 -0.2013 -2.0512  0.3234
 5953SOL    HW229322   2.851   2.472   8.956 -0.3476  0.9738 -1.6250
 5954SOL     OW29323   1.136   2.987  13.436  0.8877 -0.1613 -0.2758
 5954SOL    HW129324   1.220   2.996  13.482  1.1781 -0.9859 -0.6485
 5954SOL    HW229325   1.129   3.077  13.404 -0.5653 -0.1062  0.1887
 5955SOL     OW29326   4.396   0.205   9.046  0.0386  0.0395 -0.5395
 5955SOL    HW129327   4.369   0.218   9.137  1.8408  0.5875 -0.0754
 5955SOL    HW229328   4.343   0.273   9.005  1.0793  0.5350 -1.0621
 5956SOL     OW29329   1.102   4.294   7.262 -0.1913 -0.2051 -0.2803
 5956SOL    HW129330   1.103   4.207   7.222  1.5117  0.1774 -1.0368
 5956SOL    HW229331   1.048   4.346   7.203  0.5540  1.0745  0.1634
 5957SOL     OW29332   1.079   3.074   8.427  0.9749  0.3516 -0.2209
 5957SOL    HW129333   1.135   2.998   8.440  0.0687 -0.3778 -0.5477
 5957SOL    HW229334   1.035   3.057   8.344 -0.3336 -0.1205  0.5671
 5958SOL     OW29335   4.244   0.853   4.069  0.0543 -0.5192 -0.3874
 5958SOL    HW129336   4.166   0.871   4.121  1.7410  0.4562  1.7916
 5958SOL    HW229337   4.316   0.883   4.124 -0.4102 -1.1441  0.5705
 5959SOL     OW29338   0.933   0.378   3.287 -0.2088  0.4390  1.1181
 5959SOL    HW129339   1.003   0.349   3.346 -0.8256  0.1720  1.7155
 5959SOL    HW229340   0.955   0.471   3.287  0.4119  0.2944  0.3571
 5960SOL     OW29341   2.743   2.773  12.318 -0.1723 -0.0037 -0.0522
 5960SOL    HW129342   2.714   2.717  12.390 -0.8775  1.9189  1.1677
 5960SOL    HW229343   2.823   2.727  12.291 -0.1543 -0.1227  0.1995
 5961SOL     OW29344   3.846   0.369   5.429  0.0245  0.1459 -0.0466
 5961SOL    HW129345   3.906   0.303   5.463 -0.1721 -1.2610 -2.4010
 5961SOL    HW229346   3.881   0.398   5.345 -0.5295 -0.7450 -0.5884
 5962SOL     OW29347   4.270   1.276   8.082 -0.0311 -0.2087 -0.7660
 5962SOL    HW129348   4.300   1.188   8.108 -0.6383 -0.0923  0.2928
 5962SOL    HW229349   4.350   1.329   8.078 -0.3516  0.2692 -0.8065
 5963SOL     OW29350   1.917   0.475   8.879 -0.6751  0.0917  0.0716
 5963SOL    HW129351   1.824   0.479   8.858 -1.0627 -1.3368  1.4957
 5963SOL    HW229352   1.929   0.380   8.884 -2.1973 -0.0489  0.8902
 5964SOL     OW29353   1.476   1.334  10.429 -0.5723  0.2714  0.2726
 5964SOL    HW129354   1.400   1.284  10.399  0.4710 -0.5646 -0.9722
 5964SOL    HW229355   1.499   1.283  10.507  0.6268  1.9390  0.9878
 5965SOL     OW29356   3.880   0.173   8.926 -0.0572  0.0912  0.1091
 5965SOL    HW129357   3.794   0.132   8.918  0.3731 -1.0474  1.2434
 5965SOL    HW229358   3.884   0.202   9.017  1.2935 -1.0912  0.4294
 5966SOL     OW29359   3.073   0.248  13.013 -0.4151 -0.1410  0.1574
 5966SOL    HW129360   3.056   0.332  13.055  2.1363  0.4082  0.0962
 5966SOL    HW229361   3.048   0.186  13.080 -1.1376 -0.6616 -0.5959
 5967SOL     OW29362   1.213   0.410   9.023 -0.1893  0.0281 -0.1682
 5967SOL    HW129363   1.236   0.374   8.937 -2.3953  0.3934 -0.9117
 5967SOL    HW229364   1.290   0.392   9.076  0.3090  1.6944 -0.3241
 5968SOL     OW29365   0.528   1.655   5.286  0.0595 -0.0316  0.2386
 5968SOL    HW129366   0.559   1.635   5.198 -0.2180  0.4086  0.0435
 5968SOL    HW229367   0.476   1.576   5.302 -0.9428  0.0832 -2.4566
 5969SOL     OW29368   4.456   2.458   7.350 -0.2665  0.1120  0.6465
 5969SOL    HW129369   4.471   2.409   7.269 -1.9918  0.9974 -0.2297
 5969SOL    HW229370   4.528   2.420   7.400  0.6866  0.3737 -0.5207
 5970SOL     OW29371   0.340   3.888   1.652  0.3815 -0.0554 -0.0545
 5970SOL    HW129372   0.267   3.927   1.605 -0.5191  0.9630  2.2119
 5970SOL    HW229373   0.337   3.798   1.620 -0.7641 -0.8128  2.2070
 5971SOL     OW29374   0.559   3.352   2.036 -0.6058  0.2119 -0.0799
 5971SOL    HW129375   0.583   3.441   2.062 -2.6521  0.4836  0.9172
 5971SOL    HW229376   0.489   3.332   2.098 -1.1317 -0.3559 -0.8471
 5972SOL     OW29377   0.724   1.143   4.249 -0.0531 -0.7004 -0.1979
 5972SOL    HW129378   0.754   1.185   4.329  1.3523 -2.5764  0.2553
 5972SOL    HW229379   0.668   1.212   4.214 -0.8423 -0.5631  1.3130
 5973SOL     OW29380   4.042   1.166  15.978 -0.1046 -0.2278  0.4315
 5973SOL    HW129381   4.009   1.251  15.947  3.4382  2.0882  2.9651
 5973SOL    HW229382   3.972   1.128  16.031 -3.6210  2.2559 -2.4826
 5974SOL     OW29383   2.358   0.185  10.977  0.1442  1.3187 -0.2776
 5974SOL    HW129384   2.413   0.182  11.055 -1.1952  1.5300  0.6774
 5974SOL    HW229385   2.387   0.272  10.949 -1.2041  1.5042 -1.0771
 5975SOL     OW29386   2.262   0.703   5.503 -0.0454  0.4380  0.1552
 5975SOL    HW129387   2.342   0.652   5.517  1.4928  2.0186 -3.0051
 5975SOL    HW229388   2.209   0.644   5.448  0.8484  2.8484 -3.2738
 5976SOL     OW29389   4.063   3.760   5.869 -0.1199 -0.0915  0.2250
 5976SOL    HW129390   4.019   3.844   5.859  2.9577  1.5282  0.3113
 5976SOL    HW229391   4.017   3.701   5.809  0.3339 -0.1329 -0.0823
 5977SOL     OW29392   0.472   3.252   5.614 -0.0839  0.2102  0.5056
 5977SOL    HW129393   0.507   3.337   5.641 -0.0988 -0.0915  1.4703
 5977SOL    HW229394   0.510   3.234   5.528  1.3885  1.4715  0.8982
 5978SOL     OW29395   0.586   3.011  15.879  0.3486 -0.0412  1.0621
 5978SOL    HW129396   0.624   3.054  15.955  1.2587 -0.1250  0.6493
 5978SOL    HW229397   0.662   2.961  15.849  1.6619  2.6859 -0.1089
 5979SOL     OW29398   4.001   1.701   6.675 -0.0170  0.0714  0.4892
 5979SOL    HW129399   3.945   1.745   6.610  1.2086 -0.5524 -0.9798
 5979SOL    HW229400   4.068   1.766   6.698  1.9410 -1.9640  0.4610
 5980SOL     OW29401   1.252   4.307   6.409 -0.2803  0.0193 -0.0831
 5980SOL    HW129402   1.265   4.247   6.483 -2.4457 -1.2337 -0.7301
 5980SOL    HW229403   1.172   4.266   6.378  0.5279 -1.0635 -0.7189
 5981SOL     OW29404   3.250   0.704   2.580 -0.4280 -0.3107  0.5598
 5981SOL    HW129405   3.176   0.744   2.626  0.1114  0.8176  0.4652
 5981SOL    HW229406   3.204   0.624   2.556  0.8433 -0.6765 -0.6559
 5982SOL     OW29407   1.782   1.182   4.790  0.0026 -0.2909 -0.0878
 5982SOL    HW129408   1.878   1.186   4.796 -0.0307  1.3295 -0.6555
 5982SOL    HW229409   1.777   1.093   4.753 -1.4957  0.2182 -1.0814
 5983SOL     OW29410   0.890   3.035   7.336 -0.6986 -1.0046 -0.2515
 5983SOL    HW129411   0.959   3.055   7.399 -0.7173  0.6308 -0.7377
 5983SOL    HW229412   0.879   3.118   7.289  0.0817 -0.0453  1.2406
 5984SOL     OW29413   4.704   4.252   9.778  0.5319 -0.3363  0.0255
 5984SOL    HW129414   4.662   4.241   9.864  0.2174  1.1633  0.0639
 5984SOL    HW229415   4.627   4.237   9.724  0.5756 -1.9010  0.3988
 5985SOL     OW29416   1.906   2.557  16.773  0.0239  0.6509 -0.1375
 5985SOL    HW129417   1.826   2.566  16.722 -1.6541 -0.5005  2.2580
 5985SOL    HW229418   1.949   2.479  16.737  2.5529  1.9036  0.1250
 5986SOL     OW29419   4.416   3.115   5.386  0.5119  0.7903  0.2031
 5986SOL    HW129420   4.476   3.179   5.347 -0.7422 -0.1848 -3.3820
 5986SOL    HW229421   4.359   3.173   5.435 -0.0202 -0.2692  0.8332
 5987SOL     OW29422   1.823   0.961   7.744 -0.3027 -0.3511 -0.1989
 5987SOL    HW129423   1.912   0.926   7.737 -0.4834 -0.4932 -1.8956
 5987SOL    HW229424   1.830   0.992   7.834  1.1270 -1.3197  0.0203
 5988SOL     OW29425   3.586   2.199   0.860 -0.1667  0.0368 -0.1655
 5988SOL    HW129426   3.508   2.181   0.808  1.5390 -1.4938 -2.2202
 5988SOL    HW229427   3.630   2.268   0.810  1.0241  0.3340  1.3079
 5989SOL     OW29428   2.134   2.375  15.186 -0.5824  0.1335  0.3345
 5989SOL    HW129429   2.143   2.294  15.238  3.8163  0.7204  0.5068
 5989SOL    HW229430   2.225   2.382  15.157 -0.4372  0.1204  0.7792
 5990SOL     OW29431   4.451   3.153   7.644 -0.0547  0.1235  0.6646
 5990SOL    HW129432   4.377   3.134   7.701 -1.1891 -0.0071 -0.8444
 5990SOL    HW229433   4.520   3.123   7.702 -1.7891  0.6166  2.9887
 5991SOL     OW29434   4.102   2.550   7.107 -0.2442  0.4340 -0.4426
 5991SOL    HW129435   4.045   2.490   7.156  0.5165  1.9798  2.3036
 5991SOL    HW229436   4.138   2.482   7.049  2.2958 -0.4036  2.1436
 5992SOL     OW29437   1.211   2.371   1.266  0.1860  0.8550  0.1496
 5992SOL    HW129438   1.305   2.376   1.280  0.2854  0.0524 -0.1927
 5992SOL    HW229439   1.212   2.356   1.171  2.1679 -0.6105  0.4075
 5993SOL     OW29440   3.456   0.175   3.911 -0.3195 -0.3239  0.4061
 5993SOL    HW129441   3.475   0.160   4.003  0.4149  0.2043  0.3395
 5993SOL    HW229442   3.537   0.222   3.891 -0.1168 -1.2476 -0.9594
 5994SOL     OW29443   1.845   2.260   2.869  0.1629  0.4185  0.3627
 5994SOL    HW129444   1.794   2.339   2.847 -0.6708  0.2941  1.9032
 5994SOL    HW229445   1.777   2.224   2.925  0.1161 -1.7397 -1.0652
 5995SOL     OW29446   1.855   3.679  10.047  0.1415  0.4634 -0.2391
 5995SOL    HW129447   1.835   3.624  10.123  0.8161 -0.2770 -0.5926
 5995SOL    HW229448   1.932   3.727  10.080 -0.5114  1.0637  0.4305
 5996SOL     OW29449   2.014   0.519   1.978  0.1164  0.3910  0.0831
 5996SOL    HW129450   2.062   0.439   1.957 -1.3195 -0.6105  0.6506
 5996SOL    HW229451   1.993   0.498   2.069 -0.1105 -1.1575 -0.3233
 5997SOL     OW29452   1.423   4.594   9.469 -0.4142  0.2308 -0.3593
 5997SOL    HW129453   1.393   4.658   9.533 -1.5846  0.9775 -1.6477
 5997SOL    HW229454   1.382   4.619   9.386 -0.7237 -0.5855 -0.4615
 5998SOL     OW29455   2.460   2.455   5.647  0.0671  0.2177 -0.3203
 5998SOL    HW129456   2.502   2.375   5.615  2.0055  0.6327  1.1772
 5998SOL    HW229457   2.417   2.430   5.729  0.5431  0.0535 -0.1165
 5999SOL     OW29458   2.545   0.034   9.674 -0.4980 -0.0684  0.5418
 5999SOL    HW129459   2.463   0.002   9.636 -1.3649 -0.8486  3.0958
 5999SOL    HW229460   2.606   0.018   9.601 -0.6594  1.8987 -0.0457
 6000SOL     OW29461   0.303   0.365   8.728 -0.2274 -0.3005  0.3521
 6000SOL    HW129462   0.280   0.417   8.805  0.1601 -1.9362  1.5885
 6000SOL    HW229463   0.213   0.338   8.709 -0.3049 -0.9716  1.6019
 6001SOL     OW29464   2.712   1.990  12.459 -0.4334 -0.6656 -0.4508
 6001SOL    HW129465   2.686   2.046  12.532 -1.9705  1.2508 -2.4820
 6001SOL    HW229466   2.803   1.967  12.480 -0.2668  1.3670  1.0053
 6002SOL     OW29467   2.144   3.597   1.791 -0.4458 -0.5563 -0.3140
 6002SOL    HW129468   2.205   3.655   1.836 -3.2691  1.2459  1.2157
 6002SOL    HW229469   2.126   3.529   1.855  2.6280 -1.1952 -0.1378
 6003SOL     OW29470   1.374   3.013  13.527 -0.6302 -0.2850  0.5655
 6003SOL    HW129471   1.397   3.053  13.443  0.3237  1.6340  1.7398
 6003SOL    HW229472   1.443   2.948  13.536 -1.1821 -1.2280 -1.9179
 6004SOL     OW29473   2.880   1.221  10.683 -0.1372  0.1686  0.4347
 6004SOL    HW129474   2.870   1.126  10.680  1.6134  0.0142 -0.6050
 6004SOL    HW229475   2.921   1.221  10.770 -0.0142  0.5609  0.3786
 6005SOL     OW29476   1.772   2.500   3.355 -0.6447 -0.1748  0.2241
 6005SOL    HW129477   1.688   2.539   3.330 -0.7860  0.5652  1.8243
 6005SOL    HW229478   1.827   2.517   3.279 -1.5350 -1.6603 -0.7612
 6006SOL     OW29479   2.951   2.833   4.358  0.5407 -0.0733  0.1201
 6006SOL    HW129480   3.027   2.886   4.383  0.8578 -0.0705 -0.8465
 6006SOL    HW229481   2.886   2.892   4.397  0.3006  1.2702 -2.2955
 6007SOL     OW29482   2.072   4.216   9.425 -0.0112 -0.7646 -0.2098
 6007SOL    HW129483   2.136   4.165   9.375  1.6350  1.8687 -0.7610
 6007SOL    HW229484   2.112   4.228   9.511  1.7926  2.4690 -1.5402
 6008SOL     OW29485   0.507   0.995   3.074 -0.2176  0.0598  0.5955
 6008SOL    HW129486   0.468   1.080   3.098 -2.0847 -0.5513 -0.2736
 6008SOL    HW229487   0.467   0.976   2.989 -2.5763  1.4413  1.3925
 6009SOL     OW29488   1.597   4.377   0.426  0.5118  0.4178  0.2666
 6009SOL    HW129489   1.524   4.325   0.392  0.5186  1.5789 -1.4827
 6009SOL    HW229490   1.664   4.315   0.398 -0.9736 -0.2968 -1.6849
 6010SOL     OW29491   1.522   4.347  17.136 -0.1249  0.6542 -0.0193
 6010SOL    HW129492   1.486   4.389  17.213 -0.1683  0.5685  0.0067
 6010SOL    HW229493   1.595   4.405  17.115 -1.1049  1.7162 -0.4842
 6011SOL     OW29494   3.894   2.148   5.646  0.2646 -0.4292  0.0755
 6011SOL    HW129495   3.974   2.173   5.693 -0.6266  1.2267  0.7257
 6011SOL    HW229496   3.838   2.117   5.717 -1.1275 -0.3821 -1.0052
 6012SOL     OW29497   3.383   1.330   2.019  0.3104 -0.1714 -0.6206
 6012SOL    HW129498   3.322   1.392   1.978 -0.1718  0.7846  1.5276
 6012SOL    HW229499   3.341   1.335   2.105  0.4030  0.7083 -0.6193
 6013SOL     OW29500   2.167   0.111   4.424  0.4386 -0.2271 -0.3643
 6013SOL    HW129501   2.098   0.160   4.379 -0.8758  0.1607  2.0729
 6013SOL    HW229502   2.118   0.070   4.496 -0.1030 -0.2189 -0.7257
 6014SOL     OW29503   4.587   0.384   0.595 -0.0635  0.2037  0.0707
 6014SOL    HW129504   4.540   0.367   0.677 -1.3399  1.6583 -0.3669
 6014SOL    HW229505   4.644   0.308   0.587  2.3571  2.1647 -1.4997
 6015SOL     OW29506   0.201   1.517   5.526  0.5419 -0.6656 -0.3769
 6015SOL    HW129507   0.164   1.603   5.547  0.6719 -0.5804 -0.4941
 6015SOL    HW229508   0.189   1.461   5.603 -1.5724  1.1958  0.6745
 6016SOL     OW29509   0.748   2.496  15.744  0.4609 -0.4388  0.1228
 6016SOL    HW129510   0.813   2.427  15.756 -2.5383 -2.8312  2.4995
 6016SOL    HW229511   0.690   2.486  15.819 -0.1138 -2.3591 -0.5917
 6017SOL     OW29512   2.793   4.576  12.366  0.6444  0.2424  0.1078
 6017SOL    HW129513   2.875   4.607  12.328 -0.0008  1.2035 -0.5042
 6017SOL    HW229514   2.794   4.622  12.449 -0.7672  0.9960 -0.2952
 6018SOL     OW29515   3.105   0.932   1.906  0.3762 -0.3197 -0.1971
 6018SOL    HW129516   3.076   1.002   1.965 -0.7435 -1.6932  0.8626
 6018SOL    HW229517   3.187   0.908   1.951  0.4553  0.1360 -0.0959
 6019SOL     OW29518   4.025   0.320  13.297  0.3259  0.2179  0.1945
 6019SOL    HW129519   3.949   0.292  13.348 -0.9341  2.1193 -0.6026
 6019SOL    HW229520   3.976   0.367  13.229  0.7658 -0.6451 -0.7140
 6020SOL     OW29521   4.716   4.530   8.636 -0.4029 -0.5097  0.1234
 6020SOL    HW129522   0.021   4.487   8.714 -1.1235 -0.9031  0.2134
 6020SOL    HW229523   0.023   4.618   8.648  0.6035 -0.8064 -0.6349
 6021SOL     OW29524   3.689   2.574   4.176  0.4269  0.0594 -0.3548
 6021SOL    HW129525   3.658   2.588   4.086  0.2108  1.2543 -0.0914
 6021SOL    HW229526   3.618   2.520   4.210  0.0632  1.3793  0.9491
 6022SOL     OW29527   2.847   1.585   6.037  0.0767 -0.1847  0.5868
 6022SOL    HW129528   2.838   1.520   5.968  3.2602  0.6505 -0.6179
 6022SOL    HW229529   2.833   1.660   5.980 -2.0766 -1.5143 -0.6057
 6023SOL     OW29530   1.969   3.082   6.465  0.2065 -0.1898  0.3356
 6023SOL    HW129531   2.003   3.152   6.520  0.6557 -0.4814  0.4271
 6023SOL    HW229532   1.887   3.120   6.434  1.6671  1.8845 -0.9253
 6024SOL     OW29533   2.986   2.779   9.813 -0.3780 -0.2812 -0.5681
 6024SOL    HW129534   2.975   2.786   9.908  2.0271  1.1715 -0.4201
 6024SOL    HW229535   2.940   2.700   9.784 -0.3098 -0.4278 -0.2825
 6025SOL     OW29536   3.860   2.964   8.966  0.0089 -0.5809 -0.0558
 6025SOL    HW129537   3.787   2.976   9.027 -0.2688 -0.2434 -0.4526
 6025SOL    HW229538   3.823   3.025   8.902 -0.9621  2.0210  2.9594
 6026SOL     OW29539   3.303   1.534   3.504 -0.4665 -0.2769 -0.0831
 6026SOL    HW129540   3.210   1.535   3.481 -0.4212  0.4210 -0.2258
 6026SOL    HW229541   3.331   1.623   3.526 -0.8953 -0.2388  0.3348
 6027SOL     OW29542   0.108   2.941  15.626 -0.1620 -0.1631 -0.0989
 6027SOL    HW129543   0.191   2.908  15.592 -1.0954  0.8069 -3.2862
 6027SOL    HW229544   0.089   3.018  15.572 -1.8831 -0.7537 -0.3303
 6028SOL     OW29545   3.358   2.923  16.602  0.1934 -0.5212 -0.5538
 6028SOL    HW129546   3.387   2.844  16.649 -0.5331 -0.3208  0.2444
 6028SOL    HW229547   3.358   2.884  16.515  1.2615 -2.4791  0.3131
 6029SOL     OW29548   4.476   0.358  17.439 -0.1803  0.8790 -0.3024
 6029SOL    HW129549   4.421   0.432  17.467  0.7772  0.8629  1.6443
 6029SOL    HW229550   4.547   0.399  17.390 -1.3819  2.3577 -0.8250
 6030SOL     OW29551   2.147   0.556   5.922  0.0050  0.0127 -0.2262
 6030SOL    HW129552   2.140   0.607   5.841 -2.1081 -0.0466 -0.0689
 6030SOL    HW229553   2.152   0.636   5.974  0.0559 -0.5766  0.6767
 6031SOL     OW29554   2.227   3.959   2.499 -0.1203  0.2380  0.7090
 6031SOL    HW129555   2.236   3.864   2.512  1.9290  0.2318 -0.7972
 6031SOL    HW229556   2.306   4.002   2.531  0.2650  0.9063 -1.1436
 6032SOL     OW29557   3.598   2.841   1.602 -0.2161  0.1190  0.5578
 6032SOL    HW129558   3.683   2.880   1.583  0.1097 -0.2375  1.3288
 6032SOL    HW229559   3.601   2.834   1.697 -2.3902  1.3752  0.7194
 6033SOL     OW29560   2.817   0.581   6.723 -0.5033 -0.1437 -0.1665
 6033SOL    HW129561   2.778   0.493   6.724  0.4797 -0.5681  1.8966
 6033SOL    HW229562   2.818   0.597   6.818  0.6327 -1.1570 -0.0078
 6034SOL     OW29563   4.488   0.917   5.076  0.0174 -0.0706  0.3534
 6034SOL    HW129564   4.456   0.830   5.050  0.9765 -0.4020  0.2910
 6034SOL    HW229565   4.439   0.935   5.156 -3.0662 -0.3466 -1.4641
 6035SOL     OW29566   2.012   2.808   7.830 -0.1319  0.0618 -0.2261
 6035SOL    HW129567   2.021   2.901   7.808  0.7256  0.4019  1.5768
 6035SOL    HW229568   2.058   2.775   7.753 -0.4005 -1.1633  0.1406
 6036SOL     OW29569   3.107   2.258  11.801  0.2084 -0.9963 -0.3761
 6036SOL    HW129570   3.149   2.220  11.724  0.2531 -0.7921 -0.4531
 6036SOL    HW229571   3.179   2.259  11.864 -2.1127 -2.9498  2.2795
 6037SOL     OW29572   1.418   4.532   4.520  0.2635 -0.2597 -0.1815
 6037SOL    HW129573   1.475   4.459   4.545  2.7511  1.9242  0.4866
 6037SOL    HW229574   1.367   4.534   4.601 -1.8819 -0.0222 -1.5250
 6038SOL     OW29575   4.598   2.803   5.412  0.0260  0.1474 -0.2995
 6038SOL    HW129576   4.690   2.797   5.384 -0.1313  1.4917 -1.1002
 6038SOL    HW229577   4.568   2.884   5.371 -0.3851  0.1586  0.0316
 6039SOL     OW29578   0.779   3.576   3.676 -0.3755  0.1175 -0.2944
 6039SOL    HW129579   0.814   3.525   3.602 -1.0861 -1.0973  0.2043
 6039SOL    HW229580   0.794   3.512   3.745 -2.4966 -0.0457  0.0206
 6040SOL     OW29581   0.724   3.699  13.410 -0.4391  0.3053 -0.5605
 6040SOL    HW129582   0.638   3.679  13.446  0.2731 -2.5877 -0.4818
 6040SOL    HW229583   0.792   3.685  13.477  1.0914 -1.1733 -2.4490
 6041SOL     OW29584   1.637   3.646   8.352  0.1982 -0.0912 -0.1576
 6041SOL    HW129585   1.652   3.576   8.288 -2.0321 -0.9574  0.2795
 6041SOL    HW229586   1.591   3.600   8.422 -0.5638  1.2923  0.2375
 6042SOL     OW29587   2.103   0.755   5.726 -0.4569  0.0842  0.3315
 6042SOL    HW129588   2.155   0.751   5.646 -1.4721  0.4834 -0.3513
 6042SOL    HW229589   2.023   0.707   5.703 -0.8603  1.2421 -0.6492
 6043SOL     OW29590   0.199   0.557   4.605  0.5306 -0.1160 -0.7579
 6043SOL    HW129591   0.294   0.563   4.611  0.4543 -0.3477  0.6235
 6043SOL    HW229592   0.182   0.628   4.666  2.0754 -1.1769  0.8862
 6044SOL     OW29593   1.737   0.399   6.699  0.4034 -0.0713 -0.0578
 6044SOL    HW129594   1.643   0.388   6.710  0.5130 -0.4778  0.4578
 6044SOL    HW229595   1.765   0.475   6.750  2.9237  0.5224 -2.3419
 6045SOL     OW29596   2.781   0.200   4.598  0.3247 -0.2953  0.2082
 6045SOL    HW129597   2.756   0.191   4.690 -1.6515 -1.3202 -0.4204
 6045SOL    HW229598   2.732   0.129   4.556  1.1971  0.1821 -1.6067
 6046SOL     OW29599   2.888   4.089  15.504  0.3163 -0.0033  0.5192
 6046SOL    HW129600   2.922   4.170  15.544 -2.3142  1.0108  0.7375
 6046SOL    HW229601   2.854   4.041  15.580 -0.0239  1.4906  1.3171
 6047SOL     OW29602   0.551   2.629  16.750 -0.0671 -0.1591  0.4432
 6047SOL    HW129603   0.477   2.632  16.689 -0.0148 -1.7280  0.2946
 6047SOL    HW229604   0.598   2.552  16.718  0.1414  0.9578 -1.8856
 6048SOL     OW29605   2.860   2.041   3.862 -0.6544 -0.4798  0.4188
 6048SOL    HW129606   2.861   2.079   3.950 -1.3941  0.8011 -0.1211
 6048SOL    HW229607   2.918   2.091   3.805 -1.1020 -1.6746 -1.0830
 6049SOL     OW29608   2.573   0.699   8.121  0.3305 -0.3397  0.4141
 6049SOL    HW129609   2.637   0.748   8.173 -1.3088 -0.8233  2.8668
 6049SOL    HW229610   2.493   0.750   8.131  0.2708 -0.1345 -1.1309
 6050SOL     OW29611   4.547   2.624   8.067 -0.4135  0.7407  0.4942
 6050SOL    HW129612   4.566   2.714   8.094  0.4068  0.7838 -0.2458
 6050SOL    HW229613   4.618   2.575   8.109 -0.2960  1.7135  1.4367
 6051SOL     OW29614   2.296   0.844   8.769  0.0199  0.8150 -0.1977
 6051SOL    HW129615   2.384   0.859   8.734  0.2316  0.5839  0.2301
 6051SOL    HW229616   2.291   0.749   8.755  0.9884  0.8796 -0.9540
 6052SOL     OW29617   1.182   3.735  17.012 -0.3560  0.1052  0.9566
 6052SOL    HW129618   1.152   3.654  16.970 -0.7213  0.4163  0.6220
 6052SOL    HW229619   1.264   3.746  16.965 -1.1123  0.2468 -0.3544
 6053SOL     OW29620   3.527   1.317   5.061 -0.1179 -0.3305  0.6440
 6053SOL    HW129621   3.575   1.399   5.072  1.3783 -1.0497 -0.5671
 6053SOL    HW229622   3.601   1.256   5.062  1.5521  1.7201 -0.4415
 6054SOL     OW29623   3.349   2.415   9.294  0.2249  0.1091  0.4746
 6054SOL    HW129624   3.412   2.349   9.265  1.4062  0.8967  1.2405
 6054SOL    HW229625   3.405   2.457   9.360  0.2370 -1.2864  1.3440
 6055SOL     OW29626   3.754   1.195   6.279 -0.0673  0.0110 -0.0146
 6055SOL    HW129627   3.842   1.220   6.306 -0.2055  0.1497  0.3086
 6055SOL    HW229628   3.706   1.171   6.358 -2.3771  3.7054 -0.2580
 6056SOL     OW29629   0.210   3.118  10.373  0.4331  0.3681 -0.3151
 6056SOL    HW129630   0.267   3.083  10.441 -0.9477  1.0454  1.1935
 6056SOL    HW229631   0.249   3.097  10.289 -0.3685 -0.0995 -0.5723
 6057SOL     OW29632   0.412   2.229  14.919 -0.1165  0.0641 -0.3359
 6057SOL    HW129633   0.458   2.234  15.003 -0.2913 -3.5855 -0.0303
 6057SOL    HW229634   0.478   2.243  14.851 -0.3979 -1.2431 -0.8747
 6058SOL     OW29635   0.749   4.191   4.916  0.1156  0.5168 -0.1623
 6058SOL    HW129636   0.823   4.250   4.902  0.2687  0.2992 -0.2646
 6058SOL    HW229637   0.798   4.122   4.961  1.3875  1.1605 -0.5436
 6059SOL     OW29638   2.699   3.443   7.820  0.2365  0.1568  0.2092
 6059SOL    HW129639   2.747   3.395   7.753  0.5085  1.5459 -0.5685
 6059SOL    HW229640   2.717   3.396   7.902  0.0020  1.4734  1.0250
 6060SOL     OW29641   3.605   2.312   3.616 -0.2764 -0.4696 -0.7810
 6060SOL    HW129642   3.664   2.317   3.541 -0.7014  0.5713 -1.0509
 6060SOL    HW229643   3.631   2.224   3.644 -0.6297 -0.7836 -1.4339
 6061SOL     OW29644   0.796   1.070   7.443  0.4250 -0.2358 -0.8778
 6061SOL    HW129645   0.735   1.138   7.416  0.8829  1.1245  1.5270
 6061SOL    HW229646   0.764   1.001   7.385 -0.0984  1.4052 -2.5451
 6062SOL     OW29647   1.931   3.493   2.413  0.0893  0.3536 -0.2551
 6062SOL    HW129648   1.945   3.575   2.461 -2.0002  0.3828  0.3045
 6062SOL    HW229649   1.845   3.467   2.448  0.2263 -1.5995 -1.3521
 6063SOL     OW29650   3.892   2.308   8.494  0.1439 -0.2507 -0.0935
 6063SOL    HW129651   3.974   2.258   8.487  0.5743  0.6059 -1.3251
 6063SOL    HW229652   3.875   2.305   8.588  2.4347 -1.1233  0.2924
 6064SOL     OW29653   0.410   2.009   9.096  0.6328  0.2688 -0.5589
 6064SOL    HW129654   0.371   1.994   9.010  2.6831  1.5647 -1.7275
 6064SOL    HW229655   0.488   2.052   9.061  0.1934  0.4024 -1.3820
 6065SOL     OW29656   1.197   1.631   6.729 -0.0606 -0.1590 -0.5980
 6065SOL    HW129657   1.171   1.719   6.704  1.9995  0.6314  0.0972
 6065SOL    HW229658   1.218   1.633   6.822  1.2159  0.9052 -0.9090
 6066SOL     OW29659   2.190   1.215   8.553  0.2418 -0.5490  0.2960
 6066SOL    HW129660   2.233   1.280   8.498  0.0314  0.0089  0.7949
 6066SOL    HW229661   2.104   1.247   8.579  0.7018  1.3731 -0.5563
 6067SOL     OW29662   2.634   1.860   3.499  0.3215 -0.1821 -0.1247
 6067SOL    HW129663   2.639   1.930   3.434  0.1301 -1.6770 -1.7601
 6067SOL    HW229664   2.683   1.795   3.448 -1.0607  0.4092 -2.1929
 6068SOL     OW29665   0.468   2.119   7.429 -0.2971  0.2146 -0.5955
 6068SOL    HW129666   0.456   2.144   7.337  1.8086  0.2523 -0.8443
 6068SOL    HW229667   0.378   2.092   7.449 -0.2269 -0.1699 -0.7986
 6069SOL     OW29668   0.461   1.275  14.754 -0.0543  0.0840 -0.1426
 6069SOL    HW129669   0.521   1.256  14.826  0.5910  1.4020 -0.3126
 6069SOL    HW229670   0.450   1.370  14.766 -0.8488  0.0899 -0.8869
 6070SOL     OW29671   3.169   1.788   1.446  0.0719  0.0892  0.2858
 6070SOL    HW129672   3.241   1.773   1.385  2.0298 -0.4350  2.7084
 6070SOL    HW229673   3.106   1.719   1.428  1.8898 -2.0339  2.0541
 6071SOL     OW29674   1.962   1.699   2.016 -0.0328  0.0501 -0.1303
 6071SOL    HW129675   2.056   1.680   2.007  0.1260  0.0380  1.4310
 6071SOL    HW229676   1.930   1.615   2.049  1.5455 -0.5122 -0.0097
 6072SOL     OW29677   3.987   0.611   4.166 -0.6995 -0.2322 -0.3077
 6072SOL    HW129678   4.031   0.695   4.156  0.0503 -0.7718 -1.5953
 6072SOL    HW229679   3.961   0.614   4.258  0.5847 -0.1535  0.0576
 6073SOL     OW29680   2.550   2.542   8.000 -0.3147  0.4060 -0.0253
 6073SOL    HW129681   2.465   2.572   7.967 -0.9155 -0.3940  0.7806
 6073SOL    HW229682   2.561   2.466   7.943 -3.9221  0.5694 -0.9867
 6074SOL     OW29683   1.556   1.991   2.846  0.0522 -0.6107 -0.1999
 6074SOL    HW129684   1.524   2.064   2.794  0.2669 -2.4946 -2.9513
 6074SOL    HW229685   1.601   2.042   2.913 -0.0405 -0.9462  0.1233
 6075SOL     OW29686   1.438   0.228  17.050 -0.5388  0.9222  0.3175
 6075SOL    HW129687   1.379   0.249  16.978 -0.7436 -2.4560 -0.4988
 6075SOL    HW229688   1.452   0.315  17.087  0.3801  0.2022  1.6608
 6076SOL     OW29689   1.137   3.337  17.094  0.6071 -0.4043  0.1236
 6076SOL    HW129690   1.141   3.388  17.013  0.4942 -0.0042  0.3734
 6076SOL    HW229691   1.228   3.330  17.124  0.9584 -0.1896 -0.8774
 6077SOL     OW29692   0.258   4.598  17.096  0.4517  0.3272  0.0009
 6077SOL    HW129693   0.299   4.669  17.047  0.8399  0.0285 -0.1116
 6077SOL    HW229694   0.202   4.642  17.159 -1.8001 -1.5146 -0.7049
 6078SOL     OW29695   2.720   4.185   5.313  0.1335 -0.2031 -0.0091
 6078SOL    HW129696   2.769   4.191   5.231 -0.0009 -1.2619 -0.1695
 6078SOL    HW229697   2.793   4.183   5.376  0.0443  1.1965  0.1468
 6079SOL     OW29698   3.385   0.477   8.050 -0.2320  0.1580 -0.0792
 6079SOL    HW129699   3.387   0.570   8.071  0.7537  0.2034 -0.3804
 6079SOL    HW229700   3.310   0.444   8.099  0.4011  0.2544  0.9410
 6080SOL     OW29701   1.206   3.389   7.552 -0.1396  1.0041  0.4015
 6080SOL    HW129702   1.131   3.423   7.601 -0.8726 -1.7682  1.1675
 6080SOL    HW229703   1.210   3.461   7.489 -1.8834  0.7932  0.0558
 6081SOL     OW29704   1.767   3.148  13.550 -0.0379 -0.2097 -0.2223
 6081SOL    HW129705   1.818   3.219  13.511  1.4900 -0.9813  0.3673
 6081SOL    HW229706   1.682   3.176  13.518  1.1559  3.3873 -0.2990
 6082SOL     OW29707   0.194   3.991   3.459  0.1590  0.7027 -0.0680
 6082SOL    HW129708   0.167   3.926   3.394  1.0550 -0.4970  0.7632
 6082SOL    HW229709   0.140   4.060   3.421 -2.2456 -0.8070  0.6221
 6083SOL     OW29710   1.430   3.497   9.103  0.1652  0.0881 -0.2249
 6083SOL    HW129711   1.343   3.531   9.085 -1.3488 -2.5903  2.0757
 6083SOL    HW229712   1.418   3.405   9.081  0.4600 -0.4168  1.6974
 6084SOL     OW29713   4.557   2.163   2.157 -0.3271 -0.3111 -0.1556
 6084SOL    HW129714   4.503   2.123   2.089 -0.3062 -0.8806  0.1655
 6084SOL    HW229715   4.557   2.255   2.131  1.3117 -0.4489 -0.6544
 6085SOL     OW29716   2.017   2.896  11.442  0.7894 -0.7247  0.4977
 6085SOL    HW129717   2.009   2.822  11.502  3.0157 -1.2838  0.1180
 6085SOL    HW229718   1.953   2.962  11.467  1.3136 -0.7541  1.9305
 6086SOL     OW29719   1.845   1.509  17.337  0.1434 -0.0669  0.2787
 6086SOL    HW129720   1.858   1.479  17.427 -0.4046 -2.3995 -0.4057
 6086SOL    HW229721   1.750   1.516  17.330 -0.0159 -0.1565  2.1667
 6087SOL     OW29722   2.012   0.179  16.413  0.4931  0.0183  0.3252
 6087SOL    HW129723   2.091   0.230  16.395 -0.7191  1.4485 -0.9320
 6087SOL    HW229724   2.037   0.121  16.485 -0.3809  1.3183  1.6582
 6088SOL     OW29725   3.136   1.813   6.711 -0.2248  0.1796  0.3036
 6088SOL    HW129726   3.166   1.731   6.749 -0.3496 -0.3634 -0.7671
 6088SOL    HW229727   3.060   1.784   6.662  1.0145  1.2158 -2.2380
 6089SOL     OW29728   4.551   1.693   8.312  0.7001 -0.0658  0.1116
 6089SOL    HW129729   4.578   1.774   8.356  0.9060  0.5005 -1.0460
 6089SOL    HW229730   4.479   1.722   8.255  2.4041  2.6214 -0.6706
 6090SOL     OW29731   3.504   0.877   5.394 -0.3469  0.1652 -0.1514
 6090SOL    HW129732   3.577   0.817   5.379 -0.9011 -0.8012  0.9542
 6090SOL    HW229733   3.424   0.824   5.389  0.1405 -0.4357 -1.3143
 6091SOL     OW29734   1.568   0.613  16.972 -0.6779  0.2207  0.2166
 6091SOL    HW129735   1.618   0.553  16.915 -3.1643 -1.9719  0.3704
 6091SOL    HW229736   1.629   0.687  16.968  1.5769 -1.6390 -0.5888
 6092SOL     OW29737   3.834   2.529   5.323  0.0976 -0.0944  0.0176
 6092SOL    HW129738   3.858   2.469   5.394 -0.7902 -0.0039  0.3836
 6092SOL    HW229739   3.828   2.469   5.248 -0.3058  0.5117 -0.4331
 6093SOL     OW29740   0.947   2.915   4.403  0.2619  0.0359 -0.1707
 6093SOL    HW129741   0.896   2.846   4.361 -0.5482 -0.2223  1.2228
 6093SOL    HW229742   0.878   2.971   4.437  0.3888  0.0455  0.0716
 6094SOL     OW29743   4.167   0.063   6.914  0.0021  0.0871 -0.1394
 6094SOL    HW129744   4.199   4.718   6.967  2.7456 -0.8638 -3.1046
 6094SOL    HW229745   4.073   0.046   6.908  0.2542 -1.8019  1.4349
 6095SOL     OW29746   0.959   0.503   1.943 -0.6009  0.4740  0.0152
 6095SOL    HW129747   1.024   0.574   1.940 -0.3487  0.3098  1.9978
 6095SOL    HW229748   0.954   0.482   1.849 -1.6011 -2.2924  0.6932
 6096SOL     OW29749   4.529   3.495   7.859 -0.0317  0.8339 -0.4842
 6096SOL    HW129750   4.435   3.495   7.844  0.1250 -0.3588 -1.4869
 6096SOL    HW229751   4.521   3.421   7.919 -0.5000  1.7101  0.5301
 6097SOL     OW29752   4.263   3.908  10.379 -0.0862  0.1437  0.3648
 6097SOL    HW129753   4.331   3.862  10.430 -1.1016 -1.1878  0.5310
 6097SOL    HW229754   4.224   3.975  10.434 -1.0659  1.7014 -2.2382
 6098SOL     OW29755   3.898   2.850   8.397  0.0638 -0.1981 -0.7737
 6098SOL    HW129756   3.866   2.935   8.367  0.9208  1.0443  1.8329
 6098SOL    HW229757   3.919   2.808   8.313  2.0627  0.4502 -0.6082
 6099SOL     OW29758   0.490   3.916   4.100  0.3122  0.0085  0.4385
 6099SOL    HW129759   0.401   3.931   4.130  0.1386 -1.6442  0.7319
 6099SOL    HW229760   0.516   3.834   4.141  0.5504  0.5475  1.3482
 6100SOL     OW29761   3.253   2.269   0.009 -0.4721 -0.4547 -0.5531
 6100SOL    HW129762   3.341   2.235  17.710 -0.2763  0.2413 -1.1077
 6100SOL    HW229763   3.247   2.284   0.103  0.5393 -2.5912 -0.1672
 6101SOL     OW29764   3.167   2.780   9.585 -0.4156 -0.0154 -0.0155
 6101SOL    HW129765   3.194   2.690   9.566 -0.9379 -0.1160 -0.2820
 6101SOL    HW229766   3.135   2.772   9.675  0.0109  0.5654  0.1815
 6102SOL     OW29767   1.668   3.406  11.371 -0.0146 -0.4393 -0.1291
 6102SOL    HW129768   1.723   3.347  11.320  1.7190 -0.1854  1.4349
 6102SOL    HW229769   1.626   3.447  11.295 -0.4534 -2.2346 -0.8638
 6103SOL     OW29770   2.676   3.672   9.658 -0.3552  0.3954 -0.4286
 6103SOL    HW129771   2.723   3.634   9.732 -2.2861  0.3165  0.7528
 6103SOL    HW229772   2.715   3.759   9.656 -0.9266  0.6400 -0.8441
 6104SOL     OW29773   0.997   4.266  10.438 -0.0373  0.6933  0.2372
 6104SOL    HW129774   1.023   4.352  10.407  2.1034  0.1205  0.4173
 6104SOL    HW229775   1.057   4.258  10.513 -0.4945  0.2411  0.5537
 6105SOL     OW29776   3.681   3.005   7.648 -0.2156 -0.3363 -0.4485
 6105SOL    HW129777   3.719   2.918   7.658 -1.6811 -0.5952  3.1284
 6105SOL    HW229778   3.646   3.028   7.734  0.6020 -1.9866  0.3273
 6106SOL     OW29779   2.224   1.721   4.187 -0.2575 -0.5605 -0.1373
 6106SOL    HW129780   2.223   1.691   4.096  1.5137  0.2816 -0.4249
 6106SOL    HW229781   2.166   1.657   4.228 -2.5158  0.9187 -1.0500
 6107SOL     OW29782   3.651   4.097   8.062  0.3381  0.3100 -0.2278
 6107SOL    HW129783   3.663   4.035   8.133 -0.5122  1.1852  0.6818
 6107SOL    HW229784   3.611   4.173   8.105 -0.2485 -1.1895  1.8950
 6108SOL     OW29785   3.641   1.595   5.109 -0.3861 -0.3873 -0.1886
 6108SOL    HW129786   3.698   1.639   5.046 -1.4217 -2.7566 -2.8025
 6108SOL    HW229787   3.704   1.596   5.181  0.7461  2.5686 -1.2197
 6109SOL     OW29788   2.610   3.884   5.062 -0.6505 -0.4993  0.1258
 6109SOL    HW129789   2.559   3.916   5.136 -1.0866 -2.9838  0.9208
 6109SOL    HW229790   2.632   3.793   5.084 -0.3770 -0.5913 -0.5229
 6110SOL     OW29791   2.236   1.225  16.957  0.2264  0.7153 -0.4749
 6110SOL    HW129792   2.211   1.230  17.049  1.4710  2.2603 -0.2183
 6110SOL    HW229793   2.331   1.237  16.962  0.3972 -0.8359 -0.1860
 6111SOL     OW29794   0.490   1.849   4.263  0.2165  0.3633 -0.1105
 6111SOL    HW129795   0.440   1.824   4.185  0.5943  0.0764 -0.2597
 6111SOL    HW229796   0.555   1.897   4.212  0.4751  0.7403  0.5776
 6112SOL     OW29797   2.565   0.446   4.098  0.3722 -0.4146 -0.0342
 6112SOL    HW129798   2.576   0.440   4.193  3.3195 -1.8035 -0.4759
 6112SOL    HW229799   2.655   0.436   4.066 -0.2875 -0.5883 -1.7917
 6113SOL     OW29800   3.581   1.302  12.995 -0.3188  0.1357  0.2853
 6113SOL    HW129801   3.496   1.258  13.004 -0.9561  1.1931 -0.5868
 6113SOL    HW229802   3.647   1.233  12.987 -2.0078 -1.3838 -0.5418
 6114SOL     OW29803   3.983   0.308   3.088  1.0442  0.1675 -0.0867
 6114SOL    HW129804   3.928   0.242   3.131  0.8598  1.9834  2.4212
 6114SOL    HW229805   3.927   0.367   3.039 -0.9909 -1.0044  0.8328
 6115SOL     OW29806   0.162   2.347  13.501  0.0289  0.1802 -0.2150
 6115SOL    HW129807   0.245   2.317  13.539  1.1063  0.3436 -2.4392
 6115SOL    HW229808   0.102   2.279  13.533 -2.0554  2.6758  1.1502
 6116SOL     OW29809   3.598   2.815   1.864 -0.1715  0.1655  0.4290
 6116SOL    HW129810   3.675   2.758   1.865  0.0077  0.3842 -0.9328
 6116SOL    HW229811   3.613   2.867   1.943  0.3460 -1.3795  1.3545
 6117SOL     OW29812   1.550   0.549  17.442  0.3522  0.7050  0.3546
 6117SOL    HW129813   1.549   0.635  17.484  2.7645  0.5422  0.7252
 6117SOL    HW229814   1.495   0.501  17.504  1.2668 -1.5034 -0.5595
 6118SOL     OW29815   3.053   2.977   6.177  0.4980 -0.1234 -0.1243
 6118SOL    HW129816   3.099   2.938   6.251  0.5309 -0.0039 -0.0820
 6118SOL    HW229817   3.099   2.929   6.108 -1.1540  1.8053 -2.5673
 6119SOL     OW29818   3.009   2.934   2.668  0.0131  0.2549  0.6367
 6119SOL    HW129819   2.983   2.847   2.638 -1.4109  1.2941 -1.0922
 6119SOL    HW229820   2.939   2.990   2.635 -0.9000 -1.9250 -1.1132
 6120SOL     OW29821   3.535   3.907  16.453 -0.6418 -0.2340  0.7116
 6120SOL    HW129822   3.575   3.831  16.411 -0.9462  1.2572 -2.3504
 6120SOL    HW229823   3.463   3.916  16.390  1.6606 -0.2624 -1.9516
 6121SOL     OW29824   2.752   2.487  10.660  0.4906  0.7283 -0.2365
 6121SOL    HW129825   2.777   2.558  10.719  2.6040  1.8101 -2.3886
 6121SOL    HW229826   2.824   2.425  10.675  1.8580  1.8990 -1.9170
 6122SOL     OW29827   4.627   1.487   2.327  0.3555  0.3599 -0.7753
 6122SOL    HW129828   4.682   1.561   2.300  0.3376  1.3859  2.0377
 6122SOL    HW229829   4.610   1.512   2.418 -1.2750  0.7764 -1.1908
 6123SOL     OW29830   2.291   0.342   1.739  0.4788 -0.1036  0.4126
 6123SOL    HW129831   2.330   0.294   1.666  1.4199 -0.6308  1.2709
 6123SOL    HW229832   2.222   0.279   1.761 -1.0208  1.4074  0.0516
 6124SOL     OW29833   4.462   3.108  16.837 -0.0332  0.3721  0.4588
 6124SOL    HW129834   4.441   3.199  16.818  2.5979  0.6878 -0.8218
 6124SOL    HW229835   4.388   3.094  16.897  0.0082 -0.3974  0.3335
 6125SOL     OW29836   1.050   1.378  16.545  0.3253 -0.4545  0.7583
 6125SOL    HW129837   1.143   1.354  16.538  0.0763 -1.4437  0.7501
 6125SOL    HW229838   1.038   1.455  16.490  1.6224 -1.2285 -0.5980
 6126SOL     OW29839   4.650   1.561   1.402  0.2323 -0.1286  0.5277
 6126SOL    HW129840   4.600   1.640   1.425 -0.4608  0.1132 -1.8142
 6126SOL    HW229841   4.626   1.560   1.309 -0.5988 -2.3117  0.7664
 6127SOL     OW29842   3.836   3.502   2.410  0.0287  0.1101 -0.0188
 6127SOL    HW129843   3.793   3.573   2.363 -1.0885 -1.2694 -1.0519
 6127SOL    HW229844   3.924   3.540   2.404  0.2523 -0.4756 -0.4324
 6128SOL     OW29845   3.802   0.426  12.509  0.2408 -0.1896 -0.1872
 6128SOL    HW129846   3.756   0.462  12.584 -1.1332  1.2244 -1.7373
 6128SOL    HW229847   3.732   0.416  12.444 -1.9621 -0.5949  2.2678
 6129SOL     OW29848   4.541   0.033   4.025 -0.2031 -0.4804  0.5732
 6129SOL    HW129849   4.586   0.057   3.944  0.0398 -3.1325 -0.0668
 6129SOL    HW229850   4.604   0.053   4.094 -1.7765 -2.5147  2.5724
 6130SOL     OW29851   3.579   3.156   5.432 -0.4648  0.2196  0.3449
 6130SOL    HW129852   3.598   3.165   5.338 -1.4146  0.9407  0.2262
 6130SOL    HW229853   3.631   3.076   5.440 -2.5165 -1.1030  0.5621
 6131SOL     OW29854   2.541   2.887  17.326 -0.5210  0.1172  0.4611
 6131SOL    HW129855   2.594   2.808  17.319 -0.4653  0.2264 -0.4435
 6131SOL    HW229856   2.543   2.897  17.421 -1.4538 -1.3472  0.6248
 6132SOL     OW29857   0.426   1.381   3.537 -0.0023 -0.0410 -0.5137
 6132SOL    HW129858   0.345   1.417   3.502 -0.4906 -0.0123  0.6426
 6132SOL    HW229859   0.390   1.319   3.600 -1.1752 -0.4034 -1.5450
 6133SOL     OW29860   2.146   2.483   3.369 -0.5049 -0.5775 -0.7747
 6133SOL    HW129861   2.087   2.515   3.437 -0.1636 -1.6069 -0.0076
 6133SOL    HW229862   2.220   2.447   3.417  1.0085  2.1358 -1.0475
 6134SOL     OW29863   3.646   2.087   4.071  0.2443 -0.7539  0.5250
 6134SOL    HW129864   3.624   2.160   4.014  1.7004  0.0254  0.9641
 6134SOL    HW229865   3.593   2.013   4.041  1.5323 -1.5582  0.2115
 6135SOL     OW29866   1.765   4.234   6.838  0.2214  0.2628 -0.1921
 6135SOL    HW129867   1.671   4.217   6.836  0.5493 -1.5090 -0.1515
 6135SOL    HW229868   1.775   4.269   6.749 -0.1557  1.5749  0.2739
 6136SOL     OW29869   4.653   0.688  14.601  0.7168 -0.0304 -0.3035
 6136SOL    HW129870   4.587   0.708  14.535  0.8613  1.8179  0.1153
 6136SOL    HW229871   4.598   0.649  14.670  1.0154  1.9944  1.0586
 6137SOL     OW29872   1.722   1.084  11.256  0.3504  0.2531 -0.0408
 6137SOL    HW129873   1.801   1.052  11.212  2.6922  0.5551  3.9714
 6137SOL    HW229874   1.740   1.078  11.350  0.5650 -0.7729 -0.1454
 6138SOL     OW29875   4.158   2.168   1.320 -0.3687  0.1961 -0.1204
 6138SOL    HW129876   4.116   2.245   1.281 -0.6585 -0.4342 -1.0317
 6138SOL    HW229877   4.138   2.088   1.273  0.0889  1.1018 -1.8505
 6139SOL     OW29878   0.941   0.486   9.450  0.3244  0.2336 -0.4228
 6139SOL    HW129879   0.916   0.550   9.383 -0.2842  0.4073 -0.0243
 6139SOL    HW229880   0.991   0.427   9.393  1.1351 -0.6472  1.2026
 6140SOL     OW29881   2.163   3.906  13.611  0.1138  0.5628 -0.2018
 6140SOL    HW129882   2.224   3.874  13.544  2.2536  1.0277  1.5168
 6140SOL    HW229883   2.104   3.831  13.615  1.2047 -0.3440 -1.0685
 6141SOL     OW29884   1.900   2.626   7.133 -0.5430 -0.0152 -0.0487
 6141SOL    HW129885   1.855   2.605   7.051  0.6292  0.1375 -0.7312
 6141SOL    HW229886   1.985   2.585   7.113 -1.2310 -1.4771  0.0222
 6142SOL     OW29887   0.764   1.051  14.362  0.2618 -0.0411  0.0333
 6142SOL    HW129888   0.697   1.109  14.399 -0.3620 -0.4107 -0.5045
 6142SOL    HW229889   0.823   1.062  14.437  0.6266 -0.5368 -0.1809
 6143SOL     OW29890   1.310   1.391  10.894 -0.8936  0.2903  0.4627
 6143SOL    HW129891   1.308   1.327  10.823 -0.4132  1.6806 -0.7912
 6143SOL    HW229892   1.394   1.374  10.937 -2.3989  1.2369  3.7555
 6144SOL     OW29893   2.054   2.387   2.423 -0.0585  0.1676  0.3756
 6144SOL    HW129894   1.975   2.334   2.423 -0.8535  1.3417  1.6294
 6144SOL    HW229895   2.086   2.347   2.504 -0.2272 -1.5844 -0.4385
 6145SOL     OW29896   0.783   3.836   9.529  0.1910  0.3065 -0.1762
 6145SOL    HW129897   0.796   3.755   9.480  1.0014  0.9749 -1.0690
 6145SOL    HW229898   0.736   3.882   9.460  1.2783  0.6833 -0.6569
 6146SOL     OW29899   2.864   0.510  16.878  0.3828  0.3017  0.0945
 6146SOL    HW129900   2.914   0.538  16.954 -0.6349  0.8213  0.5632
 6146SOL    HW229901   2.886   0.576  16.813 -1.0049 -0.6293 -1.3388
 6147SOL     OW29902   2.176   0.268  12.055  0.1352 -1.0184  0.2772
 6147SOL    HW129903   2.243   0.216  12.100 -2.2821 -0.9148  3.9846
 6147SOL    HW229904   2.099   0.212  12.049 -1.8947  2.0404 -2.5413
 6148SOL     OW29905   4.434   1.762   4.246  0.5225 -0.4304 -0.0085
 6148SOL    HW129906   4.351   1.807   4.259  1.8479  1.3599  2.2775
 6148SOL    HW229907   4.501   1.828   4.226 -0.2421  0.9194  1.9193
 6149SOL     OW29908   2.044   0.827   1.125  0.4650 -0.3216 -0.0371
 6149SOL    HW129909   1.957   0.793   1.103  1.4964 -3.4567  0.8211
 6149SOL    HW229910   2.019   0.906   1.174 -0.2719 -1.1827  0.9736
 6150SOL     OW29911   2.651   3.535   4.512  0.1240 -0.1101 -0.5647
 6150SOL    HW129912   2.642   3.581   4.595  2.4905 -0.0817 -0.3120
 6150SOL    HW229913   2.742   3.547   4.482 -0.0431  0.8114 -0.7285
 6151SOL     OW29914   2.700   1.931   1.972  0.1454  0.5697 -0.0189
 6151SOL    HW129915   2.640   1.911   2.044 -0.5112  1.2657 -0.3703
 6151SOL    HW229916   2.664   1.889   1.894  0.4441 -0.6864  0.5199
 6152SOL     OW29917   4.579   1.600   7.712 -0.1630  0.6162 -0.0638
 6152SOL    HW129918   4.492   1.629   7.682 -1.0706 -2.7501 -0.7166
 6152SOL    HW229919   4.567   1.633   7.801  2.2810 -1.5935  1.0867
 6153SOL     OW29920   4.578   0.637   3.190  0.4385  0.6411 -0.1617
 6153SOL    HW129921   4.612   0.658   3.103  0.2366  1.1567 -0.1137
 6153SOL    HW229922   4.664   0.625   3.231 -0.6646 -0.8659  1.7088
 6154SOL     OW29923   0.817   0.668   5.037  0.2129 -0.0515 -0.4697
 6154SOL    HW129924   0.887   0.625   4.988  0.4500 -0.0207 -0.1561
 6154SOL    HW229925   0.805   0.609   5.112 -3.8290 -0.2993 -1.3292
 6155SOL     OW29926   0.263   3.841  15.287  0.8242  0.3691  0.5245
 6155SOL    HW129927   0.317   3.903  15.238 -2.4977  0.3567 -3.1696
 6155SOL    HW229928   0.317   3.762  15.283  2.7185  1.7764 -1.8707
 6156SOL     OW29929   4.209   0.394   7.006 -0.6524  0.1839  0.4641
 6156SOL    HW129930   4.200   0.332   7.078  2.2429  0.5020  1.1025
 6156SOL    HW229931   4.115   0.410   6.998 -0.1902  1.7935 -1.9070
 6157SOL     OW29932   2.316   2.464   4.171  0.0350 -0.1057  0.1925
 6157SOL    HW129933   2.318   2.559   4.158  0.5213 -0.1582 -0.1105
 6157SOL    HW229934   2.312   2.454   4.266 -1.8954  0.0786  0.1333
 6158SOL     OW29935   0.998   4.321   4.131  0.2189 -0.5197 -0.0727
 6158SOL    HW129936   0.945   4.357   4.060 -2.0308 -0.0377  1.8522
 6158SOL    HW229937   1.027   4.233   4.103  0.9787  0.6995 -3.1638
 6159SOL     OW29938   1.807   0.790   3.210 -0.5419 -1.1979  0.0293
 6159SOL    HW129939   1.863   0.761   3.282 -1.4186 -0.3894  1.0256
 6159SOL    HW229940   1.863   0.853   3.165 -0.3813 -1.3735 -0.0175
 6160SOL     OW29941   1.405   0.803   1.297  0.3981  0.0821 -0.2886
 6160SOL    HW129942   1.346   0.872   1.329  1.2742  0.6058  0.1808
 6160SOL    HW229943   1.363   0.764   1.220 -0.4193 -1.6128  0.9942
 6161SOL     OW29944   0.777   3.731   6.678 -0.2255 -0.1141  0.1608
 6161SOL    HW129945   0.806   3.693   6.761  2.8514 -0.2754 -0.9995
 6161SOL    HW229946   0.856   3.718   6.626  1.4799  0.3565  2.6133
 6162SOL     OW29947   1.419   0.880  17.593  0.1680 -0.0856 -0.1944
 6162SOL    HW129948   1.393   0.827  17.669  1.4854 -0.5474 -0.0684
 6162SOL    HW229949   1.371   0.839  17.521 -0.1227 -0.2872  0.1157
 6163SOL     OW29950   2.029   4.638   1.257  0.8082 -0.2336 -0.4618
 6163SOL    HW129951   2.069   4.658   1.341 -0.5978  1.3597 -0.1548
 6163SOL    HW229952   2.073   4.557   1.231  2.2343 -0.0196  1.3480
 6164SOL     OW29953   1.041   0.033  11.779 -0.1550 -0.1569  0.2120
 6164SOL    HW129954   0.960   4.715  11.803 -1.3290  1.8104  0.0615
 6164SOL    HW229955   0.986   0.111  11.769  0.1769  0.2618  1.6692
 6165SOL     OW29956   4.567   3.500   4.984  0.1275  0.6987 -1.0099
 6165SOL    HW129957   4.584   3.449   4.904  0.3267  1.8573 -1.6997
 6165SOL    HW229958   4.486   3.548   4.967  0.3652  1.3434 -0.3157
 6166SOL     OW29959   2.981   3.440   9.622  0.2846 -0.1320 -0.3040
 6166SOL    HW129960   2.988   3.492   9.703  0.0978 -1.4571  0.5604
 6166SOL    HW229961   2.906   3.486   9.584  2.0914  0.5669 -2.9644
 6167SOL     OW29962   2.613   0.554  11.546 -0.7326 -0.1754  0.3024
 6167SOL    HW129963   2.613   0.479  11.486  1.0972 -0.7914  1.0768
 6167SOL    HW229964   2.520   0.565  11.569 -0.7153 -0.2570  0.4116
 6168SOL     OW29965   2.111   1.687  14.480  0.5712 -0.4674  0.0472
 6168SOL    HW129966   2.196   1.655  14.450 -0.4364 -1.9902 -1.2094
 6168SOL    HW229967   2.106   1.777  14.448  0.9954 -0.2947  0.4720
 6169SOL     OW29968   3.683   2.011   9.655 -0.0434 -0.3350 -0.4011
 6169SOL    HW129969   3.683   1.928   9.607  2.3924  0.2855 -1.4999
 6169SOL    HW229970   3.762   2.049   9.615  0.4798 -1.9484 -0.9096
 6170SOL     OW29971   3.760   2.206  10.723  0.0923  0.3513 -0.0374
 6170SOL    HW129972   3.774   2.291  10.681  0.8680 -0.4404 -1.3518
 6170SOL    HW229973   3.753   2.151  10.646  2.8082  0.4400 -0.3403
 6171SOL     OW29974   2.809   3.873   3.191  0.0640 -0.4358 -0.2267
 6171SOL    HW129975   2.877   3.860   3.124  1.7784  0.3329  1.3635
 6171SOL    HW229976   2.751   3.797   3.186  1.2336 -1.2232 -1.7554
 6172SOL     OW29977   1.536   4.038   5.770  0.3685  0.0199  0.1498
 6172SOL    HW129978   1.446   4.035   5.738  0.6523 -0.6773 -0.5873
 6172SOL    HW229979   1.536   4.124   5.813 -0.0057  0.9489 -1.7072
 6173SOL     OW29980   3.812   2.367   1.109 -0.0319  0.0024 -0.1548
 6173SOL    HW129981   3.727   2.328   1.090  0.1288 -0.0269 -0.7937
 6173SOL    HW229982   3.778   2.424   1.178 -0.2707 -1.6265  1.0699
 6174SOL     OW29983   4.405   0.999  10.159  0.0949  0.3422  0.6261
 6174SOL    HW129984   4.426   0.917  10.113 -2.1170  0.0740  0.0889
 6174SOL    HW229985   4.489   1.009  10.204  0.2031 -0.1002  0.5246
 6175SOL     OW29986   3.681   1.751  13.974  0.1439 -0.4344  0.3985
 6175SOL    HW129987   3.608   1.760  13.914  0.6330  1.6364  0.1134
 6175SOL    HW229988   3.692   1.840  14.008 -4.0423  0.1301  0.2154
 6176SOL     OW29989   2.480   0.197   3.146  0.5910 -0.5176 -0.1773
 6176SOL    HW129990   2.526   0.263   3.093  0.3019 -0.8356 -0.8239
 6176SOL    HW229991   2.390   0.198   3.113 -0.1840  0.1034  1.9960
 6177SOL     OW29992   3.072   3.301   2.665  0.6328  0.2736 -0.2518
 6177SOL    HW129993   3.067   3.382   2.716 -0.4604  1.5502 -2.3672
 6177SOL    HW229994   3.081   3.341   2.578 -1.5290 -1.5988 -1.3410
 6178SOL     OW29995   0.506   4.297   3.115 -0.1233  0.3852  0.4458
 6178SOL    HW129996   0.519   4.357   3.042 -0.9405  0.2108  0.1535
 6178SOL    HW229997   0.427   4.247   3.092 -0.0798  0.9514 -0.9609
 6179SOL     OW29998   2.352   2.151  10.860  0.1631 -0.4076 -0.2194
 6179SOL    HW129999   2.265   2.192  10.861  0.4582  0.1341  2.8797
 6179SOL    HW230000   2.376   2.164  10.768  1.8262  0.4215  0.3384
 6180SOL     OW30001   3.386   0.259   4.857 -0.2881 -0.6152  0.2368
 6180SOL    HW130002   3.305   0.228   4.816 -0.3179  1.0218 -0.9302
 6180SOL    HW230003   3.444   0.193   4.819  0.8219 -0.3720  1.5105
 6181SOL     OW30004   4.027   2.525   5.683  0.1846  0.0199  0.7794
 6181SOL    HW130005   3.933   2.523   5.666  0.0142  2.2323  1.5527
 6181SOL    HW230006   4.046   2.589   5.614 -2.5110 -1.2539 -1.1699
 6182SOL     OW30007   4.101   4.514  11.893  0.3505  0.2278 -0.4235
 6182SOL    HW130008   4.138   4.491  11.807 -0.3806 -1.0064 -0.4199
 6182SOL    HW230009   4.156   4.585  11.925  0.8976 -0.6767  0.6274
 6183SOL     OW30010   2.794   1.888  16.332 -0.6131  0.6041 -0.2116
 6183SOL    HW130011   2.889   1.889  16.340 -0.6720  1.4279  0.3949
 6183SOL    HW230012   2.787   1.968  16.279 -1.3488 -0.8032 -2.2548
 6184SOL     OW30013   0.837   2.370   5.717  0.0912  0.1219 -0.1383
 6184SOL    HW130014   0.820   2.464   5.710  1.1478  0.4643  1.8659
 6184SOL    HW230015   0.756   2.336   5.756  0.7037 -0.3875  0.6638
 6185SOL     OW30016   4.154   2.750   3.594  0.1552  0.1322 -0.6238
 6185SOL    HW130017   4.075   2.700   3.612 -0.5553  0.9164 -1.5985
 6185SOL    HW230018   4.156   2.722   3.503 -0.4182 -0.3201 -0.4919
 6186SOL     OW30019   2.008   2.575   6.315 -0.0643  0.1168  0.1561
 6186SOL    HW130020   1.928   2.608   6.274 -1.2755 -3.3251 -0.2964
 6186SOL    HW230021   2.069   2.630   6.266 -1.3943 -0.1673 -1.7819
 6187SOL     OW30022   2.416   1.482   5.519 -0.7569 -0.0326 -0.0558
 6187SOL    HW130023   2.496   1.528   5.545 -0.4703 -0.3571 -0.3479
 6187SOL    HW230024   2.401   1.429   5.597  0.5874 -0.2921  0.0371
 6188SOL     OW30025   3.061   1.369   3.099  0.3677 -0.3717 -0.2441
 6188SOL    HW130026   3.135   1.421   3.132  0.8134 -0.6300 -0.8437
 6188SOL    HW230027   3.059   1.301   3.167 -1.0533  0.2266  0.3165
 6189SOL     OW30028   2.303   2.330   5.211  0.2433 -0.0555  0.3238
 6189SOL    HW130029   2.276   2.361   5.125 -0.5736 -0.2207  0.5248
 6189SOL    HW230030   2.345   2.246   5.192  1.0556  0.7850 -1.5918
 6190SOL     OW30031   4.474   4.388   4.880 -0.2933 -0.7112  0.3626
 6190SOL    HW130032   4.456   4.434   4.962  0.0318  1.6998 -0.9363
 6190SOL    HW230033   4.564   4.413   4.862 -0.0473 -1.1009  1.0672
 6191SOL     OW30034   1.455   4.382   5.665 -0.4784 -1.1161 -0.1221
 6191SOL    HW130035   1.441   4.341   5.580  0.2080  0.9030 -1.2051
 6191SOL    HW230036   1.372   4.428   5.677 -0.9668 -2.5066  1.8574
 6192SOL     OW30037   1.519   1.727  12.124  0.3503  0.1697 -0.2814
 6192SOL    HW130038   1.487   1.735  12.214 -0.7399  1.7400 -0.8172
 6192SOL    HW230039   1.561   1.641  12.134 -0.6653 -0.1634  1.2256
 6193SOL     OW30040   1.921   0.693   7.523 -0.3821 -0.8267 -0.5130
 6193SOL    HW130041   1.939   0.600   7.506 -1.0436 -0.8634 -0.9730
 6193SOL    HW230042   1.869   0.715   7.446 -0.9846 -1.1989 -0.2115
 6194SOL     OW30043   1.480   2.943  16.278 -0.7611  0.0232  0.4795
 6194SOL    HW130044   1.480   2.868  16.338 -1.9164  0.0630  0.5249
 6194SOL    HW230045   1.410   2.924  16.216 -2.0117  0.8660  1.6414
 6195SOL     OW30046   3.891   2.168   4.605 -0.1595 -0.0731  0.4654
 6195SOL    HW130047   3.878   2.233   4.536 -0.6990 -0.0593  0.5747
 6195SOL    HW230048   3.805   2.125   4.600 -1.4142  2.5251 -0.6448
 6196SOL     OW30049   1.142   3.114   7.045  0.3879  0.4866  0.1064
 6196SOL    HW130050   1.073   3.051   7.023  0.0067  0.8989  0.1181
 6196SOL    HW230051   1.187   3.061   7.111  1.5862  0.6061 -0.6204
 6197SOL     OW30052   3.331   2.213   6.320  0.4182  0.3952 -0.0535
 6197SOL    HW130053   3.356   2.133   6.275 -1.4291 -1.3473  2.0106
 6197SOL    HW230054   3.412   2.236   6.365  0.1898 -0.7890  0.9675
 6198SOL     OW30055   3.666   0.847   2.839 -0.2694  0.1226 -0.1695
 6198SOL    HW130056   3.652   0.761   2.878  2.2375  0.6014  1.7465
 6198SOL    HW230057   3.663   0.901   2.918 -2.8106  0.1363 -0.2532
 6199SOL     OW30058   0.478   2.585   4.817  0.0252 -0.3649  0.0781
 6199SOL    HW130059   0.452   2.608   4.906  2.3197 -0.6234  0.8146
 6199SOL    HW230060   0.513   2.665   4.777 -1.9446  0.9703  1.0470
 6200SOL     OW30061   2.936   0.145   2.414  0.3407  0.0792  0.2037
 6200SOL    HW130062   2.851   0.104   2.400  1.3313 -2.5184  1.8264
 6200SOL    HW230063   2.964   0.168   2.325  0.5658  0.6046  0.4061
 6201SOL     OW30064   0.139   2.766   1.512  0.0707 -0.0123  0.4970
 6201SOL    HW130065   0.088   2.687   1.531 -2.8417  1.3619 -1.7514
 6201SOL    HW230066   0.205   2.723   1.457  0.5364 -0.9435  1.7583
 6202SOL     OW30067   3.292   1.782   6.369 -1.0816 -0.2418  0.7268
 6202SOL    HW130068   3.374   1.828   6.353  0.1363 -2.6932 -0.0882
 6202SOL    HW230069   3.294   1.727   6.448  1.2691  1.1674  1.6416
 6203SOL     OW30070   1.381   4.663   6.726  0.4135  0.4017  0.7970
 6203SOL    HW130071   1.404   4.577   6.759  1.1594  0.0479 -0.6593
 6203SOL    HW230072   1.315   4.643   6.661 -1.3415 -0.4048  2.8452
 6204SOL     OW30073   1.742   2.307   1.714  0.3394  0.3236 -0.0908
 6204SOL    HW130074   1.739   2.231   1.656 -1.5006 -1.1974  2.0128
 6204SOL    HW230075   1.812   2.288   1.777  0.5420  1.5011  0.0532
 6205SOL     OW30076   3.530   1.032   8.978 -0.4206 -0.3321 -0.2424
 6205SOL    HW130077   3.474   1.051   9.053 -2.1213 -2.0441 -1.0855
 6205SOL    HW230078   3.544   1.117   8.937  0.6041 -0.2068  0.3494
 6206SOL     OW30079   1.043   2.475   2.281 -0.4521 -0.0016 -0.0901
 6206SOL    HW130080   0.960   2.509   2.248 -0.4064 -0.8801 -1.1296
 6206SOL    HW230081   1.107   2.519   2.225  0.0552 -1.2016 -0.4563
 6207SOL     OW30082   1.388   4.414   6.835 -0.0433 -0.3816  0.1458
 6207SOL    HW130083   1.413   4.324   6.812 -0.2323 -0.3718 -0.0997
 6207SOL    HW230084   1.417   4.416   6.926 -0.2652 -1.7829  0.2425
 6208SOL     OW30085   3.125   2.471   7.087  0.0571  0.3652 -0.1682
 6208SOL    HW130086   3.202   2.490   7.141  0.2149 -0.2855 -0.1671
 6208SOL    HW230087   3.142   2.519   7.006 -1.1956  1.3780  0.1685
 6209SOL     OW30088   1.681   4.172   2.993 -0.2897 -0.4378  0.4586
 6209SOL    HW130089   1.660   4.260   2.960  1.5981 -1.1150 -2.5017
 6209SOL    HW230090   1.661   4.121   2.915  2.1723 -0.0409 -0.4235
 6210SOL     OW30091   2.495   3.701   9.427  0.3446  0.8408  0.3270
 6210SOL    HW130092   2.446   3.777   9.456 -0.3177 -0.1513  1.8258
 6210SOL    HW230093   2.557   3.693   9.499  0.1322 -1.2658  0.2988
 6211SOL     OW30094   3.530   2.850   3.671  0.3904 -0.0613 -0.5294
 6211SOL    HW130095   3.524   2.793   3.594 -0.1241  0.8342 -1.1627
 6211SOL    HW230096   3.443   2.836   3.710  0.4560 -1.6194 -0.9315
 6212SOL     OW30097   2.560   2.263  13.325  0.1793  0.7652  0.3071
 6212SOL    HW130098   2.469   2.262  13.354  0.7349 -2.5087  2.0665
 6212SOL    HW230099   2.550   2.220  13.240  2.4460 -0.3801  0.5928
 6213SOL     OW30100   2.281   0.534   8.355 -0.0818  0.0501  0.1104
 6213SOL    HW130101   2.333   0.457   8.330  0.5446  1.1026 -1.8270
 6213SOL    HW230102   2.215   0.523   8.286 -0.9653 -0.3460  1.0254
 6214SOL     OW30103   1.817   1.810  12.004 -0.3923 -0.3341 -0.0245
 6214SOL    HW130104   1.861   1.889  12.036 -0.5682  0.0985 -0.8507
 6214SOL    HW230105   1.779   1.765  12.080  0.9843 -0.3432  0.6696
 6215SOL     OW30106   0.066   0.648   3.345  0.2964 -0.1889 -0.2125
 6215SOL    HW130107   0.157   0.631   3.370  0.3191  0.1541 -0.0688
 6215SOL    HW230108   0.033   0.593   3.416 -2.7678 -1.4611 -2.6279
 6216SOL     OW30109   2.175   4.518   4.702  0.2558  0.2645  0.4517
 6216SOL    HW130110   2.139   4.432   4.680  0.2303 -0.0221  1.5796
 6216SOL    HW230111   2.242   4.487   4.764  1.2626  3.5910  1.0480
 6217SOL     OW30112   1.416   1.155   0.071 -0.3923 -0.3894 -0.2071
 6217SOL    HW130113   1.420   1.097   0.147 -0.2939  0.4676  0.4422
 6217SOL    HW230114   1.413   1.239   0.117  0.2540  0.3063 -1.4331
 6218SOL     OW30115   0.108   3.616   3.991 -0.3757  0.0337 -0.8427
 6218SOL    HW130116   0.095   3.711   3.984 -1.5422 -0.2040 -1.9554
 6218SOL    HW230117   0.025   3.588   4.030  0.7964 -1.3749  0.6243
 6219SOL     OW30118   2.195   1.551   4.714  0.9568  0.1616 -0.4388
 6219SOL    HW130119   2.116   1.574   4.665  0.9472 -1.1610 -1.0397
 6219SOL    HW230120   2.232   1.487   4.654 -1.0456  0.7505 -2.3073
 6220SOL     OW30121   3.705   2.079   6.253  0.3070  1.0427  0.0972
 6220SOL    HW130122   3.742   2.112   6.335  0.5342  1.3397 -0.1229
 6220SOL    HW230123   3.790   2.059   6.212 -0.5181  0.2360 -1.2277
 6221SOL     OW30124   2.999   0.548   7.901 -0.0923  0.5554  0.0034
 6221SOL    HW130125   3.007   0.486   7.974 -1.1549  0.5527  0.1162
 6221SOL    HW230126   2.934   0.506   7.844 -0.8118  0.6515  0.7428
 6222SOL     OW30127   0.754   2.932   7.548 -0.0380  0.5532 -0.3851
 6222SOL    HW130128   0.687   2.897   7.490 -2.4842  1.8926  1.6112
 6222SOL    HW230129   0.803   2.983   7.484  0.1571 -0.5755 -1.1406
 6223SOL     OW30130   0.366   2.567  12.620  0.0850 -0.2366  0.1155
 6223SOL    HW130131   0.410   2.617  12.551 -1.0435  0.6360  0.0160
 6223SOL    HW230132   0.308   2.638  12.649 -1.2040 -2.4162  2.8057
 6224SOL     OW30133   1.308   2.091   8.396  0.0215 -0.0232  0.2278
 6224SOL    HW130134   1.348   2.084   8.483  0.5028 -0.4790 -0.0237
 6224SOL    HW230135   1.371   2.030   8.356 -0.4063 -0.3694  0.0811
 6225SOL     OW30136   2.063   4.441  16.541  0.5886  0.3543  0.3881
 6225SOL    HW130137   2.007   4.400  16.475 -1.0689 -1.2509  2.7985
 6225SOL    HW230138   1.999   4.508  16.565  0.9312  1.5136 -1.8257
 6226SOL     OW30139   1.845   0.834   3.921 -0.5985 -0.6420  0.9743
 6226SOL    HW130140   1.820   0.923   3.945  0.2114 -0.6349  1.7386
 6226SOL    HW230141   1.793   0.821   3.841  0.1234  2.3870  0.0251
 6227SOL     OW30142   1.684   1.247   5.896 -0.0852 -0.1061 -0.3492
 6227SOL    HW130143   1.702   1.338   5.873  1.0340 -0.6275 -1.5572
 6227SOL    HW230144   1.604   1.265   5.945  0.0973 -1.6226  0.4916
 6228SOL     OW30145   3.497   3.438   5.933 -0.1740 -0.3582 -0.3834
 6228SOL    HW130146   3.453   3.521   5.951  2.9798  1.2163  0.1563
 6228SOL    HW230147   3.528   3.442   5.843  3.1094  2.7992  0.8754
 6229SOL     OW30148   4.469   1.602   9.857 -0.6302  0.0166  0.0397
 6229SOL    HW130149   4.379   1.568   9.863 -0.0458 -1.6578 -0.7429
 6229SOL    HW230150   4.456   1.656   9.935  0.7324  0.4744 -0.0650
 6230SOL     OW30151   0.627   0.946   1.463  0.1907 -0.2688  0.1304
 6230SOL    HW130152   0.544   0.917   1.426 -0.3853 -0.5847  1.6441
 6230SOL    HW230153   0.601   0.999   1.539  0.7682  1.3049 -0.7739
 6231SOL     OW30154   0.617   1.300   3.225  0.1726  0.3516  0.3031
 6231SOL    HW130155   0.532   1.343   3.217  0.0958  0.3888  1.3141
 6231SOL    HW230156   0.658   1.365   3.169  0.1201  2.6644  2.9734
 6232SOL     OW30157   0.393   4.133   2.877  0.4517  0.0104  0.2871
 6232SOL    HW130158   0.387   4.156   2.784 -1.4519 -0.3796  0.3153
 6232SOL    HW230159   0.447   4.055   2.863 -0.9225 -1.1044  1.1578
 6233SOL     OW30160   3.050   4.072   2.876  0.5139 -0.2411  0.9589
 6233SOL    HW130161   3.070   4.107   2.790 -1.5321  0.2291  0.6887
 6233SOL    HW230162   3.137   4.089   2.913  0.9439 -2.2858  0.9258
 6234SOL     OW30163   0.742   3.335  12.756 -0.4705  0.0566 -0.1554
 6234SOL    HW130164   0.681   3.280  12.805 -0.5979  2.0148  1.9122
 6234SOL    HW230165   0.697   3.420  12.747 -0.1196  0.0808 -1.6162
 6235SOL     OW30166   0.365   3.894   9.643 -0.3284  0.0927 -0.1557
 6235SOL    HW130167   0.371   3.809   9.687  4.9267  0.6571  0.2678
 6235SOL    HW230168   0.353   3.869   9.551  3.6171  0.9361 -0.8869
 6236SOL     OW30169   1.785   3.080   1.865 -0.0837  0.1893  0.4423
 6236SOL    HW130170   1.857   3.017   1.870  1.4256  1.8235 -1.0224
 6236SOL    HW230171   1.829   3.148   1.917 -1.6022 -0.2571  2.3359
 6237SOL     OW30172   1.024   4.629   6.164  0.3643  0.6698 -0.4548
 6237SOL    HW130173   1.016   4.699   6.100 -0.9392  1.9469  1.0959
 6237SOL    HW230174   1.036   4.545   6.119 -1.2306 -0.2990  0.8929
 6238SOL     OW30175   3.530   3.345   5.638  0.1163 -0.3986 -0.5037
 6238SOL    HW130176   3.478   3.383   5.568  1.6743 -1.3122 -2.1752
 6238SOL    HW230177   3.583   3.270   5.608 -1.9580 -2.0492 -0.0349
 6239SOL     OW30178   0.287   1.113   6.592 -0.2335  0.0987  0.0943
 6239SOL    HW130179   0.194   1.096   6.578 -0.0546 -1.9402  1.3721
 6239SOL    HW230180   0.329   1.041   6.544  0.1052 -0.3604  1.0727
 6240SOL     OW30181   1.680   2.579   7.483  0.0057  0.1700  0.3527
 6240SOL    HW130182   1.656   2.541   7.568 -0.2396 -3.1077 -1.1798
 6240SOL    HW230183   1.669   2.671   7.505 -0.6459  0.5256 -1.4835
 6241SOL     OW30184   0.158   1.883   6.309  0.5648  0.0224 -0.2457
 6241SOL    HW130185   0.195   1.798   6.332  1.2815  0.4836  0.3165
 6241SOL    HW230186   0.165   1.925   6.395 -2.0320 -0.3683  0.1427
 6242SOL     OW30187   2.343   1.018   6.186 -0.2953 -0.0695 -0.2560
 6242SOL    HW130188   2.276   1.083   6.165  1.0692  1.8085  1.1359
 6242SOL    HW230189   2.367   1.026   6.279  0.2982 -3.5749 -0.1010
 6243SOL     OW30190   2.231   3.522  11.883  0.0655 -0.1870 -0.0033
 6243SOL    HW130191   2.325   3.508  11.891 -0.0063  0.8317  2.6225
 6243SOL    HW230192   2.217   3.587  11.814 -0.5643 -1.2724 -0.8799
 6244SOL     OW30193   1.565   3.320   4.250  0.2946 -0.3454 -0.6095
 6244SOL    HW130194   1.581   3.286   4.338 -0.4570 -2.8767 -1.4505
 6244SOL    HW230195   1.651   3.333   4.210 -0.1937  0.6643 -1.3251
 6245SOL     OW30196   0.539   3.773  10.279  0.0125 -0.2298 -0.3070
 6245SOL    HW130197   0.468   3.740  10.225 -1.7102  0.3376  1.6125
 6245SOL    HW230198   0.505   3.862  10.290 -0.3561 -0.1939 -1.7142
 6246SOL     OW30199   3.193   4.520   4.862 -0.0707  0.8595 -0.0010
 6246SOL    HW130200   3.162   4.600   4.905 -1.2673  0.2817  0.2098
 6246SOL    HW230201   3.215   4.553   4.775  0.7560 -1.4189 -0.6614
 6247SOL     OW30202   0.551   4.075   7.234  0.0858 -0.1577 -0.1424
 6247SOL    HW130203   0.498   4.040   7.162  1.0668  1.1590 -1.4923
 6247SOL    HW230204   0.502   4.043   7.311  2.3779 -2.4156  0.3961
 6248SOL     OW30205   3.533   0.721   8.139 -0.5446  0.5122 -0.0475
 6248SOL    HW130206   3.455   0.737   8.192 -1.5737  0.6164 -1.6123
 6248SOL    HW230207   3.573   0.808   8.132  0.9292 -0.1589  0.1007
 6249SOL     OW30208   1.107   4.158   1.770 -0.0192 -0.1410 -0.4226
 6249SOL    HW130209   1.024   4.205   1.761  0.7702  1.5203  1.0267
 6249SOL    HW230210   1.092   4.085   1.711 -0.3105  0.4052 -1.0311
 6250SOL     OW30211   3.943   4.717   7.620 -0.3415 -0.4902  0.5153
 6250SOL    HW130212   4.033   0.020   7.616 -0.2313 -0.7208  1.1670
 6250SOL    HW230213   3.912   0.002   7.530 -1.4225  1.1613  1.1226
 6251SOL     OW30214   3.563   3.860   5.840 -0.2822  0.2793 -0.1221
 6251SOL    HW130215   3.485   3.865   5.784 -0.7847 -2.1806  0.3491
 6251SOL    HW230216   3.526   3.896   5.921 -1.5709  0.8753 -0.9642
 6252SOL     OW30217   1.752   1.027  11.539  0.1871 -0.2504 -0.6866
 6252SOL    HW130218   1.793   0.967  11.601  1.7055  1.6435  0.1504
 6252SOL    HW230219   1.670   0.982  11.519 -0.2967  0.3377  0.0046
 6253SOL     OW30220   2.889   2.076  16.152  0.3497 -0.7422 -0.2817
 6253SOL    HW130221   2.956   2.076  16.083  0.8415 -2.8840  0.2108
 6253SOL    HW230222   2.930   2.142  16.208 -0.6398 -0.2917 -0.0977
 6254SOL     OW30223   4.228   0.353   3.626  0.3818 -0.1350  0.2081
 6254SOL    HW130224   4.203   0.443   3.649  0.5605  0.3205 -1.3782
 6254SOL    HW230225   4.158   0.318   3.570  0.1138 -1.7353  1.5490
 6255SOL     OW30226   4.385   0.221   8.756 -0.4617 -0.2721 -0.1730
 6255SOL    HW130227   4.338   0.197   8.836  1.9797 -0.1378  1.2988
 6255SOL    HW230228   4.317   0.188   8.697 -1.2757  0.5570  0.3005
 6256SOL     OW30229   4.561   1.001   7.181 -0.5379 -0.0717  0.3771
 6256SOL    HW130230   4.615   0.970   7.253  1.0557 -0.4367 -0.9763
 6256SOL    HW230231   4.577   0.931   7.118 -1.2160 -0.6329  0.8376
 6257SOL     OW30232   0.069   0.706   4.786  0.7117 -0.1647 -0.0828
 6257SOL    HW130233   0.011   0.632   4.769  1.2490 -0.3308 -1.1528
 6257SOL    HW230234   0.036   0.722   4.875  0.7144 -1.0469  0.0765
 6258SOL     OW30235   0.267   4.077  15.459 -0.2684  0.6850 -0.1208
 6258SOL    HW130236   0.242   3.990  15.427 -0.9878  1.5302 -1.8745
 6258SOL    HW230237   0.246   4.130  15.382  0.7615  1.0575 -0.1485
 6259SOL     OW30238   3.048   1.154  13.083  0.6145  0.0085  0.4216
 6259SOL    HW130239   2.972   1.098  13.096  0.7517 -0.2590  0.0662
 6259SOL    HW230240   3.026   1.237  13.126  1.1329  0.2924  0.1490
 6260SOL     OW30241   3.322   2.737  14.135 -0.4137  0.4135 -0.0694
 6260SOL    HW130242   3.229   2.755  14.120 -0.2294  1.1454 -0.3481
 6260SOL    HW230243   3.355   2.726  14.046 -0.8981  2.2945 -0.4725
 6261SOL     OW30244   0.060   0.522   6.782  0.5617 -0.2076 -0.3777
 6261SOL    HW130245   0.066   0.617   6.797  0.5801 -0.4863  1.4273
 6261SOL    HW230246   0.141   0.487   6.819 -0.9309 -1.8523  1.3146
 6262SOL     OW30247   2.746   4.448   8.470  0.1234 -0.6766 -0.2275
 6262SOL    HW130248   2.766   4.386   8.400 -0.4897 -2.1672  0.9457
 6262SOL    HW230249   2.652   4.458   8.451  0.3776  0.8685 -0.7134
 6263SOL     OW30250   3.096   1.432   4.480  0.6139  0.0149 -0.4218
 6263SOL    HW130251   3.121   1.342   4.505 -2.6305 -0.7985 -0.1339
 6263SOL    HW230252   3.152   1.488   4.534 -0.0986 -0.6536  1.0216
 6264SOL     OW30253   2.593   4.480   0.277 -1.3522  0.5015 -0.5271
 6264SOL    HW130254   2.575   4.408   0.215  1.3619 -0.8521  0.2500
 6264SOL    HW230255   2.512   4.527   0.261 -0.1714  1.2434 -4.2850
 6265SOL     OW30256   2.793   3.270   8.016  0.1979 -0.3888 -0.5799
 6265SOL    HW130257   2.865   3.254   8.078  0.8160  1.8759 -0.7113
 6265SOL    HW230258   2.737   3.196   8.041  0.4090 -0.1998  0.4483
 6266SOL     OW30259   1.669   4.022   5.255  0.4924 -0.6521  0.3325
 6266SOL    HW130260   1.618   3.943   5.274 -0.8724  0.4626  1.2319
 6266SOL    HW230261   1.600   4.084   5.232  0.0681 -1.1778  0.1898
 6267SOL     OW30262   2.013   3.807   9.058  0.6188  0.2432 -0.0237
 6267SOL    HW130263   2.095   3.800   9.108 -0.1122  1.3440  1.3325
 6267SOL    HW230264   1.958   3.774   9.129  0.7096  1.3641  0.5633
 6268SOL     OW30265   3.574   1.423   2.311  0.9470 -0.1045 -0.0195
 6268SOL    HW130266   3.616   1.508   2.296 -0.2270  0.2005 -1.5335
 6268SOL    HW230267   3.633   1.393   2.380  2.3218  1.0759 -0.6622
 6269SOL     OW30268   1.869   1.581  14.549  0.7207 -0.6769 -0.4975
 6269SOL    HW130269   1.944   1.636  14.527  0.2828  0.0663 -0.1717
 6269SOL    HW230270   1.862   1.521  14.476 -3.7940 -1.9548  0.9698
 6270SOL     OW30271   3.968   0.172   5.158  0.3451  0.0100 -0.0429
 6270SOL    HW130272   3.991   0.080   5.171 -0.2724 -0.3396 -1.4703
 6270SOL    HW230273   3.881   0.143   5.131  1.9684 -2.8786 -2.2323
 6271SOL     OW30274   2.761   0.576   6.050 -0.2968  0.0913  0.4281
 6271SOL    HW130275   2.682   0.618   6.018 -0.8712 -1.0527  0.3203
 6271SOL    HW230276   2.823   0.647   6.065  0.1414 -0.4155  1.0302
 6272SOL     OW30277   0.686   0.591   2.878 -0.0043  0.2608  0.1537
 6272SOL    HW130278   0.656   0.621   2.964 -0.0548  0.3016  0.1224
 6272SOL    HW230279   0.600   0.559   2.850 -0.0124  1.4278 -1.1427
 6273SOL     OW30280   2.369   1.785   4.661  0.1331 -0.5898  0.2714
 6273SOL    HW130281   2.304   1.721   4.690  0.6425 -1.7910 -1.2751
 6273SOL    HW230282   2.346   1.804   4.570  0.7726  1.9954  0.6288
 6274SOL     OW30283   2.388   2.634  10.254  0.1607 -0.2551 -0.1403
 6274SOL    HW130284   2.409   2.695  10.183  0.5511 -0.7425 -0.4427
 6274SOL    HW230285   2.446   2.558  10.248  0.4923 -0.1318  1.5379
 6275SOL     OW30286   2.469   1.042   3.762 -0.2397 -0.4564  0.5596
 6275SOL    HW130287   2.422   0.965   3.792 -0.2487  0.0204  1.7550
 6275SOL    HW230288   2.520   1.000   3.693  1.9978  1.0750  1.2841
 6276SOL     OW30289   3.350   3.778  12.006  0.1207 -0.1632 -0.3735
 6276SOL    HW130290   3.339   3.729  12.087  0.1280 -2.5072 -1.7875
 6276SOL    HW230291   3.336   3.868  12.037 -1.1104  0.1741 -1.8802
 6277SOL     OW30292   3.289   2.420  15.242  0.0235  0.0584 -0.2627
 6277SOL    HW130293   3.220   2.412  15.176 -0.4907  0.4402  0.2274
 6277SOL    HW230294   3.295   2.516  15.246  0.5485  0.0225 -0.2822
 6278SOL     OW30295   3.911   3.787   9.828 -0.4653  0.2765  0.1712
 6278SOL    HW130296   3.967   3.712   9.845 -1.1253  0.1329  1.6503
 6278SOL    HW230297   3.904   3.813   9.920  0.1278 -0.3669  0.3936
 6279SOL     OW30298   3.456   4.630   4.340 -0.4362 -0.3598  0.5768
 6279SOL    HW130299   3.427   4.692   4.274  0.5023  0.8158  1.2775
 6279SOL    HW230300   3.550   4.647   4.349  0.2099 -2.4670 -2.2264
 6280SOL     OW30301   3.615   4.485  11.596 -0.5454 -0.4174  0.3100
 6280SOL    HW130302   3.614   4.556  11.531  0.4245  1.0393  1.8632
 6280SOL    HW230303   3.647   4.534  11.672  0.6503  1.3022 -1.2980
 6281SOL     OW30304   2.501   1.654   9.285 -0.4397 -0.2304  0.2752
 6281SOL    HW130305   2.507   1.677   9.192  0.8489 -0.3475  0.3308
 6281SOL    HW230306   2.554   1.575   9.285  1.4545  1.0282 -0.7277
 6282SOL     OW30307   0.570   2.565   7.970 -0.0277  0.3109 -0.5987
 6282SOL    HW130308   0.544   2.600   7.884  0.9311  0.5452 -0.7901
 6282SOL    HW230309   0.574   2.472   7.952 -1.0738  0.5095 -1.8998
 6283SOL     OW30310   0.669   0.640   2.287  0.0117  0.0871 -0.2205
 6283SOL    HW130311   0.620   0.603   2.359  1.1562  1.5257  1.3051
 6283SOL    HW230312   0.711   0.562   2.251  0.1387 -0.3303  0.8501
 6284SOL     OW30313   3.472   0.887   4.412 -0.4157  0.3642 -0.1291
 6284SOL    HW130314   3.434   0.974   4.397  1.0928  0.7516 -1.6868
 6284SOL    HW230315   3.550   0.916   4.458  0.2238  0.9611 -1.5808
 6285SOL     OW30316   0.199   4.701   7.141  0.0565  0.0380  0.7449
 6285SOL    HW130317   0.209   4.709   7.236  2.0218 -0.0652  0.5601
 6285SOL    HW230318   0.267   4.634   7.134 -0.5854 -0.4515 -0.6996
 6286SOL     OW30319   3.451   1.924   2.618 -0.4492 -0.6788 -0.2297
 6286SOL    HW130320   3.419   2.007   2.653  4.7714  2.0496 -1.9277
 6286SOL    HW230321   3.489   1.876   2.692  0.5959 -1.5062 -1.2979
 6287SOL     OW30322   3.322   0.409   8.335 -0.7089  0.4021  0.4257
 6287SOL    HW130323   3.253   0.343   8.344 -0.7554  0.4574  0.4704
 6287SOL    HW230324   3.399   0.355   8.352 -0.2063  1.3284  1.0336
 6288SOL     OW30325   3.577   1.182   8.537  0.3356 -0.6089  0.1689
 6288SOL    HW130326   3.667   1.158   8.513 -0.0970 -0.6363 -1.4464
 6288SOL    HW230327   3.546   1.094   8.560  2.3251 -1.9184 -2.1422
 6289SOL     OW30328   3.288   2.304  16.914  0.2508  0.8202 -0.1498
 6289SOL    HW130329   3.274   2.395  16.888 -2.1151 -0.0507 -1.9535
 6289SOL    HW230330   3.209   2.289  16.966  1.5038  1.2918  1.8932
 6290SOL     OW30331   0.647   4.079   7.896 -0.4288  0.1656 -0.2186
 6290SOL    HW130332   0.640   4.174   7.894 -1.8840  0.0889  1.1811
 6290SOL    HW230333   0.554   4.063   7.877  0.2756 -2.3092 -1.6935
 6291SOL     OW30334   2.678   2.583  10.395  0.1042 -0.3992 -0.2336
 6291SOL    HW130335   2.645   2.508  10.345  2.5989 -0.0307 -2.4515
 6291SOL    HW230336   2.666   2.543  10.481 -0.2315 -0.1063 -0.1450
 6292SOL     OW30337   2.041   4.202   8.681 -0.2403  0.3313  0.1581
 6292SOL    HW130338   1.967   4.245   8.722 -1.5697 -0.5699 -1.2711
 6292SOL    HW230339   2.021   4.109   8.673 -1.9962  0.6375  0.9491
 6293SOL     OW30340   4.440   2.115   7.867 -0.1082  0.1808 -0.3865
 6293SOL    HW130341   4.430   2.138   7.774 -1.1939 -0.6304 -0.4790
 6293SOL    HW230342   4.367   2.155   7.915  1.1234  0.4785  1.2233
 6294SOL     OW30343   4.369   3.517  10.927  0.6781  0.1914  0.0568
 6294SOL    HW130344   4.458   3.546  10.908  0.7732 -1.7398 -2.3497
 6294SOL    HW230345   4.381   3.511  11.022  1.4255  2.6352  0.1216
 6295SOL     OW30346   1.681   3.181   7.301 -0.2528 -0.4515 -0.1766
 6295SOL    HW130347   1.721   3.266   7.321 -1.4989  0.3198 -1.0092
 6295SOL    HW230348   1.729   3.133   7.369  0.2020  1.3524  0.7871
 6296SOL     OW30349   4.569   4.629   6.770  0.1611 -0.0107 -0.3469
 6296SOL    HW130350   4.617   4.636   6.853  1.7598  0.1106 -1.2699
 6296SOL    HW230351   4.484   4.597   6.800  0.3663 -0.1508  0.0965
 6297SOL     OW30352   1.154   1.666   9.272  0.2384  0.1049 -0.2064
 6297SOL    HW130353   1.122   1.601   9.335 -1.8045  1.6812  0.3480
 6297SOL    HW230354   1.181   1.609   9.200  1.8718  1.9472 -1.0599
 6298SOL     OW30355   4.019   0.972   7.454 -0.3576  0.4868  0.5644
 6298SOL    HW130356   4.079   0.931   7.517 -1.9443 -0.3391  1.5346
 6298SOL    HW230357   3.965   0.895   7.438  2.7407 -1.3827 -0.8748
 6299SOL     OW30358   0.719   1.165   7.079  0.0274  0.7826 -0.4353
 6299SOL    HW130359   0.808   1.186   7.107  0.1637  1.3095 -1.2650
 6299SOL    HW230360   0.750   1.086   7.033  0.5918 -0.3664  1.9442
 6300SOL     OW30361   1.919   2.925   4.084  0.4661  0.0157  0.1588
 6300SOL    HW130362   1.886   2.835   4.091 -0.8185  0.3853 -1.1225
 6300SOL    HW230363   1.842   2.974   4.110  0.0959 -2.3127  3.5331
 6301SOL     OW30364   3.204   2.871   6.991  0.0662 -0.2459 -0.0635
 6301SOL    HW130365   3.178   2.963   6.999 -1.5491 -0.6617 -0.4289
 6301SOL    HW230366   3.298   2.880   6.977 -0.1039  1.5084 -0.1823
 6302SOL     OW30367   2.682   3.845   3.533 -0.2975 -0.0571  0.8373
 6302SOL    HW130368   2.619   3.852   3.462  1.5528  3.3442 -0.4913
 6302SOL    HW230369   2.627   3.800   3.597 -0.9005  0.0725  0.4103
 6303SOL     OW30370   4.180   3.185  17.711 -0.3580  0.3064  0.4124
 6303SOL    HW130371   4.114   3.218  17.651  0.2599 -0.2024 -0.5391
 6303SOL    HW230372   4.149   3.239   0.071 -0.6585  0.0585  0.4673
 6304SOL     OW30373   2.764   2.240  10.140  0.0985  0.6921  0.2340
 6304SOL    HW130374   2.803   2.152  10.138 -0.8429  0.2251  2.2097
 6304SOL    HW230375   2.812   2.272  10.216  0.9626  1.5102 -0.6690
 6305SOL     OW30376   2.622   2.037   9.034 -0.1053  0.0174  0.3466
 6305SOL    HW130377   2.614   2.093   8.957 -0.8509  0.3004  0.6321
 6305SOL    HW230378   2.685   2.089   9.084 -0.2918  2.3456 -1.8613
 6306SOL     OW30379   1.837   2.524  13.034 -0.4296  0.6258  0.0724
 6306SOL    HW130380   1.771   2.477  13.085  2.1169 -2.3968  0.5606
 6306SOL    HW230381   1.833   2.609  13.077  2.9154  0.9380 -0.2720
 6307SOL     OW30382   4.247   4.682   2.812 -0.4096  0.1908 -0.2702
 6307SOL    HW130383   4.175   4.634   2.771  0.1247 -1.5878  0.8617
 6307SOL    HW230384   4.265   0.034   2.763 -1.4751  2.4230  2.9711
 6308SOL     OW30385   4.593   1.469   6.270 -0.5205  0.0068 -0.4855
 6308SOL    HW130386   4.587   1.483   6.175  1.8046 -1.2320 -0.7926
 6308SOL    HW230387   4.572   1.376   6.268  0.5998 -0.2818  1.2989
 6309SOL     OW30388   2.153   2.927   4.180 -0.3209  0.0198  0.5479
 6309SOL    HW130389   2.212   2.915   4.106  0.5454 -1.0063  1.4193
 6309SOL    HW230390   2.070   2.925   4.132 -0.0539  0.7633  0.0521
 6310SOL     OW30391   2.887   3.157   6.427  0.1265 -0.3989 -0.0557
 6310SOL    HW130392   2.848   3.201   6.503 -0.7557 -1.0646 -0.1283
 6310SOL    HW230393   2.866   3.224   6.363  0.3656 -0.6360 -0.3800
 6311SOL     OW30394   2.906   2.099   2.653 -0.1201  0.5146  0.1081
 6311SOL    HW130395   2.953   2.145   2.722  1.1460  1.4160 -1.3570
 6311SOL    HW230396   2.971   2.076   2.587 -1.2111 -0.5575 -0.5989
 6312SOL     OW30397   1.643   1.760   9.571 -0.3202 -0.0414 -0.3023
 6312SOL    HW130398   1.578   1.694   9.594  1.1342 -2.3717 -2.8155
 6312SOL    HW230399   1.722   1.730   9.616  0.0189 -0.1965 -0.9938
 6313SOL     OW30400   1.496   4.547   4.086 -0.1979 -0.5540 -0.1662
 6313SOL    HW130401   1.406   4.545   4.117 -0.1693 -0.3886 -0.0745
 6313SOL    HW230402   1.525   4.638   4.080 -2.3187  0.1945  1.4117
 6314SOL     OW30403   3.707   0.934   5.030 -0.2398 -0.5677 -0.2773
 6314SOL    HW130404   3.622   0.892   5.030 -1.1134  1.1951  0.9827
 6314SOL    HW230405   3.744   0.851   5.057 -0.0135 -0.5561 -0.5474
 6315SOL     OW30406   1.300   4.571   3.061  0.3197  0.6214 -0.6426
 6315SOL    HW130407   1.296   4.514   2.984  0.2049  0.2842 -0.3900
 6315SOL    HW230408   1.345   4.522   3.130  2.1258  2.4238 -0.5590
 6316SOL     OW30409   1.448   1.722   7.098 -0.5921  0.3329 -0.1079
 6316SOL    HW130410   1.436   1.705   7.191  1.2388 -0.5352 -0.0308
 6316SOL    HW230411   1.480   1.635   7.073  1.7162  0.8792  0.9681
 6317SOL     OW30412   2.678   2.406  12.861  0.0277  0.0940  0.4648
 6317SOL    HW130413   2.633   2.423  12.944  1.1330 -0.3615  1.1568
 6317SOL    HW230414   2.742   2.477  12.855  0.3181 -0.1349  0.8040
 6318SOL     OW30415   3.553   0.777  13.804 -0.3981 -0.4476  0.7765
 6318SOL    HW130416   3.524   0.689  13.829 -0.2028 -1.1810 -1.5953
 6318SOL    HW230417   3.644   0.779  13.831  0.1195 -0.9774 -0.9272
 6319SOL     OW30418   0.657   0.148  10.185  0.4197 -0.0951  0.3586
 6319SOL    HW130419   0.737   0.147  10.237 -0.2064 -0.8813  1.2954
 6319SOL    HW230420   0.630   0.240  10.192 -2.7628 -1.2558  3.0421
 6320SOL     OW30421   3.941   0.025  10.458  0.4622 -0.6872 -0.0167
 6320SOL    HW130422   3.904   0.092  10.401  1.0950 -0.8144 -0.5682
 6320SOL    HW230423   3.895   0.043  10.540 -0.7688 -1.1483 -0.5959
 6321SOL     OW30424   0.473   1.601   8.819 -0.2836  0.3310  0.4575
 6321SOL    HW130425   0.393   1.553   8.800  0.6080 -0.7716 -0.4977
 6321SOL    HW230426   0.496   1.563   8.904  1.0602  2.1026  0.8989
 6322SOL     OW30427   3.938   4.010   0.750  0.0908  0.0352  0.0412
 6322SOL    HW130428   4.004   4.063   0.795 -0.3671  1.6494 -1.2189
 6322SOL    HW230429   3.949   4.034   0.658 -0.0937  1.1877  0.3212
 6323SOL     OW30430   1.771   0.229  12.159 -0.5093 -0.3172 -1.1713
 6323SOL    HW130431   1.820   0.310  12.148 -0.7937 -0.1461 -1.1841
 6323SOL    HW230432   1.761   0.204  12.067 -0.6975 -1.4320 -0.8542
 6324SOL     OW30433   2.411   4.533   6.448 -0.2455  0.5933  0.1191
 6324SOL    HW130434   2.367   4.455   6.480 -1.1712  1.8262  1.8441
 6324SOL    HW230435   2.434   4.567   6.535  0.5064 -2.5188  1.1563
 6325SOL     OW30436   1.835   1.998  12.475  0.3463  0.2076 -0.0531
 6325SOL    HW130437   1.875   2.019  12.559 -2.2907  0.0745  1.2222
 6325SOL    HW230438   1.891   1.928  12.441 -0.5428 -0.8580  0.6631
 6326SOL     OW30439   1.607   4.555   3.162  0.5169  0.3654 -0.6622
 6326SOL    HW130440   1.670   4.621   3.191  0.1902 -0.4971  2.0102
 6326SOL    HW230441   1.594   4.563   3.068  3.6785 -1.4990 -1.2581
 6327SOL     OW30442   3.151   4.476  13.753 -0.2742  0.4272  0.3909
 6327SOL    HW130443   3.203   4.530  13.694  0.9163 -0.8749  0.2419
 6327SOL    HW230444   3.076   4.452  13.698  0.6715 -1.6922  0.0088
 6328SOL     OW30445   2.026   0.538   1.555 -0.5496  0.2221 -0.0969
 6328SOL    HW130446   2.036   0.598   1.481 -0.4421  1.8848  1.2586
 6328SOL    HW230447   1.950   0.562   1.609 -0.6195  1.3793 -0.7164
 6329SOL     OW30448   4.044   1.215   5.058  0.4210  0.1827 -0.2520
 6329SOL    HW130449   4.121   1.170   5.025  0.2655  0.7168 -1.3352
 6329SOL    HW230450   4.094   1.290   5.088  0.8355  1.0090 -3.0101
 6330SOL     OW30451   1.658   3.008   4.169  0.1163  0.2742  0.6516
 6330SOL    HW130452   1.614   3.023   4.253 -0.9425  0.4475  0.0600
 6330SOL    HW230453   1.595   2.969   4.109  1.3752 -1.2240  0.2976
 6331SOL     OW30454   1.393   0.585   7.275  0.1706  0.8228  0.3070
 6331SOL    HW130455   1.317   0.611   7.328 -0.8463 -1.1553 -0.1495
 6331SOL    HW230456   1.357   0.512   7.225 -1.5809  2.4464 -0.7650
 6332SOL     OW30457   1.465   1.140   4.385 -0.7745  0.2788  0.3287
 6332SOL    HW130458   1.440   1.157   4.476 -0.1866 -3.3503  1.1763
 6332SOL    HW230459   1.430   1.054   4.361 -1.0841  0.5691 -0.2731
 6333SOL     OW30460   0.863   0.060   5.714 -0.1012 -0.1337  0.1627
 6333SOL    HW130461   0.806   0.014   5.776  1.2122  0.4095  1.7769
 6333SOL    HW230462   0.808   0.063   5.636 -0.3971  2.6660  0.4916
 6334SOL     OW30463   4.548   3.505   6.642 -0.1446  0.0902  0.1341
 6334SOL    HW130464   4.591   3.548   6.716 -0.3993 -1.0072  0.9084
 6334SOL    HW230465   4.532   3.583   6.588  1.3780 -0.0232 -0.4771
 6335SOL     OW30466   4.023   4.371   5.342  0.3961  0.3848 -0.0102
 6335SOL    HW130467   3.940   4.325   5.334  1.3259 -1.3122  0.1936
 6335SOL    HW230468   4.077   4.322   5.281 -2.6519 -3.1139  0.1485
 6336SOL     OW30469   2.273   2.305   2.150 -0.3697 -0.2488 -0.0748
 6336SOL    HW130470   2.367   2.323   2.159 -0.4475  0.7821 -1.4495
 6336SOL    HW230471   2.251   2.285   2.241 -4.0104 -1.3725 -1.2040
 6337SOL     OW30472   2.435   4.685   8.906 -0.9586  0.0497 -0.3704
 6337SOL    HW130473   2.357   4.680   8.961  0.1201 -1.6653  1.0043
 6337SOL    HW230474   2.419   0.046   8.874  0.9826  1.6188  3.0158
 6338SOL     OW30475   3.680   2.469  15.696  0.3727 -0.1529  0.4570
 6338SOL    HW130476   3.730   2.399  15.739  1.0590 -1.3555 -2.2558
 6338SOL    HW230477   3.607   2.421  15.657  0.0731  0.1634  0.6413
 6339SOL     OW30478   0.169   0.912   4.522  0.3484  0.1637 -0.1728
 6339SOL    HW130479   0.263   0.901   4.537  0.1131 -0.3968  0.8830
 6339SOL    HW230480   0.140   0.840   4.466  0.0188  0.9007 -0.9478
 6340SOL     OW30481   0.091   0.974   8.776 -0.2052 -0.1370  0.3694
 6340SOL    HW130482   0.122   0.913   8.843 -1.9000 -1.0019  0.3757
 6340SOL    HW230483   0.059   0.918   8.705 -0.4295 -1.9505  1.8863
 6341SOL     OW30484   1.033   2.916   2.918 -0.5954 -0.2745  0.0757
 6341SOL    HW130485   1.028   2.833   2.870 -0.1007  1.0764 -2.3004
 6341SOL    HW230486   1.031   2.888   3.010 -0.4091 -4.1510 -1.0880
 6342SOL     OW30487   3.424   3.323  17.168  0.7669 -0.0408 -0.6217
 6342SOL    HW130488   3.412   3.287  17.256  1.8088  1.5320  0.1721
 6342SOL    HW230489   3.339   3.354  17.140  0.0747  0.6001  2.1200
 6343SOL     OW30490   1.501   4.641   1.086 -0.5921 -0.0258 -0.0669
 6343SOL    HW130491   1.591   4.646   1.053  0.1426  0.2627  2.0246
 6343SOL    HW230492   1.474   4.552   1.062  0.0063  0.4703 -2.5818
 6344SOL     OW30493   1.210   3.330   8.296  0.5416 -0.0701  0.0265
 6344SOL    HW130494   1.282   3.268   8.312  0.7419 -0.2016 -1.3763
 6344SOL    HW230495   1.135   3.274   8.317  1.4654 -1.7950 -1.2282
 6345SOL     OW30496   3.760   1.822   7.465 -0.4647  0.7198  0.2815
 6345SOL    HW130497   3.751   1.773   7.547 -1.4098 -0.1174 -0.3246
 6345SOL    HW230498   3.845   1.862   7.482 -0.1709  0.5544 -0.8094
 6346SOL     OW30499   1.432   0.385  17.626 -0.3302  0.0167  0.8357
 6346SOL    HW130500   1.361   0.411  17.686 -0.4608  1.9342 -0.1490
 6346SOL    HW230501   1.401   0.296  17.608 -1.6404  0.8748 -1.1375
 6347SOL     OW30502   3.888   4.091   6.733  0.2553 -0.3621  0.4305
 6347SOL    HW130503   3.854   4.119   6.648  1.3939 -1.4793 -0.3855
 6347SOL    HW230504   3.827   4.136   6.793 -0.6497 -0.4725 -0.4025
 6348SOL     OW30505   3.332   4.397  12.184  0.5278 -0.5933  0.2005
 6348SOL    HW130506   3.239   4.391  12.201  0.4644  1.5227  0.5723
 6348SOL    HW230507   3.362   4.310  12.212  0.3392 -1.1065 -1.1705
 6349SOL     OW30508   2.397   3.833   4.479 -0.4696  0.2301  0.4435
 6349SOL    HW130509   2.358   3.879   4.405  1.6604  2.2779  0.5844
 6349SOL    HW230510   2.492   3.842   4.468 -0.1605 -1.0945  2.0143
 6350SOL     OW30511   2.738   1.780   9.082  0.3931  0.4221 -0.1110
 6350SOL    HW130512   2.669   1.771   9.016 -0.9753 -1.8446  1.6343
 6350SOL    HW230513   2.717   1.871   9.104 -2.8928 -0.6309  1.0586
 6351SOL     OW30514   1.718   1.756   2.790 -0.4545  0.3353  0.2922
 6351SOL    HW130515   1.671   1.824   2.839 -3.0839 -2.3142  1.4084
 6351SOL    HW230516   1.648   1.692   2.782  0.1545 -0.1161 -1.4818
 6352SOL     OW30517   4.019   0.621  12.583 -0.6107 -0.0781 -0.0977
 6352SOL    HW130518   3.976   0.536  12.593  1.3648 -0.9255  1.2997
 6352SOL    HW230519   4.103   0.611  12.537 -1.2630 -0.8194 -1.1355
 6353SOL     OW30520   0.496   3.676   1.988  0.1227 -0.1541  0.0140
 6353SOL    HW130521   0.570   3.656   2.046  0.8222 -1.4228 -1.2904
 6353SOL    HW230522   0.519   3.761   1.951  0.0140  0.0976  0.5299
 6354SOL     OW30523   4.629   4.171   7.642 -0.3870 -0.0993  0.5894
 6354SOL    HW130524   4.627   4.119   7.723 -0.6613  1.5591  1.6449
 6354SOL    HW230525   4.534   4.165   7.633 -0.1781 -0.9209 -1.0184
 6355SOL     OW30526   1.064   0.924   6.497 -0.5981 -0.6377  0.5780
 6355SOL    HW130527   1.137   0.960   6.548 -1.2947  1.0302  0.3988
 6355SOL    HW230528   1.052   0.844   6.548 -0.8439 -1.2748 -0.5003
 6356SOL     OW30529   1.186   1.725  12.100  0.5641 -0.0685 -0.1959
 6356SOL    HW130530   1.240   1.711  12.178  1.4113 -3.1320 -1.2904
 6356SOL    HW230531   1.247   1.710  12.027  0.6929 -1.5763  0.2174
 6357SOL     OW30532   1.746   1.677   8.913 -0.0503 -0.2364 -0.3137
 6357SOL    HW130533   1.758   1.766   8.948  1.5628 -0.6766  0.2809
 6357SOL    HW230534   1.827   1.665   8.864 -0.3699  0.2035 -0.9550
 6358SOL     OW30535   4.227   0.358   0.585 -0.2661 -0.6693 -0.2982
 6358SOL    HW130536   4.135   0.367   0.611 -0.4504 -4.9709  0.5651
 6358SOL    HW230537   4.270   0.296   0.644 -2.0109 -1.0168  0.6076
 6359SOL     OW30538   0.062   2.946  16.450 -0.2581  0.0608 -0.4625
 6359SOL    HW130539   0.126   2.892  16.404 -1.8371 -3.4575  1.4637
 6359SOL    HW230540   0.076   3.030  16.406  1.2489  0.8199  1.5045
 6360SOL     OW30541   0.435   1.456  15.739 -0.0670  0.4945 -0.4141
 6360SOL    HW130542   0.486   1.499  15.807  0.5011  0.4524 -0.8051
 6360SOL    HW230543   0.493   1.465  15.663  0.2175 -2.5821 -0.5899
 6361SOL     OW30544   0.441   1.067   7.798  0.0506 -0.0246  0.2539
 6361SOL    HW130545   0.462   1.140   7.740  0.4929  0.2231  0.7136
 6361SOL    HW230546   0.394   1.003   7.745  0.3887  0.5458 -0.7335
 6362SOL     OW30547   3.650   3.644   9.073 -0.2537  0.1316 -0.3442
 6362SOL    HW130548   3.679   3.606   8.990  1.9451  3.2158 -0.9707
 6362SOL    HW230549   3.735   3.664   9.113 -0.2216  1.5935 -1.1511
 6363SOL     OW30550   3.445   4.159  11.072  0.0012 -0.1324  0.3355
 6363SOL    HW130551   3.524   4.159  11.127  0.4185  1.6330 -0.2644
 6363SOL    HW230552   3.407   4.081  11.112 -0.9865 -0.4371 -1.2164
 6364SOL     OW30553   3.068   3.607   5.383  0.4581  0.1444 -0.4386
 6364SOL    HW130554   3.005   3.658   5.331  0.5300 -0.0943 -0.7596
 6364SOL    HW230555   3.017   3.557   5.446  0.3664 -0.9837 -1.3987
 6365SOL     OW30556   3.848   3.978   4.155 -0.4460  0.0156 -0.1944
 6365SOL    HW130557   3.765   4.004   4.196  0.3674  3.1497 -0.5654
 6365SOL    HW230558   3.833   4.004   4.064  0.7826 -0.6401 -0.5812
 6366SOL     OW30559   4.700   0.965   7.428 -0.3283 -0.2051  0.6112
 6366SOL    HW130560   0.022   0.922   7.496  0.7993 -0.9686 -0.7002
 6366SOL    HW230561   4.665   1.045   7.468  0.9689  1.2052 -1.0503
 6367SOL     OW30562   1.892   3.445  16.413  0.2086 -0.1787  0.3187
 6367SOL    HW130563   1.817   3.424  16.469 -1.4160 -0.9155 -2.1522
 6367SOL    HW230564   1.869   3.537  16.405  0.7863  0.0408  1.2660
 6368SOL     OW30565   0.546   1.532   9.078 -0.2828  0.2771  0.4593
 6368SOL    HW130566   0.555   1.616   9.123 -1.1105  1.2273 -1.1471
 6368SOL    HW230567   0.538   1.468   9.150 -2.8855 -0.3048 -0.3367
 6369SOL     OW30568   0.058   0.320   4.652 -0.5800 -0.0870 -0.8790
 6369SOL    HW130569   0.039   0.318   4.746 -0.5623  0.6232 -0.8584
 6369SOL    HW230570   0.098   0.406   4.640 -0.6145  0.0046 -0.3437
 6370SOL     OW30571   3.071   4.484   7.190 -0.2948 -0.3986  0.1497
 6370SOL    HW130572   3.042   4.429   7.117 -1.3401 -0.1359  0.3550
 6370SOL    HW230573   2.994   4.538   7.208 -1.6548 -1.6217 -1.9539
 6371SOL     OW30574   1.193   2.351   6.675  0.1154 -0.0166  0.1296
 6371SOL    HW130575   1.185   2.281   6.609 -0.1511 -0.5492  0.7252
 6371SOL    HW230576   1.117   2.342   6.732 -0.5364  1.3587 -0.5370
 6372SOL     OW30577   4.187   0.509  15.411  0.2692 -0.0825 -0.2485
 6372SOL    HW130578   4.232   0.590  15.388 -0.5223  0.3270 -0.3813
 6372SOL    HW230579   4.257   0.445  15.405 -2.9966 -3.5384 -1.3635
 6373SOL     OW30580   0.563   2.481  12.874  0.1045  0.1429  0.7072
 6373SOL    HW130581   0.533   2.543  12.807  2.2713 -0.1780 -0.5714
 6373SOL    HW230582   0.487   2.489  12.931 -1.1730  1.1559 -1.1101
 6374SOL     OW30583   1.199   3.528   4.885  0.4804  0.3352 -0.3598
 6374SOL    HW130584   1.279   3.580   4.888 -0.0796  1.1482  0.1922
 6374SOL    HW230585   1.217   3.478   4.805 -2.3788 -1.2231 -0.0176
 6375SOL     OW30586   3.409   4.001   5.139 -0.0558 -0.5997 -0.2895
 6375SOL    HW130587   3.492   3.954   5.141  0.4423  0.3229  0.3008
 6375SOL    HW230588   3.353   3.935   5.096 -0.8148 -0.6315  0.7544
 6376SOL     OW30589   1.360   4.056   3.191  0.3994  0.2029 -0.0511
 6376SOL    HW130590   1.373   4.055   3.096  2.4576 -0.3683  0.2427
 6376SOL    HW230591   1.432   4.001   3.220  1.3244  0.6509 -1.5113
 6377SOL     OW30592   2.637   3.006   8.451 -0.4335  0.5158 -0.2509
 6377SOL    HW130593   2.720   3.048   8.427 -0.1727  0.5080  0.6380
 6377SOL    HW230594   2.630   3.018   8.546 -2.2998 -0.1900 -0.3010
 6378SOL     OW30595   4.087   0.235   6.461 -0.1406  0.0924 -0.3574
 6378SOL    HW130596   4.087   0.214   6.368 -0.7057 -2.5791  0.2278
 6378SOL    HW230597   4.108   0.150   6.500  1.2400  0.5123 -0.2037
 6379SOL     OW30598   1.535   3.878  11.172 -0.0885  0.0183  0.3327
 6379SOL    HW130599   1.505   3.864  11.262 -1.5282 -1.8953 -0.4386
 6379SOL    HW230600   1.512   3.797  11.127 -0.2803 -0.0260  0.5063
 6380SOL     OW30601   0.784   1.779   0.177 -0.0467 -0.4528 -0.1742
 6380SOL    HW130602   0.864   1.766   0.126 -0.2787  1.9610 -1.1377
 6380SOL    HW230603   0.784   1.692   0.217 -0.4300 -0.7298 -0.7754
 6381SOL     OW30604   1.385   3.690   8.660 -0.0816  1.0159 -0.2751
 6381SOL    HW130605   1.434   3.610   8.643  0.0133  0.9201  0.4415
 6381SOL    HW230606   1.448   3.762   8.662  0.3684  0.5646  1.7063
 6382SOL     OW30607   0.637   2.399  13.988 -0.6849  0.2863 -0.1092
 6382SOL    HW130608   0.690   2.334  14.035 -0.5898  0.1129 -0.4600
 6382SOL    HW230609   0.706   2.424  13.926 -1.2059  2.1367  0.0466
 6383SOL     OW30610   2.660   1.733  12.678  0.5458 -0.2366 -0.4118
 6383SOL    HW130611   2.583   1.766  12.631 -1.0842 -3.0083  0.3230
 6383SOL    HW230612   2.625   1.705  12.762 -1.3642 -1.4162 -1.6035
 6384SOL     OW30613   3.444   2.123   2.870 -0.6968  0.1455 -0.4254
 6384SOL    HW130614   3.376   2.136   2.936 -0.8924 -0.7758 -0.4522
 6384SOL    HW230615   3.400   2.168   2.798 -1.0255  1.5983  0.6616
 6385SOL     OW30616   1.877   3.554   5.600 -0.0407  0.4899  0.1394
 6385SOL    HW130617   1.959   3.523   5.639 -0.6604 -1.7029 -0.3551
 6385SOL    HW230618   1.867   3.633   5.654  0.3969  1.4248 -1.1313
 6386SOL     OW30619   1.906   3.615  14.151 -0.7675 -0.2246  0.2135
 6386SOL    HW130620   1.827   3.645  14.197 -1.0722 -0.7575  0.0493
 6386SOL    HW230621   1.935   3.691  14.101 -1.5871  0.2549  0.4709
 6387SOL     OW30622   1.049   2.492   5.444  0.3400 -0.2523  0.3152
 6387SOL    HW130623   1.007   2.501   5.530  1.9952  3.2191  0.7664
 6387SOL    HW230624   0.973   2.460   5.395 -0.2726 -0.0922  1.1604
 6388SOL     OW30625   1.059   4.260  15.397 -0.5497 -0.0530  0.4074
 6388SOL    HW130626   1.016   4.175  15.387 -1.2546  0.5572 -1.7641
 6388SOL    HW230627   1.047   4.310  15.316  1.4670  1.2081  0.8782
 6389SOL     OW30628   4.518   4.066   7.000  0.2497  0.2287 -0.4125
 6389SOL    HW130629   4.469   4.073   6.919 -0.9869 -1.3293  0.1932
 6389SOL    HW230630   4.562   4.151   6.996 -0.3707  0.4859 -1.6605
 6390SOL     OW30631   1.868   0.115   7.934 -0.0268 -0.1706  0.0211
 6390SOL    HW130632   1.843   0.180   7.868 -1.0433 -1.6584 -1.0558
 6390SOL    HW230633   1.959   0.101   7.906 -0.3002 -2.2903  0.1707
 6391SOL     OW30634   1.333   0.183   4.470  0.1167 -0.2096 -0.5604
 6391SOL    HW130635   1.285   0.170   4.552 -1.2645 -0.7046 -1.4402
 6391SOL    HW230636   1.276   0.124   4.419  0.9499  0.2786 -2.0473
 6392SOL     OW30637   2.119   0.488   7.586 -0.5631  0.5267  0.0882
 6392SOL    HW130638   2.144   0.550   7.517 -0.6762  1.2268  0.6810
 6392SOL    HW230639   2.084   0.412   7.539  1.8774  0.6518 -1.9194
 6393SOL     OW30640   1.945   3.636   8.383 -0.1233 -0.8997 -0.2337
 6393SOL    HW130641   1.852   3.637   8.358 -0.3562  2.2888  0.7137
 6393SOL    HW230642   1.948   3.633   8.479 -1.7561 -2.5984 -0.2374
 6394SOL     OW30643   2.791   3.653   5.097  0.6804 -0.3141 -0.0831
 6394SOL    HW130644   2.871   3.610   5.069  0.4895  0.7615 -2.3231
 6394SOL    HW230645   2.753   3.568   5.116 -0.8488 -0.1288 -2.2754
 6395SOL     OW30646   2.072   2.247   3.130  0.5952  0.1461 -0.6346
 6395SOL    HW130647   2.035   2.259   3.042 -1.7776 -2.8585 -0.0770
 6395SOL    HW230648   2.067   2.339   3.156  0.2343  0.6107 -2.3301
 6396SOL     OW30649   3.812   1.800   0.995 -0.3753 -0.4498 -0.0514
 6396SOL    HW130650   3.752   1.819   0.923  0.9356 -2.8123 -1.7901
 6396SOL    HW230651   3.881   1.856   0.958 -0.9488  0.1730 -0.1817
 6397SOL     OW30652   1.624   2.387   5.725 -0.0631 -0.1417  0.6923
 6397SOL    HW130653   1.576   2.403   5.805  0.8269  3.3110  0.5310
 6397SOL    HW230654   1.550   2.390   5.665 -0.3776  0.8897  1.1296
 6398SOL     OW30655   1.278   0.512   4.722  0.0735 -0.6200 -0.1022
 6398SOL    HW130656   1.349   0.484   4.665 -1.4478  0.7786 -2.6941
 6398SOL    HW230657   1.207   0.449   4.704  0.6223 -0.4343 -2.8023
 6399SOL     OW30658   0.683   0.454   4.458 -0.3089 -0.6148  0.3299
 6399SOL    HW130659   0.629   0.465   4.380  0.2077  0.7073  0.1468
 6399SOL    HW230660   0.741   0.380   4.440  2.7337  1.8387 -0.1743
 6400SOL     OW30661   3.931   1.867   7.080  0.3504 -0.3001  0.0437
 6400SOL    HW130662   3.946   1.788   7.028 -0.4643  0.1545 -0.8825
 6400SOL    HW230663   3.873   1.837   7.149  1.4878  0.1613  1.2053
 6401SOL     OW30664   2.738   0.407   9.452  0.3157  0.1421 -0.6399
 6401SOL    HW130665   2.823   0.400   9.408 -0.0461 -3.3712 -0.8023
 6401SOL    HW230666   2.684   0.336   9.415 -1.3284  1.2505 -0.3488
 6402SOL     OW30667   0.944   4.609  10.158 -0.1944  0.1392  0.7039
 6402SOL    HW130668   1.007   4.558  10.210  0.7777  2.2960  1.6231
 6402SOL    HW230669   0.911   4.683  10.208  1.6732  0.8783  0.8086
 6403SOL     OW30670   2.323   1.579  14.343 -0.2209 -0.4155 -0.0863
 6403SOL    HW130671   2.346   1.611  14.255 -1.4082  1.4964  0.2906
 6403SOL    HW230672   2.274   1.501  14.317 -0.7600 -0.2708  0.5022
 6404SOL     OW30673   1.341   3.346   0.280 -0.1791 -0.4646  0.2764
 6404SOL    HW130674   1.422   3.318   0.323 -0.3494  1.1520  1.6215
 6404SOL    HW230675   1.349   3.441   0.282  2.4757 -0.7084  1.2873
 6405SOL     OW30676   0.580   4.098   6.553 -0.0857  0.1321  0.0401
 6405SOL    HW130677   0.602   4.127   6.464  1.2424 -2.2380 -0.3960
 6405SOL    HW230678   0.498   4.051   6.541  0.0219  0.1918 -0.9124
 6406SOL     OW30679   2.497   2.697   4.824 -0.6819 -0.4239  0.5397
 6406SOL    HW130680   2.581   2.740   4.842 -0.6234 -0.3849  0.1647
 6406SOL    HW230681   2.485   2.729   4.735 -0.9513 -0.0133  0.7255
 6407SOL     OW30682   4.054   3.959   0.198  0.1455 -0.3265 -0.4185
 6407SOL    HW130683   4.150   3.960   0.198  0.1539  1.4820  1.5351
 6407SOL    HW230684   4.029   3.931   0.111  0.5641  0.8772 -0.9305
 6408SOL     OW30685   2.583   0.510   3.322  0.1894 -0.0320  0.0564
 6408SOL    HW130686   2.524   0.498   3.248  0.7056  2.0845 -0.6933
 6408SOL    HW230687   2.635   0.584   3.290 -1.3279  1.1837  0.4041
 6409SOL     OW30688   0.034   2.111   3.504 -0.0195  0.4356  0.3549
 6409SOL    HW130689   4.676   2.104   3.464  1.4502 -1.0604 -2.4953
 6409SOL    HW230690   0.057   2.203   3.494  2.5575 -0.0997  1.2869
 6410SOL     OW30691   3.178   0.253   9.339  0.0272  0.1484 -0.1884
 6410SOL    HW130692   3.162   0.159   9.333 -0.1945  0.2989 -1.7884
 6410SOL    HW230693   3.236   0.258   9.263 -1.8627 -0.0945 -1.6253
 6411SOL     OW30694   3.225   4.616   7.951 -0.0291 -0.3796 -1.1167
 6411SOL    HW130695   3.197   4.610   7.860 -0.6403  1.1810 -1.0186
 6411SOL    HW230696   3.295   4.680   7.938  0.8524 -1.0122  0.4802
 6412SOL     OW30697   3.204   3.774  16.004 -0.1653  0.3537 -0.7049
 6412SOL    HW130698   3.258   3.695  16.008  0.3006  0.6607 -1.0946
 6412SOL    HW230699   3.169   3.766  16.093 -0.4561  0.0757 -0.8403
 6413SOL     OW30700   1.928   3.826   6.077  0.5016  0.4847 -0.4085
 6413SOL    HW130701   1.866   3.847   6.007 -0.6849 -0.8801  0.2395
 6413SOL    HW230702   2.007   3.810   6.024 -0.2526 -1.7067 -0.8781
 6414SOL     OW30703   3.663   2.242  11.806  0.4648  0.1682 -0.1153
 6414SOL    HW130704   3.677   2.282  11.892 -1.7681 -0.9321  0.7549
 6414SOL    HW230705   3.745   2.265  11.762 -1.2560  3.7729 -1.4864
 6415SOL     OW30706   3.418   1.833   7.344 -0.0610 -0.4022 -0.2672
 6415SOL    HW130707   3.484   1.842   7.412  0.3893 -3.9105 -0.2765
 6415SOL    HW230708   3.334   1.844   7.390 -0.0865 -1.5580 -0.0453
 6416SOL     OW30709   2.851   2.719   4.838  0.4656 -0.1571  0.0174
 6416SOL    HW130710   2.928   2.738   4.784  1.0425  0.7925  1.1933
 6416SOL    HW230711   2.819   2.809   4.842  0.0402 -0.4356  2.6893
 6417SOL     OW30712   2.138   4.155   6.735  0.2741 -0.2090 -0.2976
 6417SOL    HW130713   2.065   4.099   6.711 -0.4745  0.4789  0.4040
 6417SOL    HW230714   2.191   4.167   6.656 -0.5823  0.4035 -0.7779
 6418SOL     OW30715   2.544   0.809   4.825 -0.6816  0.5224 -0.0380
 6418SOL    HW130716   2.604   0.879   4.797  2.2166 -2.7762 -2.0564
 6418SOL    HW230717   2.488   0.864   4.879 -0.2785 -0.2596  1.1623
 6419SOL     OW30718   1.225   1.975  15.069 -0.1519 -0.0054  0.2830
 6419SOL    HW130719   1.303   2.029  15.079 -0.4991  0.5848 -0.2372
 6419SOL    HW230720   1.155   2.038  15.052  0.5320  0.9331  0.9959
 6420SOL     OW30721   3.626   2.918   6.188 -0.7476 -0.4678 -0.1912
 6420SOL    HW130722   3.628   2.911   6.283 -0.9027  2.5724  0.0463
 6420SOL    HW230723   3.544   2.966   6.177  0.2199  1.6170  1.6871
 6421SOL     OW30724   4.556   2.213   4.337 -0.2889 -0.5012 -0.1569
 6421SOL    HW130725   4.531   2.269   4.410 -0.0909  0.1566 -0.6005
 6421SOL    HW230726   4.517   2.254   4.260  0.6766  1.1070  0.2113
 6422SOL     OW30727   2.286   0.110   6.545 -0.1328  0.1394  0.0117
 6422SOL    HW130728   2.339   0.046   6.497 -0.5144  0.2510 -0.5577
 6422SOL    HW230729   2.343   0.163   6.601 -0.0764 -0.1338  0.2126
 6423SOL     OW30730   1.217   0.503   0.361  0.2822 -0.5599 -0.5010
 6423SOL    HW130731   1.238   0.593   0.384 -3.5897  0.2261  0.0895
 6423SOL    HW230732   1.213   0.514   0.266  3.4787  0.7967 -0.4687
 6424SOL     OW30733   0.404   2.470  15.196 -0.3862 -0.4932 -0.2046
 6424SOL    HW130734   0.376   2.547  15.246 -1.6734 -1.3870  0.4489
 6424SOL    HW230735   0.396   2.498  15.105 -2.5572 -1.4052 -0.2744
 6425SOL     OW30736   4.128   4.094  10.510  0.4640  0.1738  0.5472
 6425SOL    HW130737   4.189   4.162  10.480  1.8477 -1.7502 -0.9719
 6425SOL    HW230738   4.058   4.154  10.539  0.2829  0.4683 -0.4718
 6426SOL     OW30739   4.089   3.645   2.351 -0.2688 -0.4053 -0.0062
 6426SOL    HW130740   4.163   3.649   2.412  0.3808 -0.3564 -0.7840
 6426SOL    HW230741   4.134   3.620   2.270  2.3906  0.8550  1.0653
 6427SOL     OW30742   4.646   0.142   7.791 -0.2956 -0.3016  0.4004
 6427SOL    HW130743   4.710   0.082   7.753  1.0039  3.3714 -3.2582
 6427SOL    HW230744   4.602   0.169   7.711 -0.3500 -1.0582  0.1731
 6428SOL     OW30745   0.171   2.786   8.056  0.0691 -0.4144  0.1382
 6428SOL    HW130746   0.264   2.772   8.073  0.4565  1.1649 -0.6947
 6428SOL    HW230747   0.173   2.853   7.987  0.5065  1.5434  2.0649
 6429SOL     OW30748   0.511   2.917   2.669  0.1643 -0.1905  0.1831
 6429SOL    HW130749   0.539   2.986   2.609 -0.4990  1.4649  1.7721
 6429SOL    HW230750   0.429   2.955   2.702 -0.1996 -0.7268 -0.0937
 6430SOL     OW30751   1.683   1.805   4.328  0.5024 -0.2187 -0.2825
 6430SOL    HW130752   1.690   1.766   4.415  1.6015 -0.4011 -0.4515
 6430SOL    HW230753   1.757   1.866   4.327  0.6593 -0.3905  1.1646
 6431SOL     OW30754   1.795   1.082   7.985 -0.3916  0.0142 -0.0889
 6431SOL    HW130755   1.814   1.175   8.000  0.9854 -0.2662 -0.1378
 6431SOL    HW230756   1.701   1.085   8.000 -0.3461  0.1061  0.1878
 6432SOL     OW30757   3.661   1.282   2.567 -0.3239 -0.6462  0.3605
 6432SOL    HW130758   3.735   1.234   2.531 -0.2445 -0.5194  0.3542
 6432SOL    HW230759   3.706   1.339   2.629  0.1639 -0.7462  0.1005
 6433SOL     OW30760   4.517   1.202   8.798 -0.5013 -0.0892  0.4563
 6433SOL    HW130761   4.474   1.153   8.728  0.5460 -1.0336  0.4832
 6433SOL    HW230762   4.505   1.290   8.764  0.2949  0.3007  1.1902
 6434SOL     OW30763   1.847   1.026  12.698  0.2671  0.1117  0.2212
 6434SOL    HW130764   1.904   1.020  12.621 -0.4013 -2.2661 -0.0940
 6434SOL    HW230765   1.776   0.965  12.679  0.3828 -0.2588  1.0124
 6435SOL     OW30766   0.597   2.836   5.724 -0.3593 -0.3659 -0.6377
 6435SOL    HW130767   0.660   2.902   5.752  1.0373 -1.1616 -1.9577
 6435SOL    HW230768   0.583   2.856   5.632 -1.2832  4.1530  0.4909
 6436SOL     OW30769   0.709   0.185   2.944 -0.1477  0.6558  0.5600
 6436SOL    HW130770   0.627   0.169   2.992  0.2609  0.4811  1.2015
 6436SOL    HW230771   0.686   0.185   2.851 -0.4263 -0.1530  0.6244
 6437SOL     OW30772   4.418   1.532   1.145 -0.7241  0.1511  0.2506
 6437SOL    HW130773   4.394   1.584   1.069  1.1771 -2.0639 -1.8717
 6437SOL    HW230774   4.514   1.532   1.136 -0.8218  0.9987 -0.6570
 6438SOL     OW30775   3.701   0.107  10.830  0.0924  0.0484 -0.6784
 6438SOL    HW130776   3.715   0.012  10.829 -1.2191 -0.1502 -0.2368
 6438SOL    HW230777   3.757   0.138  10.901  1.5811 -2.0180 -0.9521
 6439SOL     OW30778   0.600   4.667   6.192 -0.6053  0.4646 -0.0862
 6439SOL    HW130779   0.508   4.656   6.169 -0.2545  0.4558 -1.4708
 6439SOL    HW230780   0.600   4.715   6.275  0.5765 -1.4335  1.0085
 6440SOL     OW30781   4.144   0.413  17.468 -0.1226 -0.3121  0.9662
 6440SOL    HW130782   4.131   0.467  17.390 -2.3584  0.7454  2.0641
 6440SOL    HW230783   4.094   0.333  17.455 -1.0089  0.2658  0.7721
 6441SOL     OW30784   0.304   3.241   7.269 -0.3907 -0.2721 -0.2931
 6441SOL    HW130785   0.275   3.151   7.285 -0.1611 -0.4693 -0.9785
 6441SOL    HW230786   0.241   3.266   7.201  1.1617 -1.7051 -2.2410
 6442SOL     OW30787   1.138   1.843   1.987 -0.4375 -0.1110 -0.0650
 6442SOL    HW130788   1.201   1.787   1.941 -1.8067 -3.0294  1.6084
 6442SOL    HW230789   1.131   1.914   1.923  1.4320  0.2488  0.1214
 6443SOL     OW30790   4.441   1.635   4.004  0.0826 -0.2797 -0.1860
 6443SOL    HW130791   4.533   1.633   3.977 -0.2095  1.1917 -1.3040
 6443SOL    HW230792   4.448   1.655   4.097 -2.0431 -0.8714  0.1021
 6444SOL     OW30793   4.378   4.576   7.556  0.1549 -0.5546  0.2886
 6444SOL    HW130794   4.437   4.593   7.630 -0.3181 -0.6456  0.6862
 6444SOL    HW230795   4.319   4.507   7.587  0.8536 -1.5582 -0.6265
 6445SOL     OW30796   3.900   0.632   9.014  0.0693  0.1472  0.1927
 6445SOL    HW130797   3.966   0.611   9.080 -1.2907 -2.2452  0.8092
 6445SOL    HW230798   3.822   0.639   9.069 -0.4922 -2.8405 -0.2195
 6446SOL     OW30799   0.317   4.243   7.032  0.2455 -0.2499 -0.8258
 6446SOL    HW130800   0.283   4.204   7.113  0.4947  1.8857  0.2974
 6446SOL    HW230801   0.304   4.164   6.979  1.8020 -0.0448 -1.5195
 6447SOL     OW30802   0.226   1.751   9.138 -0.3773  0.1598 -0.1577
 6447SOL    HW130803   0.142   1.796   9.124 -0.6345 -0.2523  0.0452
 6447SOL    HW230804   0.278   1.789   9.068  1.3460 -1.6304  0.1770
 6448SOL     OW30805   4.248   4.647   3.439 -0.1507 -0.1213  0.5446
 6448SOL    HW130806   4.238   4.637   3.344 -0.8237  1.0151  0.4995
 6448SOL    HW230807   4.198   4.567   3.456 -0.2532 -0.2854 -0.5073
 6449SOL     OW30808   2.392   2.262   6.196  0.1597  0.3929 -0.0392
 6449SOL    HW130809   2.429   2.249   6.283  0.7423 -0.8221 -0.4567
 6449SOL    HW230810   2.298   2.249   6.203  0.2357 -0.6424 -0.8360
 6450SOL     OW30811   0.948   3.761   4.501 -0.6206  0.0548  0.2296
 6450SOL    HW130812   0.981   3.764   4.591  1.7378 -1.5878 -0.5779
 6450SOL    HW230813   0.866   3.810   4.509  0.4856  1.6446  1.6266
 6451SOL     OW30814   2.165   3.929   5.805  0.2980 -1.1641 -0.2940
 6451SOL    HW130815   2.113   4.009   5.816 -1.2598 -2.1957 -0.3070
 6451SOL    HW230816   2.257   3.957   5.807 -0.6330  1.8158  1.1112
 6452SOL     OW30817   0.894   2.591   6.556 -0.0654 -0.1966  1.0621
 6452SOL    HW130818   0.862   2.515   6.605 -0.5236 -0.3382  0.5383
 6452SOL    HW230819   0.814   2.602   6.505 -0.1878 -2.7012  0.7434
 6453SOL     OW30820   2.824   4.395   4.306 -0.0100  0.3031  0.0162
 6453SOL    HW130821   2.752   4.453   4.280  0.0712 -0.0903 -1.0811
 6453SOL    HW230822   2.798   4.313   4.263 -0.7668  0.4523  0.1936
 6454SOL     OW30823   3.472   4.391   5.273 -0.2076  0.2985 -0.2711
 6454SOL    HW130824   3.551   4.347   5.239 -0.6805  0.4275 -1.5314
 6454SOL    HW230825   3.418   4.317   5.299  0.6184 -0.3132 -0.2730
 6455SOL     OW30826   0.482   3.158   2.473  0.0306 -0.2298 -0.3987
 6455SOL    HW130827   0.478   3.106   2.393  1.8228 -1.2601  0.1685
 6455SOL    HW230828   0.557   3.211   2.446  1.4415 -0.7745  2.4076
 6456SOL     OW30829   0.137   2.177   4.950 -0.0184  0.1021  0.7406
 6456SOL    HW130830   0.143   2.270   4.973 -0.8720  1.0031 -2.7545
 6456SOL    HW230831   0.229   2.149   4.953 -0.0317  0.1291  1.3468
 6457SOL     OW30832   1.945   3.238   9.487 -0.5021  0.2094 -0.3070
 6457SOL    HW130833   1.862   3.192   9.476 -0.7851  0.7234 -0.3299
 6457SOL    HW230834   1.917   3.329   9.497  0.8434  0.7573 -1.5504
 6458SOL     OW30835   1.520   3.885   3.322  0.2762 -0.6808 -0.9154
 6458SOL    HW130836   1.501   3.904   3.414 -1.4518  3.3265 -2.1399
 6458SOL    HW230837   1.609   3.848   3.324  1.5279  2.2501 -1.9425
 6459SOL     OW30838   0.058   4.228  13.904  0.4607  0.2005 -0.7052
 6459SOL    HW130839   0.024   4.201  13.990  0.0002 -0.8401 -1.2198
 6459SOL    HW230840   0.151   4.240  13.923  0.3115 -1.7490  1.2396
 6460SOL     OW30841   1.399   2.209   9.645  0.4853 -0.8064 -0.7189
 6460SOL    HW130842   1.453   2.285   9.624 -1.5019  0.5203 -1.0877
 6460SOL    HW230843   1.465   2.141   9.656  0.4555 -0.4735  1.5386
 6461SOL     OW30844   1.984   4.422   2.224  0.0960  0.3151 -0.6078
 6461SOL    HW130845   2.016   4.512   2.222 -0.3795  0.3918 -3.8773
 6461SOL    HW230846   2.065   4.374   2.244  0.8011  2.4427  1.6723
 6462SOL     OW30847   0.788   3.216   8.274 -0.8749 -0.4507  0.2978
 6462SOL    HW130848   0.845   3.148   8.238 -0.5454 -0.4042  0.7381
 6462SOL    HW230849   0.703   3.172   8.284 -0.3647 -1.3835  0.4457
 6463SOL     OW30850   3.216   0.494  11.777  0.4587  0.2602  0.1184
 6463SOL    HW130851   3.148   0.505  11.843  0.0148  1.5010 -0.5543
 6463SOL    HW230852   3.260   0.411  11.797 -1.1699 -1.2574 -2.6143
 6464SOL     OW30853   3.104   4.256   9.732  0.2140  0.0818  0.5467
 6464SOL    HW130854   3.030   4.242   9.791 -0.2420  1.3482  0.2823
 6464SOL    HW230855   3.173   4.205   9.775  0.7049 -0.8119 -1.3088
 6465SOL     OW30856   1.032   4.219   8.448  0.1279 -0.1379 -0.1570
 6465SOL    HW130857   0.990   4.151   8.502 -0.0293  0.6123  0.6715
 6465SOL    HW230858   1.002   4.306   8.475  1.0098  0.7532 -2.0890
 6466SOL     OW30859   0.858   2.417  16.373  0.0017  0.1307  0.5974
 6466SOL    HW130860   0.807   2.340  16.345 -0.3721  0.1612  1.2001
 6466SOL    HW230861   0.936   2.404  16.319 -0.4482  2.9014 -0.7387
 6467SOL     OW30862   3.334   3.966   7.046 -0.4613  0.3686 -0.0970
 6467SOL    HW130863   3.366   4.007   7.126  0.9452  0.3011 -0.6318
 6467SOL    HW230864   3.285   4.043   7.016  0.0168 -0.1871 -2.3340
 6468SOL     OW30865   2.518   3.045   1.985  0.4939  0.1413 -0.2478
 6468SOL    HW130866   2.572   3.119   1.955  1.4779 -0.6576 -0.4552
 6468SOL    HW230867   2.468   3.077   2.060  0.2194  0.4605 -0.5658
 6469SOL     OW30868   4.502   1.115   2.685  0.1401  0.0929  0.3189
 6469SOL    HW130869   4.421   1.102   2.636  0.3107  1.5386 -0.3403
 6469SOL    HW230870   4.491   1.045   2.749  2.8690 -0.3529  0.2879
 6470SOL     OW30871   3.537   4.557   6.542 -0.1250  0.1060  0.4077
 6470SOL    HW130872   3.560   4.547   6.450 -1.4910 -0.0286  0.0751
 6470SOL    HW230873   3.491   4.473   6.549 -0.3534  0.5021  3.8167
 6471SOL     OW30874   4.638   0.155   8.884  0.0985  0.8815 -0.5906
 6471SOL    HW130875   4.618   0.097   8.958 -0.0622  1.7160  0.0233
 6471SOL    HW230876   4.556   0.189   8.848 -0.7883  1.2974  1.7928
 6472SOL     OW30877   3.870   3.777   3.329  0.3237  0.5744 -0.4728
 6472SOL    HW130878   3.922   3.712   3.377 -1.4270 -1.7579 -1.7688
 6472SOL    HW230879   3.927   3.789   3.253  1.2590  1.5988  0.3809
 6473SOL     OW30880   1.859   3.709   2.791  0.0244  0.1342  0.3965
 6473SOL    HW130881   1.836   3.617   2.773 -1.1864  0.4703  0.2250
 6473SOL    HW230882   1.931   3.715   2.729  0.1098  1.7284  0.6547
 6474SOL     OW30883   1.973   2.449   5.285  0.1741  0.0424 -0.0940
 6474SOL    HW130884   2.024   2.529   5.292 -0.8202  0.6866 -0.2922
 6474SOL    HW230885   1.945   2.435   5.376 -2.3258  0.6644 -0.7779
 6475SOL     OW30886   4.152   1.976   5.013 -0.2990  0.0179 -0.4797
 6475SOL    HW130887   4.216   1.970   4.942  0.3431  0.4005  0.0700
 6475SOL    HW230888   4.101   2.057   5.005  2.7011  1.7157 -2.3805
 6476SOL     OW30889   1.978   2.879   2.523 -0.2927  0.2192  0.1578
 6476SOL    HW130890   1.999   2.970   2.500  1.8666 -0.2918  0.1158
 6476SOL    HW230891   1.884   2.874   2.506 -0.1797 -0.1894 -0.3589
 6477SOL     OW30892   1.812   3.315   6.407  0.0515 -0.5430 -0.6900
 6477SOL    HW130893   1.762   3.356   6.477 -0.5670 -1.7663 -0.4126
 6477SOL    HW230894   1.901   3.350   6.415  0.1457 -1.0985  0.5498
 6478SOL     OW30895   2.628   1.925   1.347 -0.1747 -0.1687 -0.3632
 6478SOL    HW130896   2.619   1.997   1.410  1.8911 -2.1122  2.1579
 6478SOL    HW230897   2.568   1.957   1.279 -2.2289 -0.4040  1.3075
 6479SOL     OW30898   2.716   2.581   4.099 -0.5035  0.0924 -0.2228
 6479SOL    HW130899   2.694   2.551   4.187  0.4393 -1.7226 -0.6178
 6479SOL    HW230900   2.777   2.653   4.116 -3.3679  2.5949 -0.4078
 6480SOL     OW30901   1.038   2.389   3.345 -0.0844 -0.5090  0.0820
 6480SOL    HW130902   0.997   2.475   3.338  2.3707  0.7073  0.7942
 6480SOL    HW230903   0.996   2.352   3.422  1.2409  0.8509  1.4499
 6481SOL     OW30904   2.444   3.120  13.790 -0.2768 -0.3066  0.3209
 6481SOL    HW130905   2.364   3.069  13.805 -1.5488  1.6854  0.3976
 6481SOL    HW230906   2.455   3.177  13.866  3.3924  0.1389 -0.5545
 6482SOL     OW30907   3.790   2.692   3.333 -0.1763  0.6354  0.1838
 6482SOL    HW130908   3.765   2.636   3.260  0.2735 -0.8253  1.1631
 6482SOL    HW230909   3.876   2.720   3.301  0.4231 -0.8420  0.5104
 6483SOL     OW30910   3.878   4.549   5.848 -0.4790  0.8289  0.2236
 6483SOL    HW130911   3.828   4.468   5.851  3.2027 -1.4499 -0.7807
 6483SOL    HW230912   3.835   4.599   5.778  1.2159 -1.2396 -2.2721
 6484SOL     OW30913   0.295   3.105  11.421  0.0064  0.1178  0.2296
 6484SOL    HW130914   0.280   3.199  11.433 -0.2634  0.5667 -3.5814
 6484SOL    HW230915   0.243   3.066  11.492 -2.1497  1.4881 -0.5982
 6485SOL     OW30916   4.272   2.716   8.351  0.0684  0.1347 -0.0719
 6485SOL    HW130917   4.290   2.808   8.366  0.7473 -0.0065 -0.0426
 6485SOL    HW230918   4.291   2.699   8.258 -2.2538  1.3672 -0.7862
 6486SOL     OW30919   2.231   0.714   2.810  0.5231  0.0828 -0.9786
 6486SOL    HW130920   2.236   0.652   2.738  0.2828 -2.7340  1.4369
 6486SOL    HW230921   2.147   0.752   2.786  1.1929  3.4605  1.9306
 6487SOL     OW30922   1.219   2.742  15.385 -0.3542  0.3736  0.4708
 6487SOL    HW130923   1.221   2.649  15.405  0.0359  0.2560 -0.1219
 6487SOL    HW230924   1.306   2.767  15.356 -0.6756  0.2761 -0.5531
 6488SOL     OW30925   4.419   3.212   2.749  0.4523  0.6427  0.2695
 6488SOL    HW130926   4.489   3.149   2.733 -0.7358 -0.7863  0.7519
 6488SOL    HW230927   4.474   3.290   2.741  0.7565  0.3389 -0.5549
 6489SOL     OW30928   3.151   2.908   4.932  0.1134  0.2964 -0.2142
 6489SOL    HW130929   3.238   2.882   4.963  0.1075  0.7225  0.1606
 6489SOL    HW230930   3.141   2.867   4.846 -0.8756 -1.2322  0.6202
 6490SOL     OW30931   1.781   0.514   4.291 -0.1761 -0.0029 -0.1145
 6490SOL    HW130932   1.787   0.453   4.364 -1.1602  1.2621  1.0043
 6490SOL    HW230933   1.796   0.454   4.217  0.3055  1.5869 -1.3286
 6491SOL     OW30934   1.090   3.921   5.504  0.5237  0.3289  0.0904
 6491SOL    HW130935   1.059   3.844   5.551 -0.5306  1.5749  1.4290
 6491SOL    HW230936   1.104   3.876   5.420 -0.9365 -0.4555  0.2678
 6492SOL     OW30937   3.792   3.868   5.665  0.3769 -0.1304  0.3995
 6492SOL    HW130938   3.804   3.962   5.651  4.3991 -0.5760  0.7745
 6492SOL    HW230939   3.719   3.874   5.727 -0.2557 -2.4671 -0.1278
 6493SOL     OW30940   0.877   2.416  13.837 -0.4976 -0.0020  0.0276
 6493SOL    HW130941   0.966   2.405  13.870  0.9337  3.3558 -2.7157
 6493SOL    HW230942   0.879   2.357  13.761  0.4017 -3.1657  2.5034
 6494SOL     OW30943   0.052   2.066   4.377  0.1953 -0.0565  0.1501
 6494SOL    HW130944   4.694   2.106   4.382  1.1163  2.1784 -1.4231
 6494SOL    HW230945   0.083   2.130   4.313  1.1469 -0.5754  0.0937
 6495SOL     OW30946   0.802   0.413   8.924  0.0467  0.1339 -0.3232
 6495SOL    HW130947   0.874   0.352   8.908 -1.0667 -1.2069 -0.3027
 6495SOL    HW230948   0.726   0.360   8.900 -1.0208  0.4623  2.2732
 6496SOL     OW30949   1.426   2.694  16.424 -0.4072  0.2122 -0.0454
 6496SOL    HW130950   1.343   2.648  16.422 -1.2549  1.6798  0.9982
 6496SOL    HW230951   1.488   2.623  16.409 -1.6746 -0.5389 -1.6654
 6497SOL     OW30952   0.978   2.356  15.794  0.2664 -0.2493  0.2138
 6497SOL    HW130953   1.055   2.302  15.814  0.8012  0.2429 -0.5031
 6497SOL    HW230954   1.007   2.447  15.808  0.0919  0.0862 -1.5681
 6498SOL     OW30955   3.195   1.967   7.541  0.4503 -0.0463 -0.2348
 6498SOL    HW130956   3.139   2.019   7.599  0.6745 -2.0849  1.8033
 6498SOL    HW230957   3.204   2.028   7.468  1.2969 -0.1115 -0.1792
 6499SOL     OW30958   4.407   0.038   3.676 -0.0443 -0.1060  0.1064
 6499SOL    HW130959   4.360   0.006   3.599 -1.6483  0.2040  0.9710
 6499SOL    HW230960   4.375   4.712   3.748 -2.1563  0.5488 -0.3697
 6500SOL     OW30961   1.886   1.433   2.581 -0.0661  0.2907  0.0933
 6500SOL    HW130962   1.795   1.444   2.553  0.2955  0.6923 -0.9192
 6500SOL    HW230963   1.914   1.525   2.591 -0.9701  0.5600  0.1571
 6501SOL     OW30964   0.727   3.292   9.673  0.0548 -0.0055  1.0364
 6501SOL    HW130965   0.646   3.256   9.638 -0.0940  2.5984 -1.3191
 6501SOL    HW230966   0.695   3.372   9.714  0.5286  0.5720  0.2902
 6502SOL     OW30967   2.761   2.440   7.498 -0.3212  0.3935 -0.1060
 6502SOL    HW130968   2.682   2.445   7.444 -1.8752  2.1271  2.3343
 6502SOL    HW230969   2.803   2.362   7.463 -0.8714 -0.3637  0.9026
 6503SOL     OW30970   2.558   2.700   9.454  0.2023 -0.1561  0.1147
 6503SOL    HW130971   2.516   2.711   9.369  2.0122 -1.0338 -0.8956
 6503SOL    HW230972   2.587   2.791   9.463 -1.0703  0.2613 -0.0858
 6504SOL     OW30973   1.749   1.735   3.196 -0.7086 -0.3325  0.5492
 6504SOL    HW130974   1.702   1.661   3.232 -1.1532 -0.6092 -0.5951
 6504SOL    HW230975   1.840   1.705   3.204 -0.0568  2.0108  2.0621
 6505SOL     OW30976   2.894   4.390  14.690 -0.0203  0.0915 -0.0365
 6505SOL    HW130977   2.811   4.344  14.679 -1.2683  1.5347  3.4866
 6505SOL    HW230978   2.956   4.317  14.687 -0.8383 -0.5687 -0.7454
 6506SOL     OW30979   1.103   2.151   0.649  0.2203  0.1073 -0.3568
 6506SOL    HW130980   1.058   2.164   0.566  0.2071  0.0874 -0.3528
 6506SOL    HW230981   1.110   2.056   0.653 -0.2343  0.0980  0.3319
 6507SOL     OW30982   2.898   4.173  12.494 -0.3778 -0.2746 -0.0768
 6507SOL    HW130983   2.920   4.085  12.461  0.2238  0.0650 -0.5776
 6507SOL    HW230984   2.867   4.212  12.412 -0.4500  0.6312  0.3835
 6508SOL     OW30985   2.718   2.159  10.572  0.5622  0.7960  0.5323
 6508SOL    HW130986   2.623   2.168  10.562  1.0884  1.6132 -3.7722
 6508SOL    HW230987   2.759   2.231  10.524  2.0935 -0.8262 -0.5744
 6509SOL     OW30988   2.094   1.974   5.073 -0.2879 -0.2247  0.3857
 6509SOL    HW130989   2.176   2.011   5.041  0.2088 -1.2786  0.4666
 6509SOL    HW230990   2.036   2.051   5.075  0.9338  0.7040 -0.0427
 6510SOL     OW30991   1.991   1.541   3.247 -0.5241 -0.3605  0.5560
 6510SOL    HW130992   2.058   1.560   3.182 -0.9893 -1.3839 -0.2069
 6510SOL    HW230993   2.038   1.467   3.286  1.6067  0.5746 -0.2079
 6511SOL     OW30994   1.073   4.446   9.941 -0.2363 -0.2715 -0.7250
 6511SOL    HW130995   1.031   4.482   9.863  3.4826  2.1527 -1.6365
 6511SOL    HW230996   1.060   4.526   9.992  0.7203 -0.9317  0.5415
 6512SOL     OW30997   4.673   2.585   7.178  0.1600  0.2784  0.6751
 6512SOL    HW130998   0.004   2.600   7.252 -1.3698  0.4534  1.8760
 6512SOL    HW230999   4.589   2.619   7.211  1.0510  1.0453  2.1631
 6513SOL     OW31000   3.258   2.502   6.825 -0.4378  0.0082 -0.6644
 6513SOL    HW131001   3.353   2.498   6.814 -0.4261 -1.4063  0.0242
 6513SOL    HW231002   3.230   2.412   6.836 -0.4278 -0.2119 -2.3272
 6514SOL     OW31003   2.320   1.112   8.769 -0.4108 -0.0696 -0.5315
 6514SOL    HW131004   2.289   1.162   8.694  1.6463 -1.8550 -2.5713
 6514SOL    HW231005   2.277   1.029   8.752  0.0747 -0.4557  0.1503
 6515SOL     OW31006   2.772   0.985   2.250  0.2758 -0.0837 -0.1173
 6515SOL    HW131007   2.826   1.002   2.173 -0.6259  0.6988 -0.5817
 6515SOL    HW231008   2.725   1.068   2.258  0.9723  0.1556  1.3410
 6516SOL     OW31009   2.938   1.624   8.929 -0.4974  0.1133 -0.5083
 6516SOL    HW131010   2.934   1.551   8.991  1.1946  1.5179  1.2508
 6516SOL    HW231011   2.861   1.671   8.960  0.5913  1.9294 -0.5338
 6517SOL     OW31012   2.568   4.503   6.188 -0.0653  0.1933 -0.2835
 6517SOL    HW131013   2.563   4.443   6.262 -0.7625  0.1101 -0.3983
 6517SOL    HW231014   2.663   4.500   6.176 -0.0000  0.6510  0.1514
 6518SOL     OW31015   0.497   2.826  14.875  0.6672  0.0834  0.4268
 6518SOL    HW131016   0.507   2.735  14.850  0.2856 -0.5694  2.6221
 6518SOL    HW231017   0.519   2.814  14.968 -1.9826  0.7184  1.1333
 6519SOL     OW31018   4.693   1.118   8.488 -0.7291  0.2334  0.1677
 6519SOL    HW131019   4.666   1.157   8.571  1.0343 -0.1119  0.8985
 6519SOL    HW231020   4.723   1.030   8.510 -0.4625  0.6044  1.2860
 6520SOL     OW31021   0.618   4.199  17.198  0.1587 -0.7588 -0.3591
 6520SOL    HW131022   0.573   4.175  17.279 -1.2650  1.3461 -0.5370
 6520SOL    HW231023   0.558   4.156  17.136  0.3155  0.3126 -1.2571
 6521SOL     OW31024   4.724   1.036   2.563  0.1910  0.6050  0.4234
 6521SOL    HW131025   4.643   1.061   2.609 -1.1356 -1.9072 -0.5402
 6521SOL    HW231026   4.718   1.115   2.509  1.0715 -0.3973 -1.1136
 6522SOL     OW31027   3.145   2.880  14.484  0.3380 -0.3268 -0.2943
 6522SOL    HW131028   3.086   2.887  14.559 -1.5169 -0.7203 -1.7024
 6522SOL    HW231029   3.091   2.900  14.407 -1.4009  1.9391  1.5109
 6523SOL     OW31030   4.482   3.120   5.737  0.6120 -0.2423 -0.0352
 6523SOL    HW131031   4.479   3.214   5.753 -0.3236 -0.4442  0.9321
 6523SOL    HW231032   4.390   3.094   5.732  0.0553  1.7212  0.2697
 6524SOL     OW31033   1.960   2.790   8.224 -0.2647 -1.1023  0.6906
 6524SOL    HW131034   1.954   2.885   8.218 -0.9542 -1.2434 -1.1204
 6524SOL    HW231035   2.051   2.785   8.195 -0.9476  1.3297 -1.9255
 6525SOL     OW31036   4.414   0.304   3.340 -0.3224  0.2845  0.0748
 6525SOL    HW131037   4.378   0.319   3.253 -1.2308  3.2881  0.9587
 6525SOL    HW231038   4.400   0.393   3.372 -0.0893  0.7382 -1.0915
 6526SOL     OW31039   0.768   1.985   4.102 -0.0563  0.7974 -0.0025
 6526SOL    HW131040   0.816   1.935   4.036  0.2748  0.7394  0.2771
 6526SOL    HW231041   0.840   2.043   4.126  0.3861  0.5793 -0.8099
 6527SOL     OW31042   2.998   3.748   6.843 -0.2914  0.3350  0.2259
 6527SOL    HW131043   2.974   3.681   6.779 -0.0624  2.0482 -1.6459
 6527SOL    HW231044   3.070   3.794   6.801  1.3238 -1.3529  1.0972
 6528SOL     OW31045   3.860   1.359  15.408 -0.1893  0.4049 -0.3039
 6528SOL    HW131046   3.946   1.323  15.429 -0.0850 -0.3572 -2.0864
 6528SOL    HW231047   3.891   1.450  15.401 -0.7708  0.6234 -0.0388
 6529SOL     OW31048   4.510   1.137   3.874 -0.3325  0.1511  0.3033
 6529SOL    HW131049   4.589   1.098   3.911 -1.8342 -1.0699  2.2471
 6529SOL    HW231050   4.454   1.063   3.854 -1.0630  0.7507  0.1202
 6530SOL     OW31051   1.758   3.020   1.488 -0.6457 -0.0113  0.1480
 6530SOL    HW131052   1.782   2.938   1.529 -0.6887  0.2282  0.6478
 6530SOL    HW231053   1.843   3.051   1.458 -0.8687  0.2709 -0.1922
 6531SOL     OW31054   1.347   2.964   2.078  0.9577 -0.1025 -0.7234
 6531SOL    HW131055   1.416   2.989   2.017  0.8891  0.9351 -0.3791
 6531SOL    HW231056   1.295   3.042   2.097  0.3740 -0.3720 -1.2307
 6532SOL     OW31057   2.269   4.333  13.910  0.2511 -0.5889  0.3666
 6532SOL    HW131058   2.335   4.402  13.916  1.1500 -1.5704  1.7727
 6532SOL    HW231059   2.292   4.295  13.825 -2.0922  1.1378 -1.0520
 6533SOL     OW31060   4.604   3.872  17.325 -0.0686  0.0332  0.2587
 6533SOL    HW131061   4.624   3.779  17.313 -1.0796 -0.3997  1.8673
 6533SOL    HW231062   4.539   3.894  17.258 -0.5796 -1.5165  0.2341
 6534SOL     OW31063   3.449   4.253   4.359 -0.1779  0.5490 -0.1141
 6534SOL    HW131064   3.425   4.331   4.308  0.9251  0.3278 -0.9698
 6534SOL    HW231065   3.396   4.266   4.437 -1.0311 -1.4627 -0.3547
 6535SOL     OW31066   2.231   0.070  17.296 -0.4408  0.7179  0.0174
 6535SOL    HW131067   2.310   0.115  17.266  0.1752 -2.2849 -2.9506
 6535SOL    HW231068   2.187   0.145  17.334  0.2885  0.4461  1.3985
 6536SOL     OW31069   3.955   3.847   6.850  0.1508  0.0545 -0.3583
 6536SOL    HW131070   3.984   3.852   6.759 -0.1489  0.5493 -0.4260
 6536SOL    HW231071   3.909   3.931   6.852 -1.0283 -0.5617 -2.2584
 6537SOL     OW31072   3.831   2.030   8.252  0.4218  0.3355 -1.0652
 6537SOL    HW131073   3.748   2.074   8.271 -0.3006 -1.4453 -0.1647
 6537SOL    HW231074   3.838   1.974   8.329 -1.6054  1.0791 -0.3619
 6538SOL     OW31075   3.599   1.026  11.328 -0.8799  0.3718 -0.0185
 6538SOL    HW131076   3.534   0.973  11.281 -2.0198  2.6472 -0.9882
 6538SOL    HW231077   3.626   0.966  11.398 -0.5941  1.5287  0.8743
 6539SOL     OW31078   2.439   0.471   3.780 -0.0025  0.5870  0.4020
 6539SOL    HW131079   2.438   0.528   3.857  0.0509  2.6272 -1.1227
 6539SOL    HW231080   2.527   0.493   3.749  1.0901 -2.8778  0.9821
 6540SOL     OW31081   4.693   1.946   8.176 -1.0701  0.5956 -0.2886
 6540SOL    HW131082   4.715   1.999   8.252 -0.5387 -1.0962  0.7325
 6540SOL    HW231083   4.619   1.997   8.144 -0.4402  3.5287  2.9392
 6541SOL     OW31084   1.207   1.740   3.338 -0.2395 -0.2972  0.3715
 6541SOL    HW131085   1.256   1.808   3.290 -0.0703 -0.8966 -0.3116
 6541SOL    HW231086   1.219   1.771   3.427  0.6842 -3.1460  1.2361
 6542SOL     OW31087   4.144   0.972   6.977  0.1612  0.0900 -0.3122
 6542SOL    HW131088   4.203   0.974   7.053  0.9805  2.5898 -1.0467
 6542SOL    HW231089   4.195   1.025   6.916 -1.5421  0.0754 -1.7555
 6543SOL     OW31090   1.713   0.791  12.716  0.6347  0.2307  0.1585
 6543SOL    HW131091   1.628   0.765  12.753  0.3508  0.1050 -0.5704
 6543SOL    HW231092   1.755   0.767  12.799  1.8732  0.2724 -0.4585
 6544SOL     OW31093   3.223   0.086   6.012 -0.2112  0.5883 -0.4214
 6544SOL    HW131094   3.132   0.069   6.035 -0.6137  0.5580 -2.0908
 6544SOL    HW231095   3.226   0.003   5.965 -3.9164  1.3036 -1.9124
 6545SOL     OW31096   3.472   3.181   9.573 -0.0196 -0.2127 -0.3582
 6545SOL    HW131097   3.429   3.263   9.551  1.8312  0.8300 -0.0490
 6545SOL    HW231098   3.558   3.217   9.591 -0.4329  0.7219 -0.2867
 6546SOL     OW31099   4.502   3.677   1.584 -0.9669  0.1830 -0.5504
 6546SOL    HW131100   4.423   3.637   1.620 -0.9319  1.6757  1.1469
 6546SOL    HW231101   4.486   3.771   1.592 -2.4559 -0.1802  0.7413
 6547SOL     OW31102   1.922   1.957  13.447 -0.1935  0.2896  0.2567
 6547SOL    HW131103   1.846   1.982  13.500  1.0520  0.1132  2.1174
 6547SOL    HW231104   1.892   1.953  13.356 -2.7234 -0.4071  1.1297
 6548SOL     OW31105   2.381   4.342   3.474 -0.3750 -0.8196 -0.0827
 6548SOL    HW131106   2.449   4.409   3.467  0.0408 -1.4763 -2.5252
 6548SOL    HW231107   2.345   4.357   3.561 -0.4470 -0.6390 -0.1427
 6549SOL     OW31108   2.075   0.504   3.425  0.1960 -0.1540 -0.4690
 6549SOL    HW131109   2.090   0.433   3.363 -1.4721 -1.8885  1.1401
 6549SOL    HW231110   2.100   0.462   3.508 -0.6208  0.4062  0.0562
 6550SOL     OW31111   2.147   1.987  16.598  0.0217  0.3765  0.5244
 6550SOL    HW131112   2.207   1.928  16.552 -1.0067 -0.6159  0.4317
 6550SOL    HW231113   2.203   2.061  16.618  0.0538 -0.0302  1.9460
 6551SOL     OW31114   4.286   2.117   6.064  0.1543  0.0530 -0.1871
 6551SOL    HW131115   4.339   2.165   6.000 -1.0530  1.0866 -0.4192
 6551SOL    HW231116   4.254   2.188   6.120  1.6330 -1.5502  2.6691
 6552SOL     OW31117   3.191   1.370  13.712 -0.1945  0.0838  0.3021
 6552SOL    HW131118   3.246   1.445  13.733  1.9441 -1.4608  0.2013
 6552SOL    HW231119   3.163   1.372  13.621  3.7161  0.5179 -0.8985
 6553SOL     OW31120   2.422   0.228  14.144 -0.7642 -0.4479 -0.4928
 6553SOL    HW131121   2.443   0.275  14.225  0.2007 -1.5973 -0.0683
 6553SOL    HW231122   2.463   0.143  14.162  2.7519  1.3695  0.0270
 6554SOL     OW31123   2.836   4.702   1.836  0.3447  0.0767  0.6735
 6554SOL    HW131124   2.764   0.008   1.783  2.7174 -0.7416 -3.0283
 6554SOL    HW231125   2.882   0.056   1.854  1.3208 -0.0235 -1.3566
 6555SOL     OW31126   3.038   0.663   5.467 -0.9494 -0.6323 -0.3794
 6555SOL    HW131127   2.950   0.628   5.449 -0.7385 -1.7354  0.7363
 6555SOL    HW231128   3.071   0.575   5.487  0.2787 -0.3613 -1.2143
 6556SOL     OW31129   1.197   0.399  17.321  0.3064 -0.0959 -0.1517
 6556SOL    HW131130   1.257   0.445  17.263 -1.4312  1.6927 -0.5274
 6556SOL    HW231131   1.253   0.339  17.369 -0.5747 -0.0036  0.9964
 6557SOL     OW31132   0.225   1.240   2.576 -0.0842  0.0987  0.4582
 6557SOL    HW131133   0.176   1.166   2.541 -0.6038  0.0964  1.1944
 6557SOL    HW231134   0.167   1.267   2.648 -1.2082  1.1564 -0.8616
 6558SOL     OW31135   1.125   0.776   2.100 -1.1029  0.6072 -0.2438
 6558SOL    HW131136   1.193   0.836   2.070  0.1542  0.1322  1.6783
 6558SOL    HW231137   1.062   0.783   2.028 -0.0840  1.2790 -1.0651
 6559SOL     OW31138   1.395   0.424   2.038  0.0262  0.4729  0.1720
 6559SOL    HW131139   1.342   0.344   2.033 -0.7463  0.8807  1.7321
 6559SOL    HW231140   1.431   0.416   2.126  0.7637  0.5687 -0.1199
 6560SOL     OW31141   2.170   2.253   2.630  0.2229  0.3901 -0.2617
 6560SOL    HW131142   2.185   2.290   2.717  0.0290 -1.4647  0.5494
 6560SOL    HW231143   2.227   2.177   2.623  0.8255  0.9741 -1.6246
 6561SOL     OW31144   0.967   1.896   8.837  0.4336 -0.8337 -0.2655
 6561SOL    HW131145   0.936   1.808   8.858  1.7245 -1.0739  0.6503
 6561SOL    HW231146   1.046   1.866   8.793  0.5584  1.6474 -1.7018
 6562SOL     OW31147   2.029   4.404   6.810  0.8133  0.6517 -0.4272
 6562SOL    HW131148   1.960   4.383   6.748 -0.7182 -0.4000  1.6433
 6562SOL    HW231149   2.083   4.325   6.803 -0.8129 -0.5508  0.5738
 6563SOL     OW31150   0.095   3.846   3.662 -0.1859 -0.3724  0.3926
 6563SOL    HW131151   0.033   3.900   3.711  0.9678  0.6445  0.7494
 6563SOL    HW231152   0.130   3.916   3.606 -0.0349 -1.9310 -1.4424
 6564SOL     OW31153   2.714   4.356  13.875  0.5538 -0.7553 -0.4838
 6564SOL    HW131154   2.674   4.269  13.872  1.0424 -0.9732 -0.5809
 6564SOL    HW231155   2.698   4.390  13.963  0.6246  0.3309 -0.8943
 6565SOL     OW31156   0.319   3.403   5.052  0.3791  0.5594 -0.3184
 6565SOL    HW131157   0.383   3.425   5.120 -0.6679 -0.0247  0.8380
 6565SOL    HW231158   0.344   3.467   4.985 -0.6264 -0.9010 -2.0821
 6566SOL     OW31159   0.932   0.465  10.287  0.2058  1.0288 -0.1571
 6566SOL    HW131160   1.014   0.514  10.287  2.3821 -2.5587  2.6550
 6566SOL    HW231161   0.868   0.533  10.267  0.4312  0.9029 -1.2859
 6567SOL     OW31162   3.820   4.428   7.957  0.3591 -0.0017 -0.1693
 6567SOL    HW131163   3.737   4.439   8.003  1.0741 -3.2208  1.9272
 6567SOL    HW231164   3.874   4.408   8.034  2.4381 -1.4283 -2.0160
 6568SOL     OW31165   1.066   2.513   7.342  0.3329  0.5953 -0.1228
 6568SOL    HW131166   1.117   2.438   7.312 -0.0156  0.4314 -0.3038
 6568SOL    HW231167   1.113   2.535   7.422  0.8079 -0.0761 -0.2144
 6569SOL     OW31168   3.286   1.818  12.421 -0.0612  0.0997 -0.2142
 6569SOL    HW131169   3.356   1.768  12.463  1.3323 -0.4042 -3.1093
 6569SOL    HW231170   3.213   1.756  12.418 -0.5080  0.6585 -0.6522
 6570SOL     OW31171   4.722   4.392  14.641 -0.9799 -0.4056  0.2271
 6570SOL    HW131172   4.628   4.388  14.624 -0.8999  1.5037 -0.6826
 6570SOL    HW231173   0.027   4.444  14.568 -0.8904 -0.0166  0.5433
 6571SOL     OW31174   3.920   0.654   4.416 -0.0272 -0.1457  0.3410
 6571SOL    HW131175   3.874   0.616   4.491  0.6512  0.0407  0.8480
 6571SOL    HW231176   3.873   0.734   4.394 -0.8020 -0.1040  2.1476
 6572SOL     OW31177   4.094   4.695   8.584 -0.2039  0.1346 -0.0695
 6572SOL    HW131178   4.182   4.681   8.619 -1.1743  1.7089  3.0006
 6572SOL    HW231179   4.071   0.047   8.629  0.0758  0.2437 -0.1229
 6573SOL     OW31180   0.341   0.062   8.556 -0.7008 -0.2379  0.0677
 6573SOL    HW131181   0.344   0.067   8.460  2.5708 -0.5857  0.1732
 6573SOL    HW231182   0.368   0.148   8.586 -0.0074 -0.5301  0.2595
 6574SOL     OW31183   4.623   0.546   8.974  0.2369  0.3811 -0.7354
 6574SOL    HW131184   4.600   0.510   8.889  0.9402  0.3290 -0.9077
 6574SOL    HW231185   4.718   0.532   8.973  0.0123 -1.2013  0.9088
 6575SOL     OW31186   4.047   1.551   2.925 -0.1073  0.5751  0.0052
 6575SOL    HW131187   4.134   1.516   2.903 -1.2519 -0.8395 -2.2489
 6575SOL    HW231188   4.041   1.522   3.016  0.5137  3.1542  0.8621
 6576SOL     OW31189   1.527   0.785   7.536  0.3088 -0.4595 -0.0544
 6576SOL    HW131190   1.506   0.696   7.509 -1.3485  0.1108 -0.6004
 6576SOL    HW231191   1.560   0.823   7.454  1.7337 -2.7598 -0.5339
 6577SOL     OW31192   3.229   3.718   4.068 -0.3137  0.1972  0.4757
 6577SOL    HW131193   3.301   3.702   4.129  0.6391 -0.1936 -0.7602
 6577SOL    HW231194   3.246   3.657   3.997 -2.1538 -0.1028  0.2840
 6578SOL     OW31195   1.382   0.010  16.126  0.1261  0.5192  0.0401
 6578SOL    HW131196   1.394   4.647  16.103  3.0357  0.6228  1.1921
 6578SOL    HW231197   1.287   0.016  16.137  0.0814  1.5324 -0.8643
 6579SOL     OW31198   2.404   1.432  11.287 -0.7075 -0.0062 -0.3406
 6579SOL    HW131199   2.384   1.504  11.227 -0.4036  2.9796  3.1600
 6579SOL    HW231200   2.385   1.475  11.371 -1.0979 -1.2360  0.1970
 6580SOL     OW31201   2.865   1.398   4.164 -0.2240  0.1469  0.4437
 6580SOL    HW131202   2.814   1.434   4.236  0.7939  0.0072  1.2299
 6580SOL    HW231203   2.851   1.467   4.098 -3.2828  0.0202  0.9575
 6581SOL     OW31204   3.423   1.828   1.607  0.5370 -0.6775  0.3219
 6581SOL    HW131205   3.375   1.842   1.526  0.1379 -1.4037  0.4307
 6581SOL    HW231206   3.509   1.847   1.569  0.4133  0.9087  0.8623
 6582SOL     OW31207   0.677   1.729   6.226 -0.4056  0.0939 -0.1102
 6582SOL    HW131208   0.751   1.772   6.269  2.0905 -1.2954 -3.0785
 6582SOL    HW231209   0.634   1.687   6.300 -0.2659  1.0491  0.5250
 6583SOL     OW31210   1.729   1.326   3.490  0.0770  0.3622  0.1692
 6583SOL    HW131211   1.711   1.262   3.421 -0.7005  2.8496 -1.9586
 6583SOL    HW231212   1.654   1.309   3.547 -1.0963  1.4368 -1.0314
 6584SOL     OW31213   0.677   3.955  10.056  0.6214 -0.0109 -0.2986
 6584SOL    HW131214   0.737   3.955  10.131  2.7714 -2.0688 -2.0112
 6584SOL    HW231215   0.606   3.996  10.107 -0.4246  0.3481 -2.0573
 6585SOL     OW31216   1.446   3.688   5.071 -0.0656 -0.0970  0.0454
 6585SOL    HW131217   1.512   3.647   5.015  1.0127 -0.2479  1.4606
 6585SOL    HW231218   1.407   3.741   5.000 -0.7248 -2.1147 -1.1175
 6586SOL     OW31219   0.616   0.901   5.759  0.5148  0.1882 -0.4483
 6586SOL    HW131220   0.685   0.952   5.716  0.6145  0.0417 -0.4629
 6586SOL    HW231221   0.602   0.838   5.689 -0.3889  0.0370 -0.1237
 6587SOL     OW31222   2.017   0.166   8.866  0.3462 -0.6261  0.4239
 6587SOL    HW131223   2.003   0.077   8.834  0.7212 -0.7288  0.5491
 6587SOL    HW231224   1.996   0.153   8.958  0.9037 -0.9622  0.5021
 6588SOL     OW31225   0.607   3.925   0.670  0.5462  0.0346  0.3772
 6588SOL    HW131226   0.702   3.916   0.685  0.6712  0.5190 -0.1161
 6588SOL    HW231227   0.621   3.966   0.585  0.7022 -1.1838 -0.1761
 6589SOL     OW31228   4.422   1.514   4.651 -0.6567 -0.4843  0.1049
 6589SOL    HW131229   4.399   1.421   4.657 -0.5037 -0.4648  1.0183
 6589SOL    HW231230   4.348   1.551   4.699  0.2791 -0.9558  1.9025
 6590SOL     OW31231   4.490   2.566   5.318 -0.1040  0.1294 -0.3830
 6590SOL    HW131232   4.522   2.645   5.362  0.0743 -0.0192 -0.2469
 6590SOL    HW231233   4.403   2.592   5.288 -0.1746  1.5215  1.0070
 6591SOL     OW31234   3.311   3.722   5.654 -0.2396 -0.7011  0.0214
 6591SOL    HW131235   3.351   3.651   5.603  0.3909 -0.1820 -0.2048
 6591SOL    HW231236   3.218   3.703   5.642 -0.3610 -0.7257  1.0036
 6592SOL     OW31237   4.590   0.926  17.568 -0.3602  0.3842  0.0883
 6592SOL    HW131238   4.587   0.995  17.634 -1.3347 -0.2678  0.7314
 6592SOL    HW231239   4.685   0.919  17.562 -0.4400  0.4808 -1.1888
 6593SOL     OW31240   2.458   4.508   8.585  0.5655 -0.1873  0.0548
 6593SOL    HW131241   2.387   4.443   8.595 -2.2168  2.6131 -1.4758
 6593SOL    HW231242   2.485   4.511   8.677  0.1001  1.1089  0.1415
 6594SOL     OW31243   4.369   1.758   3.108  0.3261 -0.4920 -0.3575
 6594SOL    HW131244   4.400   1.724   3.192  0.0409  0.2659  0.0524
 6594SOL    HW231245   4.447   1.796   3.068  0.8091 -0.6250  0.4635
 6595SOL     OW31246   1.892   0.601   5.174  0.3987 -0.5536  0.1087
 6595SOL    HW131247   1.876   0.522   5.124 -0.5239 -0.6490  0.5595
 6595SOL    HW231248   1.985   0.610   5.154  0.2249  0.5502 -0.2142
 6596SOL     OW31249   3.711   4.231   6.099 -0.2116  0.0274  0.0050
 6596SOL    HW131250   3.662   4.155   6.067 -1.5387  0.6478  0.5939
 6596SOL    HW231251   3.720   4.269   6.011  1.9422 -1.8621 -0.6266
 6597SOL     OW31252   2.172   4.622   4.256  0.1556  0.1641  0.4425
 6597SOL    HW131253   2.080   4.595   4.257 -0.3790  1.9758  0.3832
 6597SOL    HW231254   2.171   4.683   4.329  0.1946  0.7092 -0.0073
 6598SOL     OW31255   3.911   0.517   6.154  0.0647  0.1219  0.0872
 6598SOL    HW131256   3.913   0.595   6.209  0.3012  0.1619  0.0233
 6598SOL    HW231257   3.856   0.464   6.211 -0.8060  0.7834 -0.1458
 6599SOL     OW31258   3.179   4.278  12.720  0.3553 -0.3250 -0.7364
 6599SOL    HW131259   3.249   4.250  12.778 -0.1503  2.3269  1.1609
 6599SOL    HW231260   3.203   4.239  12.636 -0.2808 -0.1459 -1.0039
 6600SOL     OW31261   3.721   1.976   6.797 -0.1336  0.1144  0.5914
 6600SOL    HW131262   3.671   1.915   6.743  0.5656  1.1574 -1.2247
 6600SOL    HW231263   3.669   1.971   6.877 -0.6901  2.5255  0.3681
 6601SOL     OW31264   1.593   3.479  15.007  0.0434  0.8163 -0.0708
 6601SOL    HW131265   1.571   3.459  15.098 -0.9655 -0.3548 -0.5642
 6601SOL    HW231266   1.512   3.469  14.956 -1.2744  1.1584  1.9434
 6602SOL     OW31267   0.938   2.701   8.335  0.4122 -0.3950  0.2813
 6602SOL    HW131268   0.919   2.704   8.241  0.3822  0.0001  0.3008
 6602SOL    HW231269   0.970   2.611   8.349  0.9790 -0.2454 -0.0359
 6603SOL     OW31270   1.023   4.496   8.573 -0.2985 -0.1315  0.1597
 6603SOL    HW131271   1.022   4.589   8.552 -1.5707  0.1376  1.4116
 6603SOL    HW231272   1.072   4.492   8.655 -1.8284  0.6044  1.0983
 6604SOL     OW31273   2.558   3.745   5.709 -1.0454 -0.2554  0.2523
 6604SOL    HW131274   2.576   3.653   5.729  1.3649  0.0034 -0.7214
 6604SOL    HW231275   2.474   3.726   5.667 -0.7213  1.5769 -1.2005
 6605SOL     OW31276   2.600   4.350  15.600  0.3544  0.0375 -0.3069
 6605SOL    HW131277   2.627   4.387  15.684 -2.2681 -1.5856  1.2597
 6605SOL    HW231278   2.667   4.390  15.545  0.8265 -0.7044 -0.2712
 6606SOL     OW31279   2.208   1.227   5.247 -0.2503  0.1178  0.1243
 6606SOL    HW131280   2.128   1.202   5.200 -1.4020  1.0703  1.5844
 6606SOL    HW231281   2.209   1.161   5.317 -1.7508 -1.1474 -1.0580
 6607SOL     OW31282   0.122   2.969  16.700  0.0601  0.3300 -0.1067
 6607SOL    HW131283   0.178   3.046  16.708  1.6876 -0.6808 -1.5279
 6607SOL    HW231284   0.098   2.973  16.608  0.7065  0.0726 -0.2927
 6608SOL     OW31285   0.004   0.023   2.814 -0.2771 -1.1682  0.2590
 6608SOL    HW131286   0.071   0.039   2.880 -1.5446  0.8461  1.0668
 6608SOL    HW231287   4.656   0.071   2.846 -0.5362 -0.1154 -1.9152
 6609SOL     OW31288   0.319   0.268  11.164  0.4167  0.2734  0.5136
 6609SOL    HW131289   0.358   0.195  11.115 -0.1298  1.7183 -2.0892
 6609SOL    HW231290   0.372   0.275  11.244  1.4548 -0.2203 -0.1314
 6610SOL     OW31291   1.266   2.891   3.844 -0.1851  0.3249 -0.1440
 6610SOL    HW131292   1.174   2.914   3.833  0.1107  0.9461 -1.3952
 6610SOL    HW231293   1.299   2.914   3.757  0.8527 -1.1408 -0.1402
 6611SOL     OW31294   0.938   0.889   9.135 -0.3518  0.0039 -0.8826
 6611SOL    HW131295   0.944   0.818   9.071  0.5883 -0.8723  0.1754
 6611SOL    HW231296   0.848   0.914   9.117 -0.9194 -1.6980 -0.4695
 6612SOL     OW31297   2.353   4.029   7.120  0.5123 -0.0885 -0.1301
 6612SOL    HW131298   2.386   3.981   7.044  0.5936 -0.0685 -0.1080
 6612SOL    HW231299   2.390   3.984   7.196 -0.2744 -0.1364  0.2239
 6613SOL     OW31300   0.037   2.888  11.185 -0.3887 -0.1823  0.3923
 6613SOL    HW131301   4.681   2.931  11.169  0.6230  2.3988  2.1431
 6613SOL    HW231302   0.037   2.821  11.116  0.1791 -0.8705  1.0656
 6614SOL     OW31303   1.469   4.449   0.655  0.0216  0.4218 -0.2255
 6614SOL    HW131304   1.392   4.504   0.639 -1.1445 -1.2449 -0.3903
 6614SOL    HW231305   1.505   4.435   0.567 -2.1982 -0.2438 -1.0216
 6615SOL     OW31306   2.271   2.346  13.839 -0.2082  0.2137 -0.3018
 6615SOL    HW131307   2.301   2.422  13.788  0.1916  0.2548 -0.0113
 6615SOL    HW231308   2.254   2.381  13.926 -1.1847 -1.3173  0.1005
 6616SOL     OW31309   3.338   2.504   5.487 -0.0533  0.3400 -0.8106
 6616SOL    HW131310   3.284   2.434   5.524  0.6978  0.3127  0.2202
 6616SOL    HW231311   3.288   2.516   5.407 -0.8330 -0.2531 -0.4239
 6617SOL     OW31312   2.636   0.379   8.735 -0.1654  0.1542 -0.1535
 6617SOL    HW131313   2.631   0.425   8.651 -1.5526 -0.6942 -0.5347
 6617SOL    HW231314   2.695   0.437   8.784  2.3215 -0.8993 -1.9205
 6618SOL     OW31315   2.721   2.683   2.779 -0.0897  0.5619 -0.2449
 6618SOL    HW131316   2.784   2.755   2.775  1.5148 -0.9961 -2.6546
 6618SOL    HW231317   2.687   2.685   2.690 -1.2564 -2.8597  0.1302
 6619SOL     OW31318   3.193   3.001  17.353  0.0681  0.0768  0.7688
 6619SOL    HW131319   3.123   2.937  17.363  2.7619 -2.8696  0.8215
 6619SOL    HW231320   3.238   2.975  17.272  1.1951  0.7114  1.1864
 6620SOL     OW31321   3.309   1.802   3.577 -0.6366 -0.6388 -0.0951
 6620SOL    HW131322   3.288   1.849   3.496 -3.8792  1.7053  2.0893
 6620SOL    HW231323   3.253   1.853   3.635 -1.0780  0.0715 -1.1385
 6621SOL     OW31324   3.934   3.159   6.288 -0.5627  0.1209  0.2901
 6621SOL    HW131325   3.992   3.134   6.360 -1.2647  1.2941  1.2729
 6621SOL    HW231326   3.983   3.105   6.227 -1.2897 -2.3353  1.8786
 6622SOL     OW31327   0.152   0.444   3.050  0.2720 -0.3021  0.1334
 6622SOL    HW131328   0.097   0.392   3.108  1.4265  0.4665  1.9171
 6622SOL    HW231329   0.085   0.507   3.022 -0.7659 -1.0534  0.9211
 6623SOL     OW31330   2.663   4.697  15.367 -0.2783  0.6450  0.5240
 6623SOL    HW131331   2.685   0.052  15.410 -0.1542  0.2837  1.1640
 6623SOL    HW231332   2.661   4.722  15.275  1.2955 -0.1495  0.2780
 6624SOL     OW31333   4.241   2.592   1.195 -0.0754  1.2009 -0.2663
 6624SOL    HW131334   4.160   2.542   1.210  0.2008 -0.4984 -4.5121
 6624SOL    HW231335   4.213   2.680   1.220 -1.7236  0.5089  0.3829
 6625SOL     OW31336   0.728   4.175   8.307 -0.1565  0.2190  0.0554
 6625SOL    HW131337   0.754   4.255   8.352 -0.0491 -0.1774  0.7013
 6625SOL    HW231338   0.634   4.177   8.325 -0.3894 -2.9329 -0.8378
 6626SOL     OW31339   2.112   0.081   7.132 -0.7559  0.4599 -0.5676
 6626SOL    HW131340   2.064   0.008   7.091 -1.2712  0.1377  0.6028
 6626SOL    HW231341   2.117   0.140   7.058  1.1300  0.3656 -0.5012
 6627SOL     OW31342   4.188   0.519   8.656 -0.1134  0.4250 -0.6126
 6627SOL    HW131343   4.269   0.485   8.620 -2.2298 -4.1587 -1.0084
 6627SOL    HW231344   4.228   0.573   8.725 -0.5184  2.1132 -1.6930
 6628SOL     OW31345   1.083   2.614   6.893  0.1892  0.2648  0.1467
 6628SOL    HW131346   1.151   2.656   6.946  0.5996  1.2911 -1.1983
 6628SOL    HW231347   1.078   2.520   6.912 -1.9803  0.3253 -0.1535
 6629SOL     OW31348   2.356   1.736   1.356 -0.0754 -0.2231  0.1947
 6629SOL    HW131349   2.304   1.656   1.363 -1.0822  0.3693 -0.5358
 6629SOL    HW231350   2.380   1.732   1.263  2.0710 -0.1276  0.7259
 6630SOL     OW31351   0.937   1.053   4.494 -0.6531 -0.0860 -0.2258
 6630SOL    HW131352   1.024   1.067   4.457 -0.7250 -2.6797 -1.4384
 6630SOL    HW231353   0.899   1.014   4.415 -0.4124  1.4051 -1.0707
 6631SOL     OW31354   1.487   3.540   5.466 -0.0064 -0.5034 -0.2610
 6631SOL    HW131355   1.527   3.510   5.384  0.2367  0.4812 -0.4972
 6631SOL    HW231356   1.516   3.468   5.522  1.5815 -0.2255 -0.7275
 6632SOL     OW31357   3.284   2.566   8.423  0.1000  0.0388  0.5642
 6632SOL    HW131358   3.361   2.547   8.478  0.3177 -0.9289 -0.0649
 6632SOL    HW231359   3.226   2.608   8.487  0.2690  0.0465  0.7134
 6633SOL     OW31360   1.942   3.963   1.322 -0.2947 -0.2044 -0.0954
 6633SOL    HW131361   2.025   3.938   1.363 -1.0532 -1.0137  0.9626
 6633SOL    HW231362   1.884   3.907   1.374 -1.0426  1.1476  0.5196
 6634SOL     OW31363   3.231   3.838  12.928 -0.4587 -0.2676  0.4942
 6634SOL    HW131364   3.243   3.751  12.967 -0.5053 -0.8915 -0.9020
 6634SOL    HW231365   3.267   3.895  12.996 -1.7729  0.1948  0.7962
 6635SOL     OW31366   0.821   4.719   8.549 -0.2386  0.3234  0.1407
 6635SOL    HW131367   0.756   0.025   8.487 -0.7658 -2.3423 -0.7876
 6635SOL    HW231368   0.866   4.661   8.487 -1.2192  0.7872 -1.0207
 6636SOL     OW31369   3.382   4.424   0.251 -0.0106 -0.1416  0.2455
 6636SOL    HW131370   3.446   4.437   0.181 -1.7566  3.4076 -0.6978
 6636SOL    HW231371   3.396   4.330   0.266  0.6355 -0.0695  0.1033
 6637SOL     OW31372   0.719   2.979   4.542  0.2026 -0.1847 -0.2589
 6637SOL    HW131373   0.710   2.891   4.578  1.2657 -0.4310 -0.5899
 6637SOL    HW231374   0.635   3.000   4.500 -0.0291 -0.6784 -0.0349
 6638SOL     OW31375   4.131   1.422  11.205  0.2142 -0.1655 -0.3999
 6638SOL    HW131376   4.226   1.408  11.207  0.3062  0.2519 -2.0347
 6638SOL    HW231377   4.124   1.434  11.110 -1.1226  0.1256 -0.2559
 6639SOL     OW31378   3.561   0.954   1.313  0.0756 -0.3225  0.3408
 6639SOL    HW131379   3.655   0.933   1.315 -0.3932 -2.3497  0.7425
 6639SOL    HW231380   3.532   0.888   1.375  1.7704 -1.0720  0.3299
 6640SOL     OW31381   2.196   2.050   7.988  0.0495 -0.1442  0.0623
 6640SOL    HW131382   2.257   1.997   8.041  1.9782 -0.7450 -2.7471
 6640SOL    HW231383   2.122   1.989   7.987  1.5446 -2.0222  2.6087
 6641SOL     OW31384   0.036   0.575   8.443  0.8154  0.4870  0.1769
 6641SOL    HW131385   0.003   0.590   8.354 -0.0818  0.4580  0.5048
 6641SOL    HW231386   0.111   0.517   8.427  0.2807 -0.1342 -0.0954
 6642SOL     OW31387   1.516   0.071   4.014  0.7387  0.5777 -0.2070
 6642SOL    HW131388   1.442   0.110   3.968  0.2230  0.3364  0.4099
 6642SOL    HW231389   1.573   0.147   4.005  2.1081 -0.3816  0.2742
 6643SOL     OW31390   0.488   2.058   3.173 -0.2740  0.2572 -0.3808
 6643SOL    HW131391   0.562   2.029   3.227 -1.2948 -0.3056  0.7143
 6643SOL    HW231392   0.500   1.995   3.102 -3.1720  1.5757 -2.0461
 6644SOL     OW31393   1.147   3.002  15.114  0.0073  0.1650 -0.2724
 6644SOL    HW131394   1.098   3.057  15.176  1.3678 -0.1958  1.1331
 6644SOL    HW231395   1.071   2.945  15.101 -0.7832  1.7298 -2.3760
 6645SOL     OW31396   3.773   1.990  10.499  0.2679 -0.9443  0.1031
 6645SOL    HW131397   3.680   1.972  10.487  0.3955 -1.6634  0.2182
 6645SOL    HW231398   3.783   2.052  10.427  0.4547  0.2407  1.1431
 6646SOL     OW31399   1.401   2.284   5.595 -0.4200  0.0925 -0.6113
 6646SOL    HW131400   1.391   2.191   5.616 -0.9315  0.7260  2.0062
 6646SOL    HW231401   1.321   2.307   5.644  0.9248  0.6849  1.3293
 6647SOL     OW31402   3.428   2.995   2.435 -0.0696 -0.2260  0.4433
 6647SOL    HW131403   3.479   2.956   2.506  0.0625  0.5284  0.7549
 6647SOL    HW231404   3.362   3.042   2.485 -0.4337 -1.4714  1.1401
 6648SOL     OW31405   3.101   1.485   7.826 -0.2925 -0.5300  0.1362
 6648SOL    HW131406   3.016   1.522   7.801 -0.1107 -1.4460 -1.8224
 6648SOL    HW231407   3.095   1.485   7.922 -1.1487  0.5396  0.0936
 6649SOL     OW31408   4.294   0.340   7.560  0.0370  0.9857 -0.0294
 6649SOL    HW131409   4.358   0.365   7.493 -0.5207  1.3858 -0.4182
 6649SOL    HW231410   4.215   0.332   7.506  0.4171 -0.7665 -0.3048
 6650SOL     OW31411   3.891   3.429   3.749  0.3085 -0.3386 -0.1511
 6650SOL    HW131412   3.825   3.391   3.807 -0.7461  0.0240 -1.1129
 6650SOL    HW231413   3.929   3.493   3.810 -0.6692 -0.2365  0.3537
 6651SOL     OW31414   0.636   3.853   8.343 -0.1008  0.4031  0.2511
 6651SOL    HW131415   0.601   3.927   8.392  0.0231  1.1546 -0.7947
 6651SOL    HW231416   0.559   3.801   8.321 -1.2825  1.9747  0.6347
 6652SOL     OW31417   2.927   3.771  10.586  0.3790 -0.1831  0.5515
 6652SOL    HW131418   2.949   3.771  10.679 -0.7759  2.6504  0.8280
 6652SOL    HW231419   2.965   3.848  10.543 -1.2980 -1.0188 -2.4631
 6653SOL     OW31420   4.254   2.600  14.532 -0.0609 -0.1983 -0.2840
 6653SOL    HW131421   4.240   2.662  14.461  0.4165 -0.1102 -0.2998
 6653SOL    HW231422   4.343   2.618  14.562  0.5986 -1.3445 -1.5182
 6654SOL     OW31423   0.981   1.591   4.512  0.1387  0.0467 -0.5953
 6654SOL    HW131424   0.987   1.600   4.607 -1.3162 -1.5230 -0.3401
 6654SOL    HW231425   0.909   1.650   4.490 -1.4389 -2.2837 -1.8108
 6655SOL     OW31426   0.229   3.707   1.860  0.0911  0.1549 -0.0391
 6655SOL    HW131427   0.276   3.779   1.817  2.5299 -1.6491 -0.3952
 6655SOL    HW231428   0.300   3.648   1.884  0.3983 -0.0759 -1.5141
 6656SOL     OW31429   3.802   1.376   9.550  0.4995  0.3806  1.0820
 6656SOL    HW131430   3.852   1.400   9.472 -0.3709 -2.0921 -0.2280
 6656SOL    HW231431   3.831   1.286   9.561  0.6075  0.4400  1.2791
 6657SOL     OW31432   1.496   2.726  12.275  0.0975  0.6626  0.2541
 6657SOL    HW131433   1.588   2.736  12.250  0.2669 -0.3351  0.4956
 6657SOL    HW231434   1.499   2.747  12.369 -0.1659 -4.2324  1.3215
 6658SOL     OW31435   2.317   0.567   8.659  0.0296  0.1606  0.3680
 6658SOL    HW131436   2.306   0.578   8.564  2.1862  0.5418  0.1637
 6658SOL    HW231437   2.240   0.520   8.689 -0.3351  0.3102 -0.3311
 6659SOL     OW31438   4.194   0.047   7.567 -0.2702 -0.2126  0.3172
 6659SOL    HW131439   4.175   0.052   7.474 -1.5618 -0.4209  0.5740
 6659SOL    HW231440   4.242   4.692   7.568 -2.4877 -1.4720  1.1798
 6660SOL     OW31441   2.513   0.729  15.176 -0.2337  0.2160 -0.3127
 6660SOL    HW131442   2.420   0.709  15.175 -0.2241  0.3263 -2.5031
 6660SOL    HW231443   2.557   0.644  15.175  2.2214  1.4609  1.1468
 6661SOL     OW31444   3.223   2.600  12.833 -0.3726  0.0046  0.0595
 6661SOL    HW131445   3.303   2.548  12.841 -0.5250  0.2017  2.7434
 6661SOL    HW231446   3.249   2.678  12.882 -0.7180  1.1602 -1.5985
 6662SOL     OW31447   1.233   0.843   7.567 -0.0229 -0.5474 -0.2173
 6662SOL    HW131448   1.313   0.865   7.520  0.7381 -0.9310  0.8840
 6662SOL    HW231449   1.218   0.755   7.532 -1.0754  0.0389 -1.2154
 6663SOL     OW31450   2.859   4.088   4.398  0.2403  0.2029 -0.0209
 6663SOL    HW131451   2.884   4.114   4.486 -0.7195  2.2257 -0.3586
 6663SOL    HW231452   2.942   4.085   4.351 -0.2013  1.5313 -0.8914
 6664SOL     OW31453   0.911   4.317   3.470  0.2434  0.1571 -0.2219
 6664SOL    HW131454   0.978   4.307   3.538 -0.6130 -0.3930  0.5440
 6664SOL    HW231455   0.837   4.273   3.513  0.5948  0.0380  0.2646
 6665SOL     OW31456   1.910   0.215   0.126  0.3762  0.3161  0.3903
 6665SOL    HW131457   1.815   0.202   0.124  0.7948 -2.5562 -0.1019
 6665SOL    HW231458   1.903   0.278   0.198  1.1539  1.1268 -0.2434
 6666SOL     OW31459   4.598   2.540   5.891  0.1540  0.2535  0.4666
 6666SOL    HW131460   4.634   2.537   5.802  0.7457  1.6849  0.6574
 6666SOL    HW231461   4.669   2.482   5.920  1.3550  0.0692 -2.8484
 6667SOL     OW31462   3.626   4.189   3.694  0.2288  0.4150 -0.5146
 6667SOL    HW131463   3.607   4.172   3.602  2.3592  1.5106 -1.1484
 6667SOL    HW231464   3.545   4.234   3.721 -2.0428 -3.1081 -1.4549
 6668SOL     OW31465   4.723   4.347  15.138 -1.2150  0.0300 -0.4155
 6668SOL    HW131466   0.025   4.358  15.228  1.0174  1.0391 -1.2982
 6668SOL    HW231467   4.715   4.252  15.145 -2.0724  0.2504  1.5871
 6669SOL     OW31468   3.156   3.020  13.042 -0.1767 -0.1341 -0.1260
 6669SOL    HW131469   3.190   3.081  12.977  0.9052 -0.7642 -0.1479
 6669SOL    HW231470   3.069   3.004  13.006 -0.7520  2.7166 -0.0333
 6670SOL     OW31471   3.189   3.488   8.211  0.0940  0.2044  0.0274
 6670SOL    HW131472   3.160   3.464   8.299  0.9537 -4.0010 -0.8101
 6670SOL    HW231473   3.128   3.558   8.189  0.3000  0.3383 -0.1165
 6671SOL     OW31474   3.163   2.853   2.198  0.8275  0.2448  0.4054
 6671SOL    HW131475   3.119   2.886   2.276 -5.2588 -3.9550 -1.2449
 6671SOL    HW231476   3.094   2.809   2.148  2.4163 -0.0011 -1.5630
 6672SOL     OW31477   3.097   1.041   1.197 -0.5501  0.3031  0.3254
 6672SOL    HW131478   3.102   1.103   1.270 -0.6155 -0.9671  1.4121
 6672SOL    HW231479   3.107   0.954   1.237 -0.4471  0.3059  0.3054
 6673SOL     OW31480   1.535   4.014  11.500  0.0561  0.3610 -0.2296
 6673SOL    HW131481   1.574   4.029  11.587 -1.0344  0.4016  0.2553
 6673SOL    HW231482   1.580   4.084  11.453 -0.8895  0.8766 -0.3681
 6674SOL     OW31483   1.857   4.008  15.856  0.5041 -0.0820 -0.4628
 6674SOL    HW131484   1.863   3.948  15.931 -0.9512  0.4578  0.0903
 6674SOL    HW231485   1.871   4.094  15.895 -0.7303 -1.8174  3.8377
 6675SOL     OW31486   2.688   2.925  13.598 -0.1423  0.1003 -0.3671
 6675SOL    HW131487   2.718   2.890  13.682  1.8060  1.5531 -0.4687
 6675SOL    HW231488   2.701   3.018  13.613 -1.8915  0.2145  0.4697
 6676SOL     OW31489   0.260   0.448   2.590  0.7616  0.0656  0.1158
 6676SOL    HW131490   0.238   0.433   2.498 -1.6449  0.3559  0.6513
 6676SOL    HW231491   0.216   0.379   2.640 -0.3493  1.7042  1.4018
 6677SOL     OW31492   1.905   1.922   7.885 -0.3798  0.2633 -0.1454
 6677SOL    HW131493   1.954   1.924   7.803  0.2638  0.9283  0.2559
 6677SOL    HW231494   1.887   1.828   7.884 -2.0156  0.5862 -0.7355
 6678SOL     OW31495   1.480   1.881   9.009  0.1476 -0.0686 -0.4137
 6678SOL    HW131496   1.548   1.923   9.062  0.3589  0.2160 -0.9015
 6678SOL    HW231497   1.401   1.883   9.063  0.7700  2.3325  0.4338
 6679SOL     OW31498   2.497   2.908  16.287 -0.2971  0.0784 -0.1040
 6679SOL    HW131499   2.425   2.959  16.250  1.5192  1.9839 -0.9947
 6679SOL    HW231500   2.565   2.975  16.285  0.4376 -0.6741 -0.2962
 6680SOL     OW31501   0.366   1.885   5.371 -0.4380  0.1345 -0.6945
 6680SOL    HW131502   0.378   1.792   5.387 -0.1881  0.5857  1.8818
 6680SOL    HW231503   0.282   1.891   5.325 -0.1965 -3.1047 -1.5158
 6681SOL     OW31504   4.541   0.475   7.691  0.1356 -0.6248  0.0839
 6681SOL    HW131505   4.493   0.520   7.621  1.8396  1.8843  0.4977
 6681SOL    HW231506   4.580   0.407   7.636 -0.4143 -0.7983 -0.0918
 6682SOL     OW31507   3.656   3.636  16.697 -0.1099  0.2631  0.0611
 6682SOL    HW131508   3.588   3.683  16.746 -0.6718 -0.4568 -0.0211
 6682SOL    HW231509   3.711   3.606  16.769 -0.7035 -0.8073  0.0671
 6683SOL     OW31510   3.789   1.491   8.668 -0.0761  0.0272 -0.3182
 6683SOL    HW131511   3.823   1.439   8.741 -1.1840  0.0390  0.2063
 6683SOL    HW231512   3.859   1.497   8.603  0.0883  0.8410 -0.0665
 6684SOL     OW31513   3.696   4.702   3.806  0.3230 -0.0678 -0.4690
 6684SOL    HW131514   3.754   0.040   3.769 -1.1721  1.5267  0.0291
 6684SOL    HW231515   3.659   4.653   3.733 -1.7130 -1.3928  1.4474
 6685SOL     OW31516   3.643   0.237  11.389  0.0136  0.0687 -0.3967
 6685SOL    HW131517   3.700   0.233  11.465 -0.2611  2.0019 -0.1003
 6685SOL    HW231518   3.612   0.326  11.405  0.1277 -0.2631  1.6559
 6686SOL     OW31519   2.318   1.463   2.242 -0.4159 -0.6260  0.0268
 6686SOL    HW131520   2.305   1.424   2.328  0.8072  0.9026  0.8953
 6686SOL    HW231521   2.256   1.536   2.243  0.4215  0.0578  1.7331
 6687SOL     OW31522   3.496   1.587   3.031  0.0655  0.5528  0.4127
 6687SOL    HW131523   3.525   1.499   3.005  1.6814  0.6037  2.0911
 6687SOL    HW231524   3.584   1.617   3.056  0.2046  1.2731 -0.9218
 6688SOL     OW31525   1.966   0.701  10.370 -0.2631  0.2079  0.3309
 6688SOL    HW131526   1.871   0.696  10.363 -0.1811 -2.0211  1.0083
 6688SOL    HW231527   1.978   0.735  10.281 -0.6926 -0.3147  0.0722
 6689SOL     OW31528   2.444   0.817  11.806  0.4268 -0.3823  0.1837
 6689SOL    HW131529   2.527   0.859  11.781  0.8798 -2.4481 -1.7698
 6689SOL    HW231530   2.396   0.886  11.850 -0.2926  0.0813 -1.3316
 6690SOL     OW31531   0.446   2.824   3.149  0.1494  0.6030  0.2898
 6690SOL    HW131532   0.528   2.805   3.104 -0.7235 -1.2295 -0.5394
 6690SOL    HW231533   0.423   2.742   3.194 -0.4270 -0.7593 -2.5342
 6691SOL     OW31534   3.310   3.991  12.170 -0.1030  0.3157  0.0092
 6691SOL    HW131535   3.256   3.978  12.248  1.2290  0.0872  0.8974
 6691SOL    HW231536   3.368   4.059  12.205  1.2092 -0.6122 -0.3662
 6692SOL     OW31537   3.167   4.697  16.105 -0.5023  0.0601  0.1166
 6692SOL    HW131538   3.215   0.048  16.081  1.8091 -0.7697  1.9866
 6692SOL    HW231539   3.227   4.635  16.064  1.1712  1.7510  0.0057
 6693SOL     OW31540   2.329   2.771   5.950  0.2022  0.0156  0.5634
 6693SOL    HW131541   2.364   2.753   5.863  0.4299 -0.9365  0.8580
 6693SOL    HW231542   2.385   2.845   5.975 -0.0096 -0.2063  1.7168
 6694SOL     OW31543   1.175   4.145   2.117 -0.4138 -0.0121 -0.2866
 6694SOL    HW131544   1.172   4.061   2.072  2.1788 -0.5594  0.5384
 6694SOL    HW231545   1.139   4.208   2.055  0.5202  1.9852  1.1796
 6695SOL     OW31546   0.048   4.361  11.224  0.2834  0.2437  0.3649
 6695SOL    HW131547   4.698   4.350  11.278 -0.6245 -0.8344 -1.1497
 6695SOL    HW231548   0.028   4.443  11.178 -3.3028 -0.8361 -0.0371
 6696SOL     OW31549   0.676   2.281   1.596 -0.0294 -0.6407 -0.1206
 6696SOL    HW131550   0.735   2.354   1.577  0.9902 -0.8128  2.4261
 6696SOL    HW231551   0.613   2.289   1.524 -0.1932  1.0765  0.2102
 6697SOL     OW31552   3.695   3.063   6.623  0.1444  0.1605 -0.2347
 6697SOL    HW131553   3.724   3.076   6.714 -1.8415 -1.7591  0.6541
 6697SOL    HW231554   3.650   3.143   6.598  2.8671  1.7678 -0.0776
 6698SOL     OW31555   1.264   0.950   0.821 -0.0728 -0.3351 -0.7854
 6698SOL    HW131556   1.328   0.904   0.874 -1.0413  0.5817  1.1941
 6698SOL    HW231557   1.183   0.909   0.852  0.1991 -1.5998 -1.7678
 6699SOL     OW31558   3.790   3.527   9.792  0.3496  0.5959  0.2440
 6699SOL    HW131559   3.869   3.544   9.843  0.2963  1.5882 -0.0050
 6699SOL    HW231560   3.772   3.611   9.749 -1.7123  0.2299  0.3608
 6700SOL     OW31561   3.098   0.170  15.466 -0.0539 -0.3209 -0.7054
 6700SOL    HW131562   3.031   0.184  15.399  0.9140 -0.5168 -1.7069
 6700SOL    HW231563   3.115   0.263  15.479 -0.9399 -0.2291 -0.1275
 6701SOL     OW31564   2.371   1.880   5.481  0.0991  0.5585  0.6019
 6701SOL    HW131565   2.441   1.882   5.546 -0.9913 -2.3105  1.8793
 6701SOL    HW231566   2.315   1.805   5.502 -0.8004  0.9045 -0.5925
 6702SOL     OW31567   2.236   3.398   8.050 -0.1525 -0.4218  0.6929
 6702SOL    HW131568   2.144   3.419   8.067 -0.1267 -2.0865  2.7873
 6702SOL    HW231569   2.260   3.489   8.030 -0.8500 -0.4276 -0.1444
 6703SOL     OW31570   3.792   3.013   9.234 -0.2534 -0.0926  0.3751
 6703SOL    HW131571   3.830   3.095   9.204  2.0652 -0.7139  1.5600
 6703SOL    HW231572   3.851   2.977   9.301  1.5554  0.8305 -0.7361
 6704SOL     OW31573   4.315   0.570   9.453 -0.9523 -0.2826  0.2428
 6704SOL    HW131574   4.301   0.556   9.359  0.3026 -0.3335  0.0651
 6704SOL    HW231575   4.237   0.527   9.487 -1.5339  1.1995  0.7591
 6705SOL     OW31576   1.841   1.948   8.944  0.5624  0.3213 -0.3106
 6705SOL    HW131577   1.891   2.013   8.993  0.3559  1.5615 -1.7734
 6705SOL    HW231578   1.801   2.012   8.886 -1.2637  0.1810  0.8101
 6706SOL     OW31579   4.306   4.499   6.742 -0.1683  0.4467  0.0405
 6706SOL    HW131580   4.215   4.483   6.766 -0.5041 -0.4018 -1.8403
 6706SOL    HW231581   4.315   4.443   6.665 -1.6084  1.6628 -1.0097
 6707SOL     OW31582   4.231   2.933   5.381  0.8586  0.1961 -0.1033
 6707SOL    HW131583   4.312   2.983   5.384  0.5284  0.8333 -1.4953
 6707SOL    HW231584   4.194   2.956   5.295  0.5271 -0.5500 -0.1677
 6708SOL     OW31585   0.064   4.451   4.149  0.4455  0.0832  0.0122
 6708SOL    HW131586   4.696   4.456   4.154  0.7271  2.0655  3.3335
 6708SOL    HW231587   0.078   4.364   4.112  1.4608 -0.7358  2.3381
 6709SOL     OW31588   1.063   2.230   2.767  0.1965  0.3439  0.0919
 6709SOL    HW131589   1.003   2.204   2.698  1.3595  1.0445 -1.1927
 6709SOL    HW231590   1.063   2.163   2.835 -0.6225 -1.1295 -1.3736
 6710SOL     OW31591   2.623   0.193   9.115  0.2688  0.1168  0.8711
 6710SOL    HW131592   2.569   0.256   9.066 -0.5580 -0.4311  1.0830
 6710SOL    HW231593   2.585   0.203   9.202  1.6442  0.9570  1.3774
 6711SOL     OW31594   0.889   0.808   8.417 -0.6999  0.7191  0.1827
 6711SOL    HW131595   0.864   0.897   8.393 -1.4037  1.6555  4.3112
 6711SOL    HW231596   0.979   0.808   8.386 -0.3094 -1.0800  1.3046
 6712SOL     OW31597   0.888   4.395   7.741  0.3160  0.5098 -0.2028
 6712SOL    HW131598   0.920   4.314   7.783 -1.9725  1.2481  2.9973
 6712SOL    HW231599   0.945   4.406   7.665 -2.3933 -1.1938 -2.4700
 6713SOL     OW31600   1.313   1.839   3.578 -0.7674  0.6233 -0.5889
 6713SOL    HW131601   1.356   1.912   3.534 -1.0779  0.5377 -1.0334
 6713SOL    HW231602   1.358   1.852   3.661  1.4948 -0.9266 -1.5527
 6714SOL     OW31603   0.380   2.157   7.759  0.1180  0.4878 -0.4363
 6714SOL    HW131604   0.413   2.088   7.702 -1.9462 -0.5547 -0.3605
 6714SOL    HW231605   0.291   2.150   7.725 -0.0222  0.4420 -0.0569
 6715SOL     OW31606   4.164   3.424   7.274  0.0229 -0.2743 -0.0073
 6715SOL    HW131607   4.116   3.359   7.325 -0.5934 -0.9232 -1.3944
 6715SOL    HW231608   4.099   3.425   7.203  1.1401  1.7901 -1.0275
 6716SOL     OW31609   1.127   1.263   1.351  0.2419 -0.6023 -0.2024
 6716SOL    HW131610   1.052   1.205   1.360 -0.3472 -0.1598 -2.2777
 6716SOL    HW231611   1.092   1.327   1.288  0.5096  1.6819  1.9392
 6717SOL     OW31612   1.369   1.103   1.365 -0.8188 -0.0328  0.0300
 6717SOL    HW131613   1.294   1.159   1.347 -0.8102  0.5468  1.7307
 6717SOL    HW231614   1.392   1.140   1.451 -0.7841 -0.3837  0.1705
 6718SOL     OW31615   2.871   1.360  15.195  0.0601 -0.0553 -0.2856
 6718SOL    HW131616   2.844   1.271  15.175 -2.0878  0.3748  0.6855
 6718SOL    HW231617   2.797   1.408  15.158  0.2178  1.3199  1.1611
 6719SOL     OW31618   0.181   3.848  11.062 -0.3630 -0.3039 -0.1314
 6719SOL    HW131619   0.209   3.847  11.153  1.7816 -2.5228 -0.7970
 6719SOL    HW231620   0.102   3.794  11.069  0.5689 -1.5604  0.6720
 6720SOL     OW31621   1.338   1.378   2.296  0.5413 -0.5223 -0.1636
 6720SOL    HW131622   1.424   1.375   2.338  0.0759  1.0842  0.9110
 6720SOL    HW231623   1.270   1.342   2.354  0.3339 -1.0159 -0.7132
 6721SOL     OW31624   1.948   2.154   0.877 -0.0490 -0.1239 -0.1690
 6721SOL    HW131625   1.899   2.094   0.933  0.2150 -0.5117 -0.3589
 6721SOL    HW231626   1.875   2.203   0.840  1.1803  0.1237 -2.2545
 6722SOL     OW31627   1.746   1.093   3.936  0.1479  0.7046 -0.4306
 6722SOL    HW131628   1.694   1.121   4.012  0.1909 -2.2977  0.6927
 6722SOL    HW231629   1.686   1.116   3.865 -0.4375 -0.5149 -0.3372
 6723SOL     OW31630   1.062   3.261   9.242  0.2572 -0.2036 -0.1546
 6723SOL    HW131631   1.021   3.244   9.327  0.9682 -0.1630  0.1921
 6723SOL    HW231632   1.080   3.169   9.225 -1.7380 -1.0537  2.3543
 6724SOL     OW31633   0.376   2.221   2.928  0.6238  0.4587 -0.0347
 6724SOL    HW131634   0.371   2.195   3.020  2.0112  3.4817  0.8795
 6724SOL    HW231635   0.414   2.144   2.885 -0.3707  0.1553 -0.3813
 6725SOL     OW31636   2.001   4.332  11.555 -0.0836  0.4652 -0.3627
 6725SOL    HW131637   1.930   4.393  11.577  1.0652  1.0120  1.8238
 6725SOL    HW231638   2.068   4.353  11.620 -0.2719  0.5214 -0.1856
 6726SOL     OW31639   3.767   2.361   9.087  0.7914  0.5294  0.2565
 6726SOL    HW131640   3.849   2.355   9.038  0.9996 -1.9990  0.8902
 6726SOL    HW231641   3.791   2.352   9.180  1.6942  1.2194  0.0925
 6727SOL     OW31642   1.934   0.495   0.146  0.4027  0.1447 -0.0699
 6727SOL    HW131643   1.848   0.495   0.104  0.6806  0.4256 -0.6393
 6727SOL    HW231644   1.969   0.568   0.097 -1.9690  1.3624  0.0289
 6728SOL     OW31645   1.968   0.754   3.410 -0.0368 -0.2445  0.1244
 6728SOL    HW131646   2.013   0.672   3.388  1.2588  0.3104  0.6798
 6728SOL    HW231647   1.950   0.738   3.503 -1.1842 -0.0445 -0.0612
 6729SOL     OW31648   4.089   2.964   3.736  0.0439 -0.3512  0.5779
 6729SOL    HW131649   4.143   3.040   3.716 -2.5276  1.5780  0.9192
 6729SOL    HW231650   4.127   2.899   3.677 -2.1747 -0.6700 -0.5279
 6730SOL     OW31651   0.467   2.621   5.095 -0.6195 -0.6532  0.2656
 6730SOL    HW131652   0.384   2.604   5.140 -0.4563 -0.6622  0.5624
 6730SOL    HW231653   0.507   2.535   5.110 -0.6746 -0.6703  0.3145
 6731SOL     OW31654   0.641   4.486   0.324  0.2316  0.0213  0.5176
 6731SOL    HW131655   0.633   4.392   0.306 -0.3728  0.5162 -1.8460
 6731SOL    HW231656   0.704   4.483   0.396 -1.6352 -1.8962  2.0570
 6732SOL     OW31657   3.260   0.599   9.425 -0.2295 -0.3153  0.4552
 6732SOL    HW131658   3.319   0.625   9.495 -0.1128  3.1273 -0.9062
 6732SOL    HW231659   3.301   0.635   9.347  0.0229  0.2594  0.8559
 6733SOL     OW31660   4.099   3.921  13.216 -0.0212 -0.0674 -0.2479
 6733SOL    HW131661   4.095   3.945  13.124 -2.2666  2.1319  0.4039
 6733SOL    HW231662   4.021   3.871  13.242 -0.1255 -0.0929 -0.6151
 6734SOL     OW31663   0.554   3.257  16.912  0.2513 -0.5000  0.3619
 6734SOL    HW131664   0.508   3.328  16.957 -0.2625 -1.0465  0.7017
 6734SOL    HW231665   0.494   3.252  16.838  1.0421 -0.4028 -0.2785
 6735SOL     OW31666   1.682   3.381   8.282  0.2044 -0.2578 -0.0802
 6735SOL    HW131667   1.670   3.293   8.245  2.1774  0.0823 -1.4983
 6735SOL    HW231668   1.727   3.363   8.364  0.7069  2.1752  0.1793
 6736SOL     OW31669   0.637   0.445   4.030 -0.2925  0.2456  0.6423
 6736SOL    HW131670   0.615   0.488   3.948  0.8746 -1.7969 -0.7399
 6736SOL    HW231671   0.733   0.440   4.024 -0.0774  2.8782  1.7208
 6737SOL     OW31672   0.794   3.720  14.376 -0.9865 -0.4119 -0.1303
 6737SOL    HW131673   0.728   3.766  14.427 -1.2331 -1.5502  0.5687
 6737SOL    HW231674   0.745   3.644  14.345 -1.2942 -0.2113 -0.1324
 6738SOL     OW31675   3.458   3.613  13.478 -0.2838 -0.5131  0.5607
 6738SOL    HW131676   3.479   3.664  13.555 -1.5360 -1.1585  1.3342
 6738SOL    HW231677   3.545   3.578  13.459 -0.2457  0.6619 -1.4672
 6739SOL     OW31678   1.263   4.678   9.235  0.1896  0.0590  0.2529
 6739SOL    HW131679   1.222   4.600   9.196  0.6545  0.3254 -0.7711
 6739SOL    HW231680   1.321   4.714   9.168 -1.3109  0.4126 -0.8507
 6740SOL     OW31681   3.923   0.962   6.098 -0.0255  0.2194 -0.6047
 6740SOL    HW131682   3.837   0.964   6.054  0.1802 -1.9121 -1.1163
 6740SOL    HW231683   3.893   0.928   6.183  0.0945  0.4073 -0.4876
 6741SOL     OW31684   0.141   2.227  15.899  0.3968 -0.3795 -0.4574
 6741SOL    HW131685   0.121   2.201  15.809 -0.9262 -2.5675  0.4675
 6741SOL    HW231686   0.235   2.208  15.896  0.5993  0.8176 -1.9183
 6742SOL     OW31687   3.904   2.904  13.078  0.3944  0.2625 -0.7075
 6742SOL    HW131688   3.830   2.965  13.071  2.1365  2.5224  0.4619
 6742SOL    HW231689   3.898   2.875  13.169  0.2934 -0.2803 -0.8857
 6743SOL     OW31690   1.493   2.386   1.891 -0.3206 -0.4981  0.2622
 6743SOL    HW131691   1.544   2.306   1.873 -0.4047 -0.4040 -0.4054
 6743SOL    HW231692   1.411   2.355   1.930  0.0036 -2.5143 -0.6564
 6744SOL     OW31693   0.907   0.621  12.576 -0.2395  0.2265 -0.1105
 6744SOL    HW131694   0.989   0.572  12.566 -1.5235 -1.5315 -1.9463
 6744SOL    HW231695   0.935   0.675  12.650  1.2129  1.9775 -1.9106
 6745SOL     OW31696   2.729   2.590   6.844  0.4252  0.3671  0.2932
 6745SOL    HW131697   2.726   2.685   6.832 -2.1212  0.4138  1.2546
 6745SOL    HW231698   2.710   2.567   6.935 -1.2674  0.6621  0.0098
 6746SOL     OW31699   2.971   1.203   8.395  0.6870  0.3447 -0.2198
 6746SOL    HW131700   3.049   1.199   8.451  0.8184 -0.4994 -0.4531
 6746SOL    HW231701   2.916   1.267   8.440  0.1302 -1.4359  1.6442
 6747SOL     OW31702   4.083   1.709   5.893  0.1859  0.6957 -0.4148
 6747SOL    HW131703   4.070   1.803   5.878  2.0567  1.1889  0.9816
 6747SOL    HW231704   4.000   1.673   5.922  0.8553  1.2501  2.1386
 6748SOL     OW31705   3.177   3.755   1.895 -0.5081 -0.5991 -0.5900
 6748SOL    HW131706   3.085   3.744   1.918 -0.1189 -0.7609  0.8945
 6748SOL    HW231707   3.177   3.851   1.885  1.5873 -0.3442  2.1210
 6749SOL     OW31708   0.647   0.110   8.329  0.2394 -0.6148  0.3366
 6749SOL    HW131709   0.685   0.120   8.242 -1.4123 -2.1056 -0.5659
 6749SOL    HW231710   0.553   0.114   8.310  0.0562 -0.9339  1.1870
 6750SOL     OW31711   0.853   0.803   3.592  0.4422  0.4691  0.1119
 6750SOL    HW131712   0.813   0.780   3.508  2.1070  0.3200 -0.6320
 6750SOL    HW231713   0.797   0.873   3.626 -0.5983 -0.0282 -0.5700
 6751SOL     OW31714   4.292   4.721  11.924 -0.0677 -0.0423  0.0657
 6751SOL    HW131715   4.348   4.727  11.846 -2.4179  0.8862 -1.5626
 6751SOL    HW231716   4.348   4.722  12.002  1.2390  0.8581 -0.8743
 6752SOL     OW31717   1.726   2.175   7.029 -0.4279 -0.1847 -0.0976
 6752SOL    HW131718   1.803   2.204   7.078  0.9847 -2.8918 -0.7370
 6752SOL    HW231719   1.724   2.080   7.024 -0.4967 -0.3594  3.2710
 6753SOL     OW31720   1.174   3.449  11.922 -0.0378  0.0910 -0.2591
 6753SOL    HW131721   1.158   3.487  12.008  0.2934  1.4260 -0.7952
 6753SOL    HW231722   1.206   3.518  11.864  1.2917  0.7689  1.2542
 6754SOL     OW31723   2.663   2.337  14.983  0.7222 -0.4859 -0.5679
 6754SOL    HW131724   2.667   2.339  15.078  0.5696  0.1191 -0.5771
 6754SOL    HW231725   2.575   2.301  14.967  0.1059 -0.5871  3.1413
 6755SOL     OW31726   4.185   4.572  16.577 -0.4134  0.1989 -0.0277
 6755SOL    HW131727   4.266   4.570  16.628 -0.2270 -2.2641 -0.4189
 6755SOL    HW231728   4.127   4.554  16.650  0.3623  0.0767  0.5577
 6756SOL     OW31729   1.241   1.677  17.075 -0.0997 -0.3043 -0.1449
 6756SOL    HW131730   1.182   1.752  17.090 -0.4136 -0.6698  0.4552
 6756SOL    HW231731   1.212   1.620  17.146  1.6440  0.9578  1.6113
 6757SOL     OW31732   2.027   0.721   1.380 -0.2206  0.0611 -0.6078
 6757SOL    HW131733   2.030   0.714   1.284  2.7690 -2.2038 -0.3311
 6757SOL    HW231734   1.992   0.808   1.398  3.7440  1.8122 -1.3435
 6758SOL     OW31735   2.431   1.830   7.580  0.5193 -0.3073 -0.1706
 6758SOL    HW131736   2.348   1.828   7.532 -0.1385  1.3610  0.8597
 6758SOL    HW231737   2.435   1.914   7.627  0.1397  0.1695 -1.0001
 6759SOL     OW31738   0.941   4.239   0.083 -0.0784 -0.0155  0.1935
 6759SOL    HW131739   0.927   4.189   0.002  3.0043  0.7968 -0.8820
 6759SOL    HW231740   0.895   4.180   0.141 -0.2246  1.7494  1.8491
 6760SOL     OW31741   1.475   3.937  16.468 -0.6881 -0.3967 -0.1693
 6760SOL    HW131742   1.452   3.892  16.549  2.2745  1.4068  1.6599
 6760SOL    HW231743   1.568   3.958  16.473 -1.1060  1.2660  0.6756
 6761SOL     OW31744   2.586   3.379   6.819 -0.7879  0.2284 -1.2817
 6761SOL    HW131745   2.583   3.316   6.892  0.0083 -0.0496 -1.4901
 6761SOL    HW231746   2.583   3.461   6.867  0.9986 -0.3567 -0.1944
 6762SOL     OW31747   2.909   2.954   3.610  0.0622 -0.6737 -0.0394
 6762SOL    HW131748   2.848   2.978   3.540  0.1601  0.9651  0.4177
 6762SOL    HW231749   2.989   2.947   3.559  0.0435  0.6678 -0.2596
 6763SOL     OW31750   4.726   2.649   9.302 -0.0353 -0.8011  0.2358
 6763SOL    HW131751   0.008   2.555   9.283 -0.0857 -0.4932 -1.2402
 6763SOL    HW231752   4.643   2.663   9.347 -0.0695 -0.8747  0.1957
 6764SOL     OW31753   2.548   2.109   3.097  0.0248 -0.5643  0.1699
 6764SOL    HW131754   2.454   2.116   3.117 -0.2286  0.7140 -1.5405
 6764SOL    HW231755   2.560   2.163   3.019 -1.2317 -1.2000 -0.4687
 6765SOL     OW31756   3.192   2.656   8.690 -0.3456 -0.2657  0.2829
 6765SOL    HW131757   3.119   2.691   8.742 -0.1894  1.4715 -0.6545
 6765SOL    HW231758   3.207   2.576   8.739  3.4544 -0.2169 -0.8125
 6766SOL     OW31759   3.170   3.829  12.652 -0.4944 -0.6714 -0.6354
 6766SOL    HW131760   3.182   3.735  12.660 -1.1782 -0.4282  3.1548
 6766SOL    HW231761   3.219   3.853  12.731 -1.4692  0.8191 -0.4841
 6767SOL     OW31762   0.830   2.884   4.024  0.4093  0.1406  0.2209
 6767SOL    HW131763   0.744   2.917   4.051  0.4748  1.4261 -1.1532
 6767SOL    HW231764   0.831   2.806   4.081 -0.5502  0.1853  0.3017
 6768SOL     OW31765   3.674   1.624   6.434  0.0934 -0.2591  0.1583
 6768SOL    HW131766   3.752   1.635   6.379 -0.3755 -0.8001 -0.6018
 6768SOL    HW231767   3.603   1.614   6.370 -0.3377  1.3721  0.3569
 6769SOL     OW31768   2.840   0.654   4.347 -0.5915  0.0916 -0.1151
 6769SOL    HW131769   2.846   0.563   4.375  1.0488  0.5338  0.9889
 6769SOL    HW231770   2.873   0.648   4.258  0.2929  0.3802  0.1902
 6770SOL     OW31771   3.171   4.050   3.508  0.0937 -0.3002 -0.0650
 6770SOL    HW131772   3.209   4.032   3.422  2.1457  0.8582  0.5879
 6770SOL    HW231773   3.081   4.039   3.478  0.1630 -0.2385 -0.2949
 6771SOL     OW31774   1.951   1.793   0.860 -0.1522  0.0810  0.3148
 6771SOL    HW131775   1.911   1.732   0.923 -0.8312 -0.4421 -0.6298
 6771SOL    HW231776   2.000   1.733   0.804 -1.7342  0.3852 -1.3835
 6772SOL     OW31777   0.864   1.274   5.851 -0.3523 -1.1893 -0.4126
 6772SOL    HW131778   0.815   1.220   5.789 -0.0263 -0.4641 -1.3155
 6772SOL    HW231779   0.896   1.345   5.795  0.2875  0.7376  2.3815
 6773SOL     OW31780   3.141   3.151   6.942 -0.0653 -0.0229  0.0783
 6773SOL    HW131781   3.187   3.151   6.858  2.4224  0.0448  1.4503
 6773SOL    HW231782   3.160   3.236   6.982  2.4916  0.3988 -2.0711
 6774SOL     OW31783   3.974   2.321   3.647  0.2557 -0.3218  0.1542
 6774SOL    HW131784   4.058   2.360   3.623 -0.3590  0.7171 -0.3133
 6774SOL    HW231785   3.998   2.252   3.709 -1.3435  0.9954  2.2267
 6775SOL     OW31786   3.187   1.639  10.023  0.0360 -0.6329 -0.4782
 6775SOL    HW131787   3.270   1.686  10.032 -1.2316  1.1285  2.0713
 6775SOL    HW231788   3.145   1.688   9.951  1.1488  1.9263  0.6172
 6776SOL     OW31789   0.768   3.159   7.948 -1.0672 -0.1135  0.0275
 6776SOL    HW131790   0.855   3.148   7.985 -0.8818  2.8863  0.5222
 6776SOL    HW231791   0.774   3.251   7.921  0.7728  0.4743  2.4290
 6777SOL     OW31792   1.368   0.398   5.011 -0.1968  0.0726  0.5334
 6777SOL    HW131793   1.425   0.356   4.947 -1.2065 -0.3939 -0.0693
 6777SOL    HW231794   1.327   0.467   4.958  0.6385 -0.7474 -1.1684
 6778SOL     OW31795   0.935   4.515   6.851  0.5493 -0.1984  0.0412
 6778SOL    HW131796   0.913   4.503   6.759  2.0809 -0.2348 -0.3155
 6778SOL    HW231797   0.957   4.608   6.845  1.0434 -0.2017  1.8409
 6779SOL     OW31798   0.175   3.883  13.141 -0.3378 -0.7613 -0.2713
 6779SOL    HW131799   0.158   3.968  13.183  0.8968 -1.1868  1.0592
 6779SOL    HW231800   0.205   3.903  13.053  1.4834  0.1379  0.5684
 6780SOL     OW31801   1.940   1.341   8.469 -0.7777 -0.3738 -0.3538
 6780SOL    HW131802   1.872   1.336   8.402  0.5632  0.6063 -1.7859
 6780SOL    HW231803   2.019   1.340   8.415 -1.2066  1.1203 -1.0232
 6781SOL     OW31804   3.887   2.265   5.417  0.1400 -0.4288 -0.1446
 6781SOL    HW131805   3.794   2.267   5.397  0.2600 -0.6515 -0.7333
 6781SOL    HW231806   3.880   2.226   5.504  0.9399  1.4344  0.7522
 6782SOL     OW31807   0.083   1.938   0.679  0.6673 -0.1575 -0.5667
 6782SOL    HW131808   0.050   1.975   0.761  2.4002 -0.9381  0.5043
 6782SOL    HW231809   4.727   1.910   0.643  0.6537  0.7326 -1.2296
 6783SOL     OW31810   1.652   0.428  12.343 -0.0798 -0.0262 -0.1079
 6783SOL    HW131811   1.603   0.465  12.417  1.5021  1.0584  0.3869
 6783SOL    HW231812   1.741   0.462  12.342  0.5640 -1.7004  0.5173
 6784SOL     OW31813   2.987   0.844   7.267 -0.4359 -0.2304 -0.2316
 6784SOL    HW131814   2.943   0.928   7.283 -1.2125 -1.1377  2.5075
 6784SOL    HW231815   3.073   0.875   7.238 -0.5577  1.0313  0.7505
 6785SOL     OW31816   4.436   2.659   1.494 -0.1250  0.2252  0.0480
 6785SOL    HW131817   4.515   2.712   1.482  0.2241 -0.4992 -0.8723
 6785SOL    HW231818   4.438   2.600   1.418  0.7804 -0.2641  0.4484
 6786SOL     OW31819   3.126   3.883   9.771 -0.2153 -0.0330  0.2423
 6786SOL    HW131820   3.044   3.899   9.725 -0.4704  0.8410  1.0075
 6786SOL    HW231821   3.101   3.818   9.837  0.1007 -0.0663  0.3320
 6787SOL     OW31822   3.150   3.957   6.344  0.3208 -0.3060  0.7265
 6787SOL    HW131823   3.190   4.043   6.337  2.0990 -1.2274 -0.2563
 6787SOL    HW231824   3.221   3.898   6.320 -1.1966 -0.7093 -2.7597
 6788SOL     OW31825   1.455   0.371   6.642 -0.0339 -0.0574 -0.2254
 6788SOL    HW131826   1.493   0.288   6.614 -1.0889 -0.5604 -0.1634
 6788SOL    HW231827   1.462   0.426   6.564  0.3518 -2.8265 -2.1197
 6789SOL     OW31828   3.289   2.415   9.693  0.1404 -0.5762  0.5220
 6789SOL    HW131829   3.316   2.448   9.778  1.0506 -0.1161  0.0561
 6789SOL    HW231830   3.370   2.375   9.660  0.6543 -1.9181  3.4118
 6790SOL     OW31831   0.033   2.091   0.887  0.1727 -0.2156  0.8882
 6790SOL    HW131832   0.002   2.182   0.886 -1.0216 -0.6386 -0.3238
 6790SOL    HW231833   0.051   2.082   0.980  1.0441  0.8107  0.8294
 6791SOL     OW31834   4.629   3.898   4.740 -0.3805  0.5291 -0.4216
 6791SOL    HW131835   4.600   3.944   4.661 -0.1364  2.6087  0.6777
 6791SOL    HW231836   4.546   3.878   4.783  1.0565 -1.5722  1.3653
 6792SOL     OW31837   3.332   2.394   6.091 -0.2347 -0.5204 -0.3264
 6792SOL    HW131838   3.321   2.367   6.182 -0.3761  0.2135 -0.1207
 6792SOL    HW231839   3.412   2.448   6.096 -1.3925  1.1845 -0.1313
 6793SOL     OW31840   0.786   2.467   0.274  0.1051 -0.3035 -0.4168
 6793SOL    HW131841   0.751   2.526   0.340  1.3589  0.4251 -0.4188
 6793SOL    HW231842   0.717   2.400   0.282  1.0108 -0.8685  2.5289
 6794SOL     OW31843   1.534   1.755  17.012  0.0133  0.0034  0.1318
 6794SOL    HW131844   1.511   1.807  16.935  1.4705 -0.2468 -0.4649
 6794SOL    HW231845   1.588   1.684  16.978  0.7342  0.5647  0.0984
 6795SOL     OW31846   2.978   1.169   0.626 -0.0163  0.3341 -0.1201
 6795SOL    HW131847   2.980   1.177   0.530 -0.9350  1.0948 -0.0757
 6795SOL    HW231848   2.890   1.198   0.650  0.1850  0.1806  0.8030
 6796SOL     OW31849   4.471   2.121   8.195 -0.0274 -0.0732 -0.3237
 6796SOL    HW131850   4.411   2.090   8.263  0.1102 -1.2255 -0.7412
 6796SOL    HW231851   4.417   2.183   8.145 -1.8807 -1.7341 -0.3777
 6797SOL     OW31852   1.268   2.169   5.093 -0.1671  0.3078 -0.1571
 6797SOL    HW131853   1.226   2.154   5.178  1.7354  0.7011  0.8406
 6797SOL    HW231854   1.302   2.257   5.106 -0.5796  0.3702  0.5024
 6798SOL     OW31855   3.902   1.141   8.267 -0.2483  0.0692 -0.1276
 6798SOL    HW131856   3.859   1.207   8.213 -0.3540 -1.2640 -1.6547
 6798SOL    HW231857   3.856   1.148   8.350  0.2270  1.9968 -0.0188
 6799SOL     OW31858   1.676   3.487   8.945 -0.1258  0.2764  0.0123
 6799SOL    HW131859   1.591   3.475   8.988 -1.4294  1.8747 -2.0800
 6799SOL    HW231860   1.714   3.408   8.983 -0.4074  0.8938  1.5891
 6800SOL     OW31861   0.068   3.978  13.813  0.2674 -0.1889 -0.2212
 6800SOL    HW131862   0.074   4.069  13.841 -2.2505  0.2959 -1.2948
 6800SOL    HW231863   0.093   3.941  13.898 -0.2227 -2.8950 -1.2435
 6801SOL     OW31864   1.517   4.291   7.076 -0.0184 -0.0730  0.2525
 6801SOL    HW131865   1.468   4.342   7.140  0.7067  2.1512 -0.9377
 6801SOL    HW231866   1.492   4.199   7.083 -0.1104  0.2039  3.4913
 6802SOL     OW31867   0.883   1.367   1.917  0.3703  0.2618  0.0218
 6802SOL    HW131868   0.827   1.397   1.845 -0.2218 -0.4203  0.1934
 6802SOL    HW231869   0.900   1.455   1.951 -0.0482  0.7610 -1.0457
 6803SOL     OW31870   3.642   1.355  13.800 -0.4852  0.1560 -0.4250
 6803SOL    HW131871   3.568   1.381  13.856  0.5278  1.4751  0.2999
 6803SOL    HW231872   3.711   1.413  13.830 -0.5798  0.6724 -1.2035
 6804SOL     OW31873   2.033   1.260   2.331  0.2643 -0.4396  0.1147
 6804SOL    HW131874   1.979   1.182   2.327 -1.0028  0.2862  2.5900
 6804SOL    HW231875   2.018   1.305   2.415 -0.6169 -0.0964 -0.2239
 6805SOL     OW31876   0.308   3.362  11.450 -0.0112  0.1106 -0.6356
 6805SOL    HW131877   0.248   3.421  11.404 -0.2332  0.5632  0.2377
 6805SOL    HW231878   0.388   3.393  11.409  0.1695 -2.3101 -2.1161
 6806SOL     OW31879   4.451   1.146  13.356  0.0074  0.4495  0.2650
 6806SOL    HW131880   4.478   1.075  13.297  2.7251  1.4898  0.2406
 6806SOL    HW231881   4.356   1.147  13.348  0.1028  1.5461 -0.7032
 6807SOL     OW31882   2.173   2.179   5.446  0.5675 -0.4066 -0.3780
 6807SOL    HW131883   2.247   2.169   5.505  0.0636  0.1540  0.3470
 6807SOL    HW231884   2.226   2.207   5.372  1.5903  0.2181  0.5961
 6808SOL     OW31885   2.473   2.450   1.934  0.3964  0.7337  0.0202
 6808SOL    HW131886   2.379   2.435   1.937  0.6752 -1.0610 -0.0576
 6808SOL    HW231887   2.508   2.402   2.010  1.1990  1.3903  0.0705
 6809SOL     OW31888   4.331   1.634   0.917  0.1235  0.1528  0.2464
 6809SOL    HW131889   4.354   1.551   0.875 -0.4015  0.2783 -0.3059
 6809SOL    HW231890   4.248   1.654   0.873  0.9478  0.0324 -1.3675
 6810SOL     OW31891   2.639   3.132  11.945 -0.3927  0.4333 -0.4028
 6810SOL    HW131892   2.712   3.084  11.985 -0.7770 -0.1729 -0.4275
 6810SOL    HW231893   2.578   3.062  11.919 -2.6723  1.7394  1.4002
 6811SOL     OW31894   2.334   4.598   7.073  0.4859 -0.0106  0.0142
 6811SOL    HW131895   2.385   4.652   7.013  1.2598 -1.8923 -1.0545
 6811SOL    HW231896   2.278   4.665   7.113 -2.3635 -1.3846 -1.6242
 6812SOL     OW31897   0.515   4.236   1.884  0.2565  0.2617 -0.4378
 6812SOL    HW131898   0.454   4.295   1.840 -0.8332  0.4991  1.4334
 6812SOL    HW231899   0.601   4.272   1.863 -0.6674  1.5393 -2.0306
 6813SOL     OW31900   2.423   2.343   8.745  0.2472  0.3286  0.1573
 6813SOL    HW131901   2.482   2.415   8.722  0.7745 -0.3206 -0.5214
 6813SOL    HW231902   2.420   2.363   8.838  2.1726  0.9943  0.0776
 6814SOL     OW31903   4.101   1.971   2.749  0.0779  0.3187 -0.5414
 6814SOL    HW131904   4.096   2.017   2.665 -2.4339  2.2660  0.6888
 6814SOL    HW231905   4.184   1.926   2.732 -0.7347  0.0106 -3.6233
 6815SOL     OW31906   4.488   1.927   5.066 -0.2237 -0.1122  0.6506
 6815SOL    HW131907   4.576   1.940   5.102  0.4770  0.0828 -1.1410
 6815SOL    HW231908   4.516   1.890   4.983 -2.1684 -1.1024  0.4591
 6816SOL     OW31909   0.726   0.850   2.130  0.2760 -0.0234 -0.5840
 6816SOL    HW131910   0.735   0.768   2.179 -1.5833  0.9922  1.4576
 6816SOL    HW231911   0.810   0.893   2.148 -0.2868  0.6122  0.5095
 6817SOL     OW31912   4.417   0.282  11.863  0.6906 -0.2402  0.2067
 6817SOL    HW131913   4.436   0.207  11.806  0.8099  0.6873 -0.9705
 6817SOL    HW231914   4.329   0.308  11.835  0.3316 -0.0225  1.5282
 6818SOL     OW31915   3.752   3.891   2.852  0.3378 -0.2453  0.1978
 6818SOL    HW131916   3.764   3.973   2.805 -0.4618 -0.5684 -0.5748
 6818SOL    HW231917   3.813   3.832   2.807  2.4241  0.4568  2.1018
 6819SOL     OW31918   1.794   0.534  17.258  0.5588  0.4104  0.0400
 6819SOL    HW131919   1.750   0.496  17.334  2.4752 -1.4592  0.1912
 6819SOL    HW231920   1.795   0.475  17.183  0.5262 -2.6883  2.5152
 6820SOL     OW31921   4.722   4.586   1.673  0.1291 -0.0041  0.4862
 6820SOL    HW131922   0.039   4.614   1.594 -1.0194 -2.8245 -1.1889
 6820SOL    HW231923   4.631   4.579   1.645  0.1937 -0.7376  0.4596
 6821SOL     OW31924   1.938   1.194   3.123  0.5154  0.0477  0.2641
 6821SOL    HW131925   1.979   1.260   3.180  2.0631 -0.0359 -0.7327
 6821SOL    HW231926   1.854   1.186   3.168  0.3792 -1.5370 -0.2621
 6822SOL     OW31927   0.284   2.483   8.334 -0.3829  0.0591  0.7141
 6822SOL    HW131928   0.366   2.516   8.371 -1.2959  2.2150  0.7872
 6822SOL    HW231929   0.265   2.402   8.382  0.8676 -1.3810 -1.1552
 6823SOL     OW31930   1.479   3.233   4.998  0.4585 -0.4145 -0.1283
 6823SOL    HW131931   1.392   3.273   5.005  1.4570  1.9036 -1.0110
 6823SOL    HW231932   1.449   3.142   5.009 -1.9514  0.5385  1.2486
 6824SOL     OW31933   1.434   1.539   4.239 -0.3798 -0.6788  0.1357
 6824SOL    HW131934   1.503   1.500   4.293 -0.1844 -1.8839 -0.9811
 6824SOL    HW231935   1.371   1.579   4.298 -1.1758  0.3897 -1.4274
 6825SOL     OW31936   4.547   2.543   9.034  0.1108 -0.3391  0.0095
 6825SOL    HW131937   4.475   2.553   9.096  1.0829 -0.2184  1.1291
 6825SOL    HW231938   4.603   2.484   9.085 -0.5502  0.1592  1.3184
 6826SOL     OW31939   1.558   2.751   5.338  0.3927  0.0391 -0.6899
 6826SOL    HW131940   1.534   2.679   5.281  2.2731 -1.7158  0.7075
 6826SOL    HW231941   1.570   2.711   5.425  4.3688 -0.5602 -1.5182
 6827SOL     OW31942   0.255   3.000   2.795 -0.1545  0.1157  0.0041
 6827SOL    HW131943   0.268   2.998   2.890 -0.1934  1.0858  0.0283
 6827SOL    HW231944   0.193   2.928   2.784  0.7802 -0.9236  1.4654
 6828SOL     OW31945   3.769   1.920   1.247 -0.2994 -0.4754  0.7075
 6828SOL    HW131946   3.845   1.903   1.303 -0.4686 -0.7744  0.8470
 6828SOL    HW231947   3.776   1.852   1.180  3.4493  1.4084 -0.7649
 6829SOL     OW31948   0.367   2.159  16.333 -0.4204  0.0453  0.2787
 6829SOL    HW131949   0.272   2.147  16.326 -0.2058 -0.9173 -0.8517
 6829SOL    HW231950   0.394   2.072  16.362 -0.6589 -0.3813 -0.7667
 6830SOL     OW31951   4.213   4.015   7.513 -0.0396  0.2905  0.2713
 6830SOL    HW131952   4.137   3.991   7.567 -0.6918  0.0834 -0.7360
 6830SOL    HW231953   4.275   3.942   7.516  0.4358  0.7538  1.6179
 6831SOL     OW31954   1.835   2.770   5.898 -0.1159 -0.4785  0.3021
 6831SOL    HW131955   1.926   2.799   5.886 -1.0936  2.3127 -0.3567
 6831SOL    HW231956   1.782   2.847   5.879 -0.7802 -0.8226  0.7340
 6832SOL     OW31957   3.193   3.524  15.595 -0.5186 -0.8731 -0.3557
 6832SOL    HW131958   3.217   3.476  15.515 -2.1500 -2.3395  0.0168
 6832SOL    HW231959   3.275   3.571  15.607 -0.1494 -1.3231 -1.0724
 6833SOL     OW31960   2.843   0.373  12.787  0.0329 -0.5019  0.0315
 6833SOL    HW131961   2.774   0.405  12.845 -0.1894  1.1303 -1.1249
 6833SOL    HW231962   2.913   0.425  12.825  0.6770 -1.4072  0.0847
 6834SOL     OW31963   4.672   4.504   3.471 -0.2102  0.3850 -0.0435
 6834SOL    HW131964   4.650   4.516   3.379  1.6150 -2.2070 -0.8218
 6834SOL    HW231965   4.589   4.479   3.511  0.3001  2.8758  2.5688
 6835SOL     OW31966   4.310   0.338   5.546 -0.6065  0.6450  0.1363
 6835SOL    HW131967   4.238   0.303   5.599 -1.1292 -0.9454 -1.6139
 6835SOL    HW231968   4.317   0.427   5.580  0.2614  1.0752 -1.1810
 6836SOL     OW31969   3.141   2.085   4.965  0.0084  0.0493  0.2373
 6836SOL    HW131970   3.235   2.100   4.976  0.2409 -1.4124  0.2491
 6836SOL    HW231971   3.152   2.002   4.918 -0.5209 -0.2171  0.5919
 6837SOL     OW31972   1.538   3.952   6.562  0.3292 -0.4381 -0.8193
 6837SOL    HW131973   1.581   3.873   6.596 -1.0762 -0.9561 -0.2646
 6837SOL    HW231974   1.448   3.921   6.569  0.4104  0.3448  3.7011
 6838SOL     OW31975   1.294   3.816  11.515  0.3372 -0.2574  0.6215
 6838SOL    HW131976   1.334   3.901  11.498  1.0414 -0.9919 -1.3488
 6838SOL    HW231977   1.366   3.761  11.483 -0.5863  0.1099 -2.0453
 6839SOL     OW31978   4.187   1.465   6.199 -0.0512 -1.2004 -0.3725
 6839SOL    HW131979   4.206   1.404   6.128  0.0694  2.1230 -3.1922
 6839SOL    HW231980   4.261   1.465   6.259  0.2112 -0.8816 -0.6976
 6840SOL     OW31981   0.189   4.332   3.922 -0.6654  0.0153 -0.1975
 6840SOL    HW131982   0.277   4.333   3.958 -1.5253  1.8373  1.8623
 6840SOL    HW231983   0.195   4.373   3.835  1.0919  0.5826  0.1995
 6841SOL     OW31984   1.757   4.087  16.279  0.2159  0.5132 -0.2314
 6841SOL    HW131985   1.674   4.069  16.235  0.1301  2.0246 -0.6774
 6841SOL    HW231986   1.814   4.084  16.203  0.1671 -2.0455 -0.1817
 6842SOL     OW31987   1.352   0.696   4.480  0.4060  0.1934 -0.2983
 6842SOL    HW131988   1.370   0.723   4.570 -2.1142 -0.6901  0.4620
 6842SOL    HW231989   1.385   0.606   4.480  0.5534  0.2516 -1.1574
 6843SOL     OW31990   2.386   0.039  14.744 -0.3114 -0.6003 -0.0418
 6843SOL    HW131991   2.466   4.716  14.732 -0.3512 -0.8893  0.9219
 6843SOL    HW231992   2.394   0.092  14.665 -0.5284  0.8460  0.9067
 6844SOL     OW31993   2.903   3.578   7.547 -0.1773  0.4465  0.2168
 6844SOL    HW131994   2.931   3.583   7.638 -1.1447  0.1878  0.5252
 6844SOL    HW231995   2.808   3.590   7.549 -0.6771 -3.4398 -1.0955
 6845SOL     OW31996   4.711   2.901   4.239 -0.3421  0.5780  0.3995
 6845SOL    HW131997   4.670   2.974   4.286 -0.1652  0.7811  0.2375
 6845SOL    HW231998   0.009   2.953   4.163  0.6570 -0.1022  0.2752
 6846SOL     OW31999   0.887   3.282   7.142 -0.1887 -0.0629 -0.3473
 6846SOL    HW132000   0.837   3.335   7.204 -3.0175 -0.2619 -2.4561
 6846SOL    HW232001   0.820   3.268   7.075  1.4897 -1.6820 -1.6882
 6847SOL     OW32002   2.313   0.833   3.863  0.0436  0.3482  0.3256
 6847SOL    HW132003   2.255   0.784   3.921  1.6735 -0.4897  1.2519
 6847SOL    HW232004   2.393   0.780   3.870  0.4098  0.9867  0.9920
 6848SOL     OW32005   1.335   0.793   5.469 -0.0362  0.3371  0.1071
 6848SOL    HW132006   1.424   0.826   5.459 -0.0613 -0.4675 -2.6931
 6848SOL    HW232007   1.280   0.870   5.487 -0.1130  0.4704 -0.6978
 6849SOL     OW32008   0.420   1.032   3.376 -0.0545 -0.9272 -0.1342
 6849SOL    HW132009   0.364   0.962   3.342  0.4721 -1.4109 -0.0211
 6849SOL    HW232010   0.414   1.106   3.315 -0.7664  1.4078  2.7745
 6850SOL     OW32011   3.885   4.229  10.043  0.3906  0.0200  0.5521
 6850SOL    HW132012   3.808   4.195  10.089  0.1345 -0.1609 -0.0144
 6850SOL    HW232013   3.941   4.211  10.119  0.2827  1.6840  1.0237
 6851SOL     OW32014   0.102   4.058   1.408  0.2113 -0.6289  0.4011
 6851SOL    HW132015   0.177   4.013   1.370  0.2957 -1.4071  1.4986
 6851SOL    HW232016   0.116   4.152   1.398  1.2623 -1.0158 -1.9675
 6852SOL     OW32017   0.513   1.324   6.390  0.2080  0.3437 -0.2722
 6852SOL    HW132018   0.586   1.262   6.400  1.9854  2.2429 -1.5651
 6852SOL    HW232019   0.489   1.343   6.480 -1.7472  1.2138 -0.9785
 6853SOL     OW32020   0.748   0.248   1.279 -0.0297  0.0089 -0.9697
 6853SOL    HW132021   0.748   0.152   1.283 -0.1711  0.0751  0.9160
 6853SOL    HW232022   0.762   0.276   1.370  1.2235 -1.0007 -0.8597
 6854SOL     OW32023   2.644   2.108   3.350 -0.5677 -0.1495 -0.3339
 6854SOL    HW132024   2.596   2.138   3.273 -0.7536  1.6437  0.4926
 6854SOL    HW232025   2.665   2.194   3.387 -0.8071 -0.8898  1.5168
 6855SOL     OW32026   0.730   0.445   0.523 -0.5848 -0.6563 -0.4532
 6855SOL    HW132027   0.823   0.464   0.519 -0.6153 -0.2065  1.0322
 6855SOL    HW232028   0.718   0.350   0.519  1.3466 -0.8546 -1.4545
 6856SOL     OW32029   1.475   0.050   9.050  0.7556 -0.0357  0.0213
 6856SOL    HW132030   1.422   0.119   9.090 -0.2767  0.4261 -2.1656
 6856SOL    HW232031   1.545   0.107   9.020 -0.2273  0.2140 -1.7709
 6857SOL     OW32032   0.496   2.205  10.249 -0.3355 -0.3205 -0.1882
 6857SOL    HW132033   0.575   2.216  10.196  0.4929 -0.9944  0.9162
 6857SOL    HW232034   0.524   2.120  10.281 -0.1665 -0.4191 -0.5946
 6858SOL     OW32035   2.846   1.410  17.021  0.3666  0.1600 -0.7543
 6858SOL    HW132036   2.871   1.368  16.939  0.2929 -1.5109  0.0716
 6858SOL    HW232037   2.784   1.478  16.995 -1.1199 -1.0317 -0.3949
 6859SOL     OW32038   2.431   4.491  11.447  0.0764  0.2325  0.4410
 6859SOL    HW132039   2.494   4.563  11.454 -0.1861  0.6183 -1.2143
 6859SOL    HW232040   2.461   4.447  11.368 -0.5035 -1.3785  1.1186
 6860SOL     OW32041   2.638   3.957  10.643  0.8077 -0.3507 -0.7669
 6860SOL    HW132042   2.560   3.903  10.658  0.0152  0.7463 -0.9402
 6860SOL    HW232043   2.596   4.033  10.601 -0.7015 -0.4495  0.5411
 6861SOL     OW32044   4.087   4.542  13.773  0.6827  0.2259 -0.1520
 6861SOL    HW132045   4.115   4.630  13.748  3.6280 -0.4852  0.6449
 6861SOL    HW232046   4.108   4.491  13.694 -3.1160 -0.6657 -0.5760
 6862SOL     OW32047   3.344   4.279   3.498  0.2854  0.2559  0.1706
 6862SOL    HW132048   3.300   4.360   3.521  0.9786  0.7508 -0.2229
 6862SOL    HW232049   3.277   4.214   3.518  1.8182 -1.5720 -0.5982
 6863SOL     OW32050   2.991   0.018  15.080 -0.7987  0.2441  0.1043
 6863SOL    HW132051   2.926   0.068  15.030 -0.2669  1.6787  0.8537
 6863SOL    HW232052   2.958   0.033  15.168  0.6393 -0.5255  0.7639
 6864SOL     OW32053   0.022   1.456   9.015 -0.3357  0.0745  0.6436
 6864SOL    HW132054   4.720   1.369   8.991  1.6787 -0.6158  0.6641
 6864SOL    HW232055   0.027   1.494   8.927  0.0167 -1.0106  0.2011
 6865SOL     OW32056   3.357   1.255   4.874 -0.1411 -0.0564  0.5434
 6865SOL    HW132057   3.299   1.331   4.881 -0.7105 -0.2931 -1.5868
 6865SOL    HW232058   3.398   1.259   4.960 -1.0217  0.2857  0.9471
 6866SOL     OW32059   4.274   3.462   7.796  0.6869 -0.6473 -0.2786
 6866SOL    HW132060   4.279   3.429   7.706 -0.3896 -0.0357 -0.5613
 6866SOL    HW232061   4.200   3.414   7.834  1.5527 -0.2014  1.9148
 6867SOL     OW32062   2.559   4.179   6.019 -0.2483  0.2866 -0.2230
 6867SOL    HW132063   2.486   4.155   5.962  0.3499 -1.7424 -0.1632
 6867SOL    HW232064   2.578   4.270   5.996  2.3498  0.2225  1.6816
 6868SOL     OW32065   3.919   2.396   5.970 -0.2424  0.6113  0.1470
 6868SOL    HW132066   3.919   2.492   5.972 -3.3483  0.6273  0.0139
 6868SOL    HW232067   3.993   2.380   5.911  0.3227  1.0910  0.7306
 6869SOL     OW32068   3.705   3.984  14.808  0.5700 -0.6294 -0.2341
 6869SOL    HW132069   3.715   4.079  14.796 -0.4018 -0.3642  1.0496
 6869SOL    HW232070   3.776   3.942  14.760 -0.0676 -1.6568 -0.2779
 6870SOL     OW32071   0.479   2.001  14.072  0.1784  0.5162  1.0407
 6870SOL    HW132072   0.429   2.030  14.148  1.8142  0.9752  1.9615
 6870SOL    HW232073   0.462   2.074  14.012 -0.7221 -1.3978 -1.0273
 6871SOL     OW32074   1.327   1.176   9.403  0.0231  0.0251 -0.3519
 6871SOL    HW132075   1.367   1.119   9.468  1.6837 -0.4622 -1.8132
 6871SOL    HW232076   1.304   1.258   9.446  0.1436 -0.0198 -0.2020
 6872SOL     OW32077   4.504   2.062  10.384  0.0964  0.5543 -0.3678
 6872SOL    HW132078   4.517   2.156  10.400  0.0894  0.3455  0.8958
 6872SOL    HW232079   4.522   2.059  10.291  1.8034 -0.7860  0.0130
 6873SOL     OW32080   3.208   0.569   3.696 -0.0974 -0.3190 -0.7312
 6873SOL    HW132081   3.202   0.516   3.617 -0.6153 -1.7170  0.2387
 6873SOL    HW232082   3.278   0.528   3.748  0.8136  0.5416 -1.2996
 6874SOL     OW32083   2.899   0.276   3.796  0.6177  0.4353 -0.2161
 6874SOL    HW132084   2.994   0.282   3.789  0.7233 -1.6189 -0.4506
 6874SOL    HW232085   2.889   0.213   3.725 -0.4666  1.0443 -0.6169
 6875SOL     OW32086   1.741   0.005   5.461  0.5021 -0.2186 -0.1166
 6875SOL    HW132087   1.660   0.019   5.511  0.3579 -0.7184 -0.2102
 6875SOL    HW232088   1.741   0.073   5.393  0.6009 -0.3684 -0.2674
 6876SOL     OW32089   4.172   3.413   4.110  0.0893  0.5716  0.6451
 6876SOL    HW132090   4.111   3.392   4.181 -2.6067  1.4650 -1.4177
 6876SOL    HW232091   4.167   3.330   4.062 -0.8436  1.5259 -0.9180
 6877SOL     OW32092   0.106   4.513  14.437  0.0929 -0.0913  0.4501
 6877SOL    HW132093   0.169   4.575  14.402  1.1362 -0.9688  0.7900
 6877SOL    HW232094   0.058   4.497  14.355 -0.4779 -0.5829  0.8766
 6878SOL     OW32095   0.363   2.560   3.724  0.3780  0.0566  0.1056
 6878SOL    HW132096   0.439   2.513   3.758  2.6902  3.9354  0.3983
 6878SOL    HW232097   0.318   2.577   3.807 -0.3753  0.5639 -0.4060
 6879SOL     OW32098   0.675   3.519  13.749  0.4835 -0.2040 -0.3624
 6879SOL    HW132099   0.634   3.523  13.663 -2.5723 -1.7412  1.0125
 6879SOL    HW232100   0.630   3.593  13.790  0.6897  0.4288 -1.2895
 6880SOL     OW32101   3.928   2.615  16.844 -0.4125  0.3405 -0.6566
 6880SOL    HW132102   3.931   2.698  16.891  0.3123 -0.5487  0.8740
 6880SOL    HW232103   3.977   2.645  16.768 -2.6739 -0.3045 -2.3588
 6881SOL     OW32104   0.747   4.339   5.539  0.0570 -0.0129 -0.0562
 6881SOL    HW132105   0.723   4.406   5.602  0.6817 -1.5586  1.8217
 6881SOL    HW232106   0.830   4.376   5.508 -1.1314  0.3751 -2.7911
 6882SOL     OW32107   0.451   4.394  10.124 -0.1562  0.4592  0.4422
 6882SOL    HW132108   0.482   4.470  10.076 -0.9511  0.3444 -0.2702
 6882SOL    HW232109   0.530   4.365  10.169  0.2988 -2.0484 -2.0129
 6883SOL     OW32110   2.257   2.097   1.981  0.7011  0.7526  0.3679
 6883SOL    HW132111   2.222   2.130   1.898  1.7299  0.7542 -0.0675
 6883SOL    HW232112   2.256   2.178   2.032 -1.7350  0.0960  1.3464
 6884SOL     OW32113   0.711   2.136   6.543 -0.2105 -0.7041 -0.1854
 6884SOL    HW132114   0.788   2.082   6.560  1.6664  1.5369 -1.5694
 6884SOL    HW232115   0.689   2.095   6.459 -3.1766 -1.7677  1.1083
 6885SOL     OW32116   2.186   0.359   2.756  0.0667  0.0237  0.3851
 6885SOL    HW132117   2.187   0.419   2.682  2.1858  0.1809  0.5679
 6885SOL    HW232118   2.171   0.281   2.702 -0.9390  1.6629 -1.6928
 6886SOL     OW32119   3.656   0.153  13.823 -1.0104 -0.1916  0.1729
 6886SOL    HW132120   3.745   0.175  13.851 -1.5195  1.2329  0.6840
 6886SOL    HW232121   3.641   0.086  13.889 -0.3997 -1.0849 -0.5955
 6887SOL     OW32122   0.596   3.418   3.948 -0.3398 -0.3017  0.2296
 6887SOL    HW132123   0.509   3.452   3.928  0.5911  1.7772 -0.2629
 6887SOL    HW232124   0.595   3.415   4.044  0.3871 -1.7540  0.1938
 6888SOL     OW32125   3.558   4.397   4.737  0.1608  0.1360 -0.4355
 6888SOL    HW132126   3.519   4.342   4.669  1.5865  1.6695 -2.5126
 6888SOL    HW232127   3.522   4.351   4.812  4.8727 -3.7425 -0.5258
 6889SOL     OW32128   1.909   4.427  11.290  0.7150 -0.4968 -0.3721
 6889SOL    HW132129   1.950   4.514  11.297 -2.1941  0.8105  0.2726
 6889SOL    HW232130   1.828   4.448  11.336  1.3612  1.8746 -0.3204
 6890SOL     OW32131   3.524   0.570   8.458  0.7726  0.1991  0.0075
 6890SOL    HW132132   3.584   0.565   8.384 -0.7497 -0.5819 -1.2017
 6890SOL    HW232133   3.448   0.518   8.431  0.6077  0.5828 -0.2716
 6891SOL     OW32134   0.573   4.184   6.816 -0.7357  0.1703  0.0273
 6891SOL    HW132135   0.603   4.186   6.725  0.2492 -1.0935  0.3221
 6891SOL    HW232136   0.621   4.110   6.853  0.4645  1.7177  1.5551
 6892SOL     OW32137   0.039   0.089   4.570 -0.7975 -0.2355  0.9223
 6892SOL    HW132138   4.674   0.089   4.592 -1.0572 -3.0526 -0.0976
 6892SOL    HW232139   0.061   0.180   4.591  2.4951 -0.7718 -0.1919
 6893SOL     OW32140   2.856   0.756   4.602 -0.0418  0.2518 -0.2544
 6893SOL    HW132141   2.803   0.684   4.637 -0.1506 -0.0184 -0.9813
 6893SOL    HW232142   2.858   0.735   4.509  2.5459  0.6526 -0.2945
 6894SOL     OW32143   3.085   0.635  10.952  0.3864 -0.1027 -0.0502
 6894SOL    HW132144   2.997   0.613  10.983  0.6044 -1.0348 -0.0810
 6894SOL    HW232145   3.084   0.727  10.980 -1.4833  0.4083 -1.7622
 6895SOL     OW32146   1.702   1.170   3.253 -0.1158 -0.0909 -0.3210
 6895SOL    HW132147   1.646   1.226   3.199  0.7200 -0.6316 -1.7492
 6895SOL    HW232148   1.654   1.088   3.244 -2.2906  1.2045 -0.7208
 6896SOL     OW32149   1.502   1.706  11.283  0.0084  0.6646 -0.6784
 6896SOL    HW132150   1.552   1.788  11.290  2.0521 -0.7731  1.4034
 6896SOL    HW232151   1.519   1.687  11.191  1.8217 -0.0025 -0.2014
 6897SOL     OW32152   0.837   0.603  11.609  0.7604  0.0961 -0.6094
 6897SOL    HW132153   0.890   0.602  11.529  2.7938  1.4068  0.7097
 6897SOL    HW232154   0.758   0.639  11.568  1.1059 -1.2289 -2.4775
 6898SOL     OW32155   1.629   0.443   1.863  0.2151  0.2963 -0.1480
 6898SOL    HW132156   1.547   0.488   1.885  0.9630  2.6602 -2.1336
 6898SOL    HW232157   1.602   0.355   1.837 -0.0536  0.3883 -0.1803
 6899SOL     OW32158   1.375   0.586   6.779  0.2662  0.2216  0.2687
 6899SOL    HW132159   1.292   0.559   6.817 -0.4378  1.1405 -0.6289
 6899SOL    HW232160   1.393   0.494   6.759 -1.3274 -0.2619  1.0747
 6900SOL     OW32161   1.001   4.278  16.303  0.1124  0.7293 -0.3510
 6900SOL    HW132162   0.916   4.319  16.318 -1.1247 -1.0956 -2.4877
 6900SOL    HW232163   1.032   4.279  16.393  1.7555 -2.3498 -0.8990
 6901SOL     OW32164   3.679   0.598   7.560  0.1175  0.3971  0.3039
 6901SOL    HW132165   3.749   0.657   7.587  1.3582 -0.0557 -1.9563
 6901SOL    HW232166   3.682   0.532   7.630  2.1348  1.0646  0.8498
 6902SOL     OW32167   2.683   3.380   8.669  0.5353 -0.4573 -0.2865
 6902SOL    HW132168   2.600   3.414   8.700  0.1098 -1.9003  0.1568
 6902SOL    HW232169   2.679   3.288   8.695  1.1344 -0.1525  0.8909
 6903SOL     OW32170   0.853   4.523   0.081  0.7257  0.1973  0.1609
 6903SOL    HW132171   0.799   4.540   0.158  0.3589 -0.9618  0.1651
 6903SOL    HW232172   0.873   4.429   0.083 -0.3877 -0.0628 -1.0717
 6904SOL     OW32173   0.951   3.120  15.280 -0.0455  0.0542 -0.6506
 6904SOL    HW132174   0.936   3.194  15.221  2.8129  2.3452  1.4760
 6904SOL    HW232175   0.873   3.069  15.261 -0.5992 -0.6117  3.2618
 6905SOL     OW32176   2.561   0.095  11.497 -0.4806 -0.5914 -0.0961
 6905SOL    HW132177   2.636   0.154  11.499 -1.1722  0.3359 -1.3109
 6905SOL    HW232178   2.573   0.062  11.586 -2.3122 -0.5218  0.1749
 6906SOL     OW32179   0.893   2.053   0.179 -0.9000  0.2995  0.1902
 6906SOL    HW132180   0.830   2.074   0.111 -0.9950  1.5412  0.6769
 6906SOL    HW232181   0.853   1.968   0.200 -0.4458  0.0722  0.1588
 6907SOL     OW32182   0.640   4.281   3.933  0.3392  0.0869 -0.0160
 6907SOL    HW132183   0.606   4.197   3.901 -2.4620  1.1169  0.2955
 6907SOL    HW232184   0.644   4.279   4.028  1.2100  2.6925 -0.0123
 6908SOL     OW32185   1.684   0.219   8.988 -0.1064  0.3001  0.1581
 6908SOL    HW132186   1.755   0.248   9.046 -0.5492  2.0066 -0.1444
 6908SOL    HW232187   1.719   0.137   8.954  1.0079 -0.1887  2.4907
 6909SOL     OW32188   1.185   0.507   3.572 -0.7063 -0.3244 -0.6958
 6909SOL    HW132189   1.235   0.472   3.498  0.6889 -0.1672  0.1645
 6909SOL    HW232190   1.106   0.546   3.536 -1.3252 -1.5084 -0.6123
 6910SOL     OW32191   3.414   3.837   4.558 -0.4751  0.2851  0.0427
 6910SOL    HW132192   3.417   3.792   4.643 -1.4208 -0.8795 -0.5401
 6910SOL    HW232193   3.500   3.809   4.526 -0.5205 -0.7684  0.8623
 6911SOL     OW32194   0.576   0.523   0.753  0.3125  0.1933  0.4671
 6911SOL    HW132195   0.656   0.547   0.706  0.2052  0.3205  0.3519
 6911SOL    HW232196   0.548   0.442   0.710 -1.5428  0.4586  1.1574
 6912SOL     OW32197   3.814   4.385   4.854  0.5192  0.5429  0.8322
 6912SOL    HW132198   3.726   4.407   4.822  0.2962 -0.1153  0.9933
 6912SOL    HW232199   3.796   4.431   4.936  1.5179  2.1160  0.1809
 6913SOL     OW32200   1.007   3.773   4.888 -0.5083 -0.0549 -0.1513
 6913SOL    HW132201   0.938   3.747   4.949  0.3054 -0.0542  0.7698
 6913SOL    HW232202   1.062   3.696   4.870 -1.2038 -0.1181 -2.0235
 6914SOL     OW32203   3.741   3.732   0.779  0.2540 -0.0111  0.6412
 6914SOL    HW132204   3.692   3.659   0.816 -0.6528  0.4738  0.4132
 6914SOL    HW232205   3.828   3.709   0.810  0.9267  2.4718  0.6534
 6915SOL     OW32206   0.315   2.510   2.941  0.1356 -0.5875  0.2496
 6915SOL    HW132207   0.309   2.415   2.946 -3.3577 -0.3688  0.3595
 6915SOL    HW232208   0.293   2.540   3.030  0.6433  1.0941 -0.1828
 6916SOL     OW32209   2.259   3.689   2.394  0.1207 -0.7272 -0.4100
 6916SOL    HW132210   2.347   3.653   2.400  0.3425 -0.9653 -5.3274
 6916SOL    HW232211   2.252   3.695   2.299  0.0687  1.2971 -0.2761
 6917SOL     OW32212   0.600   2.756   8.669  0.1610 -0.2374  0.1902
 6917SOL    HW132213   0.640   2.799   8.594  0.3317  0.7289  0.8469
 6917SOL    HW232214   0.661   2.684   8.682  0.0932 -0.6138 -1.5306
 6918SOL     OW32215   1.224   0.903   9.046 -0.1917  0.0846 -0.3194
 6918SOL    HW132216   1.292   0.957   9.087 -0.8162 -2.0508  3.6022
 6918SOL    HW232217   1.147   0.931   9.095 -0.1325 -0.7865  0.2873
 6919SOL     OW32218   4.593   1.776  13.955  0.1375  0.4149 -0.7836
 6919SOL    HW132219   4.608   1.765  13.861 -0.7633 -2.9243 -0.5081
 6919SOL    HW232220   4.682   1.794  13.983  0.1643 -1.1438  0.1013
 6920SOL     OW32221   4.708   3.909  12.447  0.7911 -0.2463 -0.5569
 6920SOL    HW132222   0.015   3.985  12.399 -0.8578  1.9137  1.6624
 6920SOL    HW232223   4.616   3.937  12.450  0.3134 -1.9670  0.6699
 6921SOL     OW32224   2.608   2.097   2.599  0.0069 -0.1906 -0.0970
 6921SOL    HW132225   2.661   2.019   2.579  2.7142  0.9421  2.7713
 6921SOL    HW232226   2.662   2.118   2.675  0.9492 -2.0512 -0.2429
 6922SOL     OW32227   2.921   4.552   5.732  0.0737 -0.5533 -0.3053
 6922SOL    HW132228   2.855   4.554   5.801 -0.8676  1.5257 -1.2844
 6922SOL    HW232229   2.885   4.613   5.668  1.7356  0.5047 -0.2131
 6923SOL     OW32230   0.984   0.608   5.490 -0.2583 -0.0890 -0.6132
 6923SOL    HW132231   1.038   0.576   5.418 -0.7942 -3.0302  0.2973
 6923SOL    HW232232   0.948   0.686   5.448  0.6585 -0.0174 -1.2712
 6924SOL     OW32233   1.196   4.094   9.979 -0.2826  0.6829  0.1463
 6924SOL    HW132234   1.166   4.121  10.066  1.2575  0.6732  0.6698
 6924SOL    HW232235   1.126   4.031   9.959  0.5446 -0.2807  0.2514
 6925SOL     OW32236   2.303   1.295  10.978  0.5484  0.1764 -0.6524
 6925SOL    HW132237   2.376   1.357  10.983  0.8981 -0.2970  0.0291
 6925SOL    HW232238   2.253   1.340  10.910  2.7092  1.5618 -1.3389
 6926SOL     OW32239   2.952   4.482  13.487 -0.7720 -0.0023 -0.4121
 6926SOL    HW132240   2.894   4.558  13.501  0.2385  0.2592  2.2525
 6926SOL    HW232241   2.933   4.423  13.560 -0.2894  2.9253  2.0749
 6927SOL     OW32242   3.129   2.605   6.107  0.7983 -0.1052  0.4840
 6927SOL    HW132243   3.171   2.525   6.075 -0.7686 -1.0753  0.8420
 6927SOL    HW232244   3.209   2.653   6.130  1.3987 -1.9299  2.1199
 6928SOL     OW32245   2.371   2.197   6.638  0.0900  0.3953  0.7104
 6928SOL    HW132246   2.426   2.209   6.560  1.1732  1.1690  1.5973
 6928SOL    HW232247   2.389   2.107   6.667 -0.0726 -0.2252 -1.1073
 6929SOL     OW32248   4.137   0.999  11.316  0.2261 -0.5301  0.1645
 6929SOL    HW132249   4.129   1.038  11.229  1.9640  1.2497  0.8220
 6929SOL    HW232250   4.047   0.982  11.346  0.4520 -1.3000  0.4097
 6930SOL     OW32251   2.747   1.885   5.150 -0.0689 -0.7370  0.0820
 6930SOL    HW132252   2.786   1.903   5.065  1.1615 -1.9841  0.3844
 6930SOL    HW232253   2.810   1.818   5.176  1.5012  0.7887  0.2200
 6931SOL     OW32254   1.734   3.734   4.426  0.0146 -0.4996 -0.2852
 6931SOL    HW132255   1.660   3.673   4.433 -0.6316  0.6603  3.3974
 6931SOL    HW232256   1.813   3.682   4.443 -0.2343 -0.5285  0.8267
 6932SOL     OW32257   0.963   0.586   9.997  0.0141  0.1840  0.2587
 6932SOL    HW132258   0.910   0.547   9.927  0.1002  0.2174  0.1738
 6932SOL    HW232259   0.935   0.539  10.075  0.6310  2.5240  1.8809
 6933SOL     OW32260   1.457   1.725  15.855  0.1262 -0.0063 -0.3901
 6933SOL    HW132261   1.528   1.758  15.799 -0.0962 -0.4662 -0.9470
 6933SOL    HW232262   1.507   1.725  15.936  0.7933  1.7040 -0.8073
 6934SOL     OW32263   1.560   1.895   1.893  0.5503 -0.2223  0.4864
 6934SOL    HW132264   1.599   1.877   1.978  0.9032 -0.5325  0.2546
 6934SOL    HW232265   1.469   1.908   1.921  0.1113  0.1065 -1.0796
 6935SOL     OW32266   0.701   0.010   5.091  0.0084  0.1515 -0.6398
 6935SOL    HW132267   0.713   4.684   5.013  3.2452 -0.7620  0.5220
 6935SOL    HW232268   0.650   4.675   5.143  2.1310 -1.6639 -0.7700
 6936SOL     OW32269   1.502   3.679   2.771  0.4473 -0.4341  0.3638
 6936SOL    HW132270   1.494   3.645   2.860 -0.8830 -1.0741  0.0022
 6936SOL    HW232271   1.445   3.627   2.714  0.7974  0.2886 -0.6384
 6937SOL     OW32272   3.464   0.716   9.587 -0.3594 -0.1531  0.8456
 6937SOL    HW132273   3.429   0.703   9.674  1.7229 -0.1949  1.6879
 6937SOL    HW232274   3.544   0.663   9.594  1.2229  1.9703 -0.9261
 6938SOL     OW32275   3.253   0.549   1.746 -0.1426  0.2500 -0.3157
 6938SOL    HW132276   3.230   0.467   1.790  2.0194 -0.0272  0.3266
 6938SOL    HW232277   3.170   0.595   1.759  0.5319  0.7357  2.4246
 6939SOL     OW32278   3.855   4.118   5.042 -0.4036  0.0284  0.1612
 6939SOL    HW132279   3.946   4.149   5.034 -0.7009  1.0398  0.7088
 6939SOL    HW232280   3.875   4.024   5.043  1.2269  0.3691  0.1824
 6940SOL     OW32281   0.467   2.057  14.688 -0.4010  0.4108  0.1389
 6940SOL    HW132282   0.497   2.146  14.671 -0.4672  0.5407  0.6971
 6940SOL    HW232283   0.544   2.000  14.690 -1.0410 -0.4669  0.1831
 6941SOL     OW32284   0.468   0.637   6.979 -0.5345  0.3641  0.4725
 6941SOL    HW132285   0.444   0.670   6.893  0.3952 -1.9074 -0.6539
 6941SOL    HW232286   0.512   0.714   7.015 -0.1560  0.2645  0.2155
 6942SOL     OW32287   2.676   1.980   7.494 -0.0744  0.1778 -0.5029
 6942SOL    HW132288   2.645   1.902   7.449 -0.6462  0.2093 -0.1776
 6942SOL    HW232289   2.642   1.968   7.583  0.9711 -0.1243 -0.1526
 6943SOL     OW32290   1.803   3.828   7.692 -0.8534 -0.6896 -0.3177
 6943SOL    HW132291   1.783   3.805   7.602 -0.8906 -0.8049 -0.2799
 6943SOL    HW232292   1.715   3.821   7.730 -0.7206 -0.0197  0.1069
 6944SOL     OW32293   1.190   4.671  16.791  0.0108 -0.1313 -0.0928
 6944SOL    HW132294   1.217   4.706  16.706 -1.2840  0.6262 -0.1887
 6944SOL    HW232295   1.171   0.022  16.841 -1.5464 -0.6768  0.1968
 6945SOL     OW32296   1.318   1.054  14.989  0.2663  0.1374  0.0374
 6945SOL    HW132297   1.251   1.061  14.922  0.8026  2.0659 -0.2916
 6945SOL    HW232298   1.390   1.024  14.934  0.2824 -1.2474  0.8088
 6946SOL     OW32299   0.731   4.569   4.236  0.3264 -0.5415 -0.2622
 6946SOL    HW132300   0.682   4.565   4.154  0.7005  0.6221 -0.5343
 6946SOL    HW232301   0.681   4.639   4.277  1.8813  0.9193 -0.8998
 6947SOL     OW32302   1.186   1.472   7.687 -1.1293  0.4105  0.2285
 6947SOL    HW132303   1.209   1.380   7.688  0.0045  0.7001  0.4967
 6947SOL    HW232304   1.247   1.499   7.618 -1.7291 -0.6740 -0.7169
 6948SOL     OW32305   4.068   0.234   6.193  0.3976 -0.2121 -0.3524
 6948SOL    HW132306   4.062   0.329   6.190 -0.5218 -0.2315  1.3053
 6948SOL    HW232307   4.014   0.205   6.119  0.1703 -0.8981  0.0815
 6949SOL     OW32308   3.072   4.241  15.180  0.4289 -0.2010  0.1227
 6949SOL    HW132309   3.163   4.268  15.187  0.0124  0.4566  3.0215
 6949SOL    HW232310   3.043   4.311  15.122  1.3168  0.6477  0.7276
 6950SOL     OW32311   1.419   4.570   1.341  0.3445  0.5910  0.4264
 6950SOL    HW132312   1.434   4.609   1.255 -0.3687 -0.2399 -0.0722
 6950SOL    HW232313   1.330   4.605   1.354 -0.0884 -0.6605  0.7906
 6951SOL     OW32314   0.525   3.457   6.886 -0.4947  0.4463  0.2608
 6951SOL    HW132315   0.597   3.395   6.901 -1.2929 -0.1281  1.7126
 6951SOL    HW232316   0.524   3.465   6.790 -1.2197 -2.1069  0.0389
 6952SOL     OW32317   4.527   2.109   3.378 -0.1364 -1.0339  0.2425
 6952SOL    HW132318   4.502   2.188   3.329  0.0109 -1.8732 -1.1859
 6952SOL    HW232319   4.454   2.048   3.373  0.9376 -2.2720 -0.4647
 6953SOL     OW32320   4.160   1.655   7.185 -0.8792 -0.7545 -0.0930
 6953SOL    HW132321   4.192   1.634   7.097 -0.5462 -0.0706 -0.1382
 6953SOL    HW232322   4.085   1.595   7.189 -0.3890 -1.4442 -1.0329
 6954SOL     OW32323   1.741   3.446   6.674 -0.3047  0.3218  0.3375
 6954SOL    HW132324   1.807   3.480   6.734 -1.1483  0.5551  1.1417
 6954SOL    HW232325   1.715   3.367   6.722  1.7325  0.6626  1.9876
 6955SOL     OW32326   1.981   3.349   9.166 -0.0280 -0.1019  0.0658
 6955SOL    HW132327   2.008   3.279   9.225 -0.7195  0.0698  0.5905
 6955SOL    HW232328   1.985   3.425   9.224  0.7842  0.4132 -0.6587
 6956SOL     OW32329   4.105   2.078  10.303 -0.4183 -0.2178  0.2636
 6956SOL    HW132330   4.030   2.079  10.243 -0.7227  1.5547  0.6644
 6956SOL    HW232331   4.144   2.165  10.298  1.0428 -0.8846  0.0649
 6957SOL     OW32332   1.346   4.248   5.463  0.3975 -0.1062  0.4180
 6957SOL    HW132333   1.254   4.254   5.436  1.0513 -0.0110 -1.7667
 6957SOL    HW232334   1.348   4.174   5.523 -2.6401  0.4293  1.1884
 6958SOL     OW32335   1.189   1.042   6.914 -0.0661  0.1671 -0.5145
 6958SOL    HW132336   1.121   1.109   6.920  0.5900  0.7056  0.6788
 6958SOL    HW232337   1.181   0.996   6.997  2.0140 -1.3558 -1.1502
 6959SOL     OW32338   4.342   2.093   3.925 -0.0189  0.3958  0.2057
 6959SOL    HW132339   4.375   2.005   3.909 -4.1212 -1.6229  2.9431
 6959SOL    HW232340   4.383   2.136   3.850  0.1467 -0.6701 -0.3143
 6960SOL     OW32341   2.476   2.894  11.891 -0.3114 -0.1527 -0.6192
 6960SOL    HW132342   2.525   2.822  11.852  0.1042  0.3598 -1.0332
 6960SOL    HW232343   2.401   2.890  11.831 -0.8803 -1.3241  0.1591
 6961SOL     OW32344   3.204   3.243   6.633  0.1501 -0.4561  0.0750
 6961SOL    HW132345   3.208   3.239   6.538 -2.7413  0.7722 -0.0971
 6961SOL    HW232346   3.151   3.164   6.642  2.4926 -2.1086 -0.6021
 6962SOL     OW32347   2.882   3.432   5.516  0.6016 -0.1263  0.2244
 6962SOL    HW132348   2.945   3.360   5.509 -0.5785 -0.9359 -1.8421
 6962SOL    HW232349   2.805   3.392   5.556 -0.5652  2.4162  0.5676
 6963SOL     OW32350   0.250   2.415   5.046 -0.6855  0.0859 -0.0895
 6963SOL    HW132351   0.224   2.457   5.128  2.3754  0.7852  0.5175
 6963SOL    HW232352   0.227   2.484   4.983 -0.3902 -1.7855 -2.2624
 6964SOL     OW32353   1.318   2.803  16.128 -0.3762  0.1456  0.0159
 6964SOL    HW132354   1.227   2.802  16.157 -0.0316 -0.7535  1.0724
 6964SOL    HW232355   1.321   2.749  16.049  3.4601  0.0220  0.2758
 6965SOL     OW32356   3.425   3.368   4.964 -0.2673  0.1102  0.1483
 6965SOL    HW132357   3.518   3.345   4.953 -0.0906  0.7861  0.2109
 6965SOL    HW232358   3.394   3.366   4.874 -1.8157 -3.2678  0.7608
 6966SOL     OW32359   4.343   1.749   7.684  0.2247  0.1736 -0.1002
 6966SOL    HW132360   4.296   1.774   7.763  1.7840  0.2403  0.8251
 6966SOL    HW232361   4.272   1.721   7.627 -1.4254  2.8510  0.6425
 6967SOL     OW32362   4.556   3.832  13.864 -0.0973 -0.0348  0.6037
 6967SOL    HW132363   4.618   3.878  13.807 -0.2151  0.1649  0.6380
 6967SOL    HW232364   4.573   3.880  13.945 -0.6080  1.8257 -0.4002
 6968SOL     OW32365   3.540   3.538   9.615  0.0986 -0.5887  0.4390
 6968SOL    HW132366   3.577   3.623   9.638 -0.5007  0.0615 -1.0074
 6968SOL    HW232367   3.450   3.534   9.648  0.2699  2.3003  1.2225
 6969SOL     OW32368   3.079   0.417   6.796 -0.2214  0.3095  0.0961
 6969SOL    HW132369   3.010   0.369   6.843  0.7933 -1.6965 -0.4558
 6969SOL    HW232370   3.139   0.343   6.796  0.4445  0.8642 -0.5647
 6970SOL     OW32371   1.634   1.651   0.495  0.7732 -0.3032 -0.6444
 6970SOL    HW132372   1.727   1.664   0.475  1.5893  0.0506  3.3944
 6970SOL    HW232373   1.647   1.615   0.583 -0.2688 -0.1161 -0.4130
 6971SOL     OW32374   2.028   0.731   9.675  0.5784  0.0462 -0.0928
 6971SOL    HW132375   2.073   0.668   9.731 -0.5286  0.2826  1.0603
 6971SOL    HW232376   2.022   0.807   9.733  1.8815  1.1578 -1.4314
 6972SOL     OW32377   4.323   1.043   2.468  0.6547 -0.1013 -0.2828
 6972SOL    HW132378   4.281   1.123   2.437 -0.8141 -0.3293  1.1310
 6972SOL    HW232379   4.341   0.999   2.385  1.9439 -0.3344  0.1266
 6973SOL     OW32380   0.732   3.802   9.785 -0.2966 -0.0872  0.1626
 6973SOL    HW132381   0.742   3.786   9.691 -1.8590 -2.3550  0.4007
 6973SOL    HW232382   0.648   3.763   9.807 -1.1845  1.4363 -0.4867
 6974SOL     OW32383   3.439   0.407   0.563  0.3237  0.0112 -0.4197
 6974SOL    HW132384   3.417   0.334   0.505 -1.1055  0.5951 -0.6358
 6974SOL    HW232385   3.355   0.416   0.609  0.1417 -1.2250 -0.5132
 6975SOL     OW32386   0.021   2.076   4.713 -0.6399 -0.2794 -0.2494
 6975SOL    HW132387   4.704   2.156   4.684  0.5375  0.3627 -0.3198
 6975SOL    HW232388   0.065   2.104   4.793 -1.5714  2.1060 -0.5749
 6976SOL     OW32389   0.122   4.296   1.762 -0.8041 -0.2333 -0.6473
 6976SOL    HW132390   0.100   4.372   1.708  1.1697  0.3789 -0.5822
 6976SOL    HW232391   0.217   4.302   1.755 -0.6928 -0.2610  1.0170
 6977SOL     OW32392   0.857   4.636  14.177 -0.0189 -0.6531  0.6281
 6977SOL    HW132393   0.949   4.611  14.189  0.2593  0.9965  1.9363
 6977SOL    HW232394   0.812   4.553  14.192  0.0517 -0.5079  1.6592
 6978SOL     OW32395   2.235   3.470   2.146  0.4227 -0.0340  0.3274
 6978SOL    HW132396   2.236   3.565   2.137  0.5157 -0.1860 -1.2225
 6978SOL    HW232397   2.313   3.456   2.199  1.6994 -0.8770 -1.7535
 6979SOL     OW32398   4.223   2.214   8.554 -0.0064  0.3497  0.2327
 6979SOL    HW132399   4.293   2.278   8.543 -0.9016  1.5195  1.4113
 6979SOL    HW232400   4.207   2.211   8.648 -0.6875  2.8849  0.1952
 6980SOL     OW32401   3.891   1.031  16.154 -0.0233 -0.5908 -0.1276
 6980SOL    HW132402   3.957   1.018  16.221 -2.0844 -0.9347  1.8396
 6980SOL    HW232403   3.862   0.945  16.122 -0.1862 -0.2161 -0.9980
 6981SOL     OW32404   0.191   1.971   6.578  0.4163 -0.0253  0.7258
 6981SOL    HW132405   0.118   1.921   6.616 -0.7609 -0.0996 -1.6373
 6981SOL    HW232406   0.265   1.950   6.635  0.6278 -1.6625 -0.1647
 6982SOL     OW32407   0.934   1.618   2.043 -0.4001  0.8370  0.0630
 6982SOL    HW132408   1.013   1.669   2.024  0.5587 -1.1661 -1.3058
 6982SOL    HW232409   0.966   1.562   2.114 -0.8134 -2.1094 -2.0500
 6983SOL     OW32410   2.777   4.663   8.667 -0.5653 -0.5893  0.3116
 6983SOL    HW132411   2.782   4.606   8.590  1.8608  0.2176 -0.1311
 6983SOL    HW232412   2.710   4.613   8.714 -1.3026 -0.0720 -0.2071
 6984SOL     OW32413   1.061   3.101   2.687 -0.4397 -0.2419  0.2872
 6984SOL    HW132414   1.029   3.065   2.604 -0.5610 -0.7862  0.5690
 6984SOL    HW232415   1.021   3.043   2.751  0.1716  1.1332  1.9115
 6985SOL     OW32416   4.326   3.404   2.304 -0.5795 -0.4141 -0.0727
 6985SOL    HW132417   4.359   3.470   2.365  0.6775 -1.3208  0.2400
 6985SOL    HW232418   4.281   3.461   2.242 -1.3545 -1.3250 -0.3501
 6986SOL     OW32419   3.443   2.246  10.047  0.3013 -0.1469 -0.0939
 6986SOL    HW132420   3.461   2.314   9.982 -0.7069 -1.3722 -1.6359
 6986SOL    HW232421   3.452   2.161  10.006  1.0842 -0.2734  0.3401
 6987SOL     OW32422   0.532   3.087   1.996 -0.6624  0.4392 -0.1566
 6987SOL    HW132423   0.579   3.166   1.971 -1.2544  0.2792 -1.7945
 6987SOL    HW232424   0.461   3.083   1.933 -1.0864 -2.3034  0.4939
 6988SOL     OW32425   2.164   2.095   4.002 -0.3496 -0.0283  0.6757
 6988SOL    HW132426   2.238   2.073   3.946 -1.1745 -0.9179 -0.0494
 6988SOL    HW232427   2.160   2.190   3.995 -2.6340 -0.1099  0.8631
 6989SOL     OW32428   3.864   2.737   5.897  0.2384  0.3504 -0.3713
 6989SOL    HW132429   3.885   2.809   5.838 -1.3374  0.9013 -0.2562
 6989SOL    HW232430   3.935   2.740   5.962  0.6982 -0.2464 -0.8496
 6990SOL     OW32431   4.374   1.375  13.635 -0.7701 -0.9186 -1.0765
 6990SOL    HW132432   4.298   1.317  13.639 -2.0817  0.7891 -1.4988
 6990SOL    HW232433   4.336   1.457  13.603  0.0427  0.0575  0.4629
 6991SOL     OW32434   2.992   1.037   7.906 -0.1727 -0.0226 -0.9126
 6991SOL    HW132435   2.910   1.085   7.913  1.1523  1.8950  1.4493
 6991SOL    HW232436   3.023   1.045   7.996 -1.3296  0.3055 -0.5415
 6992SOL     OW32437   3.358   4.696   9.514 -0.0544 -0.1504 -0.2001
 6992SOL    HW132438   3.366   4.726   9.424  2.0972  3.1238  1.0744
 6992SOL    HW232439   3.269   4.665   9.503 -0.3313 -0.0375  1.7365
 6993SOL     OW32440   2.097   0.514   3.011  0.2381  0.3531  0.1884
 6993SOL    HW132441   2.152   0.536   2.936 -0.8641 -0.7046 -0.9325
 6993SOL    HW232442   2.015   0.491   2.968 -0.3451  0.6557  1.1211
 6994SOL     OW32443   2.648   1.793   8.773 -0.0035  0.5800 -0.3268
 6994SOL    HW132444   2.596   1.872   8.791 -0.2732  0.0278  1.3389
 6994SOL    HW232445   2.724   1.833   8.730  0.6381  2.4510  2.5528
 6995SOL     OW32446   0.515   1.062   1.667  0.0090 -0.1000 -0.6844
 6995SOL    HW132447   0.565   1.059   1.749 -0.5595 -1.7698 -0.4029
 6995SOL    HW232448   0.473   1.148   1.673  0.8222  0.1589  1.3003
 6996SOL     OW32449   0.765   1.717   5.512  0.3944  0.2534  0.2103
 6996SOL    HW132450   0.793   1.625   5.507  0.2960  0.2220  0.2429
 6996SOL    HW232451   0.688   1.720   5.455  1.0387  0.3989 -0.6674
 6997SOL     OW32452   1.626   1.907   8.554  0.1683 -0.4452 -0.1714
 6997SOL    HW132453   1.545   1.910   8.604  1.7356 -1.3515  2.4275
 6997SOL    HW232454   1.592   1.893   8.466 -2.3871 -2.6443  1.1774
 6998SOL     OW32455   4.484   4.376  12.859 -0.0471 -0.3214  0.3064
 6998SOL    HW132456   4.507   4.313  12.927  1.8197  0.8762  0.7806
 6998SOL    HW232457   4.569   4.390  12.818 -0.5718  0.1965 -0.5950
 6999SOL     OW32458   1.997   3.431   8.164 -0.4869  0.1659 -0.2902
 6999SOL    HW132459   1.995   3.383   8.247  2.0303  0.9099  0.1840
 6999SOL    HW232460   1.951   3.374   8.103 -2.1830  0.7470  0.4507
 7000SOL     OW32461   0.412   4.429   3.793  0.0198  0.3131  0.0690
 7000SOL    HW132462   0.470   4.415   3.868 -2.4730  0.0970  1.9916
 7000SOL    HW232463   0.457   4.481   3.727  1.0000 -2.0905 -1.1419
 7001SOL     OW32464   1.168   3.166  10.607 -0.8529 -0.4380 -0.0109
 7001SOL    HW132465   1.100   3.232  10.590  1.0635  1.2712 -1.1241
 7001SOL    HW232466   1.192   3.151  10.515  1.0320 -0.7190  0.5283
 7002SOL     OW32467   0.237   3.597  12.416 -0.1682  0.1146 -0.4555
 7002SOL    HW132468   0.182   3.563  12.345 -2.2517 -0.8539  1.6311
 7002SOL    HW232469   0.179   3.662  12.454  0.0131  0.6176 -1.0444
 7003SOL     OW32470   4.632   0.710   3.742  0.2157 -0.0563 -0.1577
 7003SOL    HW132471   4.678   0.791   3.719  0.1517  0.2457  0.7661
 7003SOL    HW232472   4.547   0.743   3.772  0.6523 -0.7944  1.9090
 7004SOL     OW32473   3.071   0.101  14.638  0.5953 -0.3799 -0.0629
 7004SOL    HW132474   3.050   0.194  14.647  2.4508  0.1351 -1.1010
 7004SOL    HW232475   3.150   0.104  14.583  0.1245  1.1603 -0.6689
 7005SOL     OW32476   2.518   2.812   5.358  0.3135  0.5665 -0.3952
 7005SOL    HW132477   2.457   2.739   5.368 -0.5040  1.2444 -0.4898
 7005SOL    HW232478   2.497   2.835   5.268 -1.7020  1.4326  0.3078
 7006SOL     OW32479   0.797   2.469   4.537  0.4099  0.7734  0.9970
 7006SOL    HW132480   0.854   2.426   4.473  0.9322 -0.5351  2.3673
 7006SOL    HW232481   0.817   2.417   4.614 -1.5196 -2.3761 -0.5942
 7007SOL     OW32482   2.333   3.739   2.779  0.2812 -0.4914 -0.4922
 7007SOL    HW132483   2.350   3.824   2.820  2.2911 -2.2887  2.3493
 7007SOL    HW232484   2.319   3.682   2.855 -0.3329 -1.9149 -1.6847
 7008SOL     OW32485   1.846   2.704  14.418 -0.0240 -0.2160 -0.1136
 7008SOL    HW132486   1.851   2.777  14.479 -0.0325  1.1724 -1.7786
 7008SOL    HW232487   1.877   2.734  14.333  0.8026  0.9388  0.6038
 7009SOL     OW32488   2.447   2.384   4.492  0.2157 -0.1049 -0.0843
 7009SOL    HW132489   2.373   2.331   4.523  1.7635 -2.5673 -0.6040
 7009SOL    HW232490   2.505   2.398   4.567 -0.7226 -0.8380  0.7963
 7010SOL     OW32491   1.335   0.701   3.374  0.1070  0.4408  0.3895
 7010SOL    HW132492   1.320   0.607   3.363 -3.7746  1.1358 -0.5188
 7010SOL    HW232493   1.349   0.732   3.285 -1.6683  0.7664  0.2116
 7011SOL     OW32494   2.108   1.166   6.854  0.0181 -0.5559  0.7475
 7011SOL    HW132495   2.195   1.127   6.848 -0.4702 -1.8696  2.4045
 7011SOL    HW232496   2.077   1.137   6.939 -0.8402 -0.2911  0.5228
 7012SOL     OW32497   4.226   3.182  16.344 -0.3034 -0.1418 -0.1466
 7012SOL    HW132498   4.227   3.105  16.287  0.9258  1.0718 -1.7660
 7012SOL    HW232499   4.245   3.246  16.275  1.1031 -0.0644  0.3236
 7013SOL     OW32500   2.255   0.811   2.234  0.3090 -0.2412 -0.5114
 7013SOL    HW132501   2.349   0.826   2.232 -0.0991  2.3919 -0.1367
 7013SOL    HW232502   2.230   0.887   2.287 -0.1086  0.3736 -1.5920
 7014SOL     OW32503   2.503   1.823   2.170  0.8944 -0.2122  0.3485
 7014SOL    HW132504   2.413   1.819   2.203 -0.1962  3.4632 -2.1232
 7014SOL    HW232505   2.550   1.775   2.238 -2.5956 -0.9832  2.2563
 7015SOL     OW32506   3.139   4.344  13.340 -0.5080  0.0337  0.3009
 7015SOL    HW132507   3.095   4.395  13.407 -0.8976  2.1971 -1.6297
 7015SOL    HW232508   3.099   4.370  13.258  2.2343  0.7706 -0.8070
 7016SOL     OW32509   1.333   4.086   4.086  0.2974 -0.1554  0.0970
 7016SOL    HW132510   1.374   4.146   4.024  2.7873 -2.1329 -0.1391
 7016SOL    HW232511   1.400   4.018   4.088 -0.6108 -1.0238  1.2860
 7017SOL     OW32512   2.414   0.694   7.220  0.1463 -0.1209 -0.0727
 7017SOL    HW132513   2.333   0.705   7.270  1.3629  1.7322  1.4862
 7017SOL    HW232514   2.473   0.759   7.257  0.3072 -0.7134  0.7129
 7018SOL     OW32515   0.561   3.741   7.619 -0.6242 -0.7019 -0.1869
 7018SOL    HW132516   0.635   3.681   7.612  0.6656  0.9658 -0.7700
 7018SOL    HW232517   0.485   3.697   7.582  1.0736 -2.5516 -1.4712
 7019SOL     OW32518   0.187   1.074   1.486  0.9443  0.3083  0.4872
 7019SOL    HW132519   0.116   1.137   1.472  0.7532 -0.3887 -1.5746
 7019SOL    HW232520   0.147   1.028   1.560  0.4339 -0.3857 -0.2244
 7020SOL     OW32521   0.020   1.483   8.482  0.4799  0.3581  0.2282
 7020SOL    HW132522   0.060   1.463   8.398 -2.7333  0.4259 -1.2978
 7020SOL    HW232523   4.728   1.394   8.512 -1.6923  1.0612  0.8651
 7021SOL     OW32524   3.537   0.537   1.834 -0.3644  0.2312 -0.1668
 7021SOL    HW132525   3.563   0.629   1.842 -0.3678  0.1389  1.0182
 7021SOL    HW232526   3.446   0.557   1.815 -0.1477  0.4072 -1.0230
 7022SOL     OW32527   3.122   2.326   5.044 -0.3731 -0.3614  0.6999
 7022SOL    HW132528   3.092   2.386   4.976 -0.8328 -1.0172  0.3306
 7022SOL    HW232529   3.113   2.244   4.995 -1.4163 -0.0185  0.3308
 7023SOL     OW32530   1.579   2.559  14.762 -0.2213 -0.2941 -0.4351
 7023SOL    HW132531   1.671   2.581  14.775 -0.3950  0.9411 -1.2440
 7023SOL    HW232532   1.575   2.485  14.822  1.4660 -0.6601 -0.7603
 7024SOL     OW32533   2.074   3.050   8.090  0.2016  0.4340  0.7361
 7024SOL    HW132534   2.150   3.009   8.048  0.9688  0.1206  2.4154
 7024SOL    HW232535   2.013   3.051   8.016  0.1992 -2.9740  0.6616
 7025SOL     OW32536   2.293   2.641   7.958  0.0329  0.4222  0.2588
 7025SOL    HW132537   2.234   2.696   7.907  0.9905  0.6127 -0.6410
 7025SOL    HW232538   2.237   2.608   8.028 -2.4448 -0.4218 -2.1379
 7026SOL     OW32539   2.331   2.579  13.717 -0.3508 -0.0183  0.1715
 7026SOL    HW132540   2.270   2.637  13.671 -1.3622  1.3914  3.2821
 7026SOL    HW232541   2.408   2.599  13.664 -1.4433  1.3572 -0.8880
 7027SOL     OW32542   3.515   2.511  10.746 -0.1051 -0.7674 -0.0633
 7027SOL    HW132543   3.599   2.557  10.748  0.0839 -1.0337 -2.1497
 7027SOL    HW232544   3.512   2.477  10.836 -0.9480  1.1336  0.6279
 7028SOL     OW32545   1.064   0.826   4.013 -0.1449  0.1547  0.4665
 7028SOL    HW132546   1.079   0.806   3.920  0.1978  0.8785  0.3632
 7028SOL    HW232547   1.149   0.800   4.047  0.2864  0.0247 -0.7002
 7029SOL     OW32548   3.979   3.623   0.865  0.4596 -0.4173 -0.5054
 7029SOL    HW132549   4.014   3.651   0.949 -0.8758  0.1849 -0.1616
 7029SOL    HW232550   3.955   3.533   0.887  0.7141 -0.3329  0.1121
 7030SOL     OW32551   3.056   4.323   8.125 -0.3921  0.7632  0.2140
 7030SOL    HW132552   3.022   4.344   8.038  0.8855 -2.4351 -1.0431
 7030SOL    HW232553   3.139   4.370   8.119  0.7143 -1.4352 -1.6262
 7031SOL     OW32554   3.977   3.173   4.508 -0.1914 -0.4042  0.5377
 7031SOL    HW132555   3.948   3.089   4.475  0.9908 -0.3114 -0.7553
 7031SOL    HW232556   4.058   3.142   4.549  1.3755 -0.0933 -2.3006
 7032SOL     OW32557   4.670   4.041   5.706  0.4110  0.4854  0.0834
 7032SOL    HW132558   4.714   4.103   5.763  0.0599  0.0206  0.8647
 7032SOL    HW232559   0.015   3.988   5.674 -0.0865 -0.8096  1.0882
 7033SOL     OW32560   0.435   3.659   5.339 -0.1582 -0.2114  0.5434
 7033SOL    HW132561   0.483   3.588   5.296 -2.2050 -0.3391 -1.5024
 7033SOL    HW232562   0.449   3.726   5.273 -1.6471  0.2143  0.6582
 7034SOL     OW32563   2.409   3.471   3.535  0.1351  0.0112 -0.6253
 7034SOL    HW132564   2.386   3.383   3.562 -0.3938  0.2618 -0.2668
 7034SOL    HW232565   2.356   3.531   3.588 -0.1797 -0.7656 -0.0766
 7035SOL     OW32566   0.871   0.150   0.221 -0.4959  0.3808  0.1362
 7035SOL    HW132567   0.854   0.145   0.127 -1.8407  0.0578  0.3932
 7035SOL    HW232568   0.933   0.078   0.236 -2.2232 -1.5008 -1.7181
 7036SOL     OW32569   0.555   2.763  15.128  0.9145 -0.3141 -0.1087
 7036SOL    HW132570   0.607   2.689  15.161 -0.6368 -2.4650 -2.4331
 7036SOL    HW232571   0.478   2.749  15.183  2.4225 -0.7036  1.9231
 7037SOL     OW32572   0.393   2.656   6.339  0.5835 -0.1323 -0.3161
 7037SOL    HW132573   0.398   2.630   6.247  1.5227  2.6203 -1.0338
 7037SOL    HW232574   0.360   2.579   6.386 -0.4012  0.2805 -0.3448
 7038SOL     OW32575   2.013   2.055   6.862 -0.0818  0.2654 -0.4593
 7038SOL    HW132576   1.919   2.041   6.865  0.3284 -2.5329 -0.3897
 7038SOL    HW232577   2.014   2.081   6.770  0.2277  2.5518  0.1965
 7039SOL     OW32578   2.522   4.264  12.122  0.2513 -0.0072 -0.1238
 7039SOL    HW132579   2.554   4.288  12.209 -0.3452  1.8094 -0.4017
 7039SOL    HW232580   2.523   4.170  12.140  1.8838 -0.4564 -2.5868
 7040SOL     OW32581   1.080   1.752   0.082 -0.2707  0.0705  0.3382
 7040SOL    HW132582   1.112   1.744   0.172 -1.0282  2.0506  0.7680
 7040SOL    HW232583   1.136   1.823   0.052  1.7893 -1.0744  1.4362
 7041SOL     OW32584   2.174   2.395   6.416  0.3399 -0.1990  0.1552
 7041SOL    HW132585   2.112   2.467   6.422 -0.5993 -0.9240 -0.9777
 7041SOL    HW232586   2.158   2.370   6.325  0.1555 -0.7111  0.3288
 7042SOL     OW32587   3.230   1.916   9.305 -0.2203  0.3889 -0.1828
 7042SOL    HW132588   3.221   1.820   9.303 -3.0874  0.6517  0.9943
 7042SOL    HW232589   3.142   1.945   9.282 -0.5582  0.0673  0.7364
 7043SOL     OW32590   0.312   1.438   2.387 -0.0507 -0.1168 -0.0434
 7043SOL    HW132591   0.290   1.409   2.298  0.2330  0.3907 -0.2818
 7043SOL    HW232592   0.301   1.356   2.435 -0.2013 -0.5040 -0.7248
 7044SOL     OW32593   0.337   0.976  14.464  0.1246  0.7828 -0.1134
 7044SOL    HW132594   0.364   0.936  14.381 -3.1539 -1.6830  0.0112
 7044SOL    HW232595   0.377   0.911  14.522 -0.8824  0.4444  0.2029
 7045SOL     OW32596   3.491   3.815  15.895 -0.2332 -0.2096  0.2271
 7045SOL    HW132597   3.461   3.804  15.805  1.0405  1.2652 -0.3738
 7045SOL    HW232598   3.406   3.798  15.937 -0.1350 -1.4789 -0.0810
 7046SOL     OW32599   1.396   1.255   4.629 -0.7027 -0.1947 -0.1301
 7046SOL    HW132600   1.309   1.296   4.631  0.4526  2.1991  1.2684
 7046SOL    HW232601   1.449   1.314   4.682  1.7641 -1.0715 -1.6262
 7047SOL     OW32602   1.896   2.634   7.992  0.0554 -0.5703 -0.2596
 7047SOL    HW132603   1.887   2.699   8.062  0.1166  0.5031 -1.2414
 7047SOL    HW232604   1.924   2.681   7.913 -0.4640 -0.8662 -0.6189
 7048SOL     OW32605   2.160   2.545   7.036  0.2067  0.2885  0.0917
 7048SOL    HW132606   2.219   2.559   7.110  0.1349  1.0233  0.0064
 7048SOL    HW232607   2.221   2.495   6.983  0.0272 -2.1731  2.2089
 7049SOL     OW32608   2.599   4.081  13.834  0.3531  0.6878  0.0463
 7049SOL    HW132609   2.646   4.089  13.751  1.8726 -3.6734  0.4559
 7049SOL    HW232610   2.508   4.057  13.814  0.4525 -0.1511  0.5951
 7050SOL     OW32611   1.157   0.455  16.370 -0.3068 -0.6589 -0.0205
 7050SOL    HW132612   1.120   0.511  16.302  0.9273 -0.8919 -0.8902
 7050SOL    HW232613   1.245   0.446  16.333 -0.7163  0.2984 -1.2145
 7051SOL     OW32614   0.112   2.064   8.786  0.2880 -0.2024  0.0328
 7051SOL    HW132615   0.150   2.134   8.840  1.4681 -1.3277  0.6461
 7051SOL    HW232616   0.089   2.117   8.710 -0.0646 -1.6390 -0.8660
 7052SOL     OW32617   2.286   3.277   1.425  0.0668 -0.3314  0.3590
 7052SOL    HW132618   2.356   3.275   1.490  2.3879  0.6806 -2.0607
 7052SOL    HW232619   2.212   3.299   1.480  0.7892  0.0463  1.1816
 7053SOL     OW32620   1.778   3.546  12.556 -0.1082 -0.8887 -0.1945
 7053SOL    HW132621   1.762   3.519  12.465 -0.8679 -0.0995 -0.2890
 7053SOL    HW232622   1.841   3.477  12.581  0.7735  0.8776  2.4404
 7054SOL     OW32623   3.246   0.519   7.724  0.4636 -0.0050  0.1108
 7054SOL    HW132624   3.232   0.496   7.632 -0.2219  0.7606  0.0282
 7054SOL    HW232625   3.189   0.457   7.769 -1.2366  1.3671 -0.1772
 7055SOL     OW32626   0.271   3.950   8.373 -0.3047 -0.1556  0.8036
 7055SOL    HW132627   0.264   3.868   8.422 -0.1551 -1.7860 -1.9523
 7055SOL    HW232628   0.179   3.973   8.364 -0.9287 -3.1922 -0.5183
 7056SOL     OW32629   3.995   2.406  10.021  0.1203 -0.7550 -0.6664
 7056SOL    HW132630   3.942   2.440  10.093 -0.0799 -0.1157 -1.1214
 7056SOL    HW232631   3.945   2.330   9.992  2.1784 -2.0672 -0.7637
 7057SOL     OW32632   0.752   2.726   6.166  0.0443  0.0580  0.1361
 7057SOL    HW132633   0.770   2.652   6.109  1.2197  1.6169 -1.5041
 7057SOL    HW232634   0.724   2.688   6.250  3.2831  0.5303  1.4585
 7058SOL     OW32635   3.578   4.138  12.113 -0.1770 -0.3710  0.0311
 7058SOL    HW132636   3.534   4.054  12.100 -1.9819  0.2727  1.9256
 7058SOL    HW232637   3.538   4.172  12.193 -0.1976 -2.0170  0.7369
 7059SOL     OW32638   0.054   4.180   6.761  0.5431 -0.0385 -0.1055
 7059SOL    HW132639   0.084   4.094   6.789  4.1995  1.4117  0.4490
 7059SOL    HW232640   0.130   4.200   6.705  0.9103  1.4268  0.9219
 7060SOL     OW32641   2.116   3.906   9.438  0.4144  0.5509  0.1285
 7060SOL    HW132642   2.022   3.920   9.445  0.7623  3.3744 -0.9610
 7060SOL    HW232643   2.139   3.878   9.526  0.9092 -1.4441 -0.6356
 7061SOL     OW32644   1.777   0.692   5.408 -0.4334  0.9146  0.0548
 7061SOL    HW132645   1.830   0.653   5.339  0.4865  1.3979  0.4989
 7061SOL    HW232646   1.744   0.776   5.376  0.0450  0.2552 -2.1326
 7062SOL     OW32647   3.756   1.590   1.324 -0.2368 -0.4777 -0.0205
 7062SOL    HW132648   3.762   1.522   1.256 -0.7356  0.3541 -0.8930
 7062SOL    HW232649   3.690   1.650   1.291 -1.6513 -2.0743 -0.0975
 7063SOL     OW32650   0.900   1.233   2.409  0.3404 -0.0187  0.0733
 7063SOL    HW132651   0.828   1.177   2.439  0.3494  0.0051  0.1396
 7063SOL    HW232652   0.866   1.247   2.321 -0.3794  2.2336  0.7052
 7064SOL     OW32653   0.779   0.516   4.726 -0.0220  0.0833  0.6122
 7064SOL    HW132654   0.826   0.583   4.676 -2.0001  1.3190  0.4126
 7064SOL    HW232655   0.694   0.515   4.683  0.2307 -2.2247  0.1418
 7065SOL     OW32656   3.597   4.147  13.251  0.1010  0.1361  0.5886
 7065SOL    HW132657   3.520   4.198  13.224 -0.7607 -0.9067  1.1000
 7065SOL    HW232658   3.659   4.208  13.291  0.4660 -0.2604  0.6364
 7066SOL     OW32659   4.456   1.374   9.122  0.3042 -0.5974 -0.4609
 7066SOL    HW132660   4.414   1.395   9.206 -0.1246  1.6083 -1.2236
 7066SOL    HW232661   4.450   1.279   9.113 -0.2734 -0.5202 -0.8737
 7067SOL     OW32662   1.592   3.687   6.883  0.5067  0.0333  0.5337
 7067SOL    HW132663   1.547   3.756   6.931 -1.2198 -0.4369 -0.4130
 7067SOL    HW232664   1.619   3.623   6.949  0.1130 -0.8131 -0.1220
 7068SOL     OW32665   3.790   2.318  13.201  0.0123  0.3572 -0.1758
 7068SOL    HW132666   3.774   2.226  13.181  0.3995  0.1589  0.4200
 7068SOL    HW232667   3.827   2.336  13.115  0.0605  0.1479 -0.1981
 7069SOL     OW32668   0.601   1.615  10.605  0.3035  0.4430  0.3861
 7069SOL    HW132669   0.602   1.710  10.598  0.3418  0.3496 -0.9278
 7069SOL    HW232670   0.695   1.599  10.617  0.3773  0.4947 -0.1261
 7070SOL     OW32671   4.479   1.123   3.138 -0.0490 -0.5109  0.2128
 7070SOL    HW132672   4.529   1.042   3.130  1.9757  0.9030 -1.4044
 7070SOL    HW232673   4.437   1.117   3.224 -0.8939  2.3400 -0.0168
 7071SOL     OW32674   1.370   0.408   6.073  0.2354  0.2495 -0.3769
 7071SOL    HW132675   1.424   0.345   6.025 -0.5965 -0.8569  0.1387
 7071SOL    HW232676   1.338   0.458   5.997  0.8524 -0.3602 -1.0399
 7072SOL     OW32677   3.131   4.349   4.092 -0.0406 -0.2773 -0.1343
 7072SOL    HW132678   3.180   4.409   4.149 -0.3751 -0.9126  0.8246
 7072SOL    HW232679   3.107   4.284   4.158 -1.1782 -0.2455 -0.5308
 7073SOL     OW32680   1.793   1.093  17.078  0.0190 -0.0342  0.0579
 7073SOL    HW132681   1.729   1.164  17.075 -1.2300 -1.2765 -2.4951
 7073SOL    HW232682   1.878   1.136  17.093 -0.0182 -0.3463  1.1238
 7074SOL     OW32683   0.118   2.820   5.184 -0.1008 -0.5434 -0.0004
 7074SOL    HW132684   0.169   2.867   5.117 -0.5825 -0.8913 -0.6028
 7074SOL    HW232685   0.058   2.886   5.218 -0.5552 -1.1143  0.2933
 7075SOL     OW32686   1.813   2.128   2.102 -0.0144  0.3309  0.9076
 7075SOL    HW132687   1.813   2.036   2.080  0.6812  0.2098  1.3928
 7075SOL    HW232688   1.732   2.133   2.153 -1.4201 -0.3521 -1.2747
 7076SOL     OW32689   1.783   0.816  14.899 -0.2384 -0.6671 -0.5179
 7076SOL    HW132690   1.821   0.730  14.919  1.1835  0.0484 -0.2184
 7076SOL    HW232691   1.837   0.832  14.822  0.5560  0.3090  0.2544
 7077SOL     OW32692   2.862   1.928   1.541 -0.2826  0.3075  0.0316
 7077SOL    HW132693   2.786   1.880   1.508 -1.3963  1.5636  0.7611
 7077SOL    HW232694   2.815   1.983   1.604 -1.1997 -0.6576  0.1721
 7078SOL     OW32695   1.000   3.072   2.406  0.1455 -0.6784  0.6890
 7078SOL    HW132696   1.036   2.984   2.390  3.9611  0.6093  2.4212
 7078SOL    HW232697   0.924   3.071   2.348 -0.1706 -0.7027  1.1036
 7079SOL     OW32698   4.088   0.202   4.196 -0.2914 -0.1232 -0.0902
 7079SOL    HW132699   4.151   0.185   4.126  0.6413 -1.0600  0.9775
 7079SOL    HW232700   4.013   0.158   4.155 -0.6106 -0.8068  1.2387
 7080SOL     OW32701   1.043   3.528   6.377  0.2857  0.0185 -0.7323
 7080SOL    HW132702   1.003   3.442   6.365  2.2467 -1.1788  1.4264
 7080SOL    HW232703   1.128   3.497   6.406  0.5354  0.4423 -1.0222
 7081SOL     OW32704   2.874   1.901   6.870  0.4865 -0.7350  0.4635
 7081SOL    HW132705   2.787   1.893   6.909  0.3747 -0.7370  0.2075
 7081SOL    HW232706   2.913   1.967   6.927  0.7615 -2.1161  1.9089
 7082SOL     OW32707   1.153   2.542   4.468 -0.1366 -0.3968 -0.3995
 7082SOL    HW132708   1.244   2.516   4.486  0.9617  3.1894 -0.7189
 7082SOL    HW232709   1.102   2.461   4.459  0.1166 -0.7042  0.8861
 7083SOL     OW32710   2.777   1.439   7.251  0.0443 -0.1406  0.1649
 7083SOL    HW132711   2.683   1.426   7.257 -0.0382  0.2025 -0.4068
 7083SOL    HW232712   2.785   1.405   7.162  3.0828 -2.9987  1.5284
 7084SOL     OW32713   3.558   1.503  17.100  0.2491 -0.0093 -1.1202
 7084SOL    HW132714   3.630   1.524  17.159 -1.9082  2.3018  0.6856
 7084SOL    HW232715   3.478   1.515  17.152 -1.4493  0.2110 -3.7901
 7085SOL     OW32716   1.389   1.650   7.623 -0.0386 -0.0997  0.0609
 7085SOL    HW132717   1.343   1.734   7.620 -2.5652 -1.4826  0.5660
 7085SOL    HW232718   1.423   1.653   7.712 -2.2455 -1.1872  0.9372
 7086SOL     OW32719   2.708   2.204   6.783  0.6199  0.2015 -0.9943
 7086SOL    HW132720   2.711   2.206   6.687  0.0174  1.7052 -0.9817
 7086SOL    HW232721   2.803   2.218   6.789  0.9503 -2.0535 -0.9128
 7087SOL     OW32722   1.833   0.908   1.509 -0.0130 -0.6587  0.2118
 7087SOL    HW132723   1.849   1.001   1.521  2.5102 -0.8330 -1.7248
 7087SOL    HW232724   1.746   0.890   1.544  0.3173 -0.3847  1.1669
 7088SOL     OW32725   1.726   3.655  10.801  0.5633  0.2180  0.2093
 7088SOL    HW132726   1.650   3.713  10.810 -1.1420 -2.2593  1.5375
 7088SOL    HW232727   1.692   3.566  10.807  0.5154  0.1019 -1.8891
 7089SOL     OW32728   1.410   0.769   6.993  0.2176 -0.0626 -0.1280
 7089SOL    HW132729   1.331   0.823   6.993 -0.8198 -1.5825 -1.8019
 7089SOL    HW232730   1.392   0.712   6.918  0.6986 -0.2227 -0.1178
 7090SOL     OW32731   2.098   1.735   5.217 -0.1956  0.6792 -0.3909
 7090SOL    HW132732   2.090   1.827   5.192  0.3796 -0.3165 -4.2608
 7090SOL    HW232733   2.127   1.747   5.308 -3.1064 -1.6200  0.8645
 7091SOL     OW32734   3.096   2.167  14.402 -0.0949  0.0226  0.2679
 7091SOL    HW132735   3.189   2.148  14.395 -0.3999 -1.7619  0.8963
 7091SOL    HW232736   3.080   2.143  14.494  1.9647  0.1797  0.6776
 7092SOL     OW32737   4.585   4.505   8.203  0.2560 -0.4231  0.8102
 7092SOL    HW132738   4.564   4.435   8.265 -0.5394 -0.9511 -0.0479
 7092SOL    HW232739   4.525   4.486   8.131  0.3501  0.3640  0.5245
 7093SOL     OW32740   2.731   4.636   2.300  0.3414  0.0557  0.5947
 7093SOL    HW132741   2.697   4.569   2.360 -1.2373 -0.1068 -0.4882
 7093SOL    HW232742   2.727   4.592   2.215  1.2972  1.4030 -0.1412
 7094SOL     OW32743   4.406   4.473   1.134 -0.4565  0.3972 -0.2753
 7094SOL    HW132744   4.486   4.480   1.187  0.6448  3.4511 -2.3618
 7094SOL    HW232745   4.350   4.433   1.200 -0.1439  2.0362  0.9840
 7095SOL     OW32746   0.110   0.192  10.902  0.0758  0.5194 -0.3397
 7095SOL    HW132747   0.182   0.154  10.852 -0.4180  0.7986 -1.2677
 7095SOL    HW232748   0.048   0.120  10.898  0.4977  0.0006  2.7590
 7096SOL     OW32749   1.634   2.157   3.026  1.0521 -0.1626 -0.2712
 7096SOL    HW132750   1.560   2.200   2.984  0.0754  0.0460  1.7045
 7096SOL    HW232751   1.593   2.154   3.112  4.2245  2.6575  1.3389
 7097SOL     OW32752   4.244   3.352   6.215 -0.2605 -0.1422  0.1009
 7097SOL    HW132753   4.223   3.262   6.242  1.9482 -0.5131  0.6240
 7097SOL    HW232754   4.193   3.363   6.135  2.2401  0.4199 -1.4507
 7098SOL     OW32755   2.565   0.400  11.325 -0.2325 -0.2061  0.1819
 7098SOL    HW132756   2.551   0.480  11.274 -2.3093 -0.2651  0.6616
 7098SOL    HW232757   2.609   0.341  11.263  0.1583  0.8545 -0.5504
 7099SOL     OW32758   0.337   0.106   5.328  0.7444  0.2358  0.3177
 7099SOL    HW132759   0.367   0.083   5.416 -0.2984 -0.7011  0.4140
 7099SOL    HW232760   0.356   0.028   5.276 -2.8907 -1.0078  0.9104
 7100SOL     OW32761   0.258   0.440   1.458  0.4341 -0.0994  0.2829
 7100SOL    HW132762   0.181   0.383   1.463  2.9744 -3.3886  1.8596
 7100SOL    HW232763   0.313   0.390   1.397  0.2664  0.2496 -0.1548
 7101SOL     OW32764   4.006   0.046  11.346 -0.3991 -0.7201 -0.1555
 7101SOL    HW132765   4.019   4.711  11.275 -0.8479  0.6447 -1.4588
 7101SOL    HW232766   4.016   4.719  11.424  0.5068 -0.5600 -0.1605
 7102SOL     OW32767   3.139   1.524   2.277  0.3057 -0.6389 -0.3682
 7102SOL    HW132768   3.130   1.545   2.184  1.4451 -0.2733 -0.3989
 7102SOL    HW232769   3.186   1.441   2.275 -0.2488 -0.9573 -0.1569
 7103SOL     OW32770   0.070   1.676   9.460 -0.0306  0.1850 -0.3122
 7103SOL    HW132771   0.134   1.726   9.511 -2.1132  1.9018  0.6319
 7103SOL    HW232772   0.017   1.640   9.532 -0.3388  1.0893 -0.0904
 7104SOL     OW32773   3.075   2.202  15.987 -0.2019 -0.7415  0.3323
 7104SOL    HW132774   3.128   2.188  15.908 -1.2724  2.5034 -0.9433
 7104SOL    HW232775   3.057   2.295  15.993  0.3643 -0.7323  2.0499
 7105SOL     OW32776   0.852   2.747   4.854  0.1579 -0.3766 -0.2511
 7105SOL    HW132777   0.811   2.739   4.768 -0.2266  0.7618 -0.1717
 7105SOL    HW232778   0.876   2.840   4.857  1.1711 -0.5850 -1.8088
 7106SOL     OW32779   2.045   2.136   2.265  0.1191 -0.2355  0.2900
 7106SOL    HW132780   1.986   2.161   2.336 -0.1237  2.3302 -0.8103
 7106SOL    HW232781   1.979   2.138   2.196  0.6302  2.8962 -0.1498
 7107SOL     OW32782   3.845   1.466   7.999  0.3688  0.2891 -0.0531
 7107SOL    HW132783   3.815   1.478   7.909 -0.0297  0.9261  0.1618
 7107SOL    HW232784   3.927   1.416   7.993  0.0498 -0.1454 -0.7865
 7108SOL     OW32785   0.894   1.037   6.001 -0.2293  0.2686 -0.5495
 7108SOL    HW132786   0.940   1.037   6.084 -0.1579  0.2930 -0.5889
 7108SOL    HW232787   0.925   1.124   5.975  0.3885 -0.0258 -0.8009
 7109SOL     OW32788   2.959   1.918   9.217 -0.2570  0.0100 -0.1193
 7109SOL    HW132789   2.900   1.976   9.266  0.2795 -0.6704  1.3385
 7109SOL    HW232790   2.955   1.948   9.126  0.6790 -2.2570 -0.8939
 7110SOL     OW32791   1.723   3.123   5.724  0.3373  0.0458  0.3406
 7110SOL    HW132792   1.793   3.069   5.688  1.4846  2.0769 -0.4919
 7110SOL    HW232793   1.718   3.099   5.817  0.4558 -1.1458  0.0317
 7111SOL     OW32794   1.127   2.992   9.830 -0.1534  0.0630 -0.2901
 7111SOL    HW132795   1.069   3.066   9.811  1.8990  1.7947  0.1812
 7111SOL    HW232796   1.068   2.922   9.801  0.5869 -1.4044  1.7470
 7112SOL     OW32797   4.489   0.444   4.491 -0.0892  0.5348 -0.4849
 7112SOL    HW132798   4.395   0.460   4.495 -0.3575 -0.9488 -0.9760
 7112SOL    HW232799   4.488   0.363   4.439 -1.6570  1.6022 -2.0909
 7113SOL     OW32800   2.945   3.504  13.543 -0.8846 -0.2047 -0.1762
 7113SOL    HW132801   2.910   3.425  13.502 -1.0850  0.0340 -0.4631
 7113SOL    HW232802   3.011   3.545  13.487 -2.0555 -0.1212 -1.4813
 7114SOL     OW32803   3.001   1.268   8.706 -0.0800 -0.1717  0.0407
 7114SOL    HW132804   2.914   1.248   8.741 -0.4678  0.5699 -0.5062
 7114SOL    HW232805   2.969   1.342   8.654 -2.4173 -0.9801  0.3196
 7115SOL     OW32806   4.461   4.389   5.731 -0.3315  0.4932  0.0613
 7115SOL    HW132807   4.391   4.428   5.678 -0.2769  0.3936 -0.0843
 7115SOL    HW232808   4.469   4.306   5.683 -0.3267  0.2129  0.5450
 7116SOL     OW32809   3.181   4.441   8.810 -0.0463 -0.3558  0.2573
 7116SOL    HW132810   3.138   4.435   8.896  0.0485 -0.5246  0.2922
 7116SOL    HW232811   3.136   4.373   8.760 -0.9199  0.6296 -0.2935
 7117SOL     OW32812   2.074   3.518   4.890  0.5673  0.2894  0.0620
 7117SOL    HW132813   2.017   3.520   4.967  0.0548  0.1428 -0.3137
 7117SOL    HW232814   2.054   3.604   4.852 -0.1474  0.5577  1.0126
 7118SOL     OW32815   0.223   0.319  11.804 -0.3149 -0.7756  0.0422
 7118SOL    HW132816   0.304   0.269  11.793  0.7057  0.7853  0.4826
 7118SOL    HW232817   0.208   0.343  11.713 -0.9878 -0.5604  0.2081
 7119SOL     OW32818   1.365   4.177   8.334  0.6909 -0.3568  0.4355
 7119SOL    HW132819   1.298   4.243   8.315  1.3357 -0.8020 -3.4093
 7119SOL    HW232820   1.355   4.126   8.254 -0.6173 -0.6644  0.7917
 7120SOL     OW32821   1.557   0.043   7.460 -0.0645 -0.5797 -0.4601
 7120SOL    HW132822   1.613   4.698   7.485  0.4836 -0.1275 -0.3725
 7120SOL    HW232823   1.614   0.119   7.457  0.7365 -1.1163  1.5465
 7121SOL     OW32824   3.253   1.385   1.645  0.3903  0.5256 -0.0355
 7121SOL    HW132825   3.175   1.360   1.694  0.6942 -1.7328 -0.7219
 7121SOL    HW232826   3.246   1.313   1.583  0.9298  0.5130 -0.0770
 7122SOL     OW32827   0.773   1.772   4.724 -0.0974 -0.6445 -0.0975
 7122SOL    HW132828   0.842   1.742   4.783  0.3084  0.0330 -0.2308
 7122SOL    HW232829   0.736   1.690   4.691 -2.1537  0.5380 -0.7448
 7123SOL     OW32830   1.794   2.855   6.506 -0.4383  0.0956  0.3164
 7123SOL    HW132831   1.867   2.877   6.448 -2.4926 -1.0848 -2.6810
 7123SOL    HW232832   1.800   2.761   6.524 -0.9590  0.2580  1.3239
 7124SOL     OW32833   2.977   0.351   8.089 -0.1633  0.0976  0.1547
 7124SOL    HW132834   2.990   0.283   8.023  0.0101  1.0744 -0.8187
 7124SOL    HW232835   3.016   0.311   8.167  1.0382  0.7300 -0.1297
 7125SOL     OW32836   2.964   4.390   7.877  0.2031  0.5966 -0.2034
 7125SOL    HW132837   3.052   4.378   7.842 -0.9357 -2.6359 -1.9592
 7125SOL    HW232838   2.918   4.393   7.793  1.1946 -1.0818 -0.8184
 7126SOL     OW32839   2.134   1.388   3.798 -0.1319 -0.2838  0.0841
 7126SOL    HW132840   2.214   1.348   3.765  0.0814  2.3294 -2.5304
 7126SOL    HW232841   2.068   1.349   3.740 -0.2784  1.4016 -0.8773
 7127SOL     OW32842   0.023   1.385   7.716 -0.4378 -0.0705  0.2324
 7127SOL    HW132843   0.002   1.313   7.775  1.8750 -0.0714  1.0785
 7127SOL    HW232844   4.673   1.437   7.730 -1.2257 -2.0746  3.2461
 7128SOL     OW32845   0.613   0.905   4.064 -0.8377  0.3874  0.4666
 7128SOL    HW132846   0.657   0.961   4.128  0.2406 -0.8180  0.7841
 7128SOL    HW232847   0.690   0.898   4.007 -0.5167 -1.5662  1.1555
 7129SOL     OW32848   1.842   1.954   1.055 -0.1382 -0.1638 -0.2760
 7129SOL    HW132849   1.750   1.927   1.047  0.3214 -1.6020 -0.8484
 7129SOL    HW232850   1.870   1.904   0.978 -1.8252 -0.0610 -0.9628
 7130SOL     OW32851   0.489   0.602   2.515  0.0922 -0.3546  0.0301
 7130SOL    HW132852   0.580   0.595   2.544 -0.2505  0.0696  1.2417
 7130SOL    HW232853   0.439   0.562   2.586 -1.9148 -0.9961 -1.7707
 7131SOL     OW32854   2.127   1.034  11.484 -0.4612 -0.4088 -0.1244
 7131SOL    HW132855   2.050   0.989  11.449 -0.3159  0.7018 -1.8194
 7131SOL    HW232856   2.158   1.069  11.401 -1.0879  0.0241 -0.1727
 7132SOL     OW32857   1.879   3.364   7.461 -0.1539  0.4140 -0.0251
 7132SOL    HW132858   1.939   3.290   7.472  0.0060  0.4259 -0.7905
 7132SOL    HW232859   1.858   3.385   7.552  0.6204  1.6115 -0.1242
 7133SOL     OW32860   4.257   3.811   5.085 -0.3225  0.1603  0.2189
 7133SOL    HW132861   4.255   3.734   5.141  0.8283  1.0868  1.5228
 7133SOL    HW232862   4.237   3.878   5.151  0.3842  0.1498  0.4374
 7134SOL     OW32863   3.219   2.018   3.332 -0.2411  0.8985  0.6036
 7134SOL    HW132864   3.154   2.062   3.386  1.2570  2.8785  0.7608
 7134SOL    HW232865   3.172   2.003   3.250  0.7845 -0.1018  0.1855
 7135SOL     OW32866   3.225   1.939  11.826 -0.3962 -0.2594  0.1456
 7135SOL    HW132867   3.170   1.890  11.887 -0.1079  0.5522  1.0684
 7135SOL    HW232868   3.279   1.985  11.890  2.1347 -0.9747 -1.5239
 7136SOL     OW32869   2.443   1.256  16.360 -0.3226 -0.5871 -0.6285
 7136SOL    HW132870   2.400   1.331  16.318 -1.1567 -0.1712  0.9553
 7136SOL    HW232871   2.393   1.185  16.320 -0.8303 -0.2900 -0.5268
 7137SOL     OW32872   2.919   0.592   0.732 -0.1584 -0.1032 -0.3599
 7137SOL    HW132873   2.857   0.584   0.804 -2.1935 -0.5180 -2.1553
 7137SOL    HW232874   2.964   0.671   0.760  0.8081 -0.8724  0.2554
 7138SOL     OW32875   4.188   0.823   3.687  0.3960 -0.2194 -0.0868
 7138SOL    HW132876   4.131   0.884   3.640 -0.8417 -2.1778 -1.1302
 7138SOL    HW232877   4.137   0.820   3.767  1.4622 -0.4730  0.5832
 7139SOL     OW32878   2.097   2.593   8.769  0.0982  0.1264  0.5639
 7139SOL    HW132879   2.025   2.597   8.706 -1.0932 -2.1749  1.7685
 7139SOL    HW232880   2.046   2.573   8.848 -1.6147  4.5249  0.5525
 7140SOL     OW32881   2.819   2.281   5.861 -0.6474 -0.1165  0.2350
 7140SOL    HW132882   2.851   2.349   5.801 -1.3897 -0.0779 -0.1151
 7140SOL    HW232883   2.879   2.298   5.933 -2.0188  1.3957  1.0434
 7141SOL     OW32884   4.701   1.766   2.344 -0.2100  0.6205  0.0559
 7141SOL    HW132885   4.625   1.810   2.383  0.4924  1.5492  0.3713
 7141SOL    HW232886   4.699   1.793   2.252 -1.0267  0.9014  0.1529
 7142SOL     OW32887   1.996   4.619   3.774  0.1999  1.2006  0.3966
 7142SOL    HW132888   1.951   4.632   3.691 -0.1363 -1.0140  0.2223
 7142SOL    HW232889   2.011   4.711   3.797 -0.1883  1.1931  0.6842
 7143SOL     OW32890   2.924   1.363   1.464  0.1540  0.7247  0.2466
 7143SOL    HW132891   3.002   1.315   1.492  1.3186 -0.4237 -4.9660
 7143SOL    HW232892   2.859   1.355   1.534  0.8559 -1.3239  0.6969
 7144SOL     OW32893   2.465   2.607   0.514 -0.1033  0.3816  0.2716
 7144SOL    HW132894   2.491   2.518   0.537 -0.4413 -0.0628 -1.0340
 7144SOL    HW232895   2.516   2.659   0.575 -0.7497 -1.6502  2.5357
 7145SOL     OW32896   1.497   0.841   7.247 -0.3043  0.2786  0.4633
 7145SOL    HW132897   1.465   0.751   7.255 -0.3111  0.4719  2.5050
 7145SOL    HW232898   1.476   0.855   7.155  2.8602  2.1195  0.0193
 7146SOL     OW32899   1.910   4.477   1.456 -0.5019  0.7146  0.7608
 7146SOL    HW132900   1.920   4.528   1.376 -1.2052  0.2609  0.3880
 7146SOL    HW232901   1.886   4.390   1.425 -1.0529  0.4176  1.9875
 7147SOL     OW32902   3.517   3.220   6.141  0.5258  0.3763 -0.3833
 7147SOL    HW132903   3.476   3.277   6.077 -0.6102  0.3910  0.3590
 7147SOL    HW232904   3.463   3.141   6.135  1.2426 -0.1894  0.5065
 7148SOL     OW32905   1.632   3.880  16.770  0.2015 -0.1103 -0.5922
 7148SOL    HW132906   1.697   3.839  16.713  1.8581 -0.4703  1.5244
 7148SOL    HW232907   1.658   3.971  16.783  0.5005 -0.4997  1.6599
 7149SOL     OW32908   2.494   2.829   2.278 -0.8641  0.1297  0.8573
 7149SOL    HW132909   2.433   2.768   2.235 -0.7303  1.4921 -1.2504
 7149SOL    HW232910   2.543   2.844   2.197 -0.3460 -2.2087  0.7339
 7150SOL     OW32911   2.203   1.094  14.209  0.0482  0.5828  0.2906
 7150SOL    HW132912   2.172   1.132  14.126  1.2428  0.9229  0.0011
 7150SOL    HW232913   2.219   1.008  14.170 -1.2356 -0.4346  2.0260
 7151SOL     OW32914   1.521   0.174   3.048 -0.2736  0.2751  0.4908
 7151SOL    HW132915   1.444   0.229   3.065 -1.7031 -0.7443 -2.6993
 7151SOL    HW232916   1.576   0.208   3.118 -1.2982 -0.2714  1.5533
 7152SOL     OW32917   0.311   1.618   1.012 -0.0906  0.3993  0.4772
 7152SOL    HW132918   0.289   1.529   0.982 -1.5648  1.4835 -1.6870
 7152SOL    HW232919   0.301   1.608   1.106  0.8438  1.0976  0.6448
 7153SOL     OW32920   0.840   0.134   0.757  0.2990 -0.2401 -0.3040
 7153SOL    HW132921   0.810   0.186   0.682 -0.0206  1.3467  0.9356
 7153SOL    HW232922   0.789   0.165   0.831  0.5251 -0.7420  0.0588
 7154SOL     OW32923   4.016   2.599  16.346  0.2623  0.3693  0.1858
 7154SOL    HW132924   3.943   2.615  16.286  0.8675 -1.0472 -0.9063
 7154SOL    HW232925   4.076   2.674  16.343  0.7673 -0.0827 -0.9012
 7155SOL     OW32926   2.246   2.392   4.953 -0.1309 -0.0178  0.4787
 7155SOL    HW132927   2.307   2.340   4.901 -0.4542 -0.4794  0.5576
 7155SOL    HW232928   2.163   2.359   4.918  1.8715 -3.4851 -0.9581
 7156SOL     OW32929   0.493   3.881   6.157  0.1213  0.3728 -0.8757
 7156SOL    HW132930   0.545   3.862   6.079  0.3891  0.0367 -0.6173
 7156SOL    HW232931   0.442   3.959   6.137 -1.0941 -0.4631 -1.0373
 7157SOL     OW32932   3.639   1.916  12.275  0.2875 -0.4375 -0.4963
 7157SOL    HW132933   3.715   1.859  12.291  0.6095  0.3811  0.8346
 7157SOL    HW232934   3.593   1.842  12.234 -1.4061  1.3921 -1.8712
 7158SOL     OW32935   1.175   1.594   1.006 -0.2260 -0.2451 -0.0474
 7158SOL    HW132936   1.118   1.591   0.929  0.1780  0.4945 -0.3784
 7158SOL    HW232937   1.130   1.538   1.069  0.9364  0.1105  1.1125
 7159SOL     OW32938   2.633   1.808   1.029 -0.7187  0.2835  0.2684
 7159SOL    HW132939   2.630   1.903   1.015  1.6192  0.2769 -0.1956
 7159SOL    HW232940   2.700   1.786   0.965  0.5030  1.2475  1.2162
 7160SOL     OW32941   3.455   3.723  12.734  0.0635 -0.0299  0.5557
 7160SOL    HW132942   3.436   3.814  12.714 -1.3018 -0.2293  0.9448
 7160SOL    HW232943   3.376   3.678  12.703  0.9688 -1.3482  0.1728
 7161SOL     OW32944   4.693   2.685  13.060 -0.0302 -0.3934 -0.5275
 7161SOL    HW132945   4.692   2.592  13.082 -0.6422  0.6675  3.8874
 7161SOL    HW232946   4.694   2.679  12.964 -1.3040 -0.7234 -0.5219
 7162SOL     OW32947   1.801   2.183   2.405  0.1439  0.1968 -0.0259
 7162SOL    HW132948   1.803   2.156   2.497 -1.4317 -0.8550 -0.2854
 7162SOL    HW232949   1.711   2.164   2.376  0.0912  0.0076  0.2548
 7163SOL     OW32950   4.406   0.857   3.829 -0.0308  1.0241  0.0548
 7163SOL    HW132951   4.343   0.821   3.767 -0.4275 -1.5837  1.9811
 7163SOL    HW232952   4.353   0.854   3.908  0.2649 -0.2610  0.2063
 7164SOL     OW32953   1.338   2.662  15.902 -0.8815  0.5870  0.3034
 7164SOL    HW132954   1.400   2.734  15.890  0.3802 -0.4584  0.4555
 7164SOL    HW232955   1.365   2.614  15.823 -0.9523  0.3764  0.4072
 7165SOL     OW32956   4.050   0.372   7.417  0.1943 -0.5315  0.3124
 7165SOL    HW132957   4.054   0.466   7.398 -0.5691 -0.5148  0.1975
 7165SOL    HW232958   3.955   0.362   7.423  0.1739 -1.4239 -1.3268
 7166SOL     OW32959   0.579   3.762   5.550  0.2501  0.4372  0.1200
 7166SOL    HW132960   0.497   3.732   5.512 -0.3660  1.3663  0.7295
 7166SOL    HW232961   0.567   3.857   5.549 -1.6272  0.1957  0.7843
 7167SOL     OW32962   3.604   1.691   5.486  0.0120 -0.4085  0.5689
 7167SOL    HW132963   3.635   1.615   5.438  1.8348 -0.0358  1.1350
 7167SOL    HW232964   3.676   1.753   5.470 -0.8267  0.7600  1.3199
 7168SOL     OW32965   1.043   2.787  14.373 -0.5186 -0.3255 -0.0624
 7168SOL    HW132966   1.118   2.738  14.407 -0.1101  1.5182  1.7533
 7168SOL    HW232967   1.091   2.866  14.346 -2.4982  1.1917  0.8405
 7169SOL     OW32968   0.060   1.716   5.923 -0.1188  0.2906  0.5179
 7169SOL    HW132969   0.011   1.634   5.922  0.1324  0.1467  0.0410
 7169SOL    HW232970   0.058   1.751   5.834  2.4306 -1.4935 -0.2103
 7170SOL     OW32971   3.353   3.091   3.862 -0.0936  0.4178 -0.5530
 7170SOL    HW132972   3.384   3.127   3.945 -2.9511  3.2614 -0.7317
 7170SOL    HW232973   3.401   3.150   3.804  0.0982  0.8524  0.0384
 7171SOL     OW32974   2.607   0.706   7.779  0.0023  0.0953 -0.0428
 7171SOL    HW132975   2.546   0.737   7.712 -0.9647  0.3602  0.9799
 7171SOL    HW232976   2.653   0.785   7.808  0.0067 -0.1332  0.5591
 7172SOL     OW32977   1.138   2.022   1.755 -0.2607 -0.6244  0.4433
 7172SOL    HW132978   1.057   2.067   1.730 -0.1009  0.1720  1.3299
 7172SOL    HW232979   1.163   1.994   1.667 -0.8404 -0.0827  0.1025
 7173SOL     OW32980   3.401   1.516   8.248 -0.4563  0.2482  0.2881
 7173SOL    HW132981   3.453   1.488   8.324  1.2911 -1.1359 -1.4177
 7173SOL    HW232982   3.365   1.434   8.215  0.2056  0.8624 -1.9127
 7174SOL     OW32983   3.367   1.363   5.311  0.0342  0.5749  0.0120
 7174SOL    HW132984   3.377   1.370   5.216 -1.6000  0.3511 -0.1785
 7174SOL    HW232985   3.451   1.398   5.339  0.6476 -1.8273  1.1058
 7175SOL     OW32986   4.043   3.806   5.551  0.8411 -0.0362 -0.1632
 7175SOL    HW132987   3.953   3.813   5.584  1.3922  0.9865  1.1618
 7175SOL    HW232988   4.096   3.867   5.604  1.0693  1.1067 -1.7106
 7176SOL     OW32989   0.197   4.060   2.141 -0.0102  0.4725  0.8567
 7176SOL    HW132990   0.195   4.126   2.073  0.0100 -0.1392  0.2641
 7176SOL    HW232991   0.115   4.012   2.133  0.9256 -0.4301 -2.9035
 7177SOL     OW32992   0.538   0.618   6.336  0.0257  0.0509 -0.3657
 7177SOL    HW132993   0.460   0.666   6.308 -0.9316 -1.2497  0.0004
 7177SOL    HW232994   0.607   0.666   6.291  0.1168  0.0280 -0.2487
 7178SOL     OW32995   2.751   3.516  11.948 -0.2459 -0.4324 -0.6495
 7178SOL    HW132996   2.770   3.557  12.033  0.3863 -0.8892 -0.5704
 7178SOL    HW232997   2.805   3.574  11.894  0.2440  1.1530  1.5310
 7179SOL     OW32998   0.883   1.356   2.963 -0.1947  0.0852 -0.2370
 7179SOL    HW132999   0.926   1.439   2.984  0.0434  0.1059 -0.8139
 7179SOL    HW233000   0.823   1.393   2.897 -0.5152  0.3957  0.2237
 7180SOL     OW33001   0.799   1.466  17.429 -0.0160  0.0600 -0.2256
 7180SOL    HW133002   0.712   1.488  17.394  0.0433 -1.5887 -1.4100
 7180SOL    HW233003   0.838   1.551  17.448 -1.5816  1.0063 -1.1919
 7181SOL     OW33004   3.195   0.142  14.928  0.2364  0.3512  0.1650
 7181SOL    HW133005   3.169   0.130  15.019 -2.5606  0.1622 -0.6527
 7181SOL    HW233006   3.121   0.124  14.869  0.4236  0.0236  0.0311
 7182SOL     OW33007   0.271   2.311   5.482  0.2287 -0.1560  0.0265
 7182SOL    HW133008   0.188   2.343   5.446 -0.0123 -0.7831  0.0249
 7182SOL    HW233009   0.318   2.279   5.405  0.1987  0.3077 -0.1821
 7183SOL     OW33010   0.667   0.791   7.332 -0.1145  0.1134 -0.2258
 7183SOL    HW133011   0.626   0.710   7.362  0.2365 -0.5400 -1.4819
 7183SOL    HW233012   0.617   0.806   7.251 -1.5732 -0.8059  0.5040
 7184SOL     OW33013   0.321   1.600   0.432  0.5873 -0.8137  0.1647
 7184SOL    HW133014   0.244   1.645   0.397  1.4140  1.8285  1.6838
 7184SOL    HW233015   0.322   1.658   0.509  3.0244 -0.1487 -0.3548
 7185SOL     OW33016   4.197   3.853   7.167 -0.4104  0.3279  0.8340
 7185SOL    HW133017   4.131   3.824   7.229 -0.0769  0.2206  1.1357
 7185SOL    HW233018   4.273   3.801   7.192 -1.5335 -2.2823 -1.1404
 7186SOL     OW33019   0.546   1.697   1.876 -0.2358  0.2435 -0.4532
 7186SOL    HW133020   0.459   1.706   1.914 -0.1608  0.8199 -0.4210
 7186SOL    HW233021   0.515   1.687   1.786 -0.9983  1.6747 -0.3540
 7187SOL     OW33022   2.019   0.849  10.650  0.2463  0.0785  0.3634
 7187SOL    HW133023   2.062   0.897  10.580 -1.1062  0.9471  0.1231
 7187SOL    HW233024   2.071   0.769  10.643 -1.2273 -0.9125  0.7138
 7188SOL     OW33025   3.554   4.266  17.655 -0.5512 -0.6099  0.1692
 7188SOL    HW133026   3.642   4.291  17.682  0.3276 -1.1768 -2.1976
 7188SOL    HW233027   3.512   4.350  17.640  0.8774 -0.1041 -0.9666
 7189SOL     OW33028   4.135   1.059   0.226  0.6280 -0.3238  0.3776
 7189SOL    HW133029   4.164   1.063   0.317 -2.7173  0.3183  1.4163
 7189SOL    HW233030   4.163   1.148   0.204 -1.5376  0.3774  0.4308
 7190SOL     OW33031   0.009   1.293   4.512  0.2338  0.6614  0.1454
 7190SOL    HW133032   0.048   1.380   4.502  1.5246 -0.0644 -1.0834
 7190SOL    HW233033   4.723   1.294   4.607 -1.0652 -0.9723 -0.0438
 7191SOL     OW33034   3.620   4.019   0.605  0.0013  0.4134 -0.1754
 7191SOL    HW133035   3.639   4.090   0.544 -0.2920  0.8782  0.2767
 7191SOL    HW233036   3.600   3.949   0.542  1.4823  1.0231 -1.3363
 7192SOL     OW33037   0.815   2.052  17.389 -0.8693  0.3648 -0.0749
 7192SOL    HW133038   0.896   2.059  17.441 -0.5158  1.2519 -0.7481
 7192SOL    HW233039   0.781   2.141  17.396 -0.3729  0.4601  1.0462
 7193SOL     OW33040   4.023   3.173   8.121 -0.5102  0.1004  0.4615
 7193SOL    HW133041   3.971   3.228   8.180 -1.4964 -2.2552  1.7796
 7193SOL    HW233042   3.992   3.084   8.137 -0.1069  0.1324  1.4503
 7194SOL     OW33043   2.078   3.784   4.846 -0.9134  0.3592 -0.6588
 7194SOL    HW133044   2.089   3.807   4.938 -3.1898  0.2165 -0.3447
 7194SOL    HW233045   2.099   3.866   4.801  0.3480  0.0846 -0.5678
 7195SOL     OW33046   1.890   2.122   3.294  0.3418  0.1231 -0.3172
 7195SOL    HW133047   1.950   2.146   3.222 -1.6606  0.8788 -1.7362
 7195SOL    HW233048   1.929   2.044   3.335 -1.1362 -0.9274 -0.9153
 7196SOL     OW33049   2.997   3.708   7.334 -0.3344  0.1990 -0.1177
 7196SOL    HW133050   3.039   3.628   7.302 -0.2356 -0.1002  0.7725
 7196SOL    HW233051   2.932   3.663   7.387  1.7507 -1.4123  1.0832
 7197SOL     OW33052   3.627   0.545   6.498 -0.0176 -0.0814 -0.0747
 7197SOL    HW133053   3.535   0.569   6.488 -0.1012 -0.0898  0.7065
 7197SOL    HW233054   3.652   0.616   6.557 -0.2161  0.6941 -0.9285
 7198SOL     OW33055   4.568   4.216   1.454  0.7389 -0.6403 -0.1297
 7198SOL    HW133056   4.493   4.159   1.441  0.4977  0.1123 -2.0411
 7198SOL    HW233057   4.632   4.149   1.479 -0.0823 -1.4324 -0.1744
 7199SOL     OW33058   1.490   4.698  16.988 -0.4269  0.5624  0.1235
 7199SOL    HW133059   1.458   0.060  16.996 -0.2094  0.6670 -0.1460
 7199SOL    HW233060   1.439   4.654  17.055 -0.5450 -1.1804 -1.1154
 7200SOL     OW33061   3.301   2.365   0.315 -0.2191 -0.0624 -0.3116
 7200SOL    HW133062   3.289   2.452   0.277  0.2983  0.0776 -0.1578
 7200SOL    HW233063   3.281   2.383   0.407  0.2874 -3.7350  0.5356
 7201SOL     OW33064   1.268   0.553   0.087  0.5738 -0.1132  0.0368
 7201SOL    HW133065   1.251   0.647   0.091 -0.5086 -0.2750 -0.7809
 7201SOL    HW233066   1.187   0.509   0.062 -0.7068  1.0620  2.1341
 7202SOL     OW33067   4.233   0.985   9.384  0.1468  0.0133 -0.2465
 7202SOL    HW133068   4.182   1.065   9.394 -0.4923 -0.4448  0.1490
 7202SOL    HW233069   4.306   0.999   9.444 -2.0991  1.2854  2.1491
 7203SOL     OW33070   1.945   1.297   5.977 -0.8827  0.4994 -0.4469
 7203SOL    HW133071   1.878   1.231   5.957 -0.6154  0.4326 -1.0858
 7203SOL    HW233072   1.994   1.295   5.896 -2.2863  2.8850 -1.3563
 7204SOL     OW33073   2.433   2.967  16.581  0.7276  0.4519 -0.0921
 7204SOL    HW133074   2.381   2.891  16.554 -2.1850  1.5195  2.5720
 7204SOL    HW233075   2.467   2.980  16.493 -1.5771  2.1050 -0.7250
 7205SOL     OW33076   2.839   1.093   4.173  0.2707  0.2191 -0.7767
 7205SOL    HW133077   2.866   1.174   4.217 -0.4930  0.2439 -0.3408
 7205SOL    HW233078   2.920   1.051   4.146 -0.4377  0.0443 -2.5960
 7206SOL     OW33079   0.877   1.505   7.495 -0.0509 -0.2499  0.3025
 7206SOL    HW133080   0.930   1.581   7.521 -1.2440  0.3017  1.1303
 7206SOL    HW233081   0.791   1.531   7.529  1.5400 -0.2082  4.2820
 7207SOL     OW33082   2.993   3.822  15.281 -0.0634  0.4416 -0.1975
 7207SOL    HW133083   3.076   3.862  15.307 -0.1770  0.7210 -0.2754
 7207SOL    HW233084   3.003   3.726  15.283  2.7195  0.7506  0.0809
 7208SOL     OW33085   4.068   2.723   5.484  0.6370  0.3539  0.1349
 7208SOL    HW133086   4.070   2.666   5.407  1.9018 -0.7605  0.9778
 7208SOL    HW233087   4.136   2.775   5.440  0.7009 -1.5880 -2.0478
 7209SOL     OW33088   3.344   1.083   3.815 -0.2355 -0.6906  0.2515
 7209SOL    HW133089   3.318   1.110   3.904 -2.4602 -0.9134 -0.3348
 7209SOL    HW233090   3.325   1.158   3.758 -0.6386 -1.9856 -1.2848
 7210SOL     OW33091   1.258   0.382   7.155  0.1843  0.2697  0.1751
 7210SOL    HW133092   1.183   0.324   7.160 -1.1904  2.0171 -0.3830
 7210SOL    HW233093   1.333   0.322   7.153 -0.2098 -0.2756  1.4667
 7211SOL     OW33094   4.140   0.494   4.761 -0.0563  0.3187 -0.0075
 7211SOL    HW133095   4.198   0.425   4.729  0.4822  0.5027  0.5814
 7211SOL    HW233096   4.160   0.501   4.854  0.9816 -0.8694 -0.1388
 7212SOL     OW33097   3.044   1.058  13.597 -0.3394  0.1521  0.1769
 7212SOL    HW133098   3.078   1.105  13.521 -1.2237 -1.4299 -1.1749
 7212SOL    HW233099   2.951   1.074  13.585  0.4240  2.9755 -1.8982
 7213SOL     OW33100   1.631   0.791   0.232  0.3254 -0.4872 -0.1029
 7213SOL    HW133101   1.645   0.843   0.312  1.9072  0.9653 -1.3444
 7213SOL    HW233102   1.608   0.708   0.273  1.9962 -0.8639  0.0688
 7214SOL     OW33103   1.253   2.343   8.336  0.8362 -0.4215 -0.5113
 7214SOL    HW133104   1.284   2.254   8.352  0.4670  0.1577  3.3449
 7214SOL    HW233105   1.323   2.373   8.277  0.6214  0.0870 -0.5066
 7215SOL     OW33106   3.862   2.159  16.098 -0.2392 -0.8995 -0.1892
 7215SOL    HW133107   3.931   2.215  16.133 -1.2249  2.2102 -3.1798
 7215SOL    HW233108   3.834   2.102  16.170 -2.5603  2.3007  1.4224
 7216SOL     OW33109   2.696   1.165   5.634 -0.5182  0.3896 -0.2792
 7216SOL    HW133110   2.787   1.137   5.640 -0.7234 -0.4649 -1.0739
 7216SOL    HW233111   2.663   1.085   5.591  0.0124  2.2104 -4.1301
 7217SOL     OW33112   2.546   1.710   5.745 -0.1019  0.3294  0.1400
 7217SOL    HW133113   2.630   1.719   5.699 -0.4639  0.1552 -0.5560
 7217SOL    HW233114   2.503   1.795   5.741 -2.4552 -0.9068 -0.7404
 7218SOL     OW33115   4.727   3.245   8.206  0.0343  0.0636 -0.5848
 7218SOL    HW133116   0.078   3.192   8.215 -1.9111 -2.4388  1.7264
 7218SOL    HW233117   4.678   3.212   8.281 -1.1625  1.1951 -0.8720
 7219SOL     OW33118   1.965   4.662   8.716 -0.2959  0.0993  0.4311
 7219SOL    HW133119   2.019   4.649   8.638 -0.1603  1.4834  0.2834
 7219SOL    HW233120   2.003   4.597   8.775 -0.7713  1.7312  2.5253
 7220SOL     OW33121   0.764   3.323   1.280  0.7977 -0.3200 -0.0706
 7220SOL    HW133122   0.813   3.387   1.227  0.2638 -0.4584 -0.7313
 7220SOL    HW233123   0.678   3.365   1.276  1.2931  1.0407  3.7573
 7221SOL     OW33124   0.508   1.700  17.607 -0.1582  0.9858  0.0229
 7221SOL    HW133125   0.461   1.657  17.535  1.2002  0.7605 -0.7157
 7221SOL    HW233126   0.589   1.725  17.564  0.3865  0.2759  0.6328
 7222SOL     OW33127   3.062   1.085  14.872  0.5913  0.3462 -0.0430
 7222SOL    HW133128   2.970   1.110  14.875  0.7554  0.9214  0.0755
 7222SOL    HW233129   3.076   1.055  14.782  1.0696 -0.7378  0.3859
 7223SOL     OW33130   0.514   1.251   1.994  0.2404 -0.0827 -0.1837
 7223SOL    HW133131   0.459   1.328   1.983 -2.7881 -2.3413 -0.8311
 7223SOL    HW233132   0.467   1.205   2.064 -2.7996  2.9795 -0.2247
 7224SOL     OW33133   1.690   0.065   2.392  0.7842  0.3773 -0.6339
 7224SOL    HW133134   1.721   4.703   2.383 -0.8587 -0.0273 -2.1110
 7224SOL    HW233135   1.607   0.055   2.438  0.1617 -0.4329 -1.9385
 7225SOL     OW33136   1.054   4.259   2.347 -0.1110 -0.0638 -0.4861
 7225SOL    HW133137   1.001   4.181   2.363  0.6893 -0.3343  0.8728
 7225SOL    HW233138   1.109   4.221   2.279 -1.4055 -0.7583 -1.1378
 7226SOL     OW33139   2.080   0.259   2.326  0.4088 -0.1728 -0.1178
 7226SOL    HW133140   2.110   0.345   2.297  0.8121 -0.4459 -0.4930
 7226SOL    HW233141   2.039   0.279   2.410 -1.9149 -1.7942 -0.8643
 7227SOL     OW33142   1.441   3.222   2.692  0.4449 -0.4829  0.1568
 7227SOL    HW133143   1.365   3.277   2.708  1.7755  0.8687  1.8469
 7227SOL    HW233144   1.464   3.236   2.600 -1.9979 -1.6675 -0.6365
 7228SOL     OW33145   0.117   0.016   3.470  0.0831 -0.0738 -0.4676
 7228SOL    HW133146   0.058   0.083   3.435  0.2670  0.8182  0.9030
 7228SOL    HW233147   0.066   4.672   3.505 -0.6454  0.9149  0.5459
 7229SOL     OW33148   3.269   2.031   4.303 -0.1298  0.0608  0.0805
 7229SOL    HW133149   3.252   2.125   4.298 -0.6117 -0.1282 -1.8404
 7229SOL    HW233150   3.190   2.005   4.256 -0.2168  0.8965 -0.2503
 7230SOL     OW33151   1.208   3.187   2.997  0.1262  0.6651  0.3749
 7230SOL    HW133152   1.137   3.122   3.000  1.0710 -0.5073 -2.8832
 7230SOL    HW233153   1.159   3.269   2.989 -1.5662 -0.3188  0.6965
 7231SOL     OW33154   1.380   1.889   3.173 -0.4656 -0.1226 -0.0148
 7231SOL    HW133155   1.355   1.951   3.105 -0.1368 -1.0573 -0.9808
 7231SOL    HW233156   1.464   1.927   3.200 -0.7255  0.5857 -0.2129
 7232SOL     OW33157   3.504   2.092   1.992  1.0971  0.0992 -0.2733
 7232SOL    HW133158   3.479   2.117   1.904 -0.1084  3.3303  0.9894
 7232SOL    HW233159   3.459   2.008   1.988 -0.1460  0.7795 -0.4486
 7233SOL     OW33160   1.287   1.664   1.847  0.3272 -0.8981 -0.0191
 7233SOL    HW133161   1.378   1.654   1.819  0.6170 -1.0687  0.9529
 7233SOL    HW233162   1.242   1.633   1.769 -1.6201  0.6084  0.5053
 7234SOL     OW33163   2.544   2.342   2.158  0.0518  0.4675  0.7065
 7234SOL    HW133164   2.608   2.408   2.185 -1.4182  0.8323  3.3219
 7234SOL    HW233165   2.581   2.271   2.211  1.5195  0.5690 -0.1902
 7235SOL     OW33166   1.188   2.785   5.708 -0.0660 -0.1619 -0.3528
 7235SOL    HW133167   1.207   2.732   5.631 -2.0386 -0.4383 -0.6670
 7235SOL    HW233168   1.100   2.822   5.702 -0.0936 -0.4323 -1.6628
 7236SOL     OW33169   0.449   0.356  14.767  0.1145 -0.3450  0.1284
 7236SOL    HW133170   0.479   0.281  14.818 -0.7649  0.6049  2.0742
 7236SOL    HW233171   0.527   0.390  14.724  1.7576 -1.5310  2.2132
 7237SOL     OW33172   1.741   2.940   8.085 -0.6608 -0.0400  0.1326
 7237SOL    HW133173   1.671   2.877   8.068 -1.2916  0.8071 -0.4101
 7237SOL    HW233174   1.749   2.973   7.995  1.3203 -0.3334  0.1965
 7238SOL     OW33175   4.190   1.157  13.294  0.3631 -0.0920 -0.0884
 7238SOL    HW133176   4.099   1.149  13.266  0.0727  2.7150  0.0293
 7238SOL    HW233177   4.163   1.173  13.385 -1.5834  4.1377 -1.4090
 7239SOL     OW33178   0.103   3.767   9.222 -0.2832 -0.5769  0.0722
 7239SOL    HW133179   0.010   3.766   9.244 -0.1134  1.7465  0.9537
 7239SOL    HW233180   0.122   3.861   9.220  0.1806 -0.6737 -0.1091
 7240SOL     OW33181   3.900   0.276   6.686  0.1170 -0.2004  0.0272
 7240SOL    HW133182   3.954   0.281   6.607  0.6090  1.9325  0.4916
 7240SOL    HW233183   3.823   0.318   6.647 -0.6532 -0.7069  1.0260
 7241SOL     OW33184   1.515   2.921   6.459  0.0314 -0.1980  0.0695
 7241SOL    HW133185   1.597   2.888   6.496  0.8847  0.3432 -1.3097
 7241SOL    HW233186   1.459   2.845   6.451 -0.2207  0.0267 -0.3305
 7242SOL     OW33187   1.578   2.568   6.775 -0.0833 -0.1483  0.1884
 7242SOL    HW133188   1.526   2.488   6.764 -1.9286  0.7102  2.8150
 7242SOL    HW233189   1.514   2.633   6.747  1.4240  0.7144 -1.2581
 7243SOL     OW33190   0.042   3.371   9.232 -0.0503  0.0484  0.1069
 7243SOL    HW133191   0.017   3.279   9.219 -2.5389  1.0799 -2.6686
 7243SOL    HW233192   0.045   3.372   9.327  2.4857  0.3836  0.0086
 7244SOL     OW33193   3.837   2.682   9.324  0.6382  0.6906  0.1358
 7244SOL    HW133194   3.915   2.707   9.374  1.3690  2.5756 -1.9327
 7244SOL    HW233195   3.770   2.714   9.385 -1.5163 -2.7979 -0.4223
 7245SOL     OW33196   2.050   2.076   1.478  0.1770  0.4011 -0.2269
 7245SOL    HW133197   2.049   1.981   1.488  0.0031  0.1587 -2.5786
 7245SOL    HW233198   1.960   2.092   1.450 -0.0967 -0.0599  0.3989
 7246SOL     OW33199   0.815   2.797   3.420 -0.0227  0.3803  0.5311
 7246SOL    HW133200   0.774   2.884   3.424 -1.6207 -0.2384 -2.6172
 7246SOL    HW233201   0.840   2.788   3.329 -0.5911  1.4698  0.2619
 7247SOL     OW33202   4.174   2.098   9.981 -0.7027 -0.0194  0.3844
 7247SOL    HW133203   4.179   2.014  10.026 -1.5383 -1.2533 -1.7982
 7247SOL    HW233204   4.153   2.081   9.889  0.6647 -1.1339  0.2925
 7248SOL     OW33205   0.223   4.392  15.612 -0.2297 -0.5656 -0.1107
 7248SOL    HW133206   0.317   4.371  15.606 -0.3109 -0.5819 -1.2910
 7248SOL    HW233207   0.206   4.349  15.696  0.1086  0.3977  0.4448
 7249SOL     OW33208   3.801   1.662   7.676 -0.1583 -0.5681 -0.5391
 7249SOL    HW133209   3.885   1.621   7.658  0.2041  0.2770 -0.7832
 7249SOL    HW233210   3.746   1.587   7.700 -0.0078 -0.3535  0.4759
 7250SOL     OW33211   4.104   0.272  15.924  0.6380 -0.0520  0.1733
 7250SOL    HW133212   4.138   0.199  15.872  0.2541  2.2214 -3.2980
 7250SOL    HW233213   4.186   0.321  15.931  1.5658 -1.8147  1.4651
 7251SOL     OW33214   1.693   3.025   6.268 -0.0877  0.0863 -0.1823
 7251SOL    HW133215   1.643   3.102   6.241  1.0051  0.5161 -0.9816
 7251SOL    HW233216   1.646   3.007   6.350  1.1516 -2.4955 -0.0134
 7252SOL     OW33217   0.681   3.004   6.317 -0.2867  0.6100 -0.6331
 7252SOL    HW133218   0.701   2.910   6.318  0.8804  0.8804  0.8747
 7252SOL    HW233219   0.655   3.014   6.225 -1.7042  0.6567 -0.2190
 7253SOL     OW33220   0.685   1.774   3.854 -1.0620  0.2805  0.1510
 7253SOL    HW133221   0.746   1.847   3.854 -2.5169  1.4998  2.2767
 7253SOL    HW233222   0.622   1.798   3.786 -2.7682 -1.9646  0.9624
 7254SOL     OW33223   1.576   2.900   1.849  0.6687  0.2196 -0.0204
 7254SOL    HW133224   1.563   2.899   1.754 -3.3487  1.3407  0.5034
 7254SOL    HW233225   1.646   2.963   1.860  2.1497 -1.4835  0.2897
 7255SOL     OW33226   0.284   3.645   3.154  0.1575 -0.4022  0.0752
 7255SOL    HW133227   0.351   3.592   3.111 -0.3515  0.4979 -1.8653
 7255SOL    HW233228   0.281   3.600   3.238 -1.6567  0.3085  0.3766
 7256SOL     OW33229   4.546   0.324   2.114 -0.3784 -0.1889 -0.1618
 7256SOL    HW133230   4.545   0.419   2.120  0.0722 -0.3292  2.0844
 7256SOL    HW233231   4.476   0.301   2.176  0.5660  0.2873  1.0788
 7257SOL     OW33232   0.546   2.685   0.008  0.5960 -0.2669  0.4845
 7257SOL    HW133233   0.634   2.655  17.701  0.4699 -1.3961  1.6563
 7257SOL    HW233234   0.528   2.768  17.677 -0.9333 -1.0116 -0.2837
 7258SOL     OW33235   2.346   0.953   5.009  0.3070 -0.1460 -0.1512
 7258SOL    HW133236   2.380   1.039   5.033  2.3050 -0.3529 -2.2012
 7258SOL    HW233237   2.255   0.971   4.988  0.4015  0.5148  0.0133
 7259SOL     OW33238   1.045   0.424   1.672  0.2441 -0.0741 -0.2975
 7259SOL    HW133239   1.125   0.372   1.679 -0.2848 -0.8263  0.0777
 7259SOL    HW233240   1.082   0.513   1.668 -0.6291  0.3068  0.1267
 7260SOL     OW33241   2.374   0.907  11.548 -0.0902 -0.4861  0.2289
 7260SOL    HW133242   2.280   0.924  11.540  0.2304  1.2400  0.2131
 7260SOL    HW233243   2.392   0.876  11.637 -0.3440  1.2781  0.8877
 7261SOL     OW33244   0.600   1.573  15.929  0.4288 -0.1593  0.4902
 7261SOL    HW133245   0.646   1.548  16.009  2.9777 -0.1417 -0.9762
 7261SOL    HW233246   0.655   1.645  15.899  1.8459 -2.0077 -1.3444
 7262SOL     OW33247   2.866   3.920   3.788 -0.0980 -0.7209  0.1307
 7262SOL    HW133248   2.799   3.906   3.722 -0.2136 -1.6455  0.4472
 7262SOL    HW233249   2.812   3.879   3.856 -0.0138  1.8624  1.7625
 7263SOL     OW33250   2.153   0.832   4.486 -0.5251  0.1583 -0.2254
 7263SOL    HW133251   2.123   0.921   4.469  0.0532 -0.0014 -2.0493
 7263SOL    HW233252   2.239   0.843   4.527 -1.1818 -3.9690  2.2650
 7264SOL     OW33253   1.401   0.910   4.289 -0.1098  0.6559 -0.0316
 7264SOL    HW133254   1.365   0.856   4.360 -0.1258  2.5937  1.4398
 7264SOL    HW233255   1.424   0.841   4.227 -0.7033 -0.7285  1.2624
 7265SOL     OW33256   0.005   3.703   7.871 -0.0506 -0.0574 -0.5165
 7265SOL    HW133257   0.031   3.659   7.951 -0.1845  1.9516  0.6487
 7265SOL    HW233258   4.661   3.649   7.839 -0.6013  0.5125 -0.2504
 7266SOL     OW33259   4.170   2.394  11.876 -0.0837  0.5930 -0.1184
 7266SOL    HW133260   4.120   2.378  11.795  1.8322  0.2283 -1.2312
 7266SOL    HW233261   4.121   2.474  11.896 -2.0873 -0.4071 -0.9666
 7267SOL     OW33262   4.589   4.041   4.516 -0.0610 -0.1270 -0.5091
 7267SOL    HW133263   4.645   4.114   4.490 -0.4848  0.4035  0.0952
 7267SOL    HW233264   4.598   3.973   4.449 -1.0958 -2.3347  1.6052
 7268SOL     OW33265   0.115   0.251   5.717  0.7128 -0.1501 -0.3486
 7268SOL    HW133266   0.045   0.313   5.736  2.3285  2.1145 -1.8425
 7268SOL    HW233267   0.074   0.176   5.673  0.9462 -1.1480  1.1187
 7269SOL     OW33268   4.058   2.643   3.192 -0.4968 -0.3356 -0.7195
 7269SOL    HW133269   4.072   2.725   3.144  0.2182  0.1755  0.3774
 7269SOL    HW233270   4.050   2.575   3.125 -0.2390 -1.9671  0.8909
 7270SOL     OW33271   4.654   1.971   5.573  0.0738 -0.3855  0.3330
 7270SOL    HW133272   4.698   2.035   5.629  1.2093 -0.2941 -0.6590
 7270SOL    HW233273   4.670   2.016   5.490  0.1963  0.0007  0.5655
 7271SOL     OW33274   3.707   3.674  16.017  0.9650  0.1593 -0.2222
 7271SOL    HW133275   3.656   3.669  16.098  0.1401 -1.4583 -0.8351
 7271SOL    HW233276   3.661   3.746  15.975  1.3888  1.7327  1.9731
 7272SOL     OW33277   0.323   2.542   7.124 -0.6743  0.1973 -0.2162
 7272SOL    HW133278   0.369   2.499   7.052 -0.1403  0.5609 -0.0915
 7272SOL    HW233279   0.325   2.476   7.193  0.3792 -0.8848 -1.2828
 7273SOL     OW33280   2.652   4.115  16.099  0.0251 -0.0484 -0.4217
 7273SOL    HW133281   2.579   4.167  16.135  0.1187  0.2474 -0.6550
 7273SOL    HW233282   2.682   4.189  16.046  1.0778 -1.0835 -1.2493
 7274SOL     OW33283   1.891   2.110  14.850 -0.4874 -0.1386 -0.2293
 7274SOL    HW133284   1.950   2.057  14.902 -1.5419 -1.3793 -0.2882
 7274SOL    HW233285   1.934   2.195  14.847  1.3377 -1.0063  2.5226
 7275SOL     OW33286   4.164   3.494   2.723  0.0140 -0.2213 -0.0164
 7275SOL    HW133287   4.152   3.421   2.662 -3.8237 -0.7132  1.3216
 7275SOL    HW233288   4.206   3.446   2.795  1.1167 -0.5540 -0.8718
 7276SOL     OW33289   4.073   4.417  11.639 -0.1299 -0.1258 -0.0999
 7276SOL    HW133290   4.027   4.356  11.698  0.7765 -1.4897 -0.8162
 7276SOL    HW233291   3.999   4.447  11.587  0.4909 -0.4593 -1.1687
 7277SOL     OW33292   1.486   3.629   4.542 -0.0583  1.0738 -0.1020
 7277SOL    HW133293   1.506   3.718   4.570 -3.6781  2.2711 -1.3860
 7277SOL    HW233294   1.399   3.638   4.502  0.8940 -0.0577 -2.4080
 7278SOL     OW33295   4.157   1.074   7.865  0.4216 -0.0526 -0.1801
 7278SOL    HW133296   4.251   1.091   7.862  0.5135 -0.4872  0.2718
 7278SOL    HW233297   4.162   0.992   7.913 -1.0740 -0.3878 -0.5995
 7279SOL     OW33298   1.313   2.921   9.666 -0.5509  0.5597 -0.5065
 7279SOL    HW133299   1.257   2.949   9.739  1.8438 -0.7950  1.8576
 7279SOL    HW233300   1.361   2.997   9.632 -0.0717 -0.2497 -1.6357
 7280SOL     OW33301   4.096   4.225   3.262  0.0438 -0.2426 -0.5544
 7280SOL    HW133302   4.010   4.188   3.281  0.4964 -1.2290 -0.4340
 7280SOL    HW233303   4.074   4.278   3.185 -1.1139 -0.4852 -0.3890
 7281SOL     OW33304   1.047   4.567   2.078  0.1012  0.0197 -0.0019
 7281SOL    HW133305   1.084   4.558   2.166 -0.2253  1.5545  0.2953
 7281SOL    HW233306   0.965   4.614   2.094 -0.1657  0.2823 -2.1744
 7282SOL     OW33307   1.626   3.956   2.172  0.8902 -0.1521 -0.3446
 7282SOL    HW133308   1.652   4.048   2.166  0.5208 -0.0592 -0.5406
 7282SOL    HW233309   1.576   3.974   2.252 -0.4807 -2.0661 -0.7770
 7283SOL     OW33310   3.561   0.887   3.627  0.2069 -0.6157 -0.0993
 7283SOL    HW133311   3.488   0.935   3.665  1.5218  1.6482 -0.4151
 7283SOL    HW233312   3.524   0.800   3.610 -0.8683 -0.0283 -0.7447
 7284SOL     OW33313   4.630   2.662   3.605 -0.3345 -0.1562  0.1564
 7284SOL    HW133314   4.699   2.694   3.663  1.1836 -2.8465 -0.1506
 7284SOL    HW233315   4.581   2.743   3.591 -0.4965 -0.2455  0.2125
 7285SOL     OW33316   4.461   4.362   2.484 -0.3441 -0.1854 -0.4354
 7285SOL    HW133317   4.387   4.423   2.480 -0.4322 -0.1661  1.5674
 7285SOL    HW233318   4.437   4.332   2.572  0.2892  0.5485 -0.0094
 7286SOL     OW33319   0.641   4.314   7.102 -0.1379 -0.6305 -0.0770
 7286SOL    HW133320   0.613   4.272   7.020 -2.4974 -1.3654  1.0891
 7286SOL    HW233321   0.625   4.242   7.163 -0.6508 -1.1146 -0.7773
 7287SOL     OW33322   1.628   3.824   8.735  0.2427 -0.2056  0.0559
 7287SOL    HW133323   1.673   3.908   8.734  0.4969 -0.3925 -3.4885
 7287SOL    HW233324   1.594   3.821   8.824  0.9767  0.0973  0.3479
 7288SOL     OW33325   4.266   1.653   4.821  0.0919  0.3024 -0.0235
 7288SOL    HW133326   4.301   1.638   4.909 -1.2578 -1.5687  0.1969
 7288SOL    HW233327   4.284   1.743   4.796 -0.8707  0.0243 -1.7171
 7289SOL     OW33328   3.003   4.093   5.411  0.1470  0.1310  0.0141
 7289SOL    HW133329   2.955   4.025   5.364 -0.1490  0.7024 -0.5154
 7289SOL    HW233330   3.046   4.044   5.480 -1.1708  1.3555  1.7395
 7290SOL     OW33331   0.834   2.343   4.800 -0.3313  0.1879 -0.4235
 7290SOL    HW133332   0.907   2.282   4.784  0.5263  1.0920  0.0618
 7290SOL    HW233333   0.862   2.378   4.884  0.4754 -0.6489 -0.3440
 7291SOL     OW33334   2.353   4.622  14.169 -0.0572  0.1391 -0.0336
 7291SOL    HW133335   2.443   4.654  14.166 -0.3072  0.7789 -0.7587
 7291SOL    HW233336   2.317   4.696  14.120 -0.2864  1.3546  1.9928
 7292SOL     OW33337   3.601   0.486   1.542 -0.2825  0.2448  0.2420
 7292SOL    HW133338   3.547   0.491   1.621 -0.1333 -1.5396  0.4530
 7292SOL    HW233339   3.651   0.406   1.556 -0.4747  0.0616 -0.1172
 7293SOL     OW33340   2.498   0.681  13.320  0.1180 -0.0309  0.5095
 7293SOL    HW133341   2.580   0.638  13.295  1.2545  0.9956  2.4709
 7293SOL    HW233342   2.467   0.647  13.404  0.2212 -0.2171  0.4711
 7294SOL     OW33343   2.014   0.418   6.135  0.4525 -0.4464  0.2916
 7294SOL    HW133344   2.045   0.427   6.045 -1.0665  1.4865 -0.0382
 7294SOL    HW233345   2.065   0.340   6.159  1.0743 -0.0945  0.1217
 7295SOL     OW33346   0.358   3.304   2.249  0.2646  0.5623 -0.4517
 7295SOL    HW133347   0.275   3.321   2.293  0.3935 -1.2644  0.5078
 7295SOL    HW233348   0.415   3.298   2.326  0.4118  0.1992 -0.5903
 7296SOL     OW33349   3.525   2.901   4.245 -0.2379  0.2876  0.3334
 7296SOL    HW133350   3.496   2.859   4.165  1.6392 -2.0020  0.8689
 7296SOL    HW233351   3.558   2.985   4.213  1.3033 -0.3612  0.2070
 7297SOL     OW33352   1.269   4.595   0.595 -0.7545  0.5100  0.3534
 7297SOL    HW133353   1.239   4.682   0.621 -0.6905  0.2809  1.1722
 7297SOL    HW233354   1.186   4.556   0.566  0.5716 -0.7233 -1.8011
 7298SOL     OW33355   0.637   0.635  12.578 -0.3194 -0.3080 -0.1537
 7298SOL    HW133356   0.725   0.669  12.565 -1.0242  0.1169 -3.6351
 7298SOL    HW233357   0.588   0.702  12.530  3.2899  0.9086 -2.1289
 7299SOL     OW33358   1.629   4.661   3.744  0.5796 -0.9029  0.4535
 7299SOL    HW133359   1.536   4.639   3.741  0.1244  1.0310 -0.2363
 7299SOL    HW233360   1.661   4.635   3.830 -1.5200  0.9313  1.8173
 7300SOL     OW33361   1.831   1.415   7.457 -0.0174 -0.0236  0.0478
 7300SOL    HW133362   1.878   1.333   7.474  2.4086  1.1157 -1.2406
 7300SOL    HW233363   1.745   1.383   7.484  0.6971 -1.7711  0.2875
 7301SOL     OW33364   3.780   2.122   1.798  0.4265  0.1959  0.4753
 7301SOL    HW133365   3.722   2.153   1.728  1.6869  0.5450 -0.4057
 7301SOL    HW233366   3.856   2.108   1.742  0.0304  1.3157 -0.3461
 7302SOL     OW33367   2.714   3.428   3.420  0.3632  0.0961  0.1727
 7302SOL    HW133368   2.658   3.455   3.347 -0.7608 -0.5430  0.8017
 7302SOL    HW233369   2.733   3.514   3.457 -2.8797  0.8468  0.0666
 7303SOL     OW33370   4.536   4.402  14.410 -0.4931  0.1947  0.0821
 7303SOL    HW133371   4.481   4.416  14.333  2.9206  3.5063 -1.7393
 7303SOL    HW233372   4.577   4.487  14.427  2.7284 -0.5408 -4.0686
 7304SOL     OW33373   0.315   1.520  14.541 -0.1551  0.9100  0.0557
 7304SOL    HW133374   0.303   1.614  14.526  2.2479  1.0841 -0.6509
 7304SOL    HW233375   0.390   1.517  14.601 -1.0189 -2.8397  0.9978
 7305SOL     OW33376   0.202   0.527   7.959  0.2404  0.0836  0.2814
 7305SOL    HW133377   0.289   0.555   7.929  1.3852 -0.7264  2.8748
 7305SOL    HW233378   0.188   0.576   8.040 -0.3561  0.4732 -0.0579
 7306SOL     OW33379   0.241   2.510  17.478  0.1235 -0.3661  0.6452
 7306SOL    HW133380   0.234   2.483  17.570 -0.2596 -2.8902 -0.1324
 7306SOL    HW233381   0.216   2.423  17.448  0.2873 -1.4730  3.6561
 7307SOL     OW33382   4.203   0.243   7.227 -0.3492 -0.1870 -0.0813
 7307SOL    HW133383   4.135   0.290   7.276  0.5476  3.3231 -2.2283
 7307SOL    HW233384   4.202   0.157   7.270  0.8509 -0.8554 -1.3889
 7308SOL     OW33385   0.170   0.811   7.246  0.2189  0.3088 -0.3029
 7308SOL    HW133386   0.212   0.737   7.289  1.3152  2.2263  1.9502
 7308SOL    HW233387   0.104   0.828   7.314  1.9748  2.2138  0.9272
 7309SOL     OW33388   4.213   3.942   5.313 -0.5374 -0.3559 -0.5303
 7309SOL    HW133389   4.192   3.935   5.406  0.0243 -0.0628 -0.3803
 7309SOL    HW233390   4.306   3.917   5.316 -0.3848  0.0894 -1.4613
 7310SOL     OW33391   0.140   3.445   4.406 -0.0536  0.5807 -0.3618
 7310SOL    HW133392   0.204   3.481   4.345  0.1941 -0.1368 -0.5237
 7310SOL    HW233393   0.074   3.514   4.392 -0.4721  0.2961  0.2497
 7311SOL     OW33394   2.419   3.394   3.067 -0.4211  0.2884  0.2217
 7311SOL    HW133395   2.425   3.485   3.036  0.8918  0.1974  0.2054
 7311SOL    HW233396   2.325   3.378   3.058  0.0292 -2.1624 -0.0022
 7312SOL     OW33397   3.129   2.626   0.697 -0.9207 -0.1593 -0.6837
 7312SOL    HW133398   3.194   2.667   0.753  1.8215 -1.7138 -2.7402
 7312SOL    HW233399   3.053   2.631   0.756  0.4003  0.8245  0.9307
 7313SOL     OW33400   3.712   2.873   7.278  0.3126 -0.3338 -0.2379
 7313SOL    HW133401   3.753   2.825   7.206 -3.5298 -1.0436 -1.9635
 7313SOL    HW233402   3.634   2.908   7.234  0.3264 -0.3806 -0.2996
 7314SOL     OW33403   2.861   3.001   6.846 -0.4386  0.7106  0.8840
 7314SOL    HW133404   2.807   2.973   6.772  1.2633 -0.8194  0.2359
 7314SOL    HW233405   2.884   2.917   6.885  1.9712  1.0619  0.2309
 7315SOL     OW33406   0.283   1.761   0.634  0.0586  0.5376 -0.2571
 7315SOL    HW133407   0.347   1.812   0.683  0.3856  0.0965 -0.2190
 7315SOL    HW233408   0.201   1.806   0.655 -0.3090 -1.4287  2.5147
 7316SOL     OW33409   1.292   0.326   5.289  0.0703  0.3823 -0.7766
 7316SOL    HW133410   1.268   0.391   5.355  1.9869 -0.1859  0.4931
 7316SOL    HW233411   1.300   0.383   5.214  0.8277  2.2763  0.7456
 7317SOL     OW33412   0.306   1.411  11.592 -0.2191 -0.1724 -0.2990
 7317SOL    HW133413   0.279   1.503  11.584  0.2310 -0.2496 -2.7309
 7317SOL    HW233414   0.397   1.425  11.619 -1.1717  1.5659  1.9653
 7318SOL     OW33415   3.373   4.580  13.541  0.7484 -0.2932 -0.6018
 7318SOL    HW133416   3.303   4.646  13.546  1.0707 -0.0175  0.2784
 7318SOL    HW233417   3.451   4.630  13.566  1.9573 -1.8142 -1.3521
 7319SOL     OW33418   3.931   1.246   7.451 -0.1594 -0.3787 -0.5582
 7319SOL    HW133419   3.965   1.162   7.419  0.0454  0.2911 -2.0902
 7319SOL    HW233420   3.843   1.218   7.477 -0.4037  0.1810 -0.7741
 7320SOL     OW33421   4.492   1.684   9.026  0.1006  0.5875  0.1297
 7320SOL    HW133422   4.556   1.737   8.978 -1.5742  2.7826  0.3276
 7320SOL    HW233423   4.539   1.641   9.097  0.0196  0.2664 -0.0114
 7321SOL     OW33424   1.449   1.969   9.397 -0.2773  0.3711  0.2859
 7321SOL    HW133425   1.497   1.993   9.318 -1.3657 -0.8653 -0.7485
 7321SOL    HW233426   1.521   1.941   9.454  0.4260 -2.5451 -2.0817
 7322SOL     OW33427   3.762   4.166   3.004 -0.1528  0.0236  0.2201
 7322SOL    HW133428   3.706   4.162   2.927  0.1094  2.4750 -0.0873
 7322SOL    HW233429   3.804   4.251   3.000  3.2325 -1.5228  2.5563
 7323SOL     OW33430   2.113   0.141   6.856  0.1529 -0.2763  0.7734
 7323SOL    HW133431   2.081   0.093   6.780 -1.8425  0.9295  0.8717
 7323SOL    HW233432   2.073   0.227   6.849  1.9049  0.4268 -0.6554
 7324SOL     OW33433   0.529   1.500   8.275 -0.1522  0.2889 -0.1923
 7324SOL    HW133434   0.460   1.562   8.297 -0.7787 -0.3360 -0.4234
 7324SOL    HW233435   0.599   1.530   8.334 -0.6691  2.4172 -0.6533
 7325SOL     OW33436   3.992   1.779   1.376  0.1811  0.2290  0.7750
 7325SOL    HW133437   4.015   1.752   1.287  1.9453 -0.9005  1.5671
 7325SOL    HW233438   3.917   1.722   1.389 -1.7526  2.3565 -1.2030
 7326SOL     OW33439   1.092   4.540   3.262  0.2917 -0.2496  0.1550
 7326SOL    HW133440   1.182   4.510   3.255  0.9297  2.0029 -1.5667
 7326SOL    HW233441   1.072   4.564   3.171 -1.0396 -3.3754 -0.3656
 7327SOL     OW33442   1.165   3.149   3.370 -0.1585  0.4562  0.1576
 7327SOL    HW133443   1.169   3.239   3.403  0.8891  0.3810  0.2411
 7327SOL    HW233444   1.254   3.142   3.336  0.2053  1.3593  0.9234
 7328SOL     OW33445   3.077   0.825   0.796  0.0763 -0.7540  0.3894
 7328SOL    HW133446   3.144   0.855   0.734  0.7352  1.4490  2.1611
 7328SOL    HW233447   3.045   0.909   0.830 -0.3395 -0.9645  0.5221
 7329SOL     OW33448   4.405   4.393   5.191  0.4934 -0.9965  0.1060
 7329SOL    HW133449   4.459   4.449   5.246  0.1742  0.3445 -0.9576
 7329SOL    HW233450   4.371   4.454   5.125  0.8464  0.2858  1.1284
 7330SOL     OW33451   2.741   4.355   5.884  0.2296  0.6019  0.2036
 7330SOL    HW133452   2.748   4.409   5.963  1.5529 -0.8466  1.0915
 7330SOL    HW233453   2.797   4.282   5.911  0.1836  0.9872  1.3603
 7331SOL     OW33454   3.398   4.200  12.888 -0.8308 -0.5747  0.1958
 7331SOL    HW133455   3.373   4.209  12.980 -1.1045 -1.8540  0.2534
 7331SOL    HW233456   3.430   4.288  12.867 -0.6427 -0.4116  1.1859
 7332SOL     OW33457   2.284   4.416  16.029  0.3552  0.4191  0.2646
 7332SOL    HW133458   2.259   4.361  16.102 -0.8523 -0.1617 -0.5845
 7332SOL    HW233459   2.266   4.345  15.967 -0.4932  1.2464 -0.4503
 7333SOL     OW33460   2.238   0.799  13.331  0.1134  0.1790  0.6183
 7333SOL    HW133461   2.181   0.724  13.348 -2.0019  1.9328  1.1628
 7333SOL    HW233462   2.330   0.773  13.326 -0.1104 -0.4173 -0.3482
 7334SOL     OW33463   0.842   4.269   8.681  0.2266 -0.2068 -0.1260
 7334SOL    HW133464   0.848   4.351   8.729  0.5558  1.2775 -2.6738
 7334SOL    HW233465   0.749   4.276   8.658 -0.2080 -0.2397  1.6306
 7335SOL     OW33466   1.124   2.777   4.597  0.2441 -0.1528  0.0644
 7335SOL    HW133467   1.142   2.696   4.551 -0.7899  0.5189 -1.4995
 7335SOL    HW233468   1.071   2.824   4.533  2.1693 -0.5463 -1.7795
 7336SOL     OW33469   3.864   0.852   2.093  0.2372  0.0818 -0.4978
 7336SOL    HW133470   3.951   0.873   2.128  0.6601  0.4129 -1.7321
 7336SOL    HW233471   3.810   0.844   2.172  1.6229 -0.0458  0.4406
 7337SOL     OW33472   0.307   2.935   3.753  0.2082 -0.1279 -0.7135
 7337SOL    HW133473   0.238   2.959   3.814  0.9732 -2.2687  1.0020
 7337SOL    HW233474   0.381   2.967   3.805 -1.5368  1.5466  0.7040
 7338SOL     OW33475   3.821   3.077   9.640  0.6333 -0.0211 -0.3780
 7338SOL    HW133476   3.763   3.142   9.600  0.2912  1.0334  1.8340
 7338SOL    HW233477   3.896   3.136   9.630  0.4533  0.0123 -1.5508
 7339SOL     OW33478   4.647   0.022   4.843 -0.7216 -0.1259 -0.0709
 7339SOL    HW133479   4.592   0.043   4.768 -2.0062 -1.3177  0.5262
 7339SOL    HW233480   4.681   0.109   4.862 -1.8528  0.2434  0.2548
 7340SOL     OW33481   0.284   0.245   7.882  0.9962  0.0779 -0.3487
 7340SOL    HW133482   0.274   0.328   7.929 -1.4498  1.3865 -3.1738
 7340SOL    HW233483   0.224   0.188   7.929  1.2870  0.8225  0.9080
 7341SOL     OW33484   2.036   4.548   7.387 -0.3623  0.2033 -0.2054
 7341SOL    HW133485   2.010   4.482   7.323  1.7544 -0.1901 -0.6464
 7341SOL    HW233486   2.034   4.498   7.469  0.8618 -0.3003 -0.4856
 7342SOL     OW33487   0.103   1.231   9.518 -0.1469 -0.2124 -0.2367
 7342SOL    HW133488   0.020   1.275   9.538 -0.0252  0.0816 -0.3807
 7342SOL    HW233489   0.086   1.213   9.425  2.8786 -2.7958 -0.2746
 7343SOL     OW33490   3.944   0.062   3.202 -0.2534  0.7121 -0.3191
 7343SOL    HW133491   3.907   4.709   3.236  1.6618  0.4895  1.2424
 7343SOL    HW233492   4.015   0.028   3.149 -2.3096  0.0937 -2.6482
 7344SOL     OW33493   0.743   0.559   2.576 -0.0343  0.6583  0.4460
 7344SOL    HW133494   0.821   0.598   2.616 -0.3016  0.5480  1.0702
 7344SOL    HW233495   0.787   0.506   2.509  1.4050  0.2083  1.7417
 7345SOL     OW33496   3.224   0.559   5.027 -0.0119 -0.0750 -0.3921
 7345SOL    HW133497   3.251   0.606   4.949 -0.9779 -0.6099 -1.0471
 7345SOL    HW233498   3.195   0.626   5.090 -1.4125 -0.8010 -0.2507
 7346SOL     OW33499   0.350   0.823   8.635  0.4271 -0.4211  0.0286
 7346SOL    HW133500   0.360   0.811   8.730 -0.4733 -0.6240  0.0954
 7346SOL    HW233501   0.354   0.917   8.622 -2.1008 -0.1972  0.9525
 7347SOL     OW33502   4.686   1.317   4.774 -0.6785  0.0575 -0.4756
 7347SOL    HW133503   4.666   1.247   4.837 -1.3082 -0.7091 -1.5218
 7347SOL    HW233504   4.595   1.342   4.758 -0.7677  0.9893  1.3966
 7348SOL     OW33505   2.232   4.144  11.457  0.0180  0.5794 -0.7444
 7348SOL    HW133506   2.226   4.062  11.506 -0.0098  0.9013 -0.2142
 7348SOL    HW233507   2.309   4.186  11.496 -0.3899  2.6826 -2.2011
 7349SOL     OW33508   1.000   2.992   1.744  0.8339  0.2666 -0.0137
 7349SOL    HW133509   1.013   2.898   1.738  0.7025  0.2535 -0.0800
 7349SOL    HW233510   1.039   3.007   1.830 -1.2762 -1.0643  1.1665
 7350SOL     OW33511   2.486   1.860  17.540 -0.1969  0.2207  0.2813
 7350SOL    HW133512   2.417   1.823  17.484 -0.3346  1.1017 -0.1231
 7350SOL    HW233513   2.502   1.784  17.597  1.2745  2.2335  2.5286
 7351SOL     OW33514   3.934   2.713   2.195 -0.5046  0.1561 -0.2247
 7351SOL    HW133515   3.889   2.644   2.147 -1.9119  1.5272 -0.8964
 7351SOL    HW233516   3.914   2.785   2.135 -1.5684  1.4383  1.6518
 7352SOL     OW33517   2.228   3.124   2.839 -0.3062  0.2126 -0.1298
 7352SOL    HW133518   2.315   3.145   2.806 -0.4774  0.9094 -0.1475
 7352SOL    HW233519   2.201   3.053   2.780 -1.4859  0.6655 -0.1395
 7353SOL     OW33520   3.797   1.850   3.549  0.1952  0.1627  0.0478
 7353SOL    HW133521   3.726   1.828   3.488  1.4757 -0.2179 -1.3174
 7353SOL    HW233522   3.823   1.937   3.516  0.8048 -0.2624 -0.6055
 7354SOL     OW33523   2.726   0.306  16.977  0.2219 -0.4073  0.4126
 7354SOL    HW133524   2.764   0.389  16.949 -1.8245 -0.0663 -1.3999
 7354SOL    HW233525   2.649   0.298  16.920 -0.2050  3.1367  0.5011
 7355SOL     OW33526   0.566   1.561  17.351  0.3537 -0.4176 -0.0992
 7355SOL    HW133527   0.579   1.598  17.264 -0.2490  0.5494  0.2272
 7355SOL    HW233528   0.471   1.553  17.359  0.4780 -1.3525  0.5190
 7356SOL     OW33529   1.846   1.565   3.458 -0.1001 -0.1495  0.4553
 7356SOL    HW133530   1.796   1.483   3.459  1.4033 -1.0153  3.4741
 7356SOL    HW233531   1.902   1.550   3.382  2.0887 -1.1056  2.2759
 7357SOL     OW33532   3.257   3.299   9.740  0.9223 -0.4830 -0.1041
 7357SOL    HW133533   3.165   3.301   9.766  0.5313  1.5299 -1.6462
 7357SOL    HW233534   3.272   3.205   9.729 -1.9450 -0.8647 -0.7816
 7358SOL     OW33535   0.675   3.245   6.979  0.2212 -0.1728  0.3924
 7358SOL    HW133536   0.729   3.240   6.900  0.9333 -0.1814  0.8855
 7358SOL    HW233537   0.626   3.163   6.968 -1.6040  0.8929  0.5950
 7359SOL     OW33538   1.055   1.953   9.542  0.4680 -0.6514  0.2625
 7359SOL    HW133539   1.111   2.020   9.503  0.3282 -1.5944 -1.5604
 7359SOL    HW233540   0.976   2.005   9.559  0.8253 -0.0241  0.0167
 7360SOL     OW33541   1.167   1.686   5.912  0.1756 -0.1856 -0.0704
 7360SOL    HW133542   1.246   1.650   5.952  0.5038  0.1858 -0.3951
 7360SOL    HW233543   1.097   1.632   5.948 -0.3718  1.5688  1.5034
 7361SOL     OW33544   2.438   2.815  15.370 -0.4212  0.5780  0.0966
 7361SOL    HW133545   2.437   2.899  15.326 -0.6337  0.4959 -0.0586
 7361SOL    HW233546   2.343   2.798  15.374 -0.0479 -1.3466  1.1096
 7362SOL     OW33547   2.919   3.845  15.926  0.2587  0.4851  0.0567
 7362SOL    HW133548   2.866   3.799  15.990  0.1382  2.3791  1.3430
 7362SOL    HW233549   2.970   3.778  15.880 -1.9345  0.8975 -2.9538
 7363SOL     OW33550   2.106   3.996  16.299  0.4592  0.4528 -0.0441
 7363SOL    HW133551   2.097   3.994  16.394 -2.0309 -1.6683 -0.3414
 7363SOL    HW233552   2.126   4.089  16.286 -0.5461  0.6945  0.1883
 7364SOL     OW33553   3.529   1.430   4.426  0.2541 -0.1116 -0.3557
 7364SOL    HW133554   3.612   1.469   4.400  0.4732 -1.2483 -1.3745
 7364SOL    HW233555   3.527   1.445   4.520  2.2573 -0.1703 -0.3084
 7365SOL     OW33556   0.377   3.155   1.502 -0.8517  0.3605 -0.2552
 7365SOL    HW133557   0.393   3.106   1.422 -0.4696  1.0829 -0.6217
 7365SOL    HW233558   0.466   3.180   1.526 -0.9870 -0.8726  1.5670
 7366SOL     OW33559   0.784   2.624   5.694 -0.8590  0.2577 -0.3005
 7366SOL    HW133560   0.708   2.680   5.682 -0.1499  1.6127  1.4488
 7366SOL    HW233561   0.853   2.687   5.716 -2.1050  1.7038 -0.5355
 7367SOL     OW33562   3.352   1.980   5.434  0.6146  0.2053  0.2269
 7367SOL    HW133563   3.297   2.058   5.429 -3.7326 -2.7143  1.5712
 7367SOL    HW233564   3.422   2.015   5.488 -0.9455  1.0536  1.7082
 7368SOL     OW33565   2.300   0.733  10.278  0.6048  0.2812  0.3120
 7368SOL    HW133566   2.388   0.697  10.289  1.1682  1.2615 -1.0081
 7368SOL    HW233567   2.313   0.826  10.257  1.5830 -0.0089 -0.3773
 7369SOL     OW33568   3.114   1.469  16.516  0.5938 -0.0818 -0.3659
 7369SOL    HW133569   3.034   1.448  16.468  0.4325  0.8963 -0.5136
 7369SOL    HW233570   3.176   1.486  16.446  1.8553 -1.0537  0.5023
 7370SOL     OW33571   4.676   3.121   9.193 -0.7169 -0.7646 -0.1041
 7370SOL    HW133572   4.595   3.081   9.162 -1.3397 -1.7314  2.8357
 7370SOL    HW233573   4.701   3.056   9.259 -0.8881 -1.5554 -0.8154
 7371SOL     OW33574   0.906   0.080   3.133  0.3628  0.3793  0.4859
 7371SOL    HW133575   0.872   0.072   3.222  0.1766  0.3428  0.4094
 7371SOL    HW233576   0.834   0.127   3.092 -2.1772 -3.4311  0.5785
 7372SOL     OW33577   3.299   1.344   3.709  0.0498  0.4192 -0.5248
 7372SOL    HW133578   3.297   1.408   3.638 -0.0290 -0.0164 -0.9212
 7372SOL    HW233579   3.206   1.336   3.730  0.2829 -1.7557 -0.3530
 7373SOL     OW33580   2.332   4.392   7.243 -0.0614 -0.2032 -0.0212
 7373SOL    HW133581   2.315   4.470   7.189 -0.7458 -0.8717 -0.7737
 7373SOL    HW233582   2.395   4.333   7.202  0.9226  1.3327 -0.7310
 7374SOL     OW33583   4.126   1.074   8.706  0.2261 -0.0089 -0.0747
 7374SOL    HW133584   4.193   1.106   8.766 -0.0705  0.1585  0.1691
 7374SOL    HW233585   4.071   1.149   8.680  0.1331 -0.8695 -2.3194
 7375SOL     OW33586   2.715   0.579   5.706  0.2869  0.4491 -0.7840
 7375SOL    HW133587   2.645   0.612   5.763  1.1857  0.9844  0.0184
 7375SOL    HW233588   2.707   0.486   5.728 -0.4125  0.2905 -1.6982
 7376SOL     OW33589   3.958   2.362   7.211 -0.2855  0.3854 -0.5628
 7376SOL    HW133590   4.000   2.358   7.297 -0.2577  0.2163 -0.5855
 7376SOL    HW233591   3.929   2.272   7.198  0.1537  0.4741 -2.1341
 7377SOL     OW33592   3.690   0.930   9.603  0.1532  0.7691  0.2361
 7377SOL    HW133593   3.680   0.941   9.698  2.0986  0.7947  0.4512
 7377SOL    HW233594   3.644   0.846   9.594  1.1467  0.1456  0.9059
 7378SOL     OW33595   0.139   1.452   3.578 -0.2630  0.1047  0.7727
 7378SOL    HW133596   0.169   1.454   3.669  0.8334  0.5482  0.4001
 7378SOL    HW233597   0.050   1.485   3.592 -0.5504  0.1236 -1.1273
 7379SOL     OW33598   2.572   4.403  15.908 -0.1851  0.0344  0.1716
 7379SOL    HW133599   2.556   4.460  15.983 -0.6141 -2.0813  1.6985
 7379SOL    HW233600   2.504   4.336  15.908  0.3344 -0.4993 -0.1572
 7380SOL     OW33601   2.754   0.052   6.753  0.1154  0.2769 -0.3664
 7380SOL    HW133602   2.719   0.006   6.677  0.8060 -0.0088 -0.5074
 7380SOL    HW233603   2.805   4.711   6.794  0.3917  0.2188 -0.8128
 7381SOL     OW33604   1.880   1.308   5.646 -0.4938  0.0019  0.1646
 7381SOL    HW133605   1.858   1.256   5.568 -1.3373  0.5933  0.0069
 7381SOL    HW233606   1.797   1.345   5.676 -0.8994  0.4702 -1.5492
 7382SOL     OW33607   3.274   3.713   7.012 -0.1059  0.2908  0.4200
 7382SOL    HW133608   3.286   3.806   7.033  2.9595  0.0634 -0.3895
 7382SOL    HW233609   3.319   3.686   7.093 -0.0054 -0.4390  0.1172
 7383SOL     OW33610   3.911   1.312   8.821  0.2582 -0.1837  0.0350
 7383SOL    HW133611   4.002   1.295   8.798 -0.2339 -1.3523 -1.0717
 7383SOL    HW233612   3.887   1.222   8.845 -0.8660  0.1195  0.0184
 7384SOL     OW33613   1.826   4.459   1.054 -0.2588 -0.1981 -0.1674
 7384SOL    HW133614   1.746   4.409   1.042 -1.4416  1.9441 -1.1771
 7384SOL    HW233615   1.886   4.384   1.052  0.7145  0.5739 -0.2609
 7385SOL     OW33616   4.147   0.670   7.429  0.6307  0.9533 -0.3198
 7385SOL    HW133617   4.241   0.663   7.412  0.5177 -2.2204  0.3341
 7385SOL    HW233618   4.138   0.715   7.513  1.7899  0.0109  0.3146
 7386SOL     OW33619   4.359   2.422   5.626 -0.2638 -0.3840 -0.2008
 7386SOL    HW133620   4.356   2.512   5.657 -1.0734 -0.5658  0.2380
 7386SOL    HW233621   4.328   2.434   5.536  0.2057 -1.0359 -0.4480
 7387SOL     OW33622   1.088   3.295   1.197  0.1454  0.0116  0.3495
 7387SOL    HW133623   1.070   3.207   1.230 -2.2878 -0.0210 -1.1211
 7387SOL    HW233624   1.000   3.315   1.167 -0.5321 -2.1327  0.8757
 7388SOL     OW33625   0.429   0.195   6.769 -0.3846  0.0112  0.3435
 7388SOL    HW133626   0.450   0.113   6.813  0.3856  0.0860  0.1178
 7388SOL    HW233627   0.518   0.223   6.748 -0.0122 -0.9563  0.6324
 7389SOL     OW33628   4.234   3.972   4.068 -0.6755 -0.2437 -0.9430
 7389SOL    HW133629   4.321   3.999   4.040 -0.5691 -0.8579 -1.2046
 7389SOL    HW233630   4.183   4.053   4.064 -0.3945 -0.0232 -0.0277
 7390SOL     OW33631   4.688   2.127   5.362  0.0065 -1.1854 -0.1071
 7390SOL    HW133632   4.690   2.214   5.323  2.2538 -1.6460 -1.0505
 7390SOL    HW233633   4.717   2.077   5.285  0.3591 -0.8695 -0.1803
 7391SOL     OW33634   3.837   3.265   3.548  0.0538 -0.2624  0.9132
 7391SOL    HW133635   3.753   3.305   3.525 -0.2426 -1.5600 -0.2540
 7391SOL    HW233636   3.858   3.318   3.625 -1.0767  0.3692  0.7836
 7392SOL     OW33637   1.394   2.060  10.132  0.1218 -0.0707  0.0542
 7392SOL    HW133638   1.382   1.975  10.175  3.3296 -1.0937 -1.0722
 7392SOL    HW233639   1.386   2.022  10.045 -1.8936  3.4889 -1.3379
 7393SOL     OW33640   1.777   3.529   3.381 -0.2205  0.0167 -0.4999
 7393SOL    HW133641   1.804   3.574   3.301  1.5337 -0.0018  0.0901
 7393SOL    HW233642   1.863   3.519   3.421 -0.1584 -1.5072 -1.0271
 7394SOL     OW33643   3.816   3.097   8.412  0.0978  0.2455 -0.4966
 7394SOL    HW133644   3.787   3.169   8.355  0.9039 -0.8444 -2.2897
 7394SOL    HW233645   3.882   3.140   8.466 -1.7521  0.6838  1.4084
 7395SOL     OW33646   2.090   0.748   3.683 -0.4804 -0.4519  0.0586
 7395SOL    HW133647   2.129   0.756   3.771  0.0398 -0.0110 -0.2090
 7395SOL    HW233648   2.164   0.707   3.638  0.0366  2.5941 -1.8272
 7396SOL     OW33649   4.404   1.329   3.694  0.0333 -0.0344 -0.1597
 7396SOL    HW133650   4.450   1.265   3.748 -0.0779 -0.3660 -0.4597
 7396SOL    HW233651   4.321   1.336   3.741  1.1084 -2.8224  2.1575
 7397SOL     OW33652   3.516   1.319   2.983  0.1013 -0.5378 -0.1456
 7397SOL    HW133653   3.508   1.299   3.076  3.4634 -0.4926  0.1768
 7397SOL    HW233654   3.572   1.245   2.958  0.1509 -0.4154 -0.4010
 7398SOL     OW33655   1.808   1.658   6.063  0.3649 -0.3253  0.2397
 7398SOL    HW133656   1.785   1.716   6.136  1.6887  0.2815  0.1579
 7398SOL    HW233657   1.836   1.723   5.999 -0.0913 -0.1769  0.1842
 7399SOL     OW33658   3.728   4.258   5.441 -0.5290  0.5124 -0.7451
 7399SOL    HW133659   3.673   4.192   5.484 -0.6889  2.3190  1.8467
 7399SOL    HW233660   3.696   4.254   5.351  2.2421  2.0392 -1.7650
 7400SOL     OW33661   2.185   4.149   5.318  0.1801 -0.2579 -0.2475
 7400SOL    HW133662   2.093   4.167   5.334  0.5016  0.0420  1.2962
 7400SOL    HW233663   2.188   4.144   5.222  0.5790 -2.6286 -0.0976
 7401SOL     OW33664   4.314   4.136   8.117  0.0187  0.1618 -0.5655
 7401SOL    HW133665   4.364   4.201   8.067  2.4276 -0.3836  1.1212
 7401SOL    HW233666   4.276   4.084   8.046  2.8440 -0.5131 -1.5702
 7402SOL     OW33667   1.519   3.669   5.899 -0.5401 -0.2706  0.5559
 7402SOL    HW133668   1.556   3.598   5.950 -1.2507  0.3244  1.8986
 7402SOL    HW233669   1.599   3.722   5.898  0.5831 -1.9396  2.7001
 7403SOL     OW33670   1.012   2.328   0.872  0.6058 -0.6814 -0.4825
 7403SOL    HW133671   1.064   2.284   0.805  1.4504 -1.6117  0.7780
 7403SOL    HW233672   0.931   2.276   0.882 -0.4993  0.7924 -1.7844
 7404SOL     OW33673   2.513   4.084   6.871  0.2967 -0.1917  0.5433
 7404SOL    HW133674   2.609   4.086   6.877  0.4490 -1.6345 -1.6414
 7404SOL    HW233675   2.507   4.068   6.777  0.8141  0.6975  0.3492
 7405SOL     OW33676   2.093   3.023   9.604  0.1105 -0.3398 -0.2122
 7405SOL    HW133677   2.045   2.968   9.667  1.6025 -1.7354 -0.2970
 7405SOL    HW233678   2.043   3.006   9.524  0.0601 -2.0219  0.1767
 7406SOL     OW33679   3.308   2.862  17.607  0.0597  0.5789  0.7013
 7406SOL    HW133680   3.344   2.938  17.654  0.8073 -0.4547  1.8130
 7406SOL    HW233681   3.282   2.922  17.538  2.9389 -1.4235 -2.1133
 7407SOL     OW33682   2.440   0.224  17.229 -0.8798  0.0203  0.0481
 7407SOL    HW133683   2.525   0.180  17.224 -0.0389  1.4968  1.5171
 7407SOL    HW233684   2.432   0.252  17.138 -0.7270  0.1923  0.0877
 7408SOL     OW33685   2.124   0.952  17.305 -0.0119 -0.3785 -0.3339
 7408SOL    HW133686   2.061   0.892  17.265 -0.5800  0.2583 -0.3980
 7408SOL    HW233687   2.190   0.889  17.334  0.6275  0.2878 -0.3731
 7409SOL     OW33688   4.592   3.674  10.848 -0.3597  0.2193  0.0417
 7409SOL    HW133689   4.612   3.759  10.889 -0.8671  1.0682 -1.4850
 7409SOL    HW233690   4.605   3.687  10.754  1.4499 -2.1426 -0.0259
 7410SOL     OW33691   3.528   2.318   7.346  0.2571 -0.9770  0.3555
 7410SOL    HW133692   3.588   2.254   7.384  1.7366  1.2143  1.7396
 7410SOL    HW233693   3.591   2.387   7.327  1.9590 -3.1081 -1.6147
 7411SOL     OW33694   1.636   0.777   9.775 -0.3491  0.0690 -0.2716
 7411SOL    HW133695   1.703   0.839   9.803 -0.7519 -0.5808  2.1016
 7411SOL    HW233696   1.582   0.847   9.738 -0.8326 -0.4975 -0.6500
 7412SOL     OW33697   0.243   2.252   6.630  0.3378 -0.5698  0.3634
 7412SOL    HW133698   0.216   2.165   6.601  0.4254  0.0196 -1.5017
 7412SOL    HW233699   0.321   2.273   6.579 -1.6541  0.0205 -2.4108
 7413SOL     OW33700   2.008   0.691  17.131 -0.4301  0.0826  0.5603
 7413SOL    HW133701   1.915   0.675  17.144 -0.6129  0.6244 -0.1031
 7413SOL    HW233702   1.993   0.738  17.049  0.8476 -0.0348  0.2534
 7414SOL     OW33703   0.869   4.660   2.853  0.0815 -0.1691 -0.4002
 7414SOL    HW133704   0.897   0.003   2.911  0.5291  0.8340 -1.8318
 7414SOL    HW233705   0.776   4.674   2.835 -0.5976 -2.6131  1.2494
 7415SOL     OW33706   2.066   0.073   0.334  0.0200 -1.0598 -0.0500
 7415SOL    HW133707   1.983   0.085   0.287  0.2838 -0.4878 -0.3681
 7415SOL    HW233708   2.120   0.145   0.302 -2.7699  2.2280  2.7564
 7416SOL     OW33709   3.140   0.415  15.117  0.0092  0.3677 -0.0364
 7416SOL    HW133710   3.063   0.417  15.059 -0.4854 -1.7267  0.5509
 7416SOL    HW233711   3.168   0.504  15.097 -0.9676  0.2891 -1.7461
 7417SOL     OW33712   0.287   2.980  11.189 -0.1589 -0.2200  0.0700
 7417SOL    HW133713   0.279   3.029  11.270  0.1526  1.8878 -1.1703
 7417SOL    HW233714   0.198   2.953  11.166  0.6614 -1.8431 -1.2258
 7418SOL     OW33715   3.926   3.019   2.449 -0.0808 -0.0062  0.2757
 7418SOL    HW133716   3.949   2.946   2.392  1.3091  1.4541 -1.0208
 7418SOL    HW233717   3.862   3.059   2.390 -1.3119 -0.8481  1.0351
 7419SOL     OW33718   0.332   1.199  11.411  0.0135  0.1078 -0.3562
 7419SOL    HW133719   0.248   1.226  11.373  1.0656  0.4262 -2.4468
 7419SOL    HW233720   0.362   1.289  11.425  1.8327 -0.4107 -1.0138
 7420SOL     OW33721   0.250   3.119   8.227 -0.5759  0.9930  0.4818
 7420SOL    HW133722   0.321   3.138   8.289 -1.2412 -0.0721  1.5809
 7420SOL    HW233723   0.284   3.157   8.147  0.4774  1.6156  1.2310
 7421SOL     OW33724   2.305   1.835   4.422 -0.1217  0.5385  0.3330
 7421SOL    HW133725   2.272   1.924   4.411  1.5271  1.0911 -0.1303
 7421SOL    HW233726   2.270   1.793   4.343 -1.3968 -0.6774  1.5544
 7422SOL     OW33727   1.552   2.804   1.330 -0.3226 -0.5195  0.4205
 7422SOL    HW133728   1.620   2.820   1.264 -0.7454  0.5552  0.2359
 7422SOL    HW233729   1.479   2.832   1.274  0.0014 -0.6716 -0.0693
 7423SOL     OW33730   0.622   2.030   4.493 -0.0129 -0.2517 -0.0216
 7423SOL    HW133731   0.572   1.948   4.487 -1.5195  0.7138 -0.6078
 7423SOL    HW233732   0.570   2.079   4.556  0.9677  0.6530  0.0856
 7424SOL     OW33733   4.560   2.879   3.949 -0.4248 -0.0192 -0.0777
 7424SOL    HW133734   4.508   2.947   3.991 -1.5326 -0.5420 -0.6231
 7424SOL    HW233735   4.511   2.874   3.867 -1.6703  0.9046  0.6201
 7425SOL     OW33736   2.451   1.984   8.277  0.1073 -0.5335 -0.1808
 7425SOL    HW133737   2.360   1.990   8.303 -0.9474 -1.2344 -3.7112
 7425SOL    HW233738   2.489   2.055   8.328 -0.0256 -0.9551  0.5077
 7426SOL     OW33739   2.852   2.159   9.290 -0.5170  0.6062  0.1528
 7426SOL    HW133740   2.924   2.218   9.309 -0.8013  1.2075 -0.6615
 7426SOL    HW233741   2.781   2.194   9.345 -3.2002  0.6700 -3.3755
 7427SOL     OW33742   1.589   0.824   7.803 -0.1528  0.0727 -0.3708
 7427SOL    HW133743   1.681   0.845   7.785 -0.6437  0.9973 -1.8553
 7427SOL    HW233744   1.566   0.802   7.713  0.2351  1.6895 -0.8750
 7428SOL     OW33745   2.056   3.060   7.706 -0.5572  0.2202  0.1867
 7428SOL    HW133746   2.065   3.106   7.622  0.2985 -0.4157 -0.0675
 7428SOL    HW233747   2.006   3.123   7.759  1.0456  1.2444  0.4648
 7429SOL     OW33748   0.590   4.552   3.603 -0.1018  0.4466 -0.5045
 7429SOL    HW133749   0.520   4.588   3.548 -0.3480 -0.5104 -0.8082
 7429SOL    HW233750   0.643   4.517   3.532 -0.3872  1.1162 -1.0555
 7430SOL     OW33751   1.956   2.971  15.701 -0.7525  0.3217  0.7197
 7430SOL    HW133752   1.870   2.979  15.659 -1.9850  1.2894  3.4359
 7430SOL    HW233753   1.951   3.050  15.754 -1.2569 -0.0556  1.2415
 7431SOL     OW33754   2.865   2.187   0.006 -0.3236 -0.3805  0.3437
 7431SOL    HW133755   2.772   2.210  17.713  0.2145  1.1537 -2.1340
 7431SOL    HW233756   2.869   2.176   0.101  0.6161 -0.6079  0.2743
 7432SOL     OW33757   3.444   2.317  12.830  0.6279 -0.2004  0.0887
 7432SOL    HW133758   3.478   2.319  12.919  3.4578  2.0561 -1.0326
 7432SOL    HW233759   3.418   2.226  12.814  2.6133 -0.8549  0.6338
 7433SOL     OW33760   4.251   2.733   2.264  0.4226  0.0245  0.1605
 7433SOL    HW133761   4.299   2.651   2.248 -0.4773 -0.5730  0.5033
 7433SOL    HW233762   4.167   2.697   2.294  0.4148 -1.7980 -2.0853
 7434SOL     OW33763   4.569   1.699   4.532  0.1369  0.2317 -0.3147
 7434SOL    HW133764   4.503   1.641   4.569  2.0282 -1.0205  1.1172
 7434SOL    HW233765   4.550   1.695   4.439  0.4180 -0.2976 -0.3487
 7435SOL     OW33766   2.494   4.560  16.193 -0.4699 -0.6677 -0.1390
 7435SOL    HW133767   2.495   4.646  16.150 -0.7119  0.0275  1.2661
 7435SOL    HW233768   2.399   4.553  16.199 -0.2805 -0.7280  2.6647
 7436SOL     OW33769   1.731   1.690   7.775 -0.1086  0.3063  0.0050
 7436SOL    HW133770   1.733   1.722   7.685  1.7501 -0.3702 -0.1991
 7436SOL    HW233771   1.691   1.603   7.775 -2.6685  1.5210 -1.5143
 7437SOL     OW33772   3.557   2.528   7.928  0.2598 -0.0098 -0.1628
 7437SOL    HW133773   3.501   2.588   7.878  2.1517  2.8640  1.1357
 7437SOL    HW233774   3.510   2.525   8.012  2.4282  0.2420  1.0612
 7438SOL     OW33775   2.352   2.232  14.829 -0.1904 -0.3141 -0.5037
 7438SOL    HW133776   2.311   2.237  14.916  3.0161  2.0387  0.8739
 7438SOL    HW233777   2.427   2.175  14.850 -0.0377 -0.1261 -0.5395
 7439SOL     OW33778   4.059   3.532   6.387 -0.2418 -0.7108 -0.2370
 7439SOL    HW133779   4.083   3.526   6.295 -0.1001 -2.6504 -0.0774
 7439SOL    HW233780   4.125   3.474   6.426  1.0897 -0.8714 -2.7499
 7440SOL     OW33781   4.314   1.942   4.796  0.2202  0.6199 -0.1708
 7440SOL    HW133782   4.257   1.970   4.725  0.4396 -1.9321 -1.3585
 7440SOL    HW233783   4.404   1.963   4.770 -0.0587  1.8234 -0.1544
 7441SOL     OW33784   0.765   2.596   4.034 -0.4531  0.6116  0.5839
 7441SOL    HW133785   0.836   2.606   3.971 -1.2299  3.6492  0.2169
 7441SOL    HW233786   0.681   2.598   3.988 -0.2928  0.9414  0.3157
 7442SOL     OW33787   3.985   2.252  13.634  0.0682  0.2524 -0.1492
 7442SOL    HW133788   3.983   2.173  13.688  1.3013 -0.4935 -1.1712
 7442SOL    HW233789   3.931   2.312  13.684 -0.7933  0.4297 -1.2954
 7443SOL     OW33790   4.626   3.898  10.250 -0.2487  0.1833  0.2049
 7443SOL    HW133791   4.602   3.875  10.340 -2.2988 -1.5885 -0.8109
 7443SOL    HW233792   4.634   3.809  10.217  2.3741 -0.4770  2.6122
 7444SOL     OW33793   0.014   1.754   8.555  0.3650 -0.1141  0.0237
 7444SOL    HW133794   4.689   1.685   8.515  1.2315  0.1688 -1.6021
 7444SOL    HW233795   0.103   1.738   8.523  1.2395  4.2753  0.3184
 7445SOL     OW33796   2.426   3.842   4.872 -0.0822 -0.2899 -0.0767
 7445SOL    HW133797   2.374   3.922   4.882 -0.5690 -0.4693 -1.2016
 7445SOL    HW233798   2.484   3.859   4.947 -2.0327  1.1365  1.1275
 7446SOL     OW33799   3.303   1.599   7.665  0.0154  0.5408 -0.3591
 7446SOL    HW133800   3.238   1.644   7.610 -1.5388 -0.1726  0.8869
 7446SOL    HW233801   3.249   1.558   7.732  0.5108 -1.9776 -1.5253
 7447SOL     OW33802   1.700   3.927   7.107 -0.4909 -0.4339  0.0469
 7447SOL    HW133803   1.752   4.005   7.127 -1.7254  0.7177 -1.2973
 7447SOL    HW233804   1.679   3.896   7.195  0.7220 -0.0359  0.4750
 7448SOL     OW33805   1.053   2.164   4.853  0.6626  0.4827  0.2225
 7448SOL    HW133806   1.105   2.167   4.934  0.6448 -1.5707  0.3112
 7448SOL    HW233807   1.041   2.069   4.845  0.2045  0.5517  0.1083
 7449SOL     OW33808   3.821   4.173   3.282 -0.2859  0.1302 -0.3263
 7449SOL    HW133809   3.802   4.139   3.195 -0.9023  0.6816 -0.4119
 7449SOL    HW233810   3.738   4.170   3.329  0.7922 -0.6994  1.5313
 7450SOL     OW33811   4.133   0.175   4.457 -0.1501  0.8220  0.2037
 7450SOL    HW133812   4.051   0.208   4.493 -1.3218 -0.9179 -0.8407
 7450SOL    HW233813   4.118   0.190   4.364 -1.3578 -1.0235  0.0936
 7451SOL     OW33814   0.271   2.129   4.574 -0.1196  0.5041 -0.6890
 7451SOL    HW133815   0.193   2.094   4.618  2.4260 -1.3605  2.3433
 7451SOL    HW233816   0.247   2.107   4.484  0.8710  0.3694 -0.9234
 7452SOL     OW33817   0.766   4.609   7.937  0.3300  0.0117 -0.2565
 7452SOL    HW133818   0.695   4.550   7.962  0.8039  1.0883  3.7564
 7452SOL    HW233819   0.790   4.575   7.851 -0.3821  0.3500 -0.5870
 7453SOL     OW33820   4.330   4.466  11.523 -0.3968 -0.4637 -0.3511
 7453SOL    HW133821   4.252   4.471  11.578  0.5237 -0.2301  0.9635
 7453SOL    HW233822   4.288   4.502  11.445  1.3743  0.9812 -0.6360
 7454SOL     OW33823   0.170   0.140  15.170 -1.1221  0.4330  0.4181
 7454SOL    HW133824   0.202   0.061  15.127 -3.5620 -0.1692 -0.2895
 7454SOL    HW233825   0.219   0.206  15.121  1.6634 -1.4290  0.6418
 7455SOL     OW33826   1.811   3.620  14.916 -0.1809 -0.0140 -0.3468
 7455SOL    HW133827   1.787   3.647  14.828 -1.5285 -2.1731 -0.6685
 7455SOL    HW233828   1.747   3.551  14.937  0.1184 -0.1074  0.2676
 7456SOL     OW33829   1.547   0.100   4.618  0.4989  0.1664 -0.4851
 7456SOL    HW133830   1.530   0.007   4.632  2.9893 -0.0951  0.6650
 7456SOL    HW233831   1.478   0.117   4.553 -0.3948  2.8968  1.1730
 7457SOL     OW33832   0.964   3.551   6.799 -0.1284 -0.4879  0.3423
 7457SOL    HW133833   0.891   3.493   6.780  0.9021 -1.1887 -1.4900
 7457SOL    HW233834   1.036   3.527   6.741 -1.5771  0.2164 -1.7208
 7458SOL     OW33835   4.144   1.324   3.857  0.1076  0.2205  0.4923
 7458SOL    HW133836   4.083   1.374   3.803 -1.1947 -0.2616  1.5285
 7458SOL    HW233837   4.160   1.397   3.917  2.7944 -0.7916  1.0290
 7459SOL     OW33838   1.431   1.323   5.807 -0.2372 -0.2794  0.3047
 7459SOL    HW133839   1.413   1.414   5.831 -0.5326 -0.2377 -0.0687
 7459SOL    HW233840   1.508   1.347   5.757 -0.7248 -0.1572 -0.3881
 7460SOL     OW33841   1.797   0.506  14.653 -0.0658 -0.1521  0.3357
 7460SOL    HW133842   1.767   0.415  14.662  1.6369 -0.8108 -0.5287
 7460SOL    HW233843   1.782   0.540  14.741 -1.6718  1.6063 -0.6466
 7461SOL     OW33844   2.524   4.488   1.009  0.2763  0.4550 -0.5021
 7461SOL    HW133845   2.611   4.499   0.971  0.3875 -0.1252 -0.4042
 7461SOL    HW233846   2.483   4.437   0.939  0.4507 -0.0081 -0.2599
 7462SOL     OW33847   0.407   0.966   2.814  0.2083  0.0821  0.1825
 7462SOL    HW133848   0.363   1.048   2.795  2.3000  1.0424 -0.4954
 7462SOL    HW233849   0.482   0.967   2.755  0.9506 -1.0327  1.1037
 7463SOL     OW33850   4.574   1.183   6.350 -0.5413  0.5004 -0.4102
 7463SOL    HW133851   4.642   1.154   6.412 -1.5524 -1.2834 -0.1617
 7463SOL    HW233852   4.601   1.131   6.275  0.0649 -0.0973  0.2148
 7464SOL     OW33853   0.839   1.676   9.188  0.8542  0.6440  0.5443
 7464SOL    HW133854   0.803   1.627   9.261  2.1829  0.9601  1.4008
 7464SOL    HW233855   0.852   1.756   9.238  1.1720  0.4426  0.7768
 7465SOL     OW33856   1.966   3.614   7.776  1.1573  0.1680 -0.2337
 7465SOL    HW133857   1.970   3.634   7.870  1.7083  0.5536 -0.3413
 7465SOL    HW233858   1.897   3.675   7.752 -0.0779  0.0658  2.9973
 7466SOL     OW33859   3.499   1.601  11.580  0.0448  0.1510 -0.1885
 7466SOL    HW133860   3.559   1.622  11.652  1.4885 -0.1091 -1.3099
 7466SOL    HW233861   3.422   1.654  11.601  0.3774  0.0323  1.3450
 7467SOL     OW33862   2.795   4.307   0.380  0.4011 -0.7314  0.1869
 7467SOL    HW133863   2.774   4.308   0.473  1.3304  1.1708  0.3785
 7467SOL    HW233864   2.768   4.395   0.356  2.4504  0.2092  1.3376
 7468SOL     OW33865   1.030   4.025   4.940  0.1771 -0.5074 -0.4657
 7468SOL    HW133866   0.993   3.941   4.916  0.6583 -1.1940  1.1688
 7468SOL    HW233867   1.065   4.066   4.861 -1.0230 -1.3573 -1.4336
 7469SOL     OW33868   0.251   3.267  15.553 -0.6938  0.3914  0.4851
 7469SOL    HW133869   0.321   3.211  15.587 -0.3810  0.0903 -0.6532
 7469SOL    HW233870   0.259   3.340  15.615 -0.0247 -0.2412  1.1372
 7470SOL     OW33871   3.806   0.259   2.541 -0.3687 -0.0458  0.5806
 7470SOL    HW133872   3.726   0.310   2.539  0.3835  1.1579  1.2388
 7470SOL    HW233873   3.866   0.302   2.480 -0.2271 -2.0032 -0.6725
 7471SOL     OW33874   2.195   0.502  17.180 -0.8311 -0.3664  0.0220
 7471SOL    HW133875   2.151   0.471  17.260 -0.3973  3.5431  1.7878
 7471SOL    HW233876   2.141   0.581  17.173  2.5052  2.0194  1.1915
 7472SOL     OW33877   2.354   3.518   6.023  0.3268 -0.0487 -0.5414
 7472SOL    HW133878   2.295   3.443   6.027 -1.3226  1.4136  2.7845
 7472SOL    HW233879   2.310   3.569   5.955  1.1108  0.5816 -0.5782
 7473SOL     OW33880   1.914   2.961   4.509 -0.2439  0.0800  0.2439
 7473SOL    HW133881   2.007   2.964   4.488 -0.3196 -0.0904 -0.1120
 7473SOL    HW233882   1.891   3.045   4.469 -1.1807  0.4207  1.4668
 7474SOL     OW33883   1.353   2.983   4.948 -0.3444  0.4825  0.3998
 7474SOL    HW133884   1.274   3.030   4.920  0.9720  2.3847 -0.0615
 7474SOL    HW233885   1.373   2.942   4.864 -0.0322 -0.1259  0.7660
 7475SOL     OW33886   3.506   3.495   7.683 -0.1310 -0.6625  0.1184
 7475SOL    HW133887   3.560   3.492   7.604 -1.5170  0.0900 -0.8479
 7475SOL    HW233888   3.464   3.410   7.695  0.5354 -0.8785  0.9103
 7476SOL     OW33889   0.031   2.375   7.595 -0.3911 -0.1239  0.1061
 7476SOL    HW133890   0.083   2.300   7.623 -0.6520 -0.7130 -0.9838
 7476SOL    HW233891   0.007   2.422   7.674 -1.7214 -2.7052  1.2326
 7477SOL     OW33892   3.334   2.236   7.136  0.7377 -0.4379  0.4763
 7477SOL    HW133893   3.335   2.140   7.142  1.7009 -0.4394  0.3014
 7477SOL    HW233894   3.398   2.268   7.198 -0.5251  0.3121  1.3946
 7478SOL     OW33895   3.792   0.166   4.137 -0.2482  0.0935 -0.5488
 7478SOL    HW133896   3.810   0.256   4.109  0.6965  0.8376  2.3928
 7478SOL    HW233897   3.700   0.176   4.161 -0.6679 -1.3841 -1.5453
 7479SOL     OW33898   2.783   2.440  15.945  0.2079  0.1797  0.3319
 7479SOL    HW133899   2.845   2.500  15.903 -0.1583  0.6093  0.4034
 7479SOL    HW233900   2.844   2.388  15.996  0.5338 -0.5793 -0.8416
 7480SOL     OW33901   3.087   2.036   9.959  0.3500  0.3818  0.7497
 7480SOL    HW133902   3.127   2.002  10.039  1.2476 -1.4364 -0.4660
 7480SOL    HW233903   3.163   2.021   9.903  0.2001  5.5201 -0.8706
 7481SOL     OW33904   1.908   1.682   0.431  0.5843 -0.4672 -0.4224
 7481SOL    HW133905   1.887   1.760   0.380  2.0368  1.3178  1.7079
 7481SOL    HW233906   2.001   1.673   0.407  0.3940 -2.0023 -0.5970
 7482SOL     OW33907   2.849   0.289   7.563 -0.5389 -0.3084 -0.2242
 7482SOL    HW133908   2.775   0.234   7.590 -0.5131 -0.6365 -0.8273
 7482SOL    HW233909   2.838   0.373   7.609 -3.0459 -0.2585 -0.9226
 7483SOL     OW33910   1.462   3.859   4.852 -0.3979  0.1911 -0.6773
 7483SOL    HW133911   1.459   3.954   4.846 -0.4888  0.1708 -0.9458
 7483SOL    HW233912   1.553   3.842   4.827 -1.0441 -1.1189 -2.1266
 7484SOL     OW33913   1.168   0.192   7.400  0.0135 -0.7890  0.0459
 7484SOL    HW133914   1.172   0.097   7.388  2.4040 -0.6911  0.0634
 7484SOL    HW233915   1.229   0.207   7.473 -1.1095  0.9804  0.6111
 7485SOL     OW33916   1.250   0.705  12.802 -0.4865 -0.1699 -0.3528
 7485SOL    HW133917   1.223   0.789  12.763 -0.8543  0.9103  2.2806
 7485SOL    HW233918   1.170   0.655  12.818  0.2851 -1.2918 -0.0975
 7486SOL     OW33919   0.501   3.231   9.542  0.3738  1.0737  0.2273
 7486SOL    HW133920   0.470   3.298   9.482  1.2417  0.3177 -1.0539
 7486SOL    HW233921   0.416   3.187   9.547  2.0561 -2.1149  0.1248
 7487SOL     OW33922   0.843   3.369  11.502 -0.1981  0.2534  0.3773
 7487SOL    HW133923   0.846   3.453  11.549 -0.0983  0.4153  0.0791
 7487SOL    HW233924   0.934   3.341  11.512 -0.5153 -0.1674  2.1759
 7488SOL     OW33925   4.663   4.364  12.538 -0.0472  0.7733 -0.3284
 7488SOL    HW133926   4.682   4.286  12.590 -3.2462  1.3101  1.6361
 7488SOL    HW233927   4.726   4.431  12.566  1.0941  0.0502 -1.1897
 7489SOL     OW33928   3.476   4.202   4.920  0.2013  0.4335 -0.3094
 7489SOL    HW133929   3.426   4.161   4.850 -1.1299  0.5808  0.5706
 7489SOL    HW233930   3.482   4.129   4.982 -1.0468  0.2887 -0.3678
 7490SOL     OW33931   0.799   3.072   2.203 -0.1797 -0.0138  0.3757
 7490SOL    HW133932   0.842   3.147   2.161 -1.1078  1.1802  1.5502
 7490SOL    HW233933   0.706   3.095   2.197 -0.9670 -3.0367  1.1683
 7491SOL     OW33934   3.675   1.077  12.727  0.0663  0.4022  0.6521
 7491SOL    HW133935   3.596   1.102  12.679  0.7738  1.5732  0.0927
 7491SOL    HW233936   3.710   1.005  12.674 -1.5488 -0.9096  1.3741
 7492SOL     OW33937   4.720   2.934  10.361  0.8105 -0.1902  0.2961
 7492SOL    HW133938   0.014   2.859  10.415 -2.4601  0.1391  2.0741
 7492SOL    HW233939   0.064   2.995  10.375 -1.1458  2.4298 -0.9558
 7493SOL     OW33940   2.868   0.396   4.445 -0.7158  0.4582  0.0769
 7493SOL    HW133941   2.844   0.338   4.517  2.8020  0.1711  1.0343
 7493SOL    HW233942   2.921   0.337   4.391  1.1510 -0.3341  2.7747
 7494SOL     OW33943   4.385   0.744  10.034 -0.8962  0.6782  0.0543
 7494SOL    HW133944   4.466   0.727  10.082 -0.1317  0.4242 -1.3228
 7494SOL    HW233945   4.331   0.707  10.103 -1.6619 -0.2383 -1.0243
 7495SOL     OW33946   4.420   1.828   3.809  0.0741  0.0153 -0.0327
 7495SOL    HW133947   4.348   1.802   3.751 -1.4234 -0.2184  1.9183
 7495SOL    HW233948   4.403   1.762   3.876 -1.1346  1.0413  0.6909
 7496SOL     OW33949   4.290   3.666   5.504 -0.2285  0.1023  0.3225
 7496SOL    HW133950   4.203   3.705   5.506 -0.7491 -1.0548  0.6471
 7496SOL    HW233951   4.341   3.721   5.562  0.5145  0.2159 -0.4424
 7497SOL     OW33952   0.988   3.376   8.951 -0.1079  0.1797 -0.4811
 7497SOL    HW133953   0.900   3.384   8.989 -0.6915  2.3014 -2.2945
 7497SOL    HW233954   1.006   3.290   8.989  0.7349  0.0639 -1.1596
 7498SOL     OW33955   4.193   4.089  16.677 -0.3535  0.2024 -0.2174
 7498SOL    HW133956   4.118   4.061  16.624 -1.2294  0.2225  0.9943
 7498SOL    HW233957   4.235   4.149  16.617  0.0491 -0.1109 -0.2473
 7499SOL     OW33958   0.033   1.963  12.598 -0.1533  0.5015  0.5081
 7499SOL    HW133959   0.088   2.035  12.629  1.9611  0.2718 -2.7207
 7499SOL    HW233960   4.697   2.018  12.552  0.0179  0.5991  0.3885
 7500SOL     OW33961   3.601   3.305   6.544  0.3185 -0.3019  0.3667
 7500SOL    HW133962   3.666   3.344   6.486  1.0613 -2.1237 -0.0251
 7500SOL    HW233963   3.523   3.316   6.489  0.7684  1.2109  0.0432
 7501SOL     OW33964   3.139   1.191  15.189 -0.0515  0.3666 -0.0938
 7501SOL    HW133965   3.182   1.244  15.256  0.6770  1.7273 -1.6307
 7501SOL    HW233966   3.052   1.232  15.188 -0.0339  0.3553 -1.8296
 7502SOL     OW33967   4.593   2.017   9.639 -0.5317 -0.2501  0.1532
 7502SOL    HW133968   4.678   2.045   9.673  0.5585 -3.6728  0.2330
 7502SOL    HW233969   4.633   1.969   9.567  1.2103  0.8763  0.3606
 7503SOL     OW33970   0.341   1.433   5.320 -0.1213  0.0002  0.5651
 7503SOL    HW133971   0.291   1.464   5.395 -0.5039 -0.8479  0.6608
 7503SOL    HW233972   0.401   1.379   5.371 -0.1736  0.7049  1.3612
 7504SOL     OW33973   1.615   4.082  10.690 -0.6652  0.3061 -0.4318
 7504SOL    HW133974   1.538   4.133  10.666  0.0076  2.0572  1.1208
 7504SOL    HW233975   1.599   3.997  10.650  2.7950 -0.5954  0.1233
 7505SOL     OW33976   2.349   0.490   1.994  0.5198  0.1000  0.5725
 7505SOL    HW133977   2.326   0.440   1.916  2.0117 -2.4107  1.7197
 7505SOL    HW233978   2.439   0.462   2.010  0.8364 -0.9139 -2.9975
 7506SOL     OW33979   3.656   2.533   1.286 -0.1001  0.0147 -0.2703
 7506SOL    HW133980   3.578   2.558   1.335 -1.6389 -0.0273 -2.6988
 7506SOL    HW233981   3.619   2.534   1.198  0.6373  0.8699 -0.5733
 7507SOL     OW33982   1.920   3.195   8.664 -0.5177 -0.1292 -0.1002
 7507SOL    HW133983   1.911   3.195   8.759  0.2159  0.2908 -0.0345
 7507SOL    HW233984   1.983   3.126   8.644  1.1282  1.3710 -0.0664
 7508SOL     OW33985   3.461   0.649  16.988 -0.1820  0.2063  0.0993
 7508SOL    HW133986   3.508   0.627  17.069 -0.1647 -0.4094 -0.0746
 7508SOL    HW233987   3.515   0.594  16.931  0.9080  0.8529  0.4875
 7509SOL     OW33988   2.474   3.740   7.677 -1.0471 -0.6237 -0.1495
 7509SOL    HW133989   2.453   3.832   7.661 -0.5162 -0.4303  0.2613
 7509SOL    HW233990   2.390   3.694   7.666 -0.9914 -0.3591 -1.6837
 7510SOL     OW33991   4.669   3.345   2.167 -0.2178  0.1307  0.4083
 7510SOL    HW133992   4.605   3.336   2.095  1.3176 -2.6624 -0.5812
 7510SOL    HW233993   0.016   3.313   2.118 -2.0581 -1.0237 -1.6893
 7511SOL     OW33994   3.663   0.463   3.252 -0.2093  0.1320  0.0365
 7511SOL    HW133995   3.689   0.474   3.161 -1.5374 -1.2438 -0.4882
 7511SOL    HW233996   3.705   0.379   3.274 -0.4348 -0.1988 -0.8317
 7512SOL     OW33997   1.372   4.609  12.372  0.0274  0.2844 -0.3100
 7512SOL    HW133998   1.359   4.645  12.459 -1.8959 -0.4002 -0.3203
 7512SOL    HW233999   1.291   4.634  12.327 -0.9650 -0.3260  1.1645
 7513SOL     OW34000   1.996   2.277  13.036  0.1302 -0.3436  0.0038
 7513SOL    HW134001   1.962   2.365  13.021 -0.8863 -0.3752  2.1834
 7513SOL    HW234002   1.926   2.218  13.005 -3.2480  2.9140  1.3608
 7514SOL     OW34003   3.976   1.643   2.069  0.3532  0.0970 -0.0166
 7514SOL    HW134004   3.925   1.721   2.045  1.1260 -0.1135 -2.3513
 7514SOL    HW234005   3.999   1.605   1.984 -0.9020 -0.8847  0.0754
 7515SOL     OW34006   3.710   3.104  15.329 -0.4755  0.1396 -0.3653
 7515SOL    HW134007   3.767   3.179  15.315 -1.2111  0.6411 -0.6726
 7515SOL    HW234008   3.763   3.032  15.294 -0.9375  0.8484 -2.5060
 7516SOL     OW34009   1.438   2.150  15.014  0.3508 -0.4423 -0.0439
 7516SOL    HW134010   1.458   2.157  15.107 -1.1110 -1.5701  0.3396
 7516SOL    HW234011   1.486   2.223  14.974  0.3546 -0.4403 -0.0357
 7517SOL     OW34012   0.541   1.852  13.623  0.3703 -0.7677 -0.6476
 7517SOL    HW134013   0.624   1.811  13.600  0.5292 -0.7400 -0.1308
 7517SOL    HW234014   0.507   1.859  13.534  0.7421  1.0028 -0.6608
 7518SOL     OW34015   1.995   2.674  11.580  1.0437  0.5171 -0.1290
 7518SOL    HW134016   2.004   2.661  11.674 -0.8991 -2.7474 -0.3900
 7518SOL    HW234017   1.902   2.652  11.579  0.7654  1.7338 -1.6530
 7519SOL     OW34018   3.802   3.084   4.987  0.3342 -0.4260 -0.4538
 7519SOL    HW134019   3.879   3.054   4.939  0.1785  0.1200 -1.0459
 7519SOL    HW234020   3.816   3.178   4.972 -0.1513 -0.1002  1.1174
 7520SOL     OW34021   1.802   0.367   6.443  0.3475 -0.0535  0.4975
 7520SOL    HW134022   1.876   0.307   6.441 -1.5882 -2.4031 -0.6863
 7520SOL    HW234023   1.789   0.389   6.535  1.6286  0.0568  0.6444
 7521SOL     OW34024   2.730   4.700   0.386  0.1382  0.3833 -1.0079
 7521SOL    HW134025   2.700   4.626   0.333 -1.9032  0.2510  0.3256
 7521SOL    HW234026   2.805   4.659   0.430 -0.5005  1.3790  1.0065
 7522SOL     OW34027   2.856   2.881   6.368  0.5460 -0.4406 -0.1678
 7522SOL    HW134028   2.905   2.914   6.292  1.3945 -0.2191  0.4751
 7522SOL    HW234029   2.859   2.958   6.425  4.7771 -1.0248  0.3900
 7523SOL     OW34030   1.979   1.673   6.397  0.3307  0.5955  0.0457
 7523SOL    HW134031   1.928   1.722   6.332 -3.2779 -0.0167  2.3983
 7523SOL    HW234032   1.911   1.678   6.464 -1.3256  1.0638 -1.6794
 7524SOL     OW34033   3.708   3.502  13.423  0.0231 -0.1519  0.1719
 7524SOL    HW134034   3.764   3.509  13.346  1.0987  1.1044  1.0778
 7524SOL    HW234035   3.752   3.432  13.470  0.0309 -0.7833 -0.7759
 7525SOL     OW34036   1.430   4.656   9.859 -0.1248 -0.6072 -0.4940
 7525SOL    HW134037   1.422   4.692   9.947  0.1594 -1.3472 -0.1708
 7525SOL    HW234038   1.513   4.689   9.824  0.3768  0.5641  1.8316
 7526SOL     OW34039   2.552   3.310  12.168  0.3758 -0.5229 -0.5083
 7526SOL    HW134040   2.564   3.257  12.089 -0.6942 -1.1271 -0.2645
 7526SOL    HW234041   2.532   3.239  12.228 -0.8595 -1.2376 -1.7553
 7527SOL     OW34042   4.276   3.900   6.563  0.3185 -0.7984 -0.7743
 7527SOL    HW134043   4.247   3.973   6.508  1.0617  0.5611  0.6287
 7527SOL    HW234044   4.195   3.849   6.556 -0.4741  0.1783  1.2751
 7528SOL     OW34045   2.962   0.495  12.237 -0.2113  0.2189  0.4240
 7528SOL    HW134046   3.016   0.445  12.299  1.0688 -0.3530 -1.1486
 7528SOL    HW234047   3.018   0.571  12.220 -1.3021  0.8678 -0.2271
 7529SOL     OW34048   1.899   2.688  11.297  0.5016  0.3619 -0.0140
 7529SOL    HW134049   1.881   2.769  11.343 -2.6835  0.0722 -0.7531
 7529SOL    HW234050   1.821   2.685  11.242 -0.4469 -1.0581  1.4090
 7530SOL     OW34051   2.576   3.467   6.467  0.2986  0.5756 -0.4436
 7530SOL    HW134052   2.573   3.536   6.400 -1.3993 -0.6514 -1.6206
 7530SOL    HW234053   2.669   3.464   6.489  0.4045 -0.0587 -0.9902
 7531SOL     OW34054   1.412   1.956   3.847  0.0588 -0.1858 -0.0828
 7531SOL    HW134055   1.504   1.943   3.871 -0.1286 -0.2156  0.6172
 7531SOL    HW234056   1.411   2.042   3.804  0.9063 -0.3078 -0.3576
 7532SOL     OW34057   4.468   4.204   3.853 -0.5164  0.6351  0.4792
 7532SOL    HW134058   4.374   4.189   3.838 -0.4059 -0.3072  0.6929
 7532SOL    HW234059   4.486   4.152   3.931 -2.5140  2.5396  2.2117
 7533SOL     OW34060   0.146   1.338  14.414 -0.1017 -0.4710  0.5181
 7533SOL    HW134061   0.198   1.413  14.441 -1.4070  0.6601 -0.1106
 7533SOL    HW234062   0.155   1.283  14.492  0.0578 -0.4779  0.4946
 7534SOL     OW34063   0.613   4.611   4.848 -0.5156  0.1710  0.3258
 7534SOL    HW134064   0.651   4.523   4.844  1.5895  1.2148 -2.5269
 7534SOL    HW234065   0.679   4.662   4.800  0.2380 -2.1071 -1.0736
 7535SOL     OW34066   2.665   1.167   6.822 -0.8885  0.4405  0.2247
 7535SOL    HW134067   2.604   1.101   6.788 -1.1161  0.0567  1.3911
 7535SOL    HW234068   2.677   1.225   6.747  1.8097  1.1739  1.2439
 7536SOL     OW34069   0.908   2.452   5.119  0.2181  0.4504  0.4128
 7536SOL    HW134070   0.861   2.401   5.185  2.3868 -0.0015  1.6044
 7536SOL    HW234071   0.876   2.541   5.136  1.7068  1.0557  0.0677
 7537SOL     OW34072   3.216   3.485   6.242 -0.5105  0.4079 -0.4456
 7537SOL    HW134073   3.307   3.458   6.254 -0.1145  0.4583 -3.1780
 7537SOL    HW234074   3.172   3.400   6.244  0.2615  0.0219  0.0458
 7538SOL     OW34075   4.325   3.932   1.670  0.4019 -0.3666 -0.5035
 7538SOL    HW134076   4.345   3.886   1.751 -1.3054 -2.2430 -1.1474
 7538SOL    HW234077   4.347   4.022   1.694 -1.5780 -0.2016  0.6315
 7539SOL     OW34078   3.912   0.851   8.236 -0.0031 -0.6695 -0.1022
 7539SOL    HW134079   3.889   0.940   8.261 -1.8007 -1.6216  1.5721
 7539SOL    HW234080   3.855   0.845   8.159  1.1911 -1.2163 -0.9474
 7540SOL     OW34081   1.959   0.504   7.295 -0.2915  0.2163  0.4015
 7540SOL    HW134082   1.998   0.418   7.278  0.2379  0.0367  2.5064
 7540SOL    HW234083   1.958   0.551   7.212  3.0275  0.9668  0.8006
 7541SOL     OW34084   0.933   2.525   8.011  0.3252 -0.3580  0.3007
 7541SOL    HW134085   0.905   2.502   8.100  0.2343 -1.1020  0.0760
 7541SOL    HW234086   1.000   2.458   7.999 -0.3968 -0.7496 -1.5528
 7542SOL     OW34087   4.087   1.484  10.158  0.6237 -0.1270 -0.1899
 7542SOL    HW134088   4.087   1.388  10.168  1.1499 -0.1189 -0.1227
 7542SOL    HW234089   4.177   1.501  10.187  0.2133  2.5696 -0.5733
 7543SOL     OW34090   1.787   3.673  16.678 -0.1149 -0.1664 -0.2303
 7543SOL    HW134091   1.768   3.583  16.653 -0.5791  0.2849 -1.5085
 7543SOL    HW234092   1.785   3.671  16.773 -0.4553 -0.5109 -0.2472
 7544SOL     OW34093   2.083   0.154   6.155  0.3879  0.0664  0.2259
 7544SOL    HW134094   2.082   0.163   6.250  1.7449  0.1492  0.2306
 7544SOL    HW234095   2.084   0.060   6.138  0.1564  0.3660 -1.4614
 7545SOL     OW34096   1.556   1.503   2.729  0.1509  0.6409  0.4870
 7545SOL    HW134097   1.598   1.476   2.647 -1.1918  0.3540 -0.1038
 7545SOL    HW234098   1.585   1.431   2.786 -0.8382  0.7475  1.1236
 7546SOL     OW34099   0.605   4.660   2.748  0.2210 -0.1707  0.4038
 7546SOL    HW134100   0.537   4.706   2.701  0.3806 -2.4645 -2.1053
 7546SOL    HW234101   0.655   4.627   2.674  2.4753  1.3120  1.2620
 7547SOL     OW34102   3.450   4.256   7.793 -0.0468 -0.1777  0.1512
 7547SOL    HW134103   3.479   4.175   7.835  1.4099  0.0956 -0.3179
 7547SOL    HW234104   3.472   4.241   7.701  2.1007  1.1877  0.4292
 7548SOL     OW34105   3.299   1.573   4.292 -0.0259  0.9685 -0.0425
 7548SOL    HW134106   3.368   1.507   4.300 -0.8557  0.3744  2.1050
 7548SOL    HW234107   3.291   1.594   4.385  1.2460 -0.6206  0.4272
 7549SOL     OW34108   4.352   2.138   6.448  0.2252 -0.3370  0.3846
 7549SOL    HW134109   4.397   2.199   6.390  0.1635 -1.2097 -0.5820
 7549SOL    HW234110   4.428   2.122   6.504 -0.0198 -0.8336  0.5745
 7550SOL     OW34111   0.977   3.439   7.684  0.0417  0.4139  0.1359
 7550SOL    HW134112   0.981   3.527   7.721 -0.1841  0.5848 -0.2516
 7550SOL    HW234113   0.890   3.449   7.647  0.2426 -1.2113 -0.7989
 7551SOL     OW34114   1.750   4.153   9.447  0.1581  0.2256 -0.4463
 7551SOL    HW134115   1.686   4.222   9.435  0.1767  0.3009 -0.1016
 7551SOL    HW234116   1.821   4.179   9.388  0.1948  0.4914 -0.2828
 7552SOL     OW34117   1.660   0.973   1.239 -0.7732 -0.4506 -0.2303
 7552SOL    HW134118   1.566   0.993   1.246 -0.8772 -0.4346 -1.6486
 7552SOL    HW234119   1.685   0.956   1.330  3.5114  0.4192 -1.2861
 7553SOL     OW34120   4.118   2.183   0.656  0.0090  0.0059  0.1118
 7553SOL    HW134121   4.065   2.106   0.637 -0.1443  0.1317  0.0340
 7553SOL    HW234122   4.050   2.248   0.675 -1.7316 -2.0655  0.9502
 7554SOL     OW34123   4.000   4.690   3.907 -0.3681 -0.2057  0.2441
 7554SOL    HW134124   3.932   4.634   3.869  0.6685 -1.4960  0.2774
 7554SOL    HW234125   3.982   0.050   3.876  1.6810 -0.1710 -0.8313
 7555SOL     OW34126   1.822   3.490   5.340  0.2508 -0.2254  0.2556
 7555SOL    HW134127   1.770   3.413   5.361 -0.2522  0.4863  1.6518
 7555SOL    HW234128   1.836   3.503   5.434  2.1568 -1.0841  0.0960
 7556SOL     OW34129   2.008   3.321   8.912 -0.0872  0.0941  0.0980
 7556SOL    HW134130   2.009   3.338   9.006  2.8087  0.7455 -0.0305
 7556SOL    HW234131   1.973   3.406   8.888 -1.1614 -0.4522 -0.2413
 7557SOL     OW34132   0.791   2.572  12.659 -0.5605  0.0725  0.7533
 7557SOL    HW134133   0.856   2.569  12.589  0.0182 -0.8635  1.3244
 7557SOL    HW234134   0.809   2.652  12.708  1.8346  1.3890 -2.3038
 7558SOL     OW34135   1.702   2.482  13.465 -0.4533  0.4693 -1.3973
 7558SOL    HW134136   1.613   2.457  13.492 -0.5245  2.3488  0.1175
 7558SOL    HW234137   1.745   2.401  13.489  1.2344  1.1621 -2.1138
 7559SOL     OW34138   0.117   3.425   3.681 -0.2164 -0.4493  0.0253
 7559SOL    HW134139   0.164   3.501   3.646  0.0164 -1.1414 -1.1627
 7559SOL    HW234140   0.111   3.436   3.776  1.2590  1.9998 -0.1681
 7560SOL     OW34141   4.551   3.626  14.289 -0.3607  0.3675  0.0044
 7560SOL    HW134142   4.589   3.613  14.377 -1.7010 -3.2867  0.0608
 7560SOL    HW234143   4.636   3.643  14.249 -0.6555  1.9803  0.0883
 7561SOL     OW34144   1.652   1.990   0.606  0.6932 -0.0467  0.1924
 7561SOL    HW134145   1.587   1.932   0.644  0.8488 -1.2094 -1.3083
 7561SOL    HW234146   1.657   1.935   0.528  1.2067  0.5007 -0.1659
 7562SOL     OW34147   2.298   4.063   9.352 -0.1356 -0.2237 -0.0367
 7562SOL    HW134148   2.228   4.004   9.380  1.4645 -2.0806  0.0479
 7562SOL    HW234149   2.354   4.001   9.305 -0.5893 -1.5075  1.1336
 7563SOL     OW34150   3.181   3.579   2.735 -0.2567  0.3857 -0.3512
 7563SOL    HW134151   3.212   3.669   2.736  0.1607  0.2306  0.5518
 7563SOL    HW234152   3.182   3.563   2.640  0.3213  0.0219 -0.2819
 7564SOL     OW34153   0.839   2.146   7.302  0.2586 -0.3525 -0.1237
 7564SOL    HW134154   0.822   2.074   7.363  0.0496  0.4487  0.7604
 7564SOL    HW234155   0.806   2.212   7.363  0.0140 -1.4843  0.9766
 7565SOL     OW34156   0.255   0.682  16.625 -0.2809  0.5069 -0.6670
 7565SOL    HW134157   0.170   0.703  16.585 -1.0707 -0.2214  0.6074
 7565SOL    HW234158   0.238   0.686  16.720 -0.3324 -2.1674 -0.5570
 7566SOL     OW34159   4.473   1.422   3.162 -0.0728 -0.0664  0.5540
 7566SOL    HW134160   4.548   1.465   3.203 -0.2139  1.0078 -0.3358
 7566SOL    HW234161   4.428   1.387   3.239  1.8416 -1.2194  1.1716
 7567SOL     OW34162   4.330   3.385  11.592 -0.5633 -0.3409  0.1970
 7567SOL    HW134163   4.424   3.377  11.577 -0.5802  1.6922 -0.9724
 7567SOL    HW234164   4.304   3.307  11.640 -1.6765  0.6127  1.1256
 7568SOL     OW34165   1.005   4.643   3.495  0.2667 -0.0160 -0.0478
 7568SOL    HW134166   1.037   4.612   3.410 -2.1691  0.0888 -1.0259
 7568SOL    HW234167   0.973   4.561   3.531  0.0668 -1.4819 -3.5459
 7569SOL     OW34168   4.119   2.489   8.373  0.2102 -0.2457 -0.1834
 7569SOL    HW134169   4.134   2.584   8.380 -0.3450  0.0202 -2.8614
 7569SOL    HW234170   4.086   2.462   8.459  0.6572 -0.7430 -0.1672
 7570SOL     OW34171   1.355   0.088   6.104 -0.1174 -0.1715 -0.6058
 7570SOL    HW134172   1.331   0.069   6.194  0.4110 -1.5776 -0.7701
 7570SOL    HW234173   1.423   0.152   6.125 -0.3219 -0.4302  0.8193
 7571SOL     OW34174   1.752   4.164  11.159 -0.3988 -0.3299  0.5022
 7571SOL    HW134175   1.846   4.182  11.152 -0.3094 -0.2785  1.8195
 7571SOL    HW234176   1.734   4.104  11.087  0.2659  0.9326 -0.6990
 7572SOL     OW34177   0.487   0.726  10.078  0.2494  0.1932  0.4496
 7572SOL    HW134178   0.446   0.647  10.113  2.3166 -0.6380  1.0060
 7572SOL    HW234179   0.462   0.801  10.132  1.5763  0.4959  0.6462
 7573SOL     OW34180   2.749   1.706   1.265  0.0137  0.3542  0.1670
 7573SOL    HW134181   2.690   1.723   1.191  0.0811  1.1590  0.3071
 7573SOL    HW234182   2.713   1.774   1.322 -0.3010  0.2979  0.0401
 7574SOL     OW34183   3.910   4.529   3.312 -0.4171 -0.1359 -0.3116
 7574SOL    HW134184   3.927   4.493   3.225  1.8104 -0.5359  0.2872
 7574SOL    HW234185   3.982   4.496   3.366  0.2555  0.5728 -0.7772
 7575SOL     OW34186   2.803   3.069   2.597 -0.4169  0.1494  1.0460
 7575SOL    HW134187   2.808   3.110   2.683  2.2029 -0.3175  1.1068
 7575SOL    HW234188   2.710   3.073   2.576 -0.0217  1.2027 -0.5111
 7576SOL     OW34189   1.821   3.840   3.398 -0.3037 -0.1180 -0.1892
 7576SOL    HW134190   1.851   3.793   3.476 -0.1737 -1.4089 -1.0247
 7576SOL    HW234191   1.833   3.769   3.335  1.3025  0.4680 -0.5460
 7577SOL     OW34192   3.645   3.922   8.283 -0.1392  0.6945 -0.2037
 7577SOL    HW134193   3.658   3.841   8.234 -2.2273  1.7730 -2.5613
 7577SOL    HW234194   3.550   3.911   8.295 -0.0530 -0.7596 -0.9281
 7578SOL     OW34195   0.682   2.419   2.488 -0.2233 -0.2499  0.2813
 7578SOL    HW134196   0.687   2.324   2.484  1.0355 -0.1759  0.2561
 7578SOL    HW234197   0.635   2.435   2.569  0.3586  0.8237  0.4134
 7579SOL     OW34198   2.550   3.861  12.849 -0.9704 -0.2641  0.0045
 7579SOL    HW134199   2.616   3.887  12.784 -0.6354 -1.2572 -0.0622
 7579SOL    HW234200   2.597   3.892  12.926 -0.0786 -1.4861 -0.0396
 7580SOL     OW34201   1.488   2.868   4.025 -0.1749 -0.0874 -0.2461
 7580SOL    HW134202   1.554   2.879   3.957  1.0294 -1.1643  0.7493
 7580SOL    HW234203   1.414   2.852   3.966 -0.3064 -0.0254 -0.0979
 7581SOL     OW34204   3.951   3.561   9.520 -0.4485  0.2057 -0.8716
 7581SOL    HW134205   4.043   3.569   9.546 -0.5353  0.2242 -0.5773
 7581SOL    HW234206   3.921   3.481   9.562  0.4878 -0.8303 -2.1591
 7582SOL     OW34207   2.489   1.325   5.243 -0.2419 -0.8160  0.4524
 7582SOL    HW134208   2.403   1.304   5.205 -0.5227  1.1329  0.0251
 7582SOL    HW234209   2.462   1.388   5.309 -0.2003 -0.1150 -0.1956
 7583SOL     OW34210   3.546   2.478  12.634  0.1477 -0.4222  0.3469
 7583SOL    HW134211   3.533   2.418  12.708 -1.9496  2.1223  2.0302
 7583SOL    HW234212   3.458   2.495  12.602 -0.4864 -1.6293  1.4511
 7584SOL     OW34213   3.495   1.706   2.798  0.1688 -0.1332  0.3253
 7584SOL    HW134214   3.589   1.691   2.801  0.2591  0.5603  1.0003
 7584SOL    HW234215   3.467   1.655   2.874  0.3283 -3.4348 -1.8329
 7585SOL     OW34216   2.760   0.963  16.673  0.4314 -0.2207 -0.3642
 7585SOL    HW134217   2.725   1.052  16.664  1.0416  0.0200 -0.3017
 7585SOL    HW234218   2.826   0.952  16.605  1.4502  1.7956  0.3123
 7586SOL     OW34219   0.692   2.808   3.067 -0.1186  0.1005 -0.3722
 7586SOL    HW134220   0.781   2.783   3.092 -1.6392 -2.1074  2.7161
 7586SOL    HW234221   0.702   2.812   2.972  0.2961 -0.0459 -0.3349
 7587SOL     OW34222   1.171   4.364   0.169  0.3550 -0.2948 -0.2891
 7587SOL    HW134223   1.161   4.445   0.119  0.2773 -1.8284 -2.7268
 7587SOL    HW234224   1.102   4.311   0.132  1.9233 -0.3173 -3.1689
 7588SOL     OW34225   4.370   4.198   7.668 -0.0532  0.3665  0.7347
 7588SOL    HW134226   4.309   4.138   7.625 -2.3869  2.0671  1.6680
 7588SOL    HW234227   4.317   4.274   7.691  0.4139  0.7506  0.5584
 7589SOL     OW34228   3.664   4.031   4.761  0.2066 -0.7844 -0.0502
 7589SOL    HW134229   3.672   4.102   4.825 -3.4298 -1.4048  1.0810
 7589SOL    HW234230   3.577   4.042   4.723  0.3832 -0.8433 -0.4753
 7590SOL     OW34231   2.238   1.196  11.233 -0.3426 -0.7126 -0.1713
 7590SOL    HW134232   2.288   1.270  11.267 -1.0750 -1.2011  1.9859
 7590SOL    HW234233   2.219   1.223  11.144 -0.9390  2.3382  0.8874
 7591SOL     OW34234   2.788   3.047   3.838 -0.3515  0.5485 -0.0252
 7591SOL    HW134235   2.759   3.120   3.783  3.1255  2.4156  0.6455
 7591SOL    HW234236   2.823   2.998   3.764 -1.1054  2.4463 -1.6695
 7592SOL     OW34237   2.689   0.505  12.965  0.5344  0.2114 -0.5583
 7592SOL    HW134238   2.739   0.498  13.046  0.2707 -0.5421 -0.4627
 7592SOL    HW234239   2.627   0.572  12.991  0.6469 -0.0042  0.2645
 7593SOL     OW34240   0.194   2.720   2.799 -0.9990 -0.4054  0.2422
 7593SOL    HW134241   0.251   2.711   2.723 -0.3757  1.2661  0.5024
 7593SOL    HW234242   0.237   2.660   2.860  1.2076 -0.7449 -1.6432
 7594SOL     OW34243   0.942   0.997   6.265  0.0447  0.8571 -0.3481
 7594SOL    HW134244   0.942   0.947   6.346  2.4580 -0.9118 -1.4439
 7594SOL    HW234245   1.035   0.981   6.253 -0.3317 -0.6377 -1.3209
 7595SOL     OW34246   1.070   2.055  14.821  0.1430  0.2275  0.0720
 7595SOL    HW134247   1.069   2.143  14.782  1.0166  0.4214  0.4838
 7595SOL    HW234248   1.165   2.050  14.832  0.3258  0.8411 -1.1153
 7596SOL     OW34249   3.973   0.337   0.672  0.1593 -0.5482 -0.2380
 7596SOL    HW134250   3.943   0.427   0.668  1.6302 -0.0224  0.5222
 7596SOL    HW234251   3.894   0.292   0.700 -0.7848  0.7522 -0.8192
 7597SOL     OW34252   3.296   4.355   8.428  0.0764  0.3548 -0.2729
 7597SOL    HW134253   3.218   4.408   8.416  0.2391  0.4825 -0.7507
 7597SOL    HW234254   3.326   4.402   8.506 -2.1186 -1.6323  1.7848
 7598SOL     OW34255   2.883   4.444   3.983 -0.2009  0.4515 -0.1695
 7598SOL    HW134256   2.967   4.448   4.029 -0.7911  1.3143  0.8443
 7598SOL    HW234257   2.835   4.483   4.057 -0.5065 -1.4337  0.6270
 7599SOL     OW34258   1.691   3.499   1.952 -0.4262  0.1132 -0.3465
 7599SOL    HW134259   1.649   3.541   2.027 -3.3962 -2.2183 -0.6956
 7599SOL    HW234260   1.781   3.502   1.985 -0.7791  3.2154  0.3409
 7600SOL     OW34261   1.244   2.325   7.200  0.0083 -0.0948 -0.6086
 7600SOL    HW134262   1.308   2.258   7.175  0.9361  0.0514  1.3329
 7600SOL    HW234263   1.304   2.399   7.217  1.7543 -1.3717 -1.2109
 7601SOL     OW34264   0.929   0.126   2.108 -0.2766  0.5844  0.4301
 7601SOL    HW134265   0.860   0.078   2.153 -0.0170  0.5232  0.7700
 7601SOL    HW234266   1.003   0.150   2.165  0.8027 -1.1133 -0.2481
 7602SOL     OW34267   3.553   2.522   6.244 -0.1587  0.0208  0.3118
 7602SOL    HW134268   3.531   2.507   6.336 -1.9997 -0.6533 -0.2318
 7602SOL    HW234269   3.648   2.507   6.240 -0.1164  1.1841 -3.0215
 7603SOL     OW34270   0.945   3.954   2.591 -0.5372 -0.0563 -0.4530
 7603SOL    HW134271   1.038   3.948   2.571  0.1633 -0.7528  3.0154
 7603SOL    HW234272   0.911   3.958   2.502 -1.0244 -0.7054 -0.2988
 7604SOL     OW34273   1.190   2.213  10.541  0.4309 -0.2453  0.3915
 7604SOL    HW134274   1.189   2.295  10.490  1.2122 -0.1517  0.5376
 7604SOL    HW234275   1.203   2.237  10.633 -1.0825  4.0501 -0.4973
 7605SOL     OW34276   0.808   0.068   6.921 -0.6135  0.5435 -0.1868
 7605SOL    HW134277   0.847   0.114   6.995 -2.3769  2.1873 -0.2817
 7605SOL    HW234278   0.795   0.144   6.865  0.5935  1.6997  1.0854
 7606SOL     OW34279   1.527   1.091   8.117 -0.4376 -0.4726 -0.2630
 7606SOL    HW134280   1.544   1.084   8.211 -0.1339 -1.3352 -0.3766
 7606SOL    HW234281   1.468   1.019   8.093  1.1338 -1.8361 -0.0702
 7607SOL     OW34282   4.046   2.254  10.827 -0.7767  0.0208 -0.5770
 7607SOL    HW134283   3.960   2.214  10.814  0.0819 -1.3759 -1.9875
 7607SOL    HW234284   4.016   2.335  10.868  2.4397  0.1204  1.5166
 7608SOL     OW34285   3.498   1.759   3.773  0.2335  0.0595 -0.1879
 7608SOL    HW134286   3.419   1.779   3.723 -0.1659 -0.2876  0.3034
 7608SOL    HW234287   3.488   1.665   3.789 -1.7806  0.3952  0.5174
 7609SOL     OW34288   0.134   3.369   2.369  0.0081 -0.1088  0.0812
 7609SOL    HW134289   0.074   3.356   2.295 -1.9686  0.3146  1.6003
 7609SOL    HW234290   0.070   3.361   2.440 -0.3497 -1.3715 -0.3696
 7610SOL     OW34291   3.753   0.847   4.312  0.4792  1.0880  0.1586
 7610SOL    HW134292   3.683   0.891   4.263  1.3260  0.2523 -1.7713
 7610SOL    HW234293   3.757   0.899   4.392 -1.8972  0.7625  0.4891
 7611SOL     OW34294   0.784   4.496   3.227  0.2020 -0.2887 -0.1632
 7611SOL    HW134295   0.689   4.488   3.221  0.0839  1.0355  0.1391
 7611SOL    HW234296   0.794   4.591   3.227 -0.4556 -0.2228 -1.1928
 7612SOL     OW34297   1.772   1.869   2.099  0.1452  0.8024  0.6809
 7612SOL    HW134298   1.717   1.831   2.168 -0.0476  2.6353  1.5267
 7612SOL    HW234299   1.834   1.800   2.075  0.1617  0.6394  1.2066
 7613SOL     OW34300   0.651   1.028   1.907 -0.6839 -0.3337 -0.5782
 7613SOL    HW134301   0.707   1.006   1.982  0.4930  0.9370 -1.1091
 7613SOL    HW234302   0.617   1.115   1.926  3.0943  0.3370  3.1789
 7614SOL     OW34303   1.351   2.642   3.058 -0.4287 -0.3132 -0.2727
 7614SOL    HW134304   1.345   2.733   3.029  0.1579 -0.6720 -1.4709
 7614SOL    HW234305   1.294   2.591   3.001  0.4888  1.9189 -3.1785
 7615SOL     OW34306   0.030   0.966   3.114  0.9826  0.1411  0.5253
 7615SOL    HW134307   0.045   1.007   3.029  2.2108 -2.0530 -0.3261
 7615SOL    HW234308   0.120   0.941   3.138  0.8646 -0.9263 -0.1716
 7616SOL     OW34309   4.250   0.576   7.717 -0.5510 -0.4112  0.3598
 7616SOL    HW134310   4.267   0.512   7.649 -1.4863  0.3386 -0.5798
 7616SOL    HW234311   4.300   0.536   7.789 -1.5472 -1.2957  0.5657
 7617SOL     OW34312   2.177   4.464  15.588  0.0865 -0.0994  0.0007
 7617SOL    HW134313   2.160   4.510  15.505  2.2879  0.8455  0.0699
 7617SOL    HW234314   2.223   4.383  15.567 -0.0115 -0.5784  1.6181
 7618SOL     OW34315   4.333   1.350   9.581  0.0290  0.0107 -0.3880
 7618SOL    HW134316   4.288   1.431   9.560  1.2189  1.0258  0.9951
 7618SOL    HW234317   4.260   1.291   9.563 -0.0937  1.0801 -3.3895
 7619SOL     OW34318   1.344   4.235   9.478  0.1846  0.2065  0.0349
 7619SOL    HW134319   1.258   4.277   9.485  0.3231  0.9464 -2.7378
 7619SOL    HW234320   1.365   4.249   9.386 -0.2729 -3.3192 -0.5885
 7620SOL     OW34321   2.433   3.300   3.341 -0.3016  0.3043 -0.5852
 7620SOL    HW134322   2.451   3.362   3.411 -1.7394 -0.3519  0.3722
 7620SOL    HW234323   2.405   3.357   3.269  4.2206  2.1210 -0.8998
 7621SOL     OW34324   2.781   1.239   2.124 -0.0008  0.3106 -0.1900
 7621SOL    HW134325   2.691   1.217   2.098  1.2316 -1.1497 -3.3524
 7621SOL    HW234326   2.764   1.323   2.165  0.8886  0.1561  0.4885
 7622SOL     OW34327   1.935   4.232   1.252  0.1974 -0.2278  0.3679
 7622SOL    HW134328   1.892   4.205   1.171  0.7012  0.5586 -0.1729
 7622SOL    HW234329   1.940   4.148   1.297 -0.1224 -0.0311  0.7685
 7623SOL     OW34330   2.427   4.286   8.076  0.3416  0.2818  0.6595
 7623SOL    HW134331   2.495   4.221   8.056  0.0861  0.3766 -0.5102
 7623SOL    HW234332   2.403   4.248   8.161  3.2001 -0.8103  0.9753
 7624SOL     OW34333   0.961   2.954  16.876  0.0643 -0.3644  0.0659
 7624SOL    HW134334   0.907   2.894  16.825  0.8006 -0.1215 -0.9970
 7624SOL    HW234335   0.897   3.017  16.908  0.4841  0.1045 -0.0196
 7625SOL     OW34336   2.425   3.204   7.422 -0.3699  0.0832  0.4688
 7625SOL    HW134337   2.365   3.271   7.390 -1.4175 -0.1584  1.9040
 7625SOL    HW234338   2.486   3.256   7.475 -1.1736  1.5100 -0.0110
 7626SOL     OW34339   3.907   2.204   7.703 -0.2303  0.5294 -0.2024
 7626SOL    HW134340   3.860   2.242   7.777  1.4682  0.9343  0.6707
 7626SOL    HW234341   3.879   2.113   7.697 -0.7592  0.6789 -0.0285
 7627SOL     OW34342   1.097   2.452  16.191  0.4824  0.9295  0.2381
 7627SOL    HW134343   1.106   2.507  16.270  1.3354 -0.3598  1.0347
 7627SOL    HW234344   1.145   2.504  16.127  2.7997 -1.4928  0.0298
 7628SOL     OW34345   1.015   3.618   7.043  0.4054 -0.3339 -0.1361
 7628SOL    HW134346   1.058   3.537   7.071 -0.0910  0.0249  1.7091
 7628SOL    HW234347   0.996   3.599   6.951  0.2703  3.2331 -0.8423
 7629SOL     OW34348   2.791   2.197   1.985 -0.5759  0.7843 -0.4028
 7629SOL    HW134349   2.742   2.116   1.999  1.4780 -0.4258 -0.2130
 7629SOL    HW234350   2.765   2.231   1.899  1.6018 -0.2265 -1.4309
 7630SOL     OW34351   4.043   1.807   9.152 -0.4002  0.1008 -0.6082
 7630SOL    HW134352   3.956   1.821   9.190 -0.1165  1.8033 -0.5744
 7630SOL    HW234353   4.078   1.897   9.155  2.0100 -0.8492 -0.3909
 7631SOL     OW34354   1.064   4.709   8.938  0.3897  0.4581  0.0273
 7631SOL    HW134355   1.087   0.069   8.968 -0.9534  0.4745  1.0529
 7631SOL    HW234356   1.025   4.670   9.017  1.9404 -0.5040  0.2974
 7632SOL     OW34357   3.881   3.516   8.032 -0.2152 -0.2645 -0.0164
 7632SOL    HW134358   3.788   3.536   8.027 -0.1526  0.6785  2.2340
 7632SOL    HW234359   3.925   3.599   8.011  1.3526 -1.0223  0.2706
 7633SOL     OW34360   3.163   4.061   8.863  0.4533 -0.1277  0.6143
 7633SOL    HW134361   3.134   4.117   8.791  2.8822  0.1708 -0.1410
 7633SOL    HW234362   3.105   4.095   8.932 -0.7498  1.1198 -1.0174
 7634SOL     OW34363   2.895   4.086   6.642  0.3173  0.3918  0.3918
 7634SOL    HW134364   2.981   4.047   6.657  0.6800  1.1992  0.4208
 7634SOL    HW234365   2.933   4.158   6.592  0.1419 -0.9662 -1.7278
 7635SOL     OW34366   3.461   1.046   6.987  0.0466 -0.7451 -0.7951
 7635SOL    HW134367   3.486   1.138   6.993 -1.0094 -0.5343  0.3198
 7635SOL    HW234368   3.516   0.999   7.049  1.8355  0.0562 -1.7536
 7636SOL     OW34369   0.988   1.275   6.648  0.3950 -0.1209 -0.3282
 7636SOL    HW134370   0.947   1.192   6.672 -3.0450  1.0805 -2.0456
 7636SOL    HW234371   0.983   1.337   6.721 -1.2920 -0.1537 -0.4255
 7637SOL     OW34372   1.077   0.363   5.652 -0.2929 -0.2414 -0.3258
 7637SOL    HW134373   1.025   0.435   5.619  0.4587  0.1123 -0.7542
 7637SOL    HW234374   1.072   0.372   5.747 -0.2154  0.8543 -0.4278
 7638SOL     OW34375   0.804   0.554  14.454 -1.0098 -0.1173  0.3809
 7638SOL    HW134376   0.826   0.502  14.377 -1.9220  0.5036 -0.3070
 7638SOL    HW234377   0.730   0.608  14.424  0.4226  1.3528 -0.5177
 7639SOL     OW34378   3.488   3.402  11.144 -0.3641 -0.8798 -1.0808
 7639SOL    HW134379   3.476   3.395  11.238  1.6189 -2.2484 -0.9335
 7639SOL    HW234380   3.414   3.351  11.111 -0.8116  0.5688 -2.3011
 7640SOL     OW34381   4.513   1.250   6.706  0.1934  0.2190  0.2712
 7640SOL    HW134382   4.560   1.300   6.641  1.3284 -1.0244  0.1366
 7640SOL    HW234383   4.581   1.187   6.730  0.1918 -0.3116 -1.1142
 7641SOL     OW34384   1.677   3.948  14.819  0.2341  0.4773  0.4089
 7641SOL    HW134385   1.746   3.961  14.754 -0.9312  0.6646 -0.7731
 7641SOL    HW234386   1.721   3.957  14.904  0.9860 -3.0304  0.4106
 7642SOL     OW34387   3.816   3.790   6.277 -0.0113 -0.6365 -0.4276
 7642SOL    HW134388   3.815   3.727   6.349  0.1600  0.1201  0.2434
 7642SOL    HW234389   3.740   3.770   6.223 -0.9848  2.0944 -0.0454
 7643SOL     OW34390   2.781   1.718   5.619  0.3719 -0.4855  0.1488
 7643SOL    HW134391   2.762   1.701   5.527  0.9453  0.1502 -0.0809
 7643SOL    HW234392   2.854   1.779   5.620 -0.1167  0.1185 -1.3864
 7644SOL     OW34393   3.518   0.266   1.933  0.2262 -0.2160 -0.4949
 7644SOL    HW134394   3.439   0.271   1.985 -0.4625 -1.3706 -1.4373
 7644SOL    HW234395   3.515   0.352   1.890  0.9782 -0.0254 -0.1623
 7645SOL     OW34396   4.660   1.405   5.412 -0.0406 -0.3454  0.0860
 7645SOL    HW134397   0.010   1.416   5.467 -1.1117 -2.7434  2.0974
 7645SOL    HW234398   4.636   1.494   5.387 -2.3326 -1.3012 -1.1128
 7646SOL     OW34399   3.987   3.740   6.574  0.1624  0.5687 -0.4270
 7646SOL    HW134400   3.995   3.678   6.502 -1.2351 -0.0704 -0.0311
 7646SOL    HW234401   3.994   3.673   6.643  1.9744 -1.3799 -2.5282
 7647SOL     OW34402   3.181   4.063   8.147 -0.2180  0.0440 -0.6383
 7647SOL    HW134403   3.149   4.026   8.064  1.2230 -1.0932 -0.6960
 7647SOL    HW234404   3.126   4.139   8.164  0.4500  0.7004 -1.4245
 7648SOL     OW34405   3.647   3.411   9.298  0.2782  0.6931  0.0773
 7648SOL    HW134406   3.573   3.429   9.241  1.2686 -1.9894 -2.0852
 7648SOL    HW234407   3.683   3.498   9.313  0.0856  0.9643 -1.0241
 7649SOL     OW34408   4.059   1.762   3.344 -0.4667  0.6674 -0.5204
 7649SOL    HW134409   3.979   1.712   3.330 -0.0408  0.2561 -1.4840
 7649SOL    HW234410   4.070   1.783   3.251 -1.2516 -0.3473 -0.8306
 7650SOL     OW34411   3.774   3.109  15.606 -0.4037  0.1157 -0.1785
 7650SOL    HW134412   3.728   3.025  15.609  0.4294 -0.3671 -1.0824
 7650SOL    HW234413   3.761   3.127  15.513 -1.6042  0.5497  0.0748
 7651SOL     OW34414   4.049   2.352   7.513  0.3039  0.0914 -0.0960
 7651SOL    HW134415   4.127   2.305   7.482  0.7978 -0.3848  1.8369
 7651SOL    HW234416   4.018   2.292   7.581  0.9040 -0.0527  0.0545
 7652SOL     OW34417   4.400   3.402   7.099 -0.0831  0.2866  0.0876
 7652SOL    HW134418   4.347   3.350   7.159  1.1702  0.4355  1.3192
 7652SOL    HW234419   4.410   3.472   7.164  3.1467 -0.8348  0.7991
 7653SOL     OW34420   1.809   0.091  11.225  0.1785  0.0981  0.3898
 7653SOL    HW134421   1.726   0.130  11.197  1.5366  2.0759 -0.9039
 7653SOL    HW234422   1.860   0.109  11.146  0.5325 -0.6883  0.4380
 7654SOL     OW34423   3.652   2.063   3.697  0.7396  0.0948 -0.1779
 7654SOL    HW134424   3.698   1.982   3.674 -1.7462 -1.4638  0.3674
 7654SOL    HW234425   3.580   2.027   3.750  0.8360  0.0018 -0.1085
 7655SOL     OW34426   2.884   2.400   0.674 -0.4055 -0.0400  1.0475
 7655SOL    HW134427   2.893   2.494   0.690 -0.6744  0.1415  0.1546
 7655SOL    HW234428   2.791   2.401   0.653 -0.3162  1.0548  0.7156
 7656SOL     OW34429   1.492   2.323   3.209 -0.5095 -0.1853  0.1214
 7656SOL    HW134430   1.535   2.402   3.239 -0.0348 -1.5702  3.1214
 7656SOL    HW234431   1.429   2.301   3.278  0.4736  1.5554  1.5444
 7657SOL     OW34432   1.879   1.631   9.594 -0.4399 -0.3705  0.3687
 7657SOL    HW134433   1.894   1.543   9.629 -0.3403 -0.2928  0.5212
 7657SOL    HW234434   1.927   1.628   9.511  1.2998  0.2233  1.3448
 7658SOL     OW34435   1.240   0.579   1.492 -0.1513  0.1537 -0.1464
 7658SOL    HW134436   1.184   0.648   1.457 -3.6600 -1.7999  1.5973
 7658SOL    HW234437   1.247   0.521   1.417  1.1456 -0.9727  0.8327
 7659SOL     OW34438   3.721   3.340   9.584  0.0891 -0.2259 -0.3452
 7659SOL    HW134439   3.713   3.385   9.500  1.7132 -0.6580 -0.7530
 7659SOL    HW234440   3.710   3.415   9.642 -0.1748  1.7247 -2.9194
 7660SOL     OW34441   2.553   4.199  13.233 -0.1333  0.2856 -0.7841
 7660SOL    HW134442   2.640   4.221  13.266 -0.7328  0.1123  0.8940
 7660SOL    HW234443   2.516   4.144  13.302 -0.4830 -1.5930 -2.4814
 7661SOL     OW34444   4.273   3.987   7.899  0.3205 -0.5722 -0.2740
 7661SOL    HW134445   4.214   3.982   7.823  1.8091 -1.4250 -1.3764
 7661SOL    HW234446   4.264   3.898   7.930  0.8696 -1.5308 -2.8342
 7662SOL     OW34447   1.997   1.627   4.542  0.1208  0.4143  0.1093
 7662SOL    HW134448   1.918   1.576   4.556 -0.5947  1.3485 -0.4745
 7662SOL    HW234449   2.018   1.599   4.452  2.1910  1.2295  0.3413
 7663SOL     OW34450   2.120   3.043   7.246  0.2339 -0.5797  0.4461
 7663SOL    HW134451   2.048   2.987   7.220  0.1125 -0.6018  0.8245
 7663SOL    HW234452   2.194   2.999   7.204  0.9111  1.7024 -0.7601
 7664SOL     OW34453   4.704   0.658   2.933 -0.3028  0.0958  0.1007
 7664SOL    HW134454   4.712   0.586   2.871 -0.0214  0.6462 -0.4979
 7664SOL    HW234455   0.055   0.705   2.905 -0.1871 -0.0388  0.2002
 7665SOL     OW34456   2.493   0.683   4.007 -0.2325 -0.6975  0.2518
 7665SOL    HW134457   2.563   0.731   4.050  0.4998 -0.3167 -1.3663
 7665SOL    HW234458   2.509   0.595   4.043  1.9112 -0.2867  0.2772
 7666SOL     OW34459   0.004   4.097   3.803  0.6495  0.5747 -0.1331
 7666SOL    HW134460   0.021   4.150   3.726  3.9896 -2.0818 -1.2014
 7666SOL    HW234461   4.654   4.141   3.838  1.2840  1.5505  0.0411
 7667SOL     OW34462   1.058   2.232  13.998 -0.5492  0.2297 -0.0511
 7667SOL    HW134463   1.106   2.254  13.919 -1.0300  0.8355 -0.1707
 7667SOL    HW234464   1.102   2.280  14.068 -0.2154  1.2969 -1.0006
 7668SOL     OW34465   2.102   4.145  14.315  0.0843  0.0154  0.2810
 7668SOL    HW134466   2.138   4.223  14.273  1.8872 -0.0048  1.7897
 7668SOL    HW234467   2.065   4.189  14.391 -1.8626  1.1875 -1.3258
 7669SOL     OW34468   3.282   0.576   6.259 -1.0463 -0.3335 -0.2845
 7669SOL    HW134469   3.343   0.646   6.235 -0.2590 -1.0376 -0.3313
 7669SOL    HW234470   3.328   0.493   6.269 -0.1974  0.4406  2.2978
 7670SOL     OW34471   1.884   2.569   0.215 -0.0049  0.3514 -0.4264
 7670SOL    HW134472   1.909   2.638   0.277 -1.9562 -0.4414  1.2494
 7670SOL    HW234473   1.897   2.605   0.127 -0.7243 -0.8963 -1.0378
 7671SOL     OW34474   3.004   2.235   0.472  0.6257  0.3217  0.1979
 7671SOL    HW134475   3.080   2.289   0.492  0.3788  0.5446  0.5366
 7671SOL    HW234476   2.950   2.256   0.548 -2.1366  0.2053 -1.6963
 7672SOL     OW34477   2.461   0.948   7.025  0.0272  0.5598 -0.3736
 7672SOL    HW134478   2.512   0.882   7.072  0.6921  1.8994  0.7914
 7672SOL    HW234479   2.488   1.030   7.067  0.3995  0.7857 -1.0421
 7673SOL     OW34480   2.531   3.445  16.370 -0.4673 -0.4925 -0.3272
 7673SOL    HW134481   2.436   3.449  16.358 -0.0755  2.4292 -2.3597
 7673SOL    HW234482   2.532   3.350  16.380 -0.8630 -0.1990  2.3695
 7674SOL     OW34483   3.283   2.276   8.022 -0.2822 -0.0866 -0.1185
 7674SOL    HW134484   3.217   2.344   8.028 -1.9018 -1.7217  0.7684
 7674SOL    HW234485   3.331   2.303   8.100  1.1589 -3.0694  0.0482
 7675SOL     OW34486   1.183   2.228  10.114 -0.1400 -0.3890  0.3348
 7675SOL    HW134487   1.137   2.172  10.177 -2.3463  2.3531  1.1101
 7675SOL    HW234488   1.272   2.193  10.125 -0.0976  0.3395  2.2939
 7676SOL     OW34489   2.081   1.755   3.724  0.5089  0.1917 -0.0736
 7676SOL    HW134490   2.062   1.848   3.708 -2.8417 -0.5448 -0.2702
 7676SOL    HW234491   1.993   1.718   3.730  1.4413 -2.0476 -0.4125
 7677SOL     OW34492   1.815   0.047   9.646 -0.0363 -0.1519 -0.0865
 7677SOL    HW134493   1.746   0.084   9.591  0.2694 -0.1904 -0.4972
 7677SOL    HW234494   1.797   4.681   9.649 -0.7293 -0.0151 -0.2051
 7678SOL     OW34495   1.703   0.170   4.981 -0.0099  0.4766  0.2802
 7678SOL    HW134496   1.742   0.258   4.984  0.6831  0.1349  1.5073
 7678SOL    HW234497   1.723   0.126   5.064  0.8704  0.9508  0.3240
 7679SOL     OW34498   1.932   1.143  12.906  0.0683 -0.5759 -0.0358
 7679SOL    HW134499   1.960   1.075  12.967  0.3003  0.0445  0.5452
 7679SOL    HW234500   1.902   1.089  12.834  0.1758 -2.3127  1.2178
 7680SOL     OW34501   3.474   3.265   2.677 -0.0266  0.0938 -0.1909
 7680SOL    HW134502   3.456   3.317   2.598  1.1416 -0.2125 -0.6523
 7680SOL    HW234503   3.414   3.192   2.666 -1.7144  1.3147  0.8652
 7681SOL     OW34504   0.774   1.000  13.735  0.3932 -0.1768  0.3101
 7681SOL    HW134505   0.726   1.001  13.817  0.1954 -0.2623  0.1967
 7681SOL    HW234506   0.713   0.955  13.676  1.4462 -0.0463 -0.8874
 7682SOL     OW34507   0.026   4.541   5.383  0.3084  0.2182  0.1739
 7682SOL    HW134508   0.073   4.521   5.302  1.8719 -0.1975  1.1801
 7682SOL    HW234509   0.038   4.460   5.432 -2.6395  0.1008  0.6955
 7683SOL     OW34510   2.050   1.045   5.442 -0.0247  0.2550 -0.1025
 7683SOL    HW134511   1.999   1.060   5.363 -0.4366  1.2827  0.3712
 7683SOL    HW234512   2.130   0.997   5.417 -0.4742 -0.1514 -0.7775
 7684SOL     OW34513   2.026   4.079   1.658 -0.5493  0.1554  0.0530
 7684SOL    HW134514   2.024   4.030   1.741  2.3907  0.3176  0.2185
 7684SOL    HW234515   1.932   4.095   1.659 -0.6686 -0.5309  0.4693
 7685SOL     OW34516   2.663   1.392  10.123  0.1667  0.0594 -0.2619
 7685SOL    HW134517   2.718   1.369  10.048 -0.3566  0.0030 -0.6241
 7685SOL    HW234518   2.724   1.446  10.174 -1.2048 -0.5957  2.0392
 7686SOL     OW34519   2.161   0.624  10.531 -0.0306 -0.6462  0.0724
 7686SOL    HW134520   2.084   0.636  10.475 -0.2816  0.2573  0.5966
 7686SOL    HW234521   2.228   0.675  10.485 -0.2176 -1.3758 -0.9927
 7687SOL     OW34522   1.783   1.869   6.885  0.5662 -0.0679  0.2406
 7687SOL    HW134523   1.742   1.866   6.971 -0.3538 -0.8859 -0.2310
 7687SOL    HW234524   1.828   1.784   6.887  2.9933  1.1697 -0.9896
 7688SOL     OW34525   1.196   1.021  11.147  0.1021 -0.0816 -0.0801
 7688SOL    HW134526   1.149   0.954  11.196 -1.4161  0.5841 -0.6433
 7688SOL    HW234527   1.144   1.033  11.068  0.4314 -2.0452 -0.5797
 7689SOL     OW34528   0.881   0.187   8.773 -0.1220  0.9188  0.3065
 7689SOL    HW134529   0.814   0.165   8.708  0.4908 -0.1637  0.0371
 7689SOL    HW234530   0.949   0.226   8.717  0.4657 -0.3826  0.0903
 7690SOL     OW34531   1.158   2.300  10.816  0.1839 -0.4331  0.0498
 7690SOL    HW134532   1.211   2.244  10.872  1.8375  2.4000  1.3202
 7690SOL    HW234533   1.109   2.351  10.881  1.4011  1.3460 -0.4146
 7691SOL     OW34534   0.969   2.040   6.535  0.3232  0.3404 -0.0180
 7691SOL    HW134535   1.052   2.086   6.524 -1.1170  2.9004 -0.1488
 7691SOL    HW234536   0.968   1.984   6.457  1.0724 -0.5693  0.6307
 7692SOL     OW34537   2.252   3.458  10.385  0.6660  0.1908 -0.3983
 7692SOL    HW134538   2.345   3.458  10.405  1.3228 -0.0004 -3.5550
 7692SOL    HW234539   2.228   3.543  10.424  0.2050 -0.2800  0.3669
 7693SOL     OW34540   0.900   1.310   0.899 -0.8545 -0.4865 -0.6217
 7693SOL    HW134541   0.849   1.388   0.921 -0.4024 -0.4631  0.3528
 7693SOL    HW234542   0.903   1.311   0.803 -1.6172 -0.8623 -0.6479
 7694SOL     OW34543   2.613   0.065   7.181  0.0550  0.6026 -0.3181
 7694SOL    HW134544   2.526   0.061   7.219  1.1737 -0.7702  2.0972
 7694SOL    HW234545   2.647   0.146   7.217 -1.1990  1.1365 -0.3332
 7695SOL     OW34546   1.107   0.008   8.519 -0.3591  0.8359  0.5037
 7695SOL    HW134547   1.130   0.058   8.441 -0.4621 -1.8683 -1.2804
 7695SOL    HW234548   1.095   0.070   8.591  0.7571 -1.9685  3.1500
 7696SOL     OW34549   0.633   0.496   1.388  0.3932 -0.0139  0.5986
 7696SOL    HW134550   0.597   0.521   1.474 -0.7498 -2.3068  0.7714
 7696SOL    HW234551   0.697   0.431   1.416  0.3110  0.7045  2.4619
 7697SOL     OW34552   1.819   0.137   7.194  0.1246  0.0454 -0.1106
 7697SOL    HW134553   1.816   0.048   7.228  0.8342 -0.3928 -1.1636
 7697SOL    HW234554   1.908   0.146   7.157  0.2530 -2.3903 -0.3551
 7698SOL     OW34555   3.216   2.347   7.448 -0.1220  0.1453  0.3107
 7698SOL    HW134556   3.214   2.336   7.353 -1.8452  1.9942  0.1380
 7698SOL    HW234557   3.158   2.423   7.448 -0.6449 -0.2545  1.3637
 7699SOL     OW34558   3.637   3.804   5.052 -0.2091  0.1038 -0.1832
 7699SOL    HW134559   3.575   3.738   5.084 -1.1446  1.2473  0.3772
 7699SOL    HW234560   3.635   3.795   4.957 -0.0584 -0.7388 -0.1094
 7700SOL     OW34561   2.064   3.133  13.575 -0.2967  0.1736  0.1469
 7700SOL    HW134562   2.037   3.224  13.562  0.7232  0.6068  1.1381
 7700SOL    HW234563   1.977   3.093  13.583  0.1213 -0.5870  0.8169
 7701SOL     OW34564   1.682   4.456   5.802 -0.7259  0.3884  1.0646
 7701SOL    HW134565   1.632   4.502   5.869 -0.9537  0.6756  0.6962
 7701SOL    HW234566   1.611   4.423   5.747  0.5693 -0.4901 -0.0957
 7702SOL     OW34567   1.821   1.258   0.380 -0.0434  0.0197  0.2805
 7702SOL    HW134568   1.870   1.265   0.462  1.0021  1.5116 -0.4667
 7702SOL    HW234569   1.737   1.290   0.411  0.2084 -0.7203  1.7124
 7703SOL     OW34570   3.835   1.137   8.537  0.2319  0.2535  0.1351
 7703SOL    HW134571   3.853   1.182   8.620 -0.3030 -0.5886  0.6994
 7703SOL    HW234572   3.834   1.043   8.554 -0.5441 -0.0053 -1.3588
 7704SOL     OW34573   0.191   1.080  15.087 -0.2722  0.4122 -0.3443
 7704SOL    HW134574   0.149   1.086  15.002 -2.6328  1.5139  0.8957
 7704SOL    HW234575   0.217   1.172  15.090 -1.1850  0.6115  1.3358
 7705SOL     OW34576   3.307   0.949   2.106 -0.3167  0.2995 -0.4263
 7705SOL    HW134577   3.334   0.874   2.158 -0.3611  0.8807  0.4419
 7705SOL    HW234578   3.291   1.019   2.170  2.7872 -0.3353  1.0010
 7706SOL     OW34579   2.691   4.142  14.878 -0.6955 -0.4151 -0.5314
 7706SOL    HW134580   2.761   4.197  14.914 -3.3190  3.1597 -0.9849
 7706SOL    HW234581   2.705   4.172  14.789  2.7592 -1.7269 -0.4585
 7707SOL     OW34582   0.738   1.734  12.190 -0.2962 -0.7497  0.4819
 7707SOL    HW134583   0.808   1.757  12.252 -0.7679  3.3899 -0.5184
 7707SOL    HW234584   0.795   1.720  12.115  0.4677  0.1658  0.8842
 7708SOL     OW34585   4.364   0.319  16.202 -0.1728  0.2368  0.0411
 7708SOL    HW134586   4.396   0.402  16.238 -2.9213  1.9582 -1.4802
 7708SOL    HW234587   4.367   0.331  16.107  0.2942 -0.1145  0.0143
 7709SOL     OW34588   2.809   3.289   6.681  0.5322  0.1000  0.4070
 7709SOL    HW134589   2.837   3.229   6.750 -0.9701 -2.2769 -1.0191
 7709SOL    HW234590   2.719   3.305   6.713  0.7316 -1.1605  1.5912
 7710SOL     OW34591   0.901   2.717  12.298 -0.0219 -0.2540  0.0238
 7710SOL    HW134592   0.880   2.799  12.343  0.2685 -0.6567  0.8799
 7710SOL    HW234593   0.826   2.708  12.238  0.7437 -1.5468 -0.7230
 7711SOL     OW34594   4.002   1.983   0.938  0.1690  0.1191 -0.1612
 7711SOL    HW134595   4.001   2.074   0.909  1.0728  0.2299  0.1542
 7711SOL    HW234596   4.094   1.964   0.955 -0.4668 -2.6244  0.3270
 7712SOL     OW34597   3.798   3.184   2.906  0.4187  0.4265  0.5117
 7712SOL    HW134598   3.802   3.276   2.880  0.0591  0.3850  0.3143
 7712SOL    HW234599   3.849   3.140   2.838 -0.7353 -0.4974  0.2488
 7713SOL     OW34600   1.814   4.676  13.325 -0.3373  0.2634 -0.4760
 7713SOL    HW134601   1.825   4.693  13.419  1.8268 -1.4547 -0.4203
 7713SOL    HW234602   1.896   4.712  13.291  1.5072 -2.0786  1.4276
 7714SOL     OW34603   4.567   0.345   2.671 -0.2240  0.0952  0.0993
 7714SOL    HW134604   4.496   0.397   2.636  2.2789  0.8786 -3.8260
 7714SOL    HW234605   4.631   0.416   2.668 -0.0647 -0.1646 -2.8339
 7715SOL     OW34606   3.677   0.906   3.873  0.1375 -0.0610  0.3772
 7715SOL    HW134607   3.636   0.877   3.792  0.5838 -1.5638  0.7026
 7715SOL    HW234608   3.761   0.866   3.851 -1.4574 -2.2530 -1.7085
 7716SOL     OW34609   0.221   3.526   6.649 -0.3502  0.0534  0.6213
 7716SOL    HW134610   0.226   3.602   6.592 -1.5137 -0.3390  0.0043
 7716SOL    HW234611   0.248   3.572   6.728 -1.1560  0.5872  0.5764
 7717SOL     OW34612   2.164   2.236   7.269  0.1156 -0.1181 -0.4158
 7717SOL    HW134613   2.237   2.250   7.208 -0.4782  1.7944 -0.6861
 7717SOL    HW234614   2.166   2.319   7.316 -1.8404 -0.7753  0.8188
 7718SOL     OW34615   4.021   2.382  11.625  0.2274  0.4724  0.2074
 7718SOL    HW134616   4.056   2.302  11.585 -2.7697 -0.1569 -1.1130
 7718SOL    HW234617   4.068   2.450  11.577 -0.8950  0.3561 -1.0563
 7719SOL     OW34618   2.571   4.345   3.931  0.3318 -0.2607  0.3280
 7719SOL    HW134619   2.585   4.412   3.998  1.1716  1.1567 -1.2534
 7719SOL    HW234620   2.663   4.318   3.927  1.0683  2.0527  1.7664
 7720SOL     OW34621   0.261   2.981   4.989 -0.2805  0.7333 -0.3634
 7720SOL    HW134622   0.334   2.985   4.926  0.7872 -0.2685  0.8124
 7720SOL    HW234623   0.194   2.946   4.930 -0.1747  1.1440 -0.7248
 7721SOL     OW34624   2.292   2.866   7.182  0.2598  0.0182  0.7349
 7721SOL    HW134625   2.261   2.786   7.225 -3.6928  1.3329  0.3425
 7721SOL    HW234626   2.290   2.850   7.088 -0.5068 -1.5477  1.0284
 7722SOL     OW34627   1.254   2.604  10.802  0.6590 -0.0877  0.3270
 7722SOL    HW134628   1.224   2.517  10.830 -0.9519  0.6819  1.0395
 7722SOL    HW234629   1.345   2.588  10.780  0.9671  2.2187 -0.1023
 7723SOL     OW34630   1.275   1.930   9.193 -0.0205  0.6426 -0.6296
 7723SOL    HW134631   1.223   1.855   9.223  0.1007  0.7592 -0.1214
 7723SOL    HW234632   1.339   1.928   9.264  0.5899 -1.1301 -1.2343
 7724SOL     OW34633   2.478   0.009   5.642  0.0738 -0.9222 -0.4272
 7724SOL    HW134634   2.424   0.022   5.720 -0.4254  0.5865 -1.0390
 7724SOL    HW234635   2.496   4.643   5.644  0.7712 -0.8036 -0.8839
 7725SOL     OW34636   4.054   4.516   6.116  0.2276 -0.4334  0.0823
 7725SOL    HW134637   4.103   4.564   6.183  1.6909 -3.7436  1.4002
 7725SOL    HW234638   3.983   4.481   6.169 -0.9587  0.9002 -0.6213
 7726SOL     OW34639   2.539   2.840   4.285  0.7728  0.0919  0.0394
 7726SOL    HW134640   2.475   2.796   4.229  0.7453 -1.0433  0.9582
 7726SOL    HW234641   2.573   2.914   4.234  1.2769 -0.5898 -0.6237
 7727SOL     OW34642   3.108   4.247   0.355  0.6816 -0.0404 -0.1585
 7727SOL    HW134643   3.172   4.313   0.329 -1.2758  1.9474  0.0070
 7727SOL    HW234644   3.025   4.294   0.345 -0.1691 -1.5417 -0.1151
 7728SOL     OW34645   1.453   1.108  16.972  0.2025  0.1687 -0.1007
 7728SOL    HW134646   1.365   1.081  16.949  0.8487 -0.1731 -2.1195
 7728SOL    HW234647   1.505   1.035  16.938 -0.2915 -0.0575 -0.3623
 7729SOL     OW34648   2.856   3.351   7.283  0.6485 -0.0737 -0.2994
 7729SOL    HW134649   2.861   3.304   7.200  1.7955 -0.0179 -0.2684
 7729SOL    HW234650   2.853   3.278   7.344 -0.4906 -0.4681 -0.8433
 7730SOL     OW34651   4.655   1.648   8.023  0.2652  0.1111 -0.0500
 7730SOL    HW134652   4.628   1.738   8.007 -1.6697 -0.7318 -1.4246
 7730SOL    HW234653   4.636   1.642   8.117  1.3807 -0.9141  0.1175
 7731SOL     OW34654   1.639   1.391   4.421  0.1635 -0.1086  0.9938
 7731SOL    HW134655   1.705   1.365   4.357  1.2417  0.6808  1.7869
 7731SOL    HW234656   1.589   1.312   4.441 -1.5707  1.0175  1.1315
 7732SOL     OW34657   3.690   3.455  17.150 -0.2972 -0.4739 -0.3348
 7732SOL    HW134658   3.601   3.419  17.152 -0.7100  0.5337 -0.5544
 7732SOL    HW234659   3.706   3.467  17.057 -1.2395 -2.1695 -0.7115
 7733SOL     OW34660   1.922   4.653   1.799  0.6329  0.3519  0.1388
 7733SOL    HW134661   1.830   4.628   1.790  0.9694 -0.6454 -0.5018
 7733SOL    HW234662   1.968   4.595   1.738  0.7884  2.4285 -1.7064
 7734SOL     OW34663   1.142   1.582   3.636 -0.7866 -0.4596  0.2101
 7734SOL    HW134664   1.229   1.576   3.674 -1.4661  0.1895  1.8719
 7734SOL    HW234665   1.127   1.674   3.613 -0.0913 -0.7613 -1.4225
 7735SOL     OW34666   4.687   0.462   5.126 -1.0711 -0.8211  0.8955
 7735SOL    HW134667   4.710   0.554   5.112 -0.2511 -1.1212  0.2689
 7735SOL    HW234668   4.614   0.474   5.187  0.6927  0.0238  2.8395
 7736SOL     OW34669   1.659   1.015   5.752  0.7665  0.2850  0.1671
 7736SOL    HW134670   1.751   0.994   5.736 -0.1894 -2.0441 -2.2955
 7736SOL    HW234671   1.671   1.088   5.813  0.1960  0.5499 -0.0374
 7737SOL     OW34672   4.069   1.156  11.107 -0.3956 -0.4450  0.5565
 7737SOL    HW134673   3.984   1.170  11.065 -0.6226  0.9763  1.5179
 7737SOL    HW234674   4.085   1.243  11.143 -2.3647 -0.2567  0.9789
 7738SOL     OW34675   0.776   4.148   3.243  0.4698  0.5135 -0.0620
 7738SOL    HW134676   0.826   4.066   3.246  2.5343  1.7746 -0.2522
 7738SOL    HW234677   0.725   4.139   3.323  1.4490 -1.2470  0.3723
 7739SOL     OW34678   3.141   1.022   4.875 -0.0662  0.0321 -0.2159
 7739SOL    HW134679   3.168   1.107   4.839 -0.3651 -0.1330 -0.8242
 7739SOL    HW234680   3.126   0.973   4.794  2.6887 -0.5220 -0.4081
 7740SOL     OW34681   0.739   1.039   5.073  0.6538  0.1467 -0.5308
 7740SOL    HW134682   0.649   1.016   5.049  0.6701 -2.0406  1.5095
 7740SOL    HW234683   0.786   0.963   5.039  0.3819  0.1226 -0.8585
 7741SOL     OW34684   4.709   3.123   5.050 -0.6717  0.1178 -0.8944
 7741SOL    HW134685   0.006   3.196   4.994 -0.4287  0.6768 -0.0475
 7741SOL    HW234686   0.042   3.061   5.009  0.0638  1.7708 -2.2799
 7742SOL     OW34687   3.935   2.921  10.483 -0.1095 -0.1685  0.0995
 7742SOL    HW134688   3.864   2.980  10.458  1.7490  2.0248 -0.0128
 7742SOL    HW234689   4.009   2.979  10.469 -0.7409  0.1638 -1.8305
 7743SOL     OW34690   4.199   3.413   5.457 -0.0562  0.3939 -0.2068
 7743SOL    HW134691   4.139   3.372   5.519 -0.5902 -0.8804 -1.5677
 7743SOL    HW234692   4.227   3.482   5.517  1.7400 -0.8253  0.3766
 7744SOL     OW34693   4.100   0.570   8.031  0.5487 -0.1428  0.3381
 7744SOL    HW134694   4.102   0.540   8.122 -1.2877 -0.7568  0.1801
 7744SOL    HW234695   4.170   0.513   8.000  0.9213 -1.0252  2.7795
 7745SOL     OW34696   1.028   2.407  12.228 -0.2083 -0.3332 -0.2692
 7745SOL    HW134697   0.978   2.385  12.307  1.2861 -1.0763  0.4705
 7745SOL    HW234698   1.117   2.385  12.257 -1.2466 -1.0523  2.3103
 7746SOL     OW34699   2.202   3.138   5.130  0.0565  0.2930 -0.1615
 7746SOL    HW134700   2.205   3.072   5.062  0.4460  2.3220 -2.1279
 7746SOL    HW234701   2.109   3.156   5.143 -0.5257 -3.3423  0.5910
 7747SOL     OW34702   0.914   4.263   1.155  0.0558  0.1028  0.2299
 7747SOL    HW134703   0.882   4.173   1.155 -1.2326  0.5573  3.5197
 7747SOL    HW234704   1.001   4.255   1.117 -0.2805  0.5221 -0.6262
 7748SOL     OW34705   1.380   3.915   1.002  0.0719  0.0775 -0.6917
 7748SOL    HW134706   1.383   3.838   1.058  1.6307 -0.6495 -1.7664
 7748SOL    HW234707   1.315   3.971   1.044 -0.1776  0.2560 -1.3041
 7749SOL     OW34708   0.027   2.948   8.568  0.1418  0.5765  0.0978
 7749SOL    HW134709   0.096   2.926   8.630  1.7849 -1.3886 -2.4290
 7749SOL    HW234710   0.050   2.898   8.489 -1.8073  0.3763 -0.3631
 7750SOL     OW34711   1.873   2.547  14.676  0.3105 -0.4427  0.3044
 7750SOL    HW134712   1.844   2.468  14.631  1.4719 -0.8888  0.3192
 7750SOL    HW234713   1.896   2.599  14.599  1.1294 -0.3969  0.5745
 7751SOL     OW34714   0.720   3.987   6.960 -0.4713 -0.2527 -0.3895
 7751SOL    HW134715   0.757   3.909   7.000 -1.9724 -0.9669 -0.3704
 7751SOL    HW234716   0.798   4.041   6.948  0.6590 -1.8366 -0.0821
 7752SOL     OW34717   3.771   1.693   9.238  0.1118 -0.0459  0.1376
 7752SOL    HW134718   3.690   1.737   9.214 -1.5229 -1.9974  2.0663
 7752SOL    HW234719   3.746   1.606   9.209 -1.0730  0.9583 -1.8244
 7753SOL     OW34720   2.038   1.175  17.171  0.6013  0.0078 -0.2407
 7753SOL    HW134721   2.081   1.093  17.194  1.1158  0.3024 -0.1494
 7753SOL    HW234722   2.084   1.229  17.235 -1.2714  0.9275  0.3411
 7754SOL     OW34723   0.707   0.960   7.705 -0.4993  0.3896  0.4053
 7754SOL    HW134724   0.704   1.010   7.624  1.0038  0.3544  0.3281
 7754SOL    HW234725   0.615   0.952   7.730 -0.3590  0.6769  0.9966
 7755SOL     OW34726   3.015   1.814   3.735 -0.2118  0.1211  0.0973
 7755SOL    HW134727   2.963   1.864   3.798 -1.9804 -1.0550 -0.4438
 7755SOL    HW234728   3.064   1.891   3.706 -2.4431  2.1013  1.6294
 7756SOL     OW34729   3.418   2.017   0.087 -0.1861 -0.2110 -0.3463
 7756SOL    HW134730   3.379   2.024   0.000  0.8904 -0.7375 -0.8795
 7756SOL    HW234731   3.395   1.926   0.109  0.7595 -0.2128  0.6330
 7757SOL     OW34732   4.175   4.712   7.297  0.0168 -0.6708  0.0676
 7757SOL    HW134733   4.113   4.643   7.272 -0.6313  0.7118 -2.1773
 7757SOL    HW234734   4.253   4.680   7.253  2.0703  1.6260  2.0767
 7758SOL     OW34735   2.288   3.415   5.198 -0.0589  0.2149  0.2041
 7758SOL    HW134736   2.289   3.445   5.107  1.9348  1.2551  0.5654
 7758SOL    HW234737   2.249   3.328   5.186  0.2643  0.0361  0.4376
 7759SOL     OW34738   1.137   4.071   3.491 -0.2711 -0.2347 -0.3253
 7759SOL    HW134739   1.174   3.984   3.507  0.5175  0.3707  1.0755
 7759SOL    HW234740   1.075   4.072   3.563 -1.2328 -3.0188 -1.1092
 7760SOL     OW34741   3.563   3.670  16.249 -0.3137  0.1582  0.0124
 7760SOL    HW134742   3.533   3.625  16.328  0.3354  0.0272  0.1849
 7760SOL    HW234743   3.505   3.745  16.237  0.4659  0.7822  0.0577
 7761SOL     OW34744   4.326   0.796   7.947  1.1007  0.1787 -0.0888
 7761SOL    HW134745   4.246   0.756   7.913  1.2549 -1.2803  1.2939
 7761SOL    HW234746   4.375   0.719   7.973  1.5613  0.7628  0.7887
 7762SOL     OW34747   2.781   4.545   2.047 -0.3096  0.5211  0.5883
 7762SOL    HW134748   2.876   4.540   2.055  0.0392  1.4945 -3.0027
 7762SOL    HW234749   2.768   4.622   1.992 -2.4692 -1.9068 -2.2743
 7763SOL     OW34750   1.211   2.664  12.314  0.5706  0.5907  0.0100
 7763SOL    HW134751   1.247   2.581  12.344 -0.1592  0.9285  1.7968
 7763SOL    HW234752   1.183   2.693  12.401 -1.1521 -3.2296  0.7300
 7764SOL     OW34753   3.128   1.222   2.607 -0.2348 -0.5895  0.3512
 7764SOL    HW134754   3.111   1.316   2.615 -0.1664 -0.5285 -0.2094
 7764SOL    HW234755   3.203   1.219   2.547  0.9001  0.1662  1.7168
 7765SOL     OW34756   1.720   4.645   4.878 -0.5451 -0.2638 -0.2320
 7765SOL    HW134757   1.816   4.655   4.881 -0.7093  0.9281  1.2193
 7765SOL    HW234758   1.700   0.002   4.918 -0.5427  0.4729 -1.7894
 7766SOL     OW34759   2.978   2.671   2.621  0.1044  0.0505  0.4595
 7766SOL    HW134760   3.011   2.622   2.546 -1.6349 -1.9059  0.9772
 7766SOL    HW234761   2.948   2.605   2.682  0.1104  0.2128  0.6381
 7767SOL     OW34762   3.833   3.982   3.483 -0.5223  0.0742 -0.2843
 7767SOL    HW134763   3.835   3.899   3.435  1.5948 -0.0795  0.0854
 7767SOL    HW234764   3.859   4.048   3.419 -0.8582 -0.1107 -0.6154
 7768SOL     OW34765   0.352   2.814  15.609 -0.2946 -0.1239  0.4822
 7768SOL    HW134766   0.301   2.741  15.644 -2.9698  0.6519 -1.8205
 7768SOL    HW234767   0.443   2.786  15.598 -0.6971 -1.5439  0.6589
 7769SOL     OW34768   0.519   0.237   3.819  0.4346  0.0319 -0.8953
 7769SOL    HW134769   0.545   0.266   3.731 -0.7463  1.1031 -0.9052
 7769SOL    HW234770   0.541   0.144   3.821 -1.5995 -0.3855  1.7171
 7770SOL     OW34771   1.713   2.096   8.738  0.4554  0.0189  0.5412
 7770SOL    HW134772   1.779   2.115   8.671 -0.7082  0.2031 -0.5595
 7770SOL    HW234773   1.659   2.031   8.693 -1.6298  1.0869  1.5035
 7771SOL     OW34774   1.343   1.487   8.663 -0.1964  0.4035  0.4820
 7771SOL    HW134775   1.379   1.463   8.578  1.0522  1.8531  0.5914
 7771SOL    HW234776   1.416   1.502   8.723 -0.4893 -0.6430  1.0989
 7772SOL     OW34777   3.139   2.424   5.293  0.1924 -0.3510 -0.3552
 7772SOL    HW134778   3.115   2.510   5.259 -0.5561 -0.4362 -0.0489
 7772SOL    HW234779   3.142   2.371   5.213  1.4985 -0.8205 -0.0077
 7773SOL     OW34780   0.779   2.408   5.357  0.5490  0.1734 -0.2856
 7773SOL    HW134781   0.713   2.477   5.363  1.4515  1.0583 -0.6955
 7773SOL    HW234782   0.723   2.330   5.360  1.0563 -0.1195  1.8364
 7774SOL     OW34783   2.693   0.021   5.078  0.2594 -0.0471  0.6574
 7774SOL    HW134784   2.774   4.699   5.082  0.8897  0.9002 -0.2088
 7774SOL    HW234785   2.657   4.726   5.164 -1.5966 -0.7920 -0.3452
 7775SOL     OW34786   4.051   3.327   7.883 -0.0432  0.0577  0.0047
 7775SOL    HW134787   4.060   3.269   7.959 -0.3053 -1.6724 -1.2708
 7775SOL    HW234788   3.977   3.377   7.917  0.2561  0.7362 -0.3494
 7776SOL     OW34789   2.503   3.744  12.089 -0.0783 -0.5154  0.4369
 7776SOL    HW134790   2.506   3.713  11.998 -1.0388 -0.0138  0.2348
 7776SOL    HW234791   2.596   3.736  12.110 -0.0939  1.0274  1.1099
 7777SOL     OW34792   0.967   2.709   3.085 -0.5627 -0.1308 -0.1806
 7777SOL    HW134793   0.952   2.633   3.141  0.3335 -0.2534 -0.1106
 7777SOL    HW234794   1.000   2.660   3.010  0.8621 -2.0757  1.7465
 7778SOL     OW34795   3.953   2.050  15.734 -0.0739 -0.0600 -0.3735
 7778SOL    HW134796   3.980   2.018  15.648 -1.9674  1.9696 -1.7032
 7778SOL    HW234797   4.032   2.093  15.766 -1.4784  0.7377  2.0623
 7779SOL     OW34798   3.991   1.522   8.496 -0.3614  0.6774  0.2218
 7779SOL    HW134799   4.022   1.472   8.420 -0.9595  0.3670  0.1824
 7779SOL    HW234800   4.066   1.569   8.534  0.6933  0.6754 -1.8557
 7780SOL     OW34801   0.305   1.966  15.166 -0.4074  0.7860  0.0016
 7780SOL    HW134802   0.323   1.872  15.161  0.6815  0.9706  0.6135
 7780SOL    HW234803   0.392   1.993  15.193 -0.3944  1.2699 -0.5145
 7781SOL     OW34804   1.847   4.021   9.952  0.5953 -0.0550 -0.1952
 7781SOL    HW134805   1.842   4.063   9.866  2.2147 -2.4833 -1.4606
 7781SOL    HW234806   1.885   4.096   9.998  1.8398 -0.3797 -0.6985
 7782SOL     OW34807   2.084   3.901   9.735  0.9070  0.0791 -0.6154
 7782SOL    HW134808   2.025   3.967   9.701 -0.3590 -1.4867 -1.4390
 7782SOL    HW234809   2.022   3.831   9.752  1.9476 -0.7337 -0.1331
 7783SOL     OW34810   3.218   4.475   2.133  0.2444  0.0877 -0.3213
 7783SOL    HW134811   3.155   4.481   2.062 -0.9838 -4.9880  0.3749
 7783SOL    HW234812   3.187   4.403   2.188 -1.3588 -0.6935 -2.2826
 7784SOL     OW34813   3.014   4.409   4.480 -0.0883 -0.1130 -0.1171
 7784SOL    HW134814   2.960   4.432   4.556  0.1821  1.3895 -0.3746
 7784SOL    HW234815   2.942   4.408   4.417 -0.7712 -0.7978  0.6813
 7785SOL     OW34816   4.644   4.371  10.900  0.3817 -0.2947 -0.2784
 7785SOL    HW134817   4.556   4.380  10.936 -0.2286  0.9729 -2.1118
 7785SOL    HW234818   4.668   4.461  10.877  0.3658 -0.9304 -2.7056
 7786SOL     OW34819   1.093   0.936   3.206 -0.1777 -0.1363  0.3231
 7786SOL    HW134820   1.004   0.963   3.230  0.1046  1.6189 -0.5839
 7786SOL    HW234821   1.138   0.963   3.286  1.3458  0.5176 -0.7656
 7787SOL     OW34822   2.266   4.361   0.181  0.0169  0.3737  0.0503
 7787SOL    HW134823   2.358   4.352   0.155  0.3475  1.0264  1.0075
 7787SOL    HW234824   2.241   4.272   0.204  0.6478  0.2824  0.3829
 7788SOL     OW34825   2.313   0.046   4.945  0.7002  0.3620 -0.1391
 7788SOL    HW134826   2.328   0.094   4.863  2.0451  0.5703  0.2328
 7788SOL    HW234827   2.218   0.038   4.944  0.8032 -0.9327 -0.5062
 7789SOL     OW34828   1.871   1.897   8.240  0.2685 -0.1584 -0.9026
 7789SOL    HW134829   1.874   1.801   8.241 -0.1476 -0.1801 -1.9689
 7789SOL    HW234830   1.842   1.899   8.149 -0.6744  0.3870 -0.5843
 7790SOL     OW34831   0.858   4.356   9.224  0.3295  0.6692  0.3590
 7790SOL    HW134832   0.892   4.431   9.273  1.8305  0.5944 -0.5654
 7790SOL    HW234833   0.767   4.378   9.207 -0.4730 -2.3751  0.6443
 7791SOL     OW34834   2.162   4.410   1.207  0.3698 -0.2366 -0.1524
 7791SOL    HW134835   2.086   4.355   1.224 -0.4823  1.4349  1.3758
 7791SOL    HW234836   2.200   4.409   1.295 -0.3507 -2.1788  0.1458
 7792SOL     OW34837   0.247   1.538   8.690 -0.1059 -0.3344  0.4656
 7792SOL    HW134838   0.256   1.608   8.625 -3.4439  0.1907  0.5640
 7792SOL    HW234839   0.185   1.490   8.635  1.3302  0.6817 -2.0074
 7793SOL     OW34840   4.098   4.359   3.769 -0.7688 -0.3191 -0.8142
 7793SOL    HW134841   4.133   4.277   3.803 -2.1282 -1.4349 -2.0728
 7793SOL    HW234842   4.005   4.356   3.793 -0.3992  0.0953  0.6224
 7794SOL     OW34843   4.261   1.870   7.282 -0.1554 -0.1139 -0.5978
 7794SOL    HW134844   4.226   1.934   7.220 -1.4717  2.4038  2.7844
 7794SOL    HW234845   4.224   1.787   7.250 -2.8178  0.8734 -0.1164
 7795SOL     OW34846   1.198   4.078   4.722  0.3059  0.3793 -0.3399
 7795SOL    HW134847   1.218   3.990   4.693  1.8694  0.6343 -0.0273
 7795SOL    HW234848   1.266   4.107   4.783 -1.0238  2.4372  0.1677
 7796SOL     OW34849   4.507   3.801   2.720  0.1045  0.7084  0.2162
 7796SOL    HW134850   4.438   3.855   2.759 -0.7315  1.0030 -1.6542
 7796SOL    HW234851   4.518   3.844   2.635 -1.1810 -0.5570 -0.5969
 7797SOL     OW34852   2.190   4.324   2.452 -0.2158 -0.9811  0.3485
 7797SOL    HW134853   2.216   4.359   2.537  1.4801 -0.9508 -0.1788
 7797SOL    HW234854   2.222   4.399   2.402 -1.5557  1.2281  2.8438
 7798SOL     OW34855   1.773   3.605  10.291  0.0826  0.2735 -0.1260
 7798SOL    HW134856   1.783   3.685  10.343  1.1690 -0.6708  1.1061
 7798SOL    HW234857   1.844   3.553  10.329  0.7331  1.2836  0.0398
 7799SOL     OW34858   2.750   0.051   3.945 -0.3477  0.5281  0.2337
 7799SOL    HW134859   2.800   0.028   3.867 -0.5067 -0.5396  0.4337
 7799SOL    HW234860   2.676   0.096   3.905 -1.3532 -1.1502  0.2061
 7800SOL     OW34861   3.642   3.800  13.919  0.0011  0.5612 -0.2115
 7800SOL    HW134862   3.629   3.767  14.008  1.4366 -0.8820 -0.5481
 7800SOL    HW234863   3.617   3.893  13.923 -0.7154  0.4649 -2.3028
 7801SOL     OW34864   4.404   1.371   2.709  0.4712 -0.2576  0.2942
 7801SOL    HW134865   4.363   1.384   2.795  1.0534 -0.9020  0.6720
 7801SOL    HW234866   4.457   1.293   2.726  1.0872 -0.2354 -1.5001
 7802SOL     OW34867   4.599   3.605  11.394  0.0178  0.8372 -0.3102
 7802SOL    HW134868   4.559   3.666  11.456 -0.3336  0.9783 -0.6757
 7802SOL    HW234869   4.600   3.524  11.445 -2.0762 -0.0980 -1.7750
 7803SOL     OW34870   4.013   4.308   2.521  0.4719 -0.2323  0.2809
 7803SOL    HW134871   4.005   4.221   2.559  2.2247 -0.9268 -0.9237
 7803SOL    HW234872   3.939   4.348   2.567  1.3240  2.1594 -0.3999
 7804SOL     OW34873   1.026   3.040   4.155  0.0431 -0.0171 -0.1277
 7804SOL    HW134874   1.021   2.979   4.229  2.3310  2.7363  2.2887
 7804SOL    HW234875   0.972   2.990   4.094 -0.6536  0.8208 -0.1828
 7805SOL     OW34876   0.002   3.901   3.992 -0.4905 -0.8709  0.4542
 7805SOL    HW134877   4.638   3.882   3.973 -0.7844  0.3431  0.7159
 7805SOL    HW234878   0.021   3.974   3.933  0.7881 -1.9041 -0.4330
 7806SOL     OW34879   0.627   3.229   3.000  0.0383 -0.4920  0.2822
 7806SOL    HW134880   0.622   3.238   3.095  0.0500  1.6621  0.0833
 7806SOL    HW234881   0.561   3.160   2.991  1.0192 -1.4416  0.3191
 7807SOL     OW34882   4.318   3.506  10.022 -0.0035 -0.8342 -0.5738
 7807SOL    HW134883   4.401   3.463  10.043  0.7678  0.4321 -0.9946
 7807SOL    HW234884   4.281   3.500  10.110  0.4152  2.1082 -0.1672
 7808SOL     OW34885   3.826   2.187   2.745  0.1972  0.0625 -0.5820
 7808SOL    HW134886   3.918   2.211   2.740  0.5926 -1.8499 -2.2674
 7808SOL    HW234887   3.788   2.256   2.691 -0.2960  0.8327  0.7432
 7809SOL     OW34888   0.606   2.021   8.721 -0.2771  0.1465  0.2087
 7809SOL    HW134889   0.604   2.029   8.816 -0.7390  1.6046  0.0704
 7809SOL    HW234890   0.662   1.943   8.718  0.4801  0.6181  2.0155
 7810SOL     OW34891   0.212   2.198   2.337  0.1339  0.1613  0.3710
 7810SOL    HW134892   0.296   2.193   2.290 -0.2179  2.7237 -0.4884
 7810SOL    HW234893   0.212   2.286   2.373  1.6466  0.6553 -0.8210
 7811SOL     OW34894   2.509   4.727   8.181  0.0954  0.2070 -0.0460
 7811SOL    HW134895   2.579   0.059   8.207 -0.6938  0.4395  1.5023
 7811SOL    HW234896   2.463   4.719   8.264 -0.6207  1.6273 -0.3090
 7812SOL     OW34897   2.138   3.298   6.056  0.4078  0.1304  0.6625
 7812SOL    HW134898   2.077   3.255   5.997  1.1787 -1.0061  0.6827
 7812SOL    HW234899   2.181   3.219   6.090 -0.5117 -1.4306 -1.7883
 7813SOL     OW34900   3.384   4.315   9.937  0.6298  0.1231  0.1255
 7813SOL    HW134901   3.320   4.246   9.919 -1.0701  1.2473  1.8808
 7813SOL    HW234902   3.339   4.395   9.909 -0.6350 -1.1276 -1.3536
 7814SOL     OW34903   2.654   3.331   3.997  0.2635  0.4050 -0.3083
 7814SOL    HW134904   2.648   3.371   3.911  1.4543  3.1450  0.8753
 7814SOL    HW234905   2.562   3.317   4.016  0.5563  2.1744  2.5314
 7815SOL     OW34906   1.259   3.631   5.940  0.8597  0.3283  0.5973
 7815SOL    HW134907   1.352   3.651   5.945  0.8910  0.4554 -0.5253
 7815SOL    HW234908   1.239   3.649   5.848 -0.4595  0.7866  0.9781
 7816SOL     OW34909   3.942   0.454   5.146 -0.5525  0.0059  0.0881
 7816SOL    HW134910   3.938   0.359   5.139  0.6480 -0.1163  1.2515
 7816SOL    HW234911   4.037   0.468   5.143 -0.2807 -1.0032  4.1413
 7817SOL     OW34912   1.055   3.076   7.534 -0.0369 -0.0732  0.0483
 7817SOL    HW134913   1.097   3.161   7.522 -1.3753  0.7561  1.1798
 7817SOL    HW234914   1.021   3.066   7.623 -0.3272  0.0194 -0.0534
 7818SOL     OW34915   1.502   2.962   4.440 -0.1743 -0.0327  0.3915
 7818SOL    HW134916   1.414   2.986   4.412  0.6357 -2.1789 -3.9840
 7818SOL    HW234917   1.484   2.888   4.499 -2.0625  0.9352  1.0115
 7819SOL     OW34918   2.574   2.477   1.467  0.9026 -0.0951 -0.5845
 7819SOL    HW134919   2.516   2.490   1.542  2.1959  2.1254  0.0406
 7819SOL    HW234920   2.527   2.525   1.399 -0.9153 -1.5470 -0.3235
 7820SOL     OW34921   1.992   2.894   2.139 -0.1989 -0.8129  0.4744
 7820SOL    HW134922   2.021   2.881   2.049  1.7679 -1.0246  1.1306
 7820SOL    HW234923   1.901   2.867   2.124 -0.3668  0.0930 -0.1348
 7821SOL     OW34924   1.477   1.140  15.203 -0.6713  0.3215  0.2958
 7821SOL    HW134925   1.451   1.140  15.111 -0.5576 -0.1155  0.2625
 7821SOL    HW234926   1.421   1.067  15.230 -1.3876  0.9374  0.4725
 7822SOL     OW34927   4.204   4.481  13.552 -0.7386  0.5809  0.0634
 7822SOL    HW134928   4.251   4.527  13.483 -0.2496  0.3080  0.2106
 7822SOL    HW234929   4.232   4.391  13.538 -0.7342  0.3992  1.1803
 7823SOL     OW34930   0.532   1.545  14.689  0.0839  0.2698  0.4009
 7823SOL    HW134931   0.589   1.511  14.620 -1.1039  0.3436 -0.6090
 7823SOL    HW234932   0.590   1.619  14.708  2.0870 -1.1825 -0.0835
 7824SOL     OW34933   0.060   4.679  15.377  0.6511  0.0372 -0.0302
 7824SOL    HW134934   0.131   4.623  15.344  0.2181 -0.1273 -0.6714
 7824SOL    HW234935   0.102   0.037  15.377  1.8577 -0.5418 -0.8196
 7825SOL     OW34936   1.611   0.770  16.605  0.2977 -0.0877  0.0078
 7825SOL    HW134937   1.680   0.820  16.561 -0.6088  1.9516  0.9399
 7825SOL    HW234938   1.654   0.684  16.607  1.5146  0.5142  0.1920
 7826SOL     OW34939   0.276   2.503  16.863  0.2899  0.1569 -0.1018
 7826SOL    HW134940   0.333   2.435  16.899 -0.4623  0.1971  1.1752
 7826SOL    HW234941   0.311   2.527  16.777 -0.5652 -1.6472 -0.9532
 7827SOL     OW34942   3.189   2.011   3.704 -0.1033  0.2031 -0.1295
 7827SOL    HW134943   3.212   2.088   3.652 -1.9098  1.6314  1.2176
 7827SOL    HW234944   3.189   2.055   3.789  2.5900 -0.7660  0.3610
 7828SOL     OW34945   2.776   2.701   3.691 -0.2453  0.3579  0.6491
 7828SOL    HW134946   2.840   2.648   3.644  0.1140  2.0626 -0.7869
 7828SOL    HW234947   2.818   2.787   3.687  1.1237 -0.2790  1.1878
 7829SOL     OW34948   1.646   3.664   7.372 -0.0909 -0.1967  0.5379
 7829SOL    HW134949   1.637   3.758   7.386  0.5145  0.1097 -1.0788
 7829SOL    HW234950   1.740   3.653   7.354  0.5819  1.0564  3.3406
 7830SOL     OW34951   0.802   2.578   8.662 -0.1694  0.2036  0.1992
 7830SOL    HW134952   0.849   2.640   8.717 -0.3711  1.1527 -0.7182
 7830SOL    HW234953   0.869   2.556   8.598  0.1450  0.9246  0.2874
 7831SOL     OW34954   2.086   3.934   1.865 -1.1176 -0.1132  1.0044
 7831SOL    HW134955   2.145   3.862   1.887 -3.3245 -1.8625  1.2647
 7831SOL    HW234956   2.002   3.916   1.908  0.4437 -2.9515  2.8371
 7832SOL     OW34957   4.361   0.805   3.067 -0.0299 -0.6113 -0.3217
 7832SOL    HW134958   4.420   0.760   3.128  0.7523  1.2028  0.2353
 7832SOL    HW234959   4.418   0.848   3.004 -2.2613  1.9064 -0.6197
 7833SOL     OW34960   1.120   4.717   2.610  0.2390 -0.0364  0.4712
 7833SOL    HW134961   1.068   0.062   2.577  0.5374 -0.6083 -1.2593
 7833SOL    HW234962   1.049   4.660   2.641  0.3199  0.4379  1.5279
 7834SOL     OW34963   4.240   2.049   8.333  0.5049 -0.0994  0.2579
 7834SOL    HW134964   4.214   2.098   8.411 -2.9478 -0.3019 -0.7731
 7834SOL    HW234965   4.298   1.985   8.375 -2.0622 -1.8614  1.1092
 7835SOL     OW34966   1.521   4.330   2.182 -0.3329 -0.7751 -0.0121
 7835SOL    HW134967   1.517   4.356   2.090 -1.3492  0.9717  0.5237
 7835SOL    HW234968   1.502   4.420   2.211  0.6683 -0.3906 -0.5355
 7836SOL     OW34969   0.328   3.655  10.116 -0.2003  0.0173 -0.6320
 7836SOL    HW134970   0.371   3.695  10.040 -0.6674 -0.6841 -1.2654
 7836SOL    HW234971   0.273   3.731  10.134 -0.6668 -0.5719  0.3942
 7837SOL     OW34972   1.568   1.028  17.362 -0.2663 -0.2133 -0.4727
 7837SOL    HW134973   1.551   0.946  17.316 -2.5651  1.4500 -2.5869
 7837SOL    HW234974   1.547   1.096  17.297 -0.8601 -1.6671 -1.7798
 7838SOL     OW34975   2.132   1.064  16.786  0.1465  0.3789  0.8123
 7838SOL    HW134976   2.056   1.114  16.756  0.2333 -0.3527 -0.6192
 7838SOL    HW234977   2.180   1.130  16.835  2.3840  0.1825 -1.1304
 7839SOL     OW34978   1.944   1.624   8.197  0.2864  0.2729  0.0677
 7839SOL    HW134979   1.964   1.601   8.107  0.6247 -1.6377  0.6326
 7839SOL    HW234980   1.895   1.552   8.238 -1.2007  1.3866  0.2613
 7840SOL     OW34981   2.142   3.103   3.605 -0.0756  0.9815  0.0668
 7840SOL    HW134982   2.211   3.170   3.602  0.8427  0.0632  0.9011
 7840SOL    HW234983   2.189   3.022   3.626  0.0975  1.2621  0.7572
 7841SOL     OW34984   2.877   0.591   7.290  0.2607 -0.7109 -0.5683
 7841SOL    HW134985   2.905   0.682   7.297 -3.1912  0.4926 -2.2731
 7841SOL    HW234986   2.804   0.602   7.352  1.6294  3.2250  0.3119
 7842SOL     OW34987   2.848   2.069   8.441  0.4538  0.4601  0.3208
 7842SOL    HW134988   2.927   2.042   8.393  0.7207 -0.6267  1.3823
 7842SOL    HW234989   2.881   2.134   8.502 -2.8916  3.5806 -1.1432
 7843SOL     OW34990   1.629   1.983   3.260 -0.0786 -0.0448  0.2570
 7843SOL    HW134991   1.711   2.033   3.257 -0.3437  0.3045 -1.7502
 7843SOL    HW234992   1.669   1.904   3.224 -0.4835  0.7569 -1.9896
 7844SOL     OW34993   0.382   4.040   7.796  0.2576 -0.3851  0.2459
 7844SOL    HW134994   0.307   3.981   7.804 -1.2344  1.5344  0.3429
 7844SOL    HW234995   0.341   4.125   7.812 -3.3670 -1.9135 -0.9992
 7845SOL     OW34996   1.331   3.041   1.751  0.1031 -0.1059  0.5172
 7845SOL    HW134997   1.424   3.032   1.733  0.0914  0.5390  0.0961
 7845SOL    HW234998   1.297   2.959   1.715  0.4273  0.0213 -0.0829
 7846SOL     OW34999   4.067   2.417   5.086 -0.2617  0.1345 -0.3430
 7846SOL    HW135000   4.071   2.341   5.144  0.9146  0.8962  0.5876
 7846SOL    HW235001   3.977   2.410   5.054 -0.7248  0.4844  0.9221
 7847SOL     OW35002   1.301   0.218   0.130 -0.3154 -0.2221 -0.4493
 7847SOL    HW135003   1.249   0.183   0.058  0.9452  0.3218 -1.6222
 7847SOL    HW235004   1.363   0.146   0.145 -0.4768 -0.2575  0.0650
 7848SOL     OW35005   2.184   1.000   0.984  0.0120 -0.1660  0.7297
 7848SOL    HW135006   2.134   0.938   1.037  1.2898 -0.5046  1.5401
 7848SOL    HW235007   2.268   0.954   0.990 -0.6333 -1.3301  0.8419
 7849SOL     OW35008   4.454   2.510  15.150  0.2027  0.5801 -0.4033
 7849SOL    HW135009   4.394   2.451  15.196  1.8952  0.3481  1.5623
 7849SOL    HW235010   4.537   2.462  15.159 -0.1178 -0.3476 -2.4595
 7850SOL     OW35011   4.270   1.941   0.978  0.5863  0.4779  0.1890
 7850SOL    HW135012   4.331   2.015   0.978  0.2186  0.7870  0.0018
 7850SOL    HW235013   4.329   1.867   0.972  0.7289  0.4133  2.5189
 7851SOL     OW35014   0.931   3.928   1.839 -0.1152 -0.1108  0.2151
 7851SOL    HW135015   0.897   3.852   1.791  0.8963 -0.6666  0.3707
 7851SOL    HW235016   1.024   3.915   1.818 -0.7713 -2.1261 -1.4817
 7852SOL     OW35017   2.448   2.644   8.685  0.2291 -0.0848 -0.2801
 7852SOL    HW135018   2.355   2.661   8.674  0.3481  1.0865  0.4615
 7852SOL    HW235019   2.473   2.720   8.738 -0.1420 -0.2026  0.0585
 7853SOL     OW35020   0.292   2.677   3.486 -0.1292 -0.4864 -0.7086
 7853SOL    HW135021   0.255   2.760   3.513  1.2115  0.3702 -1.4979
 7853SOL    HW235022   0.334   2.639   3.563 -0.8621 -2.7318 -1.4159
 7854SOL     OW35023   4.111   2.989   5.151 -0.2152 -0.0671  0.0833
 7854SOL    HW135024   4.061   2.908   5.143 -0.7757  0.1931  0.9562
 7854SOL    HW235025   4.038   3.050   5.160 -1.0579 -1.2430  1.3436
 7855SOL     OW35026   0.209   3.158   9.398 -0.0901 -0.2261 -0.3666
 7855SOL    HW135027   0.211   3.209   9.317  1.4073  0.3266  0.0218
 7855SOL    HW235028   0.186   3.074   9.360 -2.0132  0.1043  0.0295
 7856SOL     OW35029   2.905   2.709   3.344  0.1674  0.3028  0.5081
 7856SOL    HW135030   2.988   2.755   3.362  1.7714 -2.7346  0.8520
 7856SOL    HW235031   2.861   2.779   3.295  1.7283 -1.5689 -3.5255
 7857SOL     OW35032   1.324   1.346  11.731 -0.0705  0.6690 -0.0458
 7857SOL    HW135033   1.322   1.290  11.809  0.1818  1.3437  0.4507
 7857SOL    HW235034   1.411   1.324  11.698 -0.9163 -0.4053 -1.5519
 7858SOL     OW35035   0.687   1.883  14.649  0.3073 -0.0414 -0.1414
 7858SOL    HW135036   0.734   1.865  14.730 -1.9185 -0.5812  1.0438
 7858SOL    HW235037   0.701   1.802  14.601  0.0661 -1.5917  2.3970
 7859SOL     OW35038   2.246   4.709   9.103  0.1753 -0.1880  0.1408
 7859SOL    HW135039   2.237   0.072   9.130  1.3872 -0.1613  0.4762
 7859SOL    HW235040   2.164   4.670   9.132 -0.5528  0.5922 -0.8907
 7860SOL     OW35041   0.893   1.763   2.865  0.0540 -0.2797 -0.1464
 7860SOL    HW135042   0.963   1.703   2.840  2.3833  2.8680 -1.2855
 7860SOL    HW235043   0.888   1.795   2.775 -0.6953  3.2909  1.1588
 7861SOL     OW35044   1.999   1.391   0.202  0.5314 -0.2331 -0.5168
 7861SOL    HW135045   1.974   1.359   0.289 -0.4443 -0.3339 -0.8351
 7861SOL    HW235046   2.059   1.318   0.184  0.7850  0.1922 -1.3924
 7862SOL     OW35047   1.501   1.547   8.910 -0.0316  0.0196  0.0821
 7862SOL    HW135048   1.570   1.612   8.901  0.4523 -0.6644 -1.1320
 7862SOL    HW235049   1.539   1.467   8.874  2.8505  1.7134 -0.6671
 7863SOL     OW35050   2.883   2.992   2.328  0.2373 -0.2041  0.6651
 7863SOL    HW135051   2.864   3.019   2.417  1.3796  2.5771  0.0557
 7863SOL    HW235052   2.829   3.059   2.288  0.9107  0.2983  0.5882
 7864SOL     OW35053   2.318   1.379   8.396 -0.3516 -0.1582  0.5266
 7864SOL    HW135054   2.412   1.394   8.384 -0.5741  1.3805  0.7066
 7864SOL    HW235055   2.288   1.379   8.305  0.4346  0.5000  0.2676
 7865SOL     OW35056   3.883   0.010   4.928 -0.2989  0.1830  0.3245
 7865SOL    HW135057   3.939   4.697   4.863  0.2277  0.6320  0.4950
 7865SOL    HW235058   3.838   4.663   4.967 -0.2473  0.0736  0.1697
 7866SOL     OW35059   3.833   3.336   8.268  0.2359  0.2236  0.4518
 7866SOL    HW135060   3.808   3.340   8.176  0.2877  2.4191  0.5453
 7866SOL    HW235061   3.888   3.412   8.287  0.2390  0.2077  0.5092
 7867SOL     OW35062   0.757   4.391  14.238 -0.0692  0.0027  0.3019
 7867SOL    HW135063   0.697   4.362  14.307  1.8576 -1.8563  1.1682
 7867SOL    HW235064   0.819   4.319  14.235 -0.5921 -0.5379  2.2163
 7868SOL     OW35065   1.026   2.445   8.417 -0.3220 -0.2006  0.2679
 7868SOL    HW135066   1.107   2.417   8.376  0.5202  1.2268  0.9572
 7868SOL    HW235067   1.056   2.438   8.507 -0.1599  0.1039  0.2377
 7869SOL     OW35068   1.860   1.429  17.078  0.4531 -0.0162  0.3183
 7869SOL    HW135069   1.936   1.371  17.065 -1.6234 -2.8308  0.7434
 7869SOL    HW235070   1.864   1.442  17.173 -1.9770 -0.2019  0.4267
 7870SOL     OW35071   3.282   3.603  10.228 -0.3955 -0.1479 -0.1504
 7870SOL    HW135072   3.378   3.608  10.223 -0.2011 -2.1942  1.4861
 7870SOL    HW235073   3.265   3.612  10.321  1.4939  1.4155  0.0389
 7871SOL     OW35074   3.061   2.513  17.678 -0.7183  0.3829  0.0283
 7871SOL    HW135075   3.011   2.500  17.598 -0.2688  1.9849 -0.5127
 7871SOL    HW235076   3.113   2.436  17.698  2.3699  2.0461 -1.5363
 7872SOL     OW35077   3.563   0.343   9.092 -0.2618 -0.1564  0.2948
 7872SOL    HW135078   3.610   0.330   9.009  0.2721 -0.4153  0.6362
 7872SOL    HW235079   3.605   0.285   9.154 -1.1164 -1.3851 -0.2860
 7873SOL     OW35080   2.865   2.651   9.367  0.4129  0.3368 -0.3785
 7873SOL    HW135081   2.848   2.717   9.435  0.9543 -0.8042  0.8653
 7873SOL    HW235082   2.950   2.621   9.400 -0.1970 -0.7651  0.2035
 7874SOL     OW35083   2.028   2.426   1.022  0.5316 -0.3417  0.1298
 7874SOL    HW135084   2.046   2.333   1.031  1.1925 -0.1729  0.5498
 7874SOL    HW235085   1.964   2.441   1.092  1.4165  0.2643  0.8171
 7875SOL     OW35086   4.276   0.397   3.118 -0.3121  0.0575 -0.0874
 7875SOL    HW135087   4.182   0.411   3.131 -0.5121 -0.8863 -0.5657
 7875SOL    HW235088   4.273   0.333   3.048 -0.1815  1.6210 -1.5260
 7876SOL     OW35089   3.366   1.383  16.332  0.1773 -0.1756  0.1325
 7876SOL    HW135090   3.370   1.450  16.263 -0.3599 -1.3414 -1.0176
 7876SOL    HW235091   3.402   1.430  16.408  0.4933  0.4156 -0.3850
 7877SOL     OW35092   1.298   2.160  14.700  0.6324  0.2438 -0.5142
 7877SOL    HW135093   1.261   2.219  14.634  0.8544  0.5931 -0.3243
 7877SOL    HW235094   1.357   2.216  14.751 -0.3759  0.0643  0.8726
 7878SOL     OW35095   3.937   1.064   7.103 -0.0300 -0.8047 -0.1859
 7878SOL    HW135096   4.023   1.030   7.080  0.8785  1.4056 -0.1022
 7878SOL    HW235097   3.899   1.088   7.019 -1.0623  1.6328  0.9748
 7879SOL     OW35098   1.519   2.850   6.995  0.1740  0.0732  0.3800
 7879SOL    HW135099   1.533   2.890   7.081  0.1099 -0.6576  0.7370
 7879SOL    HW235100   1.582   2.900   6.944 -0.3615  0.7031  0.3293
 7880SOL     OW35101   1.421   0.613  15.239 -0.0684  0.3813 -0.4502
 7880SOL    HW135102   1.450   0.531  15.199 -0.6773 -0.3522  0.6317
 7880SOL    HW235103   1.385   0.661  15.164  1.7125  1.3573 -0.6763
 7881SOL     OW35104   1.300   1.333   3.139 -0.0438 -0.1189 -0.3426
 7881SOL    HW135105   1.294   1.368   3.228  2.6834 -1.8006  0.5128
 7881SOL    HW235106   1.211   1.299   3.129 -0.2694  0.3398  0.0722
 7882SOL     OW35107   1.989   0.288   4.692  0.3813 -0.1771 -0.7337
 7882SOL    HW135108   2.051   0.335   4.748 -2.3424  2.1925  0.3048
 7882SOL    HW235109   2.040   0.212   4.664  0.8018 -0.5055  0.9218
 7883SOL     OW35110   2.949   4.078  13.139 -0.2185 -0.4573  0.1862
 7883SOL    HW135111   2.996   4.008  13.184  0.5723 -0.5239 -0.7397
 7883SOL    HW235112   2.936   4.042  13.051  0.1715  0.0681 -0.0818
 7884SOL     OW35113   1.554   1.805  10.479  0.7722  0.1787  0.0754
 7884SOL    HW135114   1.617   1.870  10.448 -0.4225  0.2459 -2.2299
 7884SOL    HW235115   1.608   1.736  10.516  3.2188 -0.2007 -4.1746
 7885SOL     OW35116   3.834   4.680   0.348 -0.5973 -0.3373 -0.4575
 7885SOL    HW135117   3.790   0.006   0.282 -0.9212 -1.6252 -1.2935
 7885SOL    HW235118   3.827   0.008   0.425  0.3372 -0.5846 -0.1951
 7886SOL     OW35119   4.693   3.636  10.200 -0.6219 -0.3030 -0.6591
 7886SOL    HW135120   4.630   3.576  10.241  0.8889  0.0084  2.1194
 7886SOL    HW235121   0.037   3.576  10.180  1.6267  2.8453 -1.8967
 7887SOL     OW35122   4.058   1.503   7.668 -0.0078 -0.3510 -0.0435
 7887SOL    HW135123   3.996   1.435   7.641  0.7892 -0.6322 -1.1461
 7887SOL    HW235124   4.059   1.495   7.764 -0.8369  4.7930  0.4352
 7888SOL     OW35125   1.139   3.987   3.896  0.0874 -0.3498 -0.6634
 7888SOL    HW135126   1.217   4.003   3.950 -0.5666 -0.0533  0.1919
 7888SOL    HW235127   1.147   3.895   3.869 -0.3603 -0.2829 -1.0115
 7889SOL     OW35128   3.092   2.506   4.834  0.5409  0.1909  0.1357
 7889SOL    HW135129   3.044   2.461   4.764 -2.0861  1.6574  1.0259
 7889SOL    HW235130   3.094   2.597   4.803 -0.8199  0.5224  1.0669
 7890SOL     OW35131   4.101   3.687  10.239  0.2587  0.0371 -0.2379
 7890SOL    HW135132   4.149   3.618  10.284  1.1209  1.8367  1.5667
 7890SOL    HW235133   4.144   3.760  10.283 -0.2074  1.1001 -1.5270
 7891SOL     OW35134   2.469   2.511   6.759 -0.3257  0.3052  0.4611
 7891SOL    HW135135   2.558   2.524   6.790 -0.1479 -1.5259  0.7573
 7891SOL    HW235136   2.478   2.442   6.693  2.9951  1.3039 -0.1126
 7892SOL     OW35137   1.938   1.190   1.472  0.4982 -0.4574 -0.4040
 7892SOL    HW135138   1.899   1.276   1.459  0.5232 -0.4997 -0.7524
 7892SOL    HW235139   2.007   1.210   1.535  2.0059 -2.8937 -1.2692
 7893SOL     OW35140   2.826   1.487   2.673 -0.0386 -0.0820  0.6228
 7893SOL    HW135141   2.850   1.552   2.608  2.2137 -0.4109  1.1429
 7893SOL    HW235142   2.899   1.491   2.734  1.1810  2.1147 -1.0100
 7894SOL     OW35143   0.001   2.449   6.794 -0.0322  0.1822 -0.2646
 7894SOL    HW135144   0.080   2.492   6.762 -0.2105  0.3103 -0.5281
 7894SOL    HW235145   4.687   2.433   6.710  1.2978 -0.7197 -0.7483
 7895SOL     OW35146   3.999   4.725  13.974 -0.4803 -0.2750 -0.2111
 7895SOL    HW135147   4.010   4.659  13.905 -0.5633 -0.5563  0.0432
 7895SOL    HW235148   3.976   4.678  14.054  0.4214  0.9416  0.7622
 7896SOL     OW35149   3.982   3.903  10.945 -0.9224  0.1550 -0.1615
 7896SOL    HW135150   4.063   3.865  10.980  0.5662  1.6970 -1.9596
 7896SOL    HW235151   4.022   3.946  10.870 -2.1461  0.6474 -0.5435
 7897SOL     OW35152   1.513   4.131  16.096 -0.5866 -0.4857  0.6640
 7897SOL    HW135153   1.452   4.115  16.168 -1.1405  2.4828  0.8868
 7897SOL    HW235154   1.555   4.047  16.083  0.4755  0.2454 -0.6514
 7898SOL     OW35155   1.578   3.627   0.625  0.2322 -0.1234 -0.3651
 7898SOL    HW135156   1.502   3.685   0.627  0.1047 -0.3133  0.7749
 7898SOL    HW235157   1.588   3.605   0.533 -1.3235 -1.3278 -0.2493
 7899SOL     OW35158   0.767   4.316  13.255 -0.3465  0.4408  0.3651
 7899SOL    HW135159   0.673   4.301  13.256 -0.1368 -0.8155  0.4913
 7899SOL    HW235160   0.797   4.255  13.188 -2.7180 -1.1535  0.7603
 7900SOL     OW35161   1.636   4.098   4.043 -0.1274 -0.2126 -0.1125
 7900SOL    HW135162   1.706   4.131   3.986  0.2407  0.2552  0.6105
 7900SOL    HW235163   1.631   4.185   4.083 -1.2362 -0.7399  0.8952
 7901SOL     OW35164   0.130   2.264   8.539  0.4032 -0.2571 -0.7494
 7901SOL    HW135165   0.119   2.182   8.491 -1.5017 -1.9454  2.6089
 7901SOL    HW235166   0.065   2.324   8.500 -0.3536  1.0141  2.5021
 7902SOL     OW35167   3.711   2.377   1.498 -0.3606 -0.8060 -0.0560
 7902SOL    HW135168   3.679   2.433   1.427 -0.1342  0.2014  0.6280
 7902SOL    HW235169   3.794   2.418   1.523 -1.3175 -0.5613  2.8049
 7903SOL     OW35170   3.042   4.367  11.906 -0.7760  0.4409  0.3402
 7903SOL    HW135171   3.036   4.458  11.934  1.8621  0.1429  1.9345
 7903SOL    HW235172   3.076   4.322  11.984  1.0877  0.4212 -0.4859
 7904SOL     OW35173   0.791   4.278   2.970  0.1798 -0.7629  0.0905
 7904SOL    HW135174   0.715   4.275   3.029  1.2932  1.4859  1.6877
 7904SOL    HW235175   0.802   4.195   2.925 -3.2813  0.8181 -3.6965
 7905SOL     OW35176   1.558   1.365  10.995 -0.0216  0.6053 -0.3522
 7905SOL    HW135177   1.597   1.448  10.969  0.4155  0.6558  0.4641
 7905SOL    HW235178   1.575   1.359  11.089 -1.3302 -0.2210 -0.1626
 7906SOL     OW35179   1.697   4.381   5.386 -0.2643 -0.1158  0.5834
 7906SOL    HW135180   1.718   4.413   5.298  1.2450 -1.4021  0.4872
 7906SOL    HW235181   1.677   4.465   5.427 -0.2159 -0.1529  0.6842
 7907SOL     OW35182   2.201   2.468   1.940  0.0073 -0.0746  0.1906
 7907SOL    HW135183   2.122   2.442   1.894 -0.1780 -0.6918  0.8506
 7907SOL    HW235184   2.192   2.429   2.027 -0.3053 -0.7269 -0.1373
 7908SOL     OW35185   0.065   1.693   0.894  0.3774 -0.2313  0.0583
 7908SOL    HW135186   0.154   1.703   0.928  0.3976  0.2476 -0.1316
 7908SOL    HW235187   0.055   1.774   0.844  0.9855 -2.9190 -4.3902
 7909SOL     OW35188   0.518   0.414   6.145  0.4117 -0.1148 -0.1872
 7909SOL    HW135189   0.493   0.339   6.198 -0.9338  0.3394 -0.1710
 7909SOL    HW235190   0.533   0.485   6.207 -1.4164  0.3691 -0.2930
 7910SOL     OW35191   4.045   1.253   6.646 -0.0948  0.5603  0.5694
 7910SOL    HW135192   4.004   1.337   6.628  0.6968  1.2412  1.9668
 7910SOL    HW235193   4.044   1.227   6.554  1.1397 -0.8888  0.9536
 7911SOL     OW35194   3.077   4.518  14.939  0.1180  0.7431  0.5269
 7911SOL    HW135195   3.070   4.573  15.017  1.1828  1.8806 -0.1753
 7911SOL    HW235196   3.162   4.548  14.908  0.1093 -0.6553 -0.8782
 7912SOL     OW35197   3.052   3.927   4.114 -0.5757 -0.9308 -0.0120
 7912SOL    HW135198   3.119   3.866   4.085 -0.6157 -0.8006 -0.3814
 7912SOL    HW235199   2.976   3.880   4.079 -1.9804  0.5417  1.0286
 7913SOL     OW35200   2.765   2.179   4.428  0.0415  0.1611  0.1113
 7913SOL    HW135201   2.715   2.135   4.497  1.1774 -0.0338  0.8087
 7913SOL    HW235202   2.703   2.180   4.355 -0.2626 -0.7537  0.3598
 7914SOL     OW35203   2.010   4.631  11.782 -0.0795  0.1513  0.3990
 7914SOL    HW135204   2.055   4.550  11.758 -0.2884  0.1561 -0.0132
 7914SOL    HW235205   1.937   4.630  11.719  0.7122  1.2093 -0.5129
 7915SOL     OW35206   3.937   1.876   4.816 -0.1853  0.0164  0.1637
 7915SOL    HW135207   3.899   1.964   4.810 -0.7582 -0.2355  0.1118
 7915SOL    HW235208   4.014   1.888   4.871  0.2220  1.0809 -0.6264
 7916SOL     OW35209   3.575   4.281  14.722 -0.1560 -0.2391  0.3785
 7916SOL    HW135210   3.669   4.269  14.730  0.1943  2.7049  0.7106
 7916SOL    HW235211   3.571   4.369  14.684  1.3550 -0.8093 -1.0904
 7917SOL     OW35212   2.510   4.013  16.962 -0.1891  0.1695  0.5910
 7917SOL    HW135213   2.436   3.971  17.006 -0.7228  1.8525  1.2741
 7917SOL    HW235214   2.513   4.094  17.013 -3.1108  1.1892 -0.8252
 7918SOL     OW35215   3.784   2.182  10.225  0.1966 -0.2802 -0.7057
 7918SOL    HW135216   3.817   2.186  10.135  2.3699  0.4004  0.1275
 7918SOL    HW235217   3.768   2.275  10.241  0.3452  0.1341 -2.9521
 7919SOL     OW35218   1.028   0.023   3.802 -0.4802 -0.0086  0.0931
 7919SOL    HW135219   1.052   0.077   3.726 -2.2041  0.9061  0.1959
 7919SOL    HW235220   0.932   0.023   3.806 -0.5267 -1.0875 -0.7865
 7920SOL     OW35221   2.719   2.808  10.246  0.3622  0.6203 -0.2539
 7920SOL    HW135222   2.666   2.775  10.173  1.6051 -1.6734 -0.1346
 7920SOL    HW235223   2.697   2.739  10.309 -0.7941  1.1888 -0.0206
 7921SOL     OW35224   2.855   4.551   5.210  0.4612 -0.3826  0.5144
 7921SOL    HW135225   2.913   4.487   5.251  2.2682  1.1976  0.3713
 7921SOL    HW235226   2.780   4.547   5.270  2.5522 -0.9490  3.0812
 7922SOL     OW35227   3.177   2.659   8.204  0.0237 -0.3800  0.1067
 7922SOL    HW135228   3.221   2.652   8.289  2.9432 -1.0651 -1.4544
 7922SOL    HW235229   3.125   2.738   8.221  1.1238  0.2411  0.6586
 7923SOL     OW35230   0.637   2.251   9.411 -0.0121 -0.0893 -0.0613
 7923SOL    HW135231   0.565   2.235   9.472  0.4153  2.0989  0.9998
 7923SOL    HW235232   0.700   2.298   9.464  1.1440 -0.8009 -0.8042
 7924SOL     OW35233   0.723   2.859  17.070 -0.2782  0.2017  0.0027
 7924SOL    HW135234   0.645   2.915  17.076 -0.4505 -0.0483  0.1022
 7924SOL    HW235235   0.790   2.927  17.064  0.0199 -0.1937 -0.9799
 7925SOL     OW35236   4.027   3.371   5.649  0.0450 -0.7708  0.2293
 7925SOL    HW135237   3.977   3.411   5.720  0.4820 -2.6408  1.5791
 7925SOL    HW235238   3.960   3.314   5.613 -1.3201  0.2320  1.1960
 7926SOL     OW35239   2.154   4.054   9.969  0.6701 -0.0608  0.3245
 7926SOL    HW135240   2.131   4.013   9.885 -1.3963  0.1822  0.7715
 7926SOL    HW235241   2.133   3.976  10.021  0.0682  0.9562  1.5935
 7927SOL     OW35242   1.215   1.920   4.437  0.2644  0.4012 -0.3064
 7927SOL    HW135243   1.171   1.948   4.356 -0.7867  0.4346  0.2821
 7927SOL    HW235244   1.291   1.978   4.443  1.6248 -1.1692 -2.3248
 7928SOL     OW35245   3.349   3.438   6.536 -0.0942  0.1389 -0.2027
 7928SOL    HW135246   3.297   3.371   6.580  0.6825 -0.5595 -0.3501
 7928SOL    HW235247   3.345   3.504   6.606  0.0250  1.9153 -1.8835
 7929SOL     OW35248   2.805   1.442   1.762  0.4355 -0.0421  0.2519
 7929SOL    HW135249   2.850   1.526   1.755  2.4177 -1.0798  0.3153
 7929SOL    HW235250   2.713   1.467   1.755  0.4792 -0.7114 -2.7584
 7930SOL     OW35251   1.783   4.634  12.071  0.1333  0.1112 -0.2267
 7930SOL    HW135252   1.786   4.616  11.977 -1.7393  0.4310 -0.3379
 7930SOL    HW235253   1.700   4.679  12.087  0.8581  1.4886 -0.3304
 7931SOL     OW35254   4.081   2.440  15.779  0.3396  0.3356  0.7861
 7931SOL    HW135255   4.098   2.349  15.805 -0.5776 -0.0155  0.1512
 7931SOL    HW235256   4.053   2.470  15.865 -1.6653  0.5511  0.0528
 7932SOL     OW35257   2.021   2.327  11.783 -0.0156 -1.1915 -0.0594
 7932SOL    HW135258   2.022   2.423  11.789 -1.7737 -1.4058  3.2726
 7932SOL    HW235259   2.114   2.306  11.796 -0.0507 -0.7523  0.9353
 7933SOL     OW35260   3.919   1.348   5.886 -0.0725 -0.3682 -0.4261
 7933SOL    HW135261   3.871   1.364   5.967 -0.9448  0.0607 -1.0175
 7933SOL    HW235262   3.972   1.272   5.909  0.6312 -0.7326 -3.2046
 7934SOL     OW35263   3.467   2.916   2.969 -0.3381  0.1535 -0.2172
 7934SOL    HW135264   3.403   2.878   2.908 -1.6402  1.7549  0.1741
 7934SOL    HW235265   3.534   2.847   2.975  0.3800  0.6168 -2.6422
 7935SOL     OW35266   4.070   3.836   8.457 -0.1584  0.1694 -0.0737
 7935SOL    HW135267   4.016   3.870   8.528  0.3855  1.1495 -0.1323
 7935SOL    HW235268   4.108   3.913   8.414 -2.6092  1.0446 -0.6303
 7936SOL     OW35269   1.718   0.900   0.464  0.4029 -0.3556  0.1938
 7936SOL    HW135270   1.723   0.978   0.520  1.1343  0.3399 -0.8554
 7936SOL    HW235271   1.793   0.849   0.493  0.0330 -0.2710  1.3142
 7937SOL     OW35272   1.708   4.651   6.314  0.0818 -0.4886 -0.1903
 7937SOL    HW135273   1.664   4.566   6.314 -0.1826 -0.3533 -0.3271
 7937SOL    HW235274   1.735   4.671   6.225  0.0281  1.0774  0.1346
 7938SOL     OW35275   3.347   2.780  16.367 -0.4267 -0.0558  0.7687
 7938SOL    HW135276   3.348   2.687  16.391 -0.2046 -0.1261  0.4853
 7938SOL    HW235277   3.305   2.786  16.282  0.1896 -0.0420  0.4670
 7939SOL     OW35278   2.410   2.729   9.215 -0.3338  0.1766 -0.4530
 7939SOL    HW135279   2.359   2.723   9.134 -1.0973 -2.7563  0.2437
 7939SOL    HW235280   2.337   2.753   9.273  0.0363 -2.5486  1.1161
 7940SOL     OW35281   2.780   0.890  16.951 -0.3222  0.3678 -0.3254
 7940SOL    HW135282   2.772   0.941  16.870 -1.9532  1.8688  0.7789
 7940SOL    HW235283   2.802   0.801  16.924  1.6923  1.1303 -1.2247
 7941SOL     OW35284   1.146   0.112   5.632  0.6221 -0.1284  0.1040
 7941SOL    HW135285   1.064   0.079   5.669 -0.2658  0.2507 -1.5482
 7941SOL    HW235286   1.136   0.206   5.646 -1.5795 -0.2346 -0.7285
 7942SOL     OW35287   3.702   0.480   4.887 -0.5475  0.4593  0.8179
 7942SOL    HW135288   3.627   0.449   4.938 -0.6953 -1.4558 -0.5631
 7942SOL    HW235289   3.655   0.556   4.853  0.0972  1.2066  1.5570
 7943SOL     OW35290   0.689   1.745   8.745  0.3469 -0.0835 -0.1064
 7943SOL    HW135291   0.750   1.671   8.747  0.1678 -0.3072 -1.9683
 7943SOL    HW235292   0.608   1.700   8.769  0.8090 -2.6309 -3.1585
 7944SOL     OW35293   2.787   1.676  17.650  0.0995 -0.5278 -0.0853
 7944SOL    HW135294   2.696   1.646  17.650 -0.4246  1.0770 -0.3929
 7944SOL    HW235295   2.830   1.624  17.582 -1.2407 -2.0362  0.2075
 7945SOL     OW35296   4.144   4.405   5.013 -1.0588  0.6666  0.6967
 7945SOL    HW135297   4.098   4.374   4.935 -0.1319 -1.5710  1.0577
 7945SOL    HW235298   4.169   4.326   5.060 -1.7392  0.0425  0.0012
 7946SOL     OW35299   0.623   2.831  12.242  0.1140  0.4485  1.2427
 7946SOL    HW135300   0.639   2.921  12.212  0.4767  0.0998  0.4024
 7946SOL    HW235301   0.675   2.786  12.176 -1.2447  0.9416 -0.1641
 7947SOL     OW35302   3.580   1.475  15.448  0.0200  0.4016  0.3216
 7947SOL    HW135303   3.624   1.560  15.453 -0.7562  0.8414 -0.3560
 7947SOL    HW235304   3.515   1.480  15.517  0.8494 -0.2053  1.1489
 7948SOL     OW35305   2.621   3.768   8.549 -1.1888 -0.1603 -0.5780
 7948SOL    HW135306   2.593   3.856   8.575 -1.4967  0.2202 -2.2101
 7948SOL    HW235307   2.704   3.748   8.592 -1.5515  1.5515  0.9209
 7949SOL     OW35308   2.178   2.842   5.440  0.3644 -0.0530  0.0406
 7949SOL    HW135309   2.153   2.783   5.512 -2.8197  0.1132 -0.9718
 7949SOL    HW235310   2.157   2.783   5.367  0.9396 -0.5040  0.2322
 7950SOL     OW35311   1.755   4.374   7.731 -0.6331  0.4609  0.1370
 7950SOL    HW135312   1.840   4.360   7.772 -0.7372 -0.8828 -0.1078
 7950SOL    HW235313   1.703   4.298   7.758 -0.2213 -0.1267 -0.7484
 7951SOL     OW35314   3.162   4.371   2.825  0.1871  0.0997 -0.2111
 7951SOL    HW135315   3.242   4.318   2.822  1.0896  1.4388 -0.0558
 7951SOL    HW235316   3.171   4.409   2.912  1.2642 -1.5637  0.4021
 7952SOL     OW35317   1.235   3.656   4.431  0.2513 -0.4894  0.3659
 7952SOL    HW135318   1.190   3.706   4.500 -1.4792  0.8089 -1.7247
 7952SOL    HW235319   1.217   3.712   4.355  2.0767 -0.7094 -0.2215
 7953SOL     OW35320   0.686   3.445   7.214 -0.3753 -0.5561 -0.3278
 7953SOL    HW135321   0.651   3.426   7.127  0.0342 -0.7401 -0.4523
 7953SOL    HW235322   0.726   3.529   7.191 -2.6078  0.0683 -1.8981
 7954SOL     OW35323   3.170   4.562   5.890  0.2854  0.0634  0.3577
 7954SOL    HW135324   3.201   4.537   5.803  1.3370 -1.2614  1.1146
 7954SOL    HW235325   3.075   4.561   5.878  0.2412  2.7060  0.5185
 7955SOL     OW35326   4.472   2.564   6.890  0.0126  0.3166 -0.3497
 7955SOL    HW135327   4.489   2.551   6.984  0.1068  0.5231 -0.3379
 7955SOL    HW235328   4.556   2.547   6.847  0.6888  0.4046  0.9248
 7956SOL     OW35329   1.241   2.294   1.026 -0.0559  0.1114 -0.3740
 7956SOL    HW135330   1.148   2.276   1.006  0.2153 -1.6735 -0.0715
 7956SOL    HW235331   1.272   2.343   0.950 -1.0443 -0.7617 -1.3517
 7957SOL     OW35332   3.546   0.661  15.838  0.2804  0.1832 -0.6816
 7957SOL    HW135333   3.551   0.603  15.914  0.0047 -0.7274 -1.3635
 7957SOL    HW235334   3.528   0.744  15.882 -2.3825  0.0153 -1.4641
 7958SOL     OW35335   0.005   1.462  11.364 -0.1650 -0.3784 -0.4898
 7958SOL    HW135336   4.669   1.521  11.324  2.5062  1.0940 -2.5364
 7958SOL    HW235337   0.054   1.527  11.415 -0.8373 -0.2010 -0.0642
 7959SOL     OW35338   4.183   1.933   6.745  0.0440  0.0810  0.3267
 7959SOL    HW135339   4.208   1.931   6.652 -0.3850 -0.1740  0.2176
 7959SOL    HW235340   4.262   1.895   6.784 -0.1128 -0.0171  0.5461
 7960SOL     OW35341   1.387   1.205   9.117  0.1900 -0.4079  0.4736
 7960SOL    HW135342   1.460   1.160   9.073 -0.5962 -0.2558 -0.9850
 7960SOL    HW235343   1.408   1.204   9.211  1.2115  1.1510  0.2556
 7961SOL     OW35344   2.624   4.124   8.008 -0.1349 -0.7364 -0.2838
 7961SOL    HW135345   2.719   4.140   8.008 -0.2900  0.1919 -1.0262
 7961SOL    HW235346   2.616   4.051   8.070  1.1440 -1.3505 -0.8316
 7962SOL     OW35347   4.009   3.728   1.128 -0.4938  0.4896 -0.7950
 7962SOL    HW135348   4.064   3.650   1.135  0.1758  1.0082 -0.2275
 7962SOL    HW235349   3.922   3.691   1.142 -0.0876 -0.2224 -0.1453
 7963SOL     OW35350   2.281   4.305   8.628 -0.2265 -0.2723  0.2187
 7963SOL    HW135351   2.321   4.242   8.687  0.4458 -1.0521 -1.0552
 7963SOL    HW235352   2.193   4.296   8.663 -0.9198 -0.5842 -1.5936
 7964SOL     OW35353   3.468   3.007   6.953 -0.2805  0.2598  0.3445
 7964SOL    HW135354   3.555   3.006   6.915 -0.6699  0.6975 -0.5597
 7964SOL    HW235355   3.480   3.079   7.015  0.1488 -1.6265  2.4695
 7965SOL     OW35356   0.711   1.840   1.130  0.3850 -0.2819  0.6894
 7965SOL    HW135357   0.740   1.930   1.116  0.0704 -0.5472 -1.6804
 7965SOL    HW235358   0.627   1.839   1.085  0.6642  0.1563  0.1572
 7966SOL     OW35359   2.082   0.257   7.410  0.3777 -0.1038  0.1102
 7966SOL    HW135360   2.081   0.170   7.369  0.2555 -0.6756  1.3132
 7966SOL    HW235361   2.176   0.272   7.411  0.2496  0.9233 -2.8981
 7967SOL     OW35362   2.969   3.529   7.079  0.0236  0.4694  0.3899
 7967SOL    HW135363   2.976   3.606   7.022 -0.4677  0.1146 -0.1513
 7967SOL    HW235364   2.879   3.525   7.111 -0.5404 -0.3698 -1.2870
 7968SOL     OW35365   4.014   2.218   2.497 -0.1521  0.3871  0.0919
 7968SOL    HW135366   3.948   2.154   2.469  1.3321 -0.1782 -2.1428
 7968SOL    HW235367   3.982   2.286   2.438 -0.3509  1.0665  0.9861
 7969SOL     OW35368   0.203   3.877   5.076  0.1311  0.0196 -0.0028
 7969SOL    HW135369   0.195   3.922   4.992  0.4379  0.6400  0.3021
 7969SOL    HW235370   0.110   3.856   5.084  0.6797 -1.8584  1.4519
 7970SOL     OW35371   3.035   0.754   6.005  0.3592 -0.0691 -0.3178
 7970SOL    HW135372   3.116   0.747   5.955 -0.0364  1.3002 -1.1328
 7970SOL    HW235373   3.058   0.834   6.053 -1.9946  0.6309 -0.3585
 7971SOL     OW35374   3.737   2.082  14.707  0.1562  0.3006 -0.0828
 7971SOL    HW135375   3.800   2.126  14.650 -0.9355  2.0141  0.0376
 7971SOL    HW235376   3.792   2.008  14.731 -0.6405 -0.1047  0.4798
 7972SOL     OW35377   0.433   4.547   8.601 -0.5568  0.4138  0.7142
 7972SOL    HW135378   0.422   4.512   8.689 -1.8243  0.7038  0.6739
 7972SOL    HW235379   0.404   4.637   8.614  2.3334  1.1018  2.4532
 7973SOL     OW35380   2.827   3.669   2.586 -0.0759  0.6390 -0.4013
 7973SOL    HW135381   2.787   3.754   2.569 -0.2740  0.0747 -2.7319
 7973SOL    HW235382   2.892   3.657   2.516 -1.6647 -1.8750 -1.4348
 7974SOL     OW35383   3.302   2.165  17.290 -0.3576  0.3122 -0.8102
 7974SOL    HW135384   3.291   2.243  17.344  2.3074  0.5873 -0.6514
 7974SOL    HW235385   3.241   2.178  17.217 -1.1310 -2.1054 -0.5936
 7975SOL     OW35386   0.533   1.383   4.162  0.4831  0.4552 -0.0919
 7975SOL    HW135387   0.501   1.301   4.125 -1.8536  1.0030  0.7001
 7975SOL    HW235388   0.460   1.434   4.198  0.7124 -0.1109  1.1569
 7976SOL     OW35389   1.585   4.367   9.497  0.0737  0.1687  0.5134
 7976SOL    HW135390   1.507   4.334   9.543 -0.3903  1.8227  0.9142
 7976SOL    HW235391   1.551   4.451   9.467 -1.0426  0.1866  1.7682
 7977SOL     OW35392   3.453   3.994  12.681 -0.0409 -0.3884 -0.3919
 7977SOL    HW135393   3.428   4.043  12.760  1.3986 -0.7119  0.2827
 7977SOL    HW235394   3.416   4.055  12.618 -1.2626 -0.1329  0.5692
 7978SOL     OW35395   3.209   3.837   2.701 -0.0102  0.0276 -0.2649
 7978SOL    HW135396   3.258   3.915   2.727 -1.0779  1.0600 -1.3221
 7978SOL    HW235397   3.125   3.879   2.682  0.8469  2.4653  1.4434
 7979SOL     OW35398   0.491   4.319  11.937 -0.2920 -0.3993 -0.1390
 7979SOL    HW135399   0.479   4.308  11.843  1.9474 -0.3404 -0.4236
 7979SOL    HW235400   0.502   4.414  11.947 -0.4094 -0.2643 -1.2898
 7980SOL     OW35401   1.185   0.226   0.374 -0.4720 -0.0067 -0.1104
 7980SOL    HW135402   1.190   0.322   0.367  1.4725 -0.0986  0.0348
 7980SOL    HW235403   1.245   0.204   0.303 -1.1852 -1.1901 -0.3344
 7981SOL     OW35404   0.325   0.268   2.899  0.2757  0.0267  0.5817
 7981SOL    HW135405   0.286   0.321   2.968  1.5236  1.6569  0.0380
 7981SOL    HW235406   0.377   0.205   2.948 -0.4276 -0.8992  0.1417
 7982SOL     OW35407   2.755   0.284   7.301 -0.3889 -0.4984  0.3279
 7982SOL    HW135408   2.737   0.374   7.272  0.6614  0.1837  1.8206
 7982SOL    HW235409   2.762   0.282   7.396  0.0383 -1.3479  0.2767
 7983SOL     OW35410   0.183   1.625   2.569  0.5667  0.1221  0.3344
 7983SOL    HW135411   0.131   1.544   2.569 -0.3438  0.7072 -2.1036
 7983SOL    HW235412   0.225   1.600   2.486 -0.9196  0.0946 -0.4148
 7984SOL     OW35413   2.610   0.160  11.119 -0.1056 -0.2591  0.2567
 7984SOL    HW135414   2.663   0.239  11.111 -0.2198 -0.2568 -0.4565
 7984SOL    HW235415   2.654   0.103  11.182 -0.3636 -1.1497 -0.3744
 7985SOL     OW35416   3.461   3.087   8.240 -0.4020 -0.3346  0.6064
 7985SOL    HW135417   3.488   2.995   8.236  0.0473 -0.2118  0.7556
 7985SOL    HW235418   3.534   3.125   8.190 -1.1841  2.3694  1.5548
 7986SOL     OW35419   2.418   3.141   2.217  0.8413 -0.0656  0.0766
 7986SOL    HW135420   2.402   3.234   2.229 -2.3155 -0.6413  0.2707
 7986SOL    HW235421   2.344   3.102   2.264  0.6484 -1.1494 -1.1074
 7987SOL     OW35422   1.110   4.414   9.481  0.1553 -0.5260  0.7158
 7987SOL    HW135423   1.046   4.343   9.478 -0.1004 -0.3098  1.0139
 7987SOL    HW235424   1.068   4.484   9.432  0.4311 -1.3488 -0.7274
 7988SOL     OW35425   3.561   4.606  11.103 -0.4735 -0.2569 -0.2105
 7988SOL    HW135426   3.521   4.689  11.130  1.1225  0.4077  0.0910
 7988SOL    HW235427   3.650   4.630  11.128  0.0846 -0.0032 -2.5214
 7989SOL     OW35428   1.523   1.025   5.506 -0.1960 -0.0000  0.4668
 7989SOL    HW135429   1.572   1.038   5.587  0.6446 -1.7827  0.2409
 7989SOL    HW235430   1.591   1.054   5.445  0.6985  0.8442  1.8723
 7990SOL     OW35431   3.085   2.510   9.550 -0.6190  0.2653  0.0284
 7990SOL    HW135432   3.158   2.474   9.600 -0.9254  0.0628  0.3362
 7990SOL    HW235433   3.067   2.441   9.486 -1.8320  1.1074 -0.5532
 7991SOL     OW35434   0.329   0.740   6.228 -0.3855 -0.4845  0.5774
 7991SOL    HW135435   0.236   0.718   6.237 -0.9500  0.6933 -2.6572
 7991SOL    HW235436   0.353   0.730   6.136 -1.0923 -1.9430  0.5520
 7992SOL     OW35437   2.813   0.378   4.032  0.4241  0.7549 -0.0192
 7992SOL    HW135438   2.834   0.292   4.069 -1.3275  0.3633  0.0538
 7992SOL    HW235439   2.832   0.350   3.943 -0.6172  2.8030 -0.8887
 7993SOL     OW35440   0.928   0.859   5.409  0.2463 -0.5094  0.5200
 7993SOL    HW135441   0.978   0.885   5.487  1.4086 -2.6592  0.4916
 7993SOL    HW235442   0.905   0.946   5.376 -3.2073 -1.2890  0.8595
 7994SOL     OW35443   4.344   2.361   2.881 -0.2320  0.0917 -0.1505
 7994SOL    HW135444   4.437   2.348   2.900  0.0806  3.0975  0.3534
 7994SOL    HW235445   4.353   2.417   2.804  1.0266  0.6156  0.3878
 7995SOL     OW35446   3.753   0.402  15.982  0.6024 -0.5560 -0.1561
 7995SOL    HW135447   3.741   0.418  15.888 -0.7237 -1.6975 -0.1822
 7995SOL    HW235448   3.673   0.420  16.030  0.4505 -2.9402  0.4684
 7996SOL     OW35449   3.364   2.325   3.988 -0.7250  0.5751  0.2000
 7996SOL    HW135450   3.453   2.345   3.962 -1.1806  1.0497 -1.0104
 7996SOL    HW235451   3.380   2.313   4.082 -2.4164 -0.2576  0.3832
 7997SOL     OW35452   0.315   2.500  12.999 -0.4197  0.1752 -0.2396
 7997SOL    HW135453   0.240   2.504  12.940  0.2330  2.5920 -0.9206
 7997SOL    HW235454   0.300   2.416  13.042 -1.3767  1.6813  2.4192
 7998SOL     OW35455   3.423   2.248  10.315  0.0273 -0.2307  0.4995
 7998SOL    HW135456   3.422   2.249  10.219  1.1544 -0.3855  0.4929
 7998SOL    HW235457   3.480   2.324  10.328 -0.3686 -0.0237  1.0451
 7999SOL     OW35458   2.479   3.517   9.226 -0.3039 -0.5718 -0.2932
 7999SOL    HW135459   2.445   3.573   9.156 -0.6330 -0.3910  0.0140
 7999SOL    HW235460   2.485   3.583   9.295  1.2816 -0.1247 -0.8584
 8000SOL     OW35461   1.153   0.143   2.313 -0.5784  0.2936  0.4268
 8000SOL    HW135462   1.124   0.171   2.400  1.0516 -1.5620  1.5723
 8000SOL    HW235463   1.149   0.049   2.330 -0.0226  0.3307  0.7965
 8001SOL     OW35464   4.607   4.399   3.198 -0.4223  0.0311  0.3850
 8001SOL    HW135465   4.663   4.409   3.121  1.5537 -1.5168  1.6256
 8001SOL    HW235466   4.572   4.312   3.182  1.7319 -0.6960 -0.2743
 8002SOL     OW35467   4.424   2.502   4.423  0.0935  0.3208 -0.2488
 8002SOL    HW135468   4.334   2.508   4.389  0.3216 -0.3462 -0.9552
 8002SOL    HW235469   4.475   2.537   4.350  2.0378 -0.8843  0.5430
 8003SOL     OW35470   2.966   4.311   6.945 -0.3192  0.5982  0.0246
 8003SOL    HW135471   2.912   4.262   7.008 -1.2907  2.2156  0.4663
 8003SOL    HW235472   3.030   4.243   6.924  0.2043  0.6426  1.4420
 8004SOL     OW35473   1.393   3.960   1.500  1.0534 -0.0025 -0.8003
 8004SOL    HW135474   1.437   3.916   1.572 -1.9824  0.5418  1.4014
 8004SOL    HW235475   1.384   3.880   1.447  0.6133 -0.7629  0.4232
 8005SOL     OW35476   2.873   0.152   9.340  0.3945  0.5557 -0.0705
 8005SOL    HW135477   2.957   0.109   9.358 -0.2280 -0.6700 -0.1224
 8005SOL    HW235478   2.886   0.173   9.248 -0.8139  0.3561 -0.2918
 8006SOL     OW35479   2.163   2.318   8.016  0.4266 -0.2558 -0.2597
 8006SOL    HW135480   2.182   2.225   8.005  1.8100 -0.2229  1.7417
 8006SOL    HW235481   2.179   2.328   8.110  0.9327 -0.8848 -0.2749
 8007SOL     OW35482   0.518   3.443   1.282  0.1172  0.3534 -0.0993
 8007SOL    HW135483   0.484   3.532   1.290  1.1953  0.7573  0.0078
 8007SOL    HW235484   0.444   3.391   1.249 -0.4969  1.9514 -1.2331
 8008SOL     OW35485   4.372   1.505  14.030  0.8040 -0.0551 -0.8712
 8008SOL    HW135486   4.429   1.562  13.977  1.7992 -0.6579 -0.4573
 8008SOL    HW235487   4.339   1.447  13.961 -2.1427 -0.9892  1.3486
 8009SOL     OW35488   0.139   4.213   5.256 -0.2661 -0.1004 -0.2364
 8009SOL    HW135489   0.138   4.240   5.165  0.8599 -0.0900 -0.2445
 8009SOL    HW235490   0.218   4.160   5.257  0.6740  1.3198 -0.2392
 8010SOL     OW35491   2.727   1.584   3.975 -0.5592  0.8194  0.4736
 8010SOL    HW135492   2.646   1.632   3.993 -1.4688 -0.5231  0.0440
 8010SOL    HW235493   2.684   1.523   3.914  1.3059 -1.7656  1.7813
 8011SOL     OW35494   1.537   0.640   6.389  0.0847  0.1883  0.0645
 8011SOL    HW135495   1.477   0.687   6.446 -0.6121 -1.0019  0.3075
 8011SOL    HW235496   1.478   0.566   6.379  0.1371  0.1875 -0.2384
 8012SOL     OW35497   1.453   0.659   5.104 -0.3751 -0.0131 -0.3587
 8012SOL    HW135498   1.447   0.755   5.104 -3.0210 -0.1675  1.1057
 8012SOL    HW235499   1.471   0.649   5.011 -0.0498 -1.5665 -0.1260
 8013SOL     OW35500   0.770   0.428   2.133  0.0275  0.7176 -0.4965
 8013SOL    HW135501   0.697   0.403   2.076  1.0837 -2.2095 -0.5345
 8013SOL    HW235502   0.837   0.440   2.066  0.9561  0.0287  0.3076
 8014SOL     OW35503   4.465   3.407   1.987  0.2323  0.0144 -0.5613
 8014SOL    HW135504   4.375   3.427   1.961 -0.0255 -0.7699 -0.2648
 8014SOL    HW235505   4.509   3.438   1.908  1.9702  1.9728  1.1558
 8015SOL     OW35506   2.796   4.297   8.239  0.3856  0.3208  0.2478
 8015SOL    HW135507   2.881   4.270   8.204 -0.9113 -0.5178 -2.2328
 8015SOL    HW235508   2.768   4.354   8.167 -0.3765 -1.2646 -0.7176
 8016SOL     OW35509   0.300   2.811  13.913  0.3193 -0.7094  0.0013
 8016SOL    HW135510   0.395   2.798  13.915  0.6279  1.6223 -0.0002
 8016SOL    HW235511   0.266   2.752  13.845  0.4189 -0.1857 -0.5017
 8017SOL     OW35512   2.199   3.367   7.777 -0.2244  0.6715 -0.2288
 8017SOL    HW135513   2.194   3.372   7.872  0.2319  0.4753 -0.1946
 8017SOL    HW235514   2.104   3.366   7.764 -0.2678  0.3441  0.1462
 8018SOL     OW35515   3.608   3.807   3.247 -0.3799 -0.3879  0.6234
 8018SOL    HW135516   3.701   3.807   3.267 -0.1369 -0.8561 -0.4954
 8018SOL    HW235517   3.604   3.724   3.199 -2.2186 -0.9627  1.7708
 8019SOL     OW35518   1.195   3.806   2.820 -0.4443 -0.5907 -0.1646
 8019SOL    HW135519   1.236   3.733   2.865 -0.6884  0.4182  1.6909
 8019SOL    HW235520   1.104   3.779   2.832 -0.0414 -1.3942  1.0682
 8020SOL     OW35521   1.079   1.520   8.124  0.6421 -0.2170  0.0942
 8020SOL    HW135522   0.997   1.500   8.080  0.0517  1.2289  0.5560
 8020SOL    HW235523   1.043   1.551   8.207 -0.7429 -0.4476 -0.4271
 8021SOL     OW35524   0.990   3.786   6.462 -0.0486 -0.1626  0.5104
 8021SOL    HW135525   0.987   3.700   6.419  2.0402 -0.4439  0.9413
 8021SOL    HW235526   0.932   3.838   6.406  1.4685 -0.2870 -1.1754
 8022SOL     OW35527   1.005   0.178   4.842 -0.5621 -0.1990 -0.1920
 8022SOL    HW135528   0.932   0.182   4.904 -0.3778 -1.4500  0.1179
 8022SOL    HW235529   1.025   0.269   4.821  0.9454 -1.1368 -2.8863
 8023SOL     OW35530   3.594   1.525   0.289  0.3955 -0.2209  0.9015
 8023SOL    HW135531   3.611   1.613   0.256  1.7154 -0.7963  0.0525
 8023SOL    HW235532   3.587   1.472   0.209 -2.7672  2.3961 -0.5517
 8024SOL     OW35533   1.975   2.563   9.041 -0.1378 -0.3213  0.0792
 8024SOL    HW135534   1.885   2.590   9.026 -0.3717 -1.5349 -0.6634
 8024SOL    HW235535   1.975   2.566   9.137  0.0331  0.6800  0.0530
 8025SOL     OW35536   1.222   3.386   4.321 -0.0206  0.3833  0.0136
 8025SOL    HW135537   1.227   3.452   4.390 -0.6487  0.5482 -0.0979
 8025SOL    HW235538   1.277   3.423   4.251  0.0290  0.5353  0.1326
 8026SOL     OW35539   4.228   1.165  13.036  0.4514 -0.0249 -0.6144
 8026SOL    HW135540   4.320   1.145  13.018 -0.0490 -2.6133 -0.1480
 8026SOL    HW235541   4.222   1.132  13.125 -0.6124  0.7957 -0.3765
 8027SOL     OW35542   3.655   2.437   4.808 -0.0749 -0.0531  0.2145
 8027SOL    HW135543   3.630   2.390   4.729 -1.3431 -0.6094  0.9440
 8027SOL    HW235544   3.683   2.522   4.774 -1.6867 -0.0649 -1.1269
 8028SOL     OW35545   3.873   0.761   7.656 -0.3443 -0.9609 -0.3908
 8028SOL    HW135546   3.911   0.679   7.686  1.5876 -0.5217 -1.6815
 8028SOL    HW235547   3.854   0.794   7.744 -1.2649 -2.9901  0.1613
 8029SOL     OW35548   4.557   4.259  15.457 -0.3741 -0.4634 -0.4234
 8029SOL    HW135549   4.520   4.240  15.370  3.9154  0.0529 -2.3698
 8029SOL    HW235550   4.650   4.277  15.441 -0.4523 -0.6088 -1.0600
 8030SOL     OW35551   3.887   2.989   2.115  0.0091 -0.0833  0.6675
 8030SOL    HW135552   3.961   2.995   2.175  0.4940 -4.4112  0.4401
 8030SOL    HW235553   3.919   2.961   2.030 -2.2361  0.9641 -0.5504
 8031SOL     OW35554   2.876   2.268  14.715  0.1717  0.2367 -0.3537
 8031SOL    HW135555   2.968   2.246  14.702  0.2700  1.7382 -2.2019
 8031SOL    HW235556   2.863   2.252  14.808 -1.1364 -0.0569 -0.5873
 8032SOL     OW35557   3.633   2.154   1.266  0.4363 -0.3290 -0.7919
 8032SOL    HW135558   3.688   2.076   1.266  0.5930 -0.2251  2.3888
 8032SOL    HW235559   3.571   2.139   1.194 -1.3103  0.4433  0.5449
 8033SOL     OW35560   1.262   4.278   4.269 -0.1292  0.0014  0.2828
 8033SOL    HW135561   1.256   4.215   4.197 -1.0974  0.6610 -0.2227
 8033SOL    HW235562   1.169   4.296   4.287  0.1024  0.8981  0.5635
 8034SOL     OW35563   1.165   0.772   8.251  1.1986  0.4682 -0.4611
 8034SOL    HW135564   1.141   0.724   8.172  0.5122  0.0808 -0.0180
 8034SOL    HW235565   1.159   0.861   8.217 -3.2094 -0.6371 -2.5039
 8035SOL     OW35566   1.520   0.993   4.775  0.4228 -0.1980  0.1610
 8035SOL    HW135567   1.442   0.937   4.777 -0.2735  0.6767 -1.9759
 8035SOL    HW235568   1.484   1.081   4.757 -1.3774 -1.1652 -1.0414
 8036SOL     OW35569   2.248   0.009  16.250 -0.1295 -0.4090 -0.8559
 8036SOL    HW135570   2.255   4.645  16.272 -0.8296 -0.5330 -1.1678
 8036SOL    HW235571   2.154   0.008  16.230 -0.8082 -1.3021  2.3613
 8037SOL     OW35572   2.657   0.452   8.202 -0.1447 -0.0382 -0.7612
 8037SOL    HW135573   2.742   0.475   8.238  0.0224 -1.0165 -0.5299
 8037SOL    HW235574   2.624   0.535   8.167  0.2269  0.1176 -0.7423
 8038SOL     OW35575   3.067   3.220   3.016  0.4398 -0.0687 -0.1542
 8038SOL    HW135576   3.149   3.214   3.064 -1.0150 -1.2533  2.2234
 8038SOL    HW235577   3.061   3.314   3.003  0.1154 -0.3655 -2.1162
 8039SOL     OW35578   1.354   3.067   6.287  0.3234 -0.8613  0.8936
 8039SOL    HW135579   1.413   3.046   6.359 -1.6801 -0.0020  2.7877
 8039SOL    HW235580   1.289   3.120   6.332  0.3589 -1.3094  1.4723
 8040SOL     OW35581   2.312   0.884   9.838  0.5911  0.2728 -0.2540
 8040SOL    HW135582   2.328   0.836   9.757  0.9457 -0.4368  0.2378
 8040SOL    HW235583   2.270   0.813   9.887 -1.7298  0.6515 -1.6999
 8041SOL     OW35584   2.007   2.305  14.491  0.4466 -0.3414  0.6144
 8041SOL    HW135585   2.055   2.283  14.571 -1.4784  1.1496  2.2066
 8041SOL    HW235586   1.919   2.314  14.529  0.4301 -0.5854  0.6344
 8042SOL     OW35587   2.590   1.687   5.074 -0.8535  0.6397 -0.1989
 8042SOL    HW135588   2.598   1.768   5.125 -1.4302  0.1950  0.6022
 8042SOL    HW235589   2.501   1.692   5.041 -0.8755  0.9009 -0.0996
 8043SOL     OW35590   2.328   3.947   8.153  0.4329 -0.1771 -0.5217
 8043SOL    HW135591   2.266   3.887   8.194  0.8737 -0.6908 -0.6029
 8043SOL    HW235592   2.351   4.004   8.226  0.3874  0.0750 -0.7077
 8044SOL     OW35593   4.620   1.392   5.060 -0.8204  0.2088  0.1545
 8044SOL    HW135594   4.641   1.320   5.001  0.2981  1.3756 -0.8818
 8044SOL    HW235595   4.616   1.338   5.139 -0.2082  2.2938  1.6031
 8045SOL     OW35596   1.492   0.579  13.731  0.4415  0.5750  0.5723
 8045SOL    HW135597   1.477   0.528  13.811  0.6128  0.3218  0.4446
 8045SOL    HW235598   1.587   0.568  13.727  0.7009  2.4760  1.3757
 8046SOL     OW35599   0.168   0.519   6.383 -0.0933  0.1562  0.1983
 8046SOL    HW135600   0.076   0.491   6.381  0.0317 -0.4155  2.3003
 8046SOL    HW235601   0.200   0.445   6.435 -1.4377  0.3480  1.3120
 8047SOL     OW35602   1.699   2.591   8.977 -0.4137  0.0673  0.4773
 8047SOL    HW135603   1.667   2.681   8.965 -0.2158  0.3191  1.9057
 8047SOL    HW235604   1.675   2.539   8.900  0.1129  2.0239 -1.0203
 8048SOL     OW35605   0.005   4.473   7.876  0.6969  0.3213 -0.2468
 8048SOL    HW135606   4.720   4.516   7.961 -0.7665  1.8492 -1.2427
 8048SOL    HW235607   0.013   4.381   7.902 -0.2824  0.4709  0.5755
 8049SOL     OW35608   2.453   4.011   5.769  0.3606 -0.8252  0.1298
 8049SOL    HW135609   2.401   3.995   5.690  1.4091  2.1431 -1.1731
 8049SOL    HW235610   2.521   3.944   5.762  0.7195 -0.5172  0.6741
 8050SOL     OW35611   2.382   1.283   3.665 -0.3386 -0.0209  0.5548
 8050SOL    HW135612   2.387   1.256   3.573  0.9950 -0.0110  0.6364
 8050SOL    HW235613   2.392   1.196   3.704 -1.6116 -0.6461 -0.4829
 8051SOL     OW35614   2.155   1.880   7.038 -0.7387  0.8929  0.0894
 8051SOL    HW135615   2.107   1.933   6.975  0.5016  2.3566  0.3747
 8051SOL    HW235616   2.227   1.941   7.055  0.6251 -0.1410 -2.0042
 8052SOL     OW35617   2.425   3.799   3.384 -0.1880 -0.0334  0.0308
 8052SOL    HW135618   2.365   3.840   3.322 -0.2659 -0.9959 -0.5416
 8052SOL    HW235619   2.382   3.828   3.465 -1.3528 -0.8079 -0.2980
 8053SOL     OW35620   1.446   0.432   4.480 -0.1439  0.1338 -0.1455
 8053SOL    HW135621   1.407   0.351   4.446  1.1517 -0.3899 -0.3695
 8053SOL    HW235622   1.540   0.430   4.464 -0.1856 -0.7879 -0.2480
 8054SOL     OW35623   4.422   1.595   5.084 -0.4693 -0.6029  0.4789
 8054SOL    HW135624   4.493   1.533   5.070 -0.1547 -0.2052  0.3119
 8054SOL    HW235625   4.430   1.623   5.175  0.7455 -1.0025  0.4921
 8055SOL     OW35626   1.595   3.240   4.519 -0.1667 -0.5068  0.1361
 8055SOL    HW135627   1.620   3.228   4.610 -0.2287  2.3618  0.5085
 8055SOL    HW235628   1.549   3.156   4.513 -1.9531  0.4548  0.3626
 8056SOL     OW35629   1.781   3.719  11.515  0.2464  0.2618 -0.1163
 8056SOL    HW135630   1.809   3.644  11.463  0.7594 -0.1064  0.6945
 8056SOL    HW235631   1.849   3.777  11.480 -1.1846  1.1395 -1.4650
 8057SOL     OW35632   1.970   3.416  10.287  0.4835  0.1452 -0.2480
 8057SOL    HW135633   1.989   3.370  10.205  0.5901  0.5942 -0.4776
 8057SOL    HW235634   2.060   3.428  10.316 -0.0136 -0.4882  1.5611
 8058SOL     OW35635   2.890   2.371   4.605  0.2877 -0.0260  0.5586
 8058SOL    HW135636   2.848   2.334   4.528 -0.6779  1.0451  0.5679
 8058SOL    HW235637   2.845   2.324   4.675 -3.3804  1.6435 -0.7228
 8059SOL     OW35638   0.983   3.985   7.484  0.4682  0.0409  0.7146
 8059SOL    HW135639   0.923   3.952   7.552  1.2062 -1.4341  0.6282
 8059SOL    HW235640   0.955   4.077   7.474  0.2980 -0.0718  0.1536
 8060SOL     OW35641   0.627   0.810   8.858 -0.0221 -0.1304  0.1909
 8060SOL    HW135642   0.670   0.726   8.845  0.9107  0.5425 -1.1805
 8060SOL    HW235643   0.628   0.852   8.771  1.1432  0.2894  0.4005
 8061SOL     OW35644   1.624   4.723  10.959 -0.4127 -0.2042  1.0016
 8061SOL    HW135645   1.642   0.078  11.003 -2.1395  0.9447 -0.4708
 8061SOL    HW235646   1.529   4.715  10.961 -0.2548 -2.3094  0.2054
 8062SOL     OW35647   2.268   3.889  11.527  0.2669 -0.2723 -0.3352
 8062SOL    HW135648   2.358   3.915  11.506  0.4795  0.3021  1.3217
 8062SOL    HW235649   2.251   3.827  11.456  1.2550 -1.3212  0.3421
 8063SOL     OW35650   1.160   3.602   2.017  0.4908  0.0771  0.2278
 8063SOL    HW135651   1.182   3.549   2.093  1.6308 -1.3502 -1.0889
 8063SOL    HW235652   1.088   3.559   1.971  0.5903  1.7139 -1.4807
 8064SOL     OW35653   3.214   0.379  12.034 -0.1366  0.2776 -0.8452
 8064SOL    HW135654   3.123   0.404  12.016 -0.1841 -0.5101 -1.6908
 8064SOL    HW235655   3.201   0.327  12.113 -2.1572  1.1983 -0.5554
 8065SOL     OW35656   3.138   2.014   2.529 -0.2988  0.1759  0.4366
 8065SOL    HW135657   3.174   2.006   2.441  3.9597 -3.4986  2.5425
 8065SOL    HW235658   3.178   1.936   2.566 -1.0739 -1.5682 -2.4047
 8066SOL     OW35659   1.513   2.659   6.167 -0.0555  0.0827  0.5261
 8066SOL    HW135660   1.519   2.754   6.164  2.4038 -0.0689  0.2093
 8066SOL    HW235661   1.429   2.647   6.211 -0.5332 -1.2507 -0.7338
 8067SOL     OW35662   1.208   3.206   2.284  0.0685 -0.2880  0.0979
 8067SOL    HW135663   1.293   3.170   2.307 -0.4289 -2.5660 -1.6165
 8067SOL    HW235664   1.142   3.163   2.338  0.3870  0.4608  1.0840
 8068SOL     OW35665   1.809   3.436   1.547  0.2786 -0.1287  0.4210
 8068SOL    HW135666   1.780   3.488   1.472 -0.6940 -0.5629  0.4905
 8068SOL    HW235667   1.728   3.403   1.585  0.1833 -0.2242  0.1345
 8069SOL     OW35668   0.238   4.505   8.820  0.1976  0.1900 -0.1893
 8069SOL    HW135669   0.168   4.481   8.881  1.0490  1.6679  1.3564
 8069SOL    HW235670   0.285   4.571   8.871 -1.4151  0.9344  0.3698
 8070SOL     OW35671   3.999   0.036  17.678 -0.2280 -0.1886  0.3019
 8070SOL    HW135672   4.080   0.034   0.015 -0.0950 -0.4209  0.0835
 8070SOL    HW235673   4.011   0.110  17.619 -2.1658 -0.8220 -0.9290
 8071SOL     OW35674   1.265   1.161  10.334  0.3890  0.1428 -0.2678
 8071SOL    HW135675   1.237   1.111  10.257  0.9721  0.1841 -0.5079
 8071SOL    HW235676   1.199   1.133  10.397  2.2802 -2.5546  0.5084
 8072SOL     OW35677   1.456   0.575   1.660 -0.0063  0.1008  0.1035
 8072SOL    HW135678   1.375   0.569   1.609  0.1268 -0.4646 -0.0421
 8072SOL    HW235679   1.420   0.617   1.738  1.2696  0.1826  0.6560
 8073SOL     OW35680   2.285   2.605   9.615  0.1579  0.6639  0.2470
 8073SOL    HW135681   2.300   2.661   9.691  3.4622 -1.1364  0.9164
 8073SOL    HW235682   2.291   2.670   9.545 -1.7577 -1.4925 -1.8967
 8074SOL     OW35683   3.401   3.946   2.033  0.2682  0.4182 -0.0484
 8074SOL    HW135684   3.341   3.874   2.052 -0.2673  0.5914 -1.0807
 8074SOL    HW235685   3.427   3.926   1.943 -1.0322 -0.4671 -0.2378
 8075SOL     OW35686   3.628   2.184  17.571 -0.3404  0.4446 -0.0902
 8075SOL    HW135687   3.606   2.270  17.607  2.2793  0.5433  1.2356
 8075SOL    HW235688   3.547   2.133  17.567 -1.9715  3.0899 -0.5990
 8076SOL     OW35689   3.985   1.101   3.803 -0.2638  0.2016  0.2676
 8076SOL    HW135690   4.045   1.175   3.805  0.6751 -0.5377 -0.4676
 8076SOL    HW235691   3.909   1.157   3.788 -0.2538  0.1590  0.0433
 8077SOL     OW35692   2.970   2.758   6.910  0.6477 -0.2371 -0.1064
 8077SOL    HW135693   3.038   2.797   6.964  1.6625 -2.5684  0.2902
 8077SOL    HW235694   2.920   2.706   6.973  0.0970 -0.0638 -0.3984
 8078SOL     OW35695   1.088   3.342   0.454  0.0195 -0.4656  0.2923
 8078SOL    HW135696   1.146   3.373   0.384 -2.7828  2.5501 -0.6765
 8078SOL    HW235697   1.132   3.378   0.531 -1.1038 -1.2166  1.2754
 8079SOL     OW35698   1.519   2.890   2.600  0.3078  0.3064  0.4526
 8079SOL    HW135699   1.519   2.959   2.666  0.3412 -0.1048  0.8812
 8079SOL    HW235700   1.429   2.858   2.599  0.4852 -0.2084  0.9197
 8080SOL     OW35701   4.585   0.221   7.534  0.0012  0.1162 -0.0504
 8080SOL    HW135702   4.527   0.213   7.459 -1.0999 -1.2989  0.9534
 8080SOL    HW235703   4.659   0.180   7.489 -0.8737  0.0737 -1.4382
 8081SOL     OW35704   3.763   3.877  13.225  0.5149  0.2421 -0.2900
 8081SOL    HW135705   3.786   3.916  13.309  1.5982  2.0824 -1.4296
 8081SOL    HW235706   3.699   3.812  13.255  0.4654  0.5175  0.1965
 8082SOL     OW35707   4.608   0.358  17.105 -0.2038  0.4207  0.4603
 8082SOL    HW135708   4.530   0.336  17.155 -0.0994  1.9883  1.3408
 8082SOL    HW235709   4.570   0.414  17.037  0.2744 -0.3692 -0.4538
 8083SOL     OW35710   1.512   3.531   4.096  0.1399 -0.4168 -0.4821
 8083SOL    HW135711   1.464   3.514   4.015  1.9204 -0.8091 -1.4502
 8083SOL    HW235712   1.504   3.446   4.138 -0.3309  1.2792  2.8904
 8084SOL     OW35713   2.727   0.216  15.519 -0.7989  0.2680 -0.6289
 8084SOL    HW135714   2.663   0.287  15.527 -0.9993  0.0594 -0.3677
 8084SOL    HW235715   2.766   0.212  15.607  2.1422 -2.1032 -2.0174
 8085SOL     OW35716   2.479   4.582  12.465  0.0685 -0.5284  1.1507
 8085SOL    HW135717   2.517   4.510  12.516  0.9337 -1.0498 -0.2230
 8085SOL    HW235718   2.398   4.546  12.427  1.3194 -2.8181  0.6970
 8086SOL     OW35719   2.165   1.553   6.000 -0.5155 -0.4835 -0.6963
 8086SOL    HW135720   2.211   1.504   5.933  0.3653 -0.3666 -0.1772
 8086SOL    HW235721   2.217   1.532   6.078  0.6607  1.9091 -0.8239
 8087SOL     OW35722   2.983   0.484  11.943  0.0720  0.1516  0.4491
 8087SOL    HW135723   2.919   0.522  11.883 -0.8180  0.5482  1.6485
 8087SOL    HW235724   2.941   0.516  12.023  2.2589  0.2681  1.5544
 8088SOL     OW35725   0.136   4.380   5.589  0.2269  1.0770  0.5021
 8088SOL    HW135726   0.222   4.346   5.564 -0.1210  2.1523 -2.2056
 8088SOL    HW235727   0.166   4.447   5.650 -0.6469 -0.2226  2.3817
 8089SOL     OW35728   2.735   0.320   5.603 -0.1763 -0.1739  0.6285
 8089SOL    HW135729   2.814   0.269   5.622  0.3511  0.4815  0.1992
 8089SOL    HW235730   2.717   0.294   5.512 -1.8083 -1.5311  1.3254
 8090SOL     OW35731   3.318   4.147   5.339 -0.4581 -0.0021  0.1532
 8090SOL    HW135732   3.273   4.068   5.369 -0.0923  0.8373  2.9231
 8090SOL    HW235733   3.334   4.109   5.252 -0.6848 -0.6078  0.3743
 8091SOL     OW35734   4.410   0.755   6.638 -0.3069  0.0867  0.0076
 8091SOL    HW135735   4.384   0.681   6.584  0.4820 -0.5706  0.5351
 8091SOL    HW235736   4.428   0.704   6.716  0.9677 -0.5492 -0.7058
 8092SOL     OW35737   1.574   1.278   6.375  0.8338  0.2260  0.6395
 8092SOL    HW135738   1.573   1.296   6.468  1.0443  1.4977  0.3882
 8092SOL    HW235739   1.506   1.211   6.370  1.0317  0.0393  0.3987
 8093SOL     OW35740   1.827   2.640   6.869  0.4083 -0.9188  0.2411
 8093SOL    HW135741   1.750   2.617   6.818  0.1903  0.5932 -0.1220
 8093SOL    HW235742   1.847   2.731   6.845  0.9976 -1.1931 -0.2972
 8094SOL     OW35743   2.819   1.793  13.131  0.0095 -0.2760 -0.2302
 8094SOL    HW135744   2.725   1.808  13.136 -0.0647 -0.9108  0.2797
 8094SOL    HW235745   2.849   1.883  13.143 -2.3030  0.3125  0.9638
 8095SOL     OW35746   3.085   1.065   6.082  0.0661  0.0076 -0.3838
 8095SOL    HW135747   3.109   1.157   6.084  0.3554 -0.1083  1.8572
 8095SOL    HW235748   3.035   1.060   6.001  0.0902 -0.0988 -0.3927
 8096SOL     OW35749   0.029   4.165  11.019 -0.1846 -0.4357 -0.3284
 8096SOL    HW135750   0.043   4.213  11.100  0.0725 -1.5327  0.2646
 8096SOL    HW235751   0.001   4.241  10.968  0.7476 -0.5137 -0.9653
 8097SOL     OW35752   4.705   0.105  17.041 -0.2689  0.1777 -0.0824
 8097SOL    HW135753   4.691   0.192  17.079 -1.6653 -0.5749  1.1101
 8097SOL    HW235754   4.617   0.071  17.024  0.0399  0.8550 -2.9639
 8098SOL     OW35755   0.022   3.105  13.023 -0.1745  0.0064 -0.0230
 8098SOL    HW135756   0.086   3.159  12.978 -0.3639 -0.4188 -0.8026
 8098SOL    HW235757   0.082   3.041  13.062 -1.7687 -1.6232 -0.2094
 8099SOL     OW35758   0.620   4.037  15.166 -0.1582  0.2588  0.4326
 8099SOL    HW135759   0.633   4.064  15.075 -0.6394  2.1841  0.9193
 8099SOL    HW235760   0.525   4.052  15.161 -0.3644 -0.7650  1.3914
 8100SOL     OW35761   0.447   0.676   5.094  0.5220 -0.8112  0.4135
 8100SOL    HW135762   0.515   0.734   5.129 -2.1711  2.3270  0.3633
 8100SOL    HW235763   0.481   0.682   5.005 -0.6352  2.0317  0.1838
 8101SOL     OW35764   2.868   1.652   8.333  0.0557 -0.0627  0.0824
 8101SOL    HW135765   2.784   1.687   8.303  1.7241  1.3746 -2.8553
 8101SOL    HW235766   2.931   1.719   8.306  1.4146 -0.4409  2.3093
 8102SOL     OW35767   3.981   0.190   7.961 -0.2856  0.5920 -0.0457
 8102SOL    HW135768   4.048   0.213   8.026 -0.4345  0.2223  0.2410
 8102SOL    HW235769   4.013   0.217   7.875  2.8964 -0.0113  0.9504
 8103SOL     OW35770   3.526   3.969   6.834  0.3975 -0.3889 -0.3061
 8103SOL    HW135771   3.599   4.028   6.854  0.2258 -0.3636  0.2340
 8103SOL    HW235772   3.477   3.972   6.916  1.3217  0.7536  0.2079
 8104SOL     OW35773   3.151   2.200   7.663 -0.0778  0.2956  0.4234
 8104SOL    HW135774   3.190   2.269   7.717  1.3341 -1.6973  1.9821
 8104SOL    HW235775   3.150   2.244   7.579  0.7422 -0.7630 -0.1408
 8105SOL     OW35776   0.170   0.751   7.674 -0.3208  0.0463  0.2591
 8105SOL    HW135777   0.095   0.734   7.730  0.3345 -0.4006  0.9920
 8105SOL    HW235778   0.149   0.684   7.609  0.6704  0.6280 -0.6711
 8106SOL     OW35779   3.693   3.233   7.477 -0.2760 -0.9776 -0.1431
 8106SOL    HW135780   3.718   3.271   7.561 -1.1430 -1.9459  0.5511
 8106SOL    HW235781   3.639   3.159   7.504 -1.3798 -0.5293 -1.1460
 8107SOL     OW35782   3.017   1.163   2.020 -0.1386  0.4811 -0.1319
 8107SOL    HW135783   3.060   1.148   2.104 -2.5700  0.5633  1.1385
 8107SOL    HW235784   2.942   1.213   2.054 -0.5314 -0.2261  0.0467
 8108SOL     OW35785   0.686   2.728   2.797 -0.5222  0.1166 -0.3756
 8108SOL    HW135786   0.707   2.669   2.725 -0.5275  0.3150 -0.5376
 8108SOL    HW235787   0.624   2.793   2.763  0.1509  0.2968 -1.2534
 8109SOL     OW35788   3.552   2.690   9.295 -0.1895  0.0567 -0.3295
 8109SOL    HW135789   3.637   2.704   9.254 -0.0790 -0.7205 -0.3793
 8109SOL    HW235790   3.568   2.629   9.367  0.4572 -0.1735 -0.6622
 8110SOL     OW35791   0.851   1.910  14.909 -0.1028  0.4368 -0.7821
 8110SOL    HW135792   0.920   1.946  14.853 -0.8705 -0.5242 -2.3317
 8110SOL    HW235793   0.897   1.907  14.992 -2.8025 -0.5390  0.6666
 8111SOL     OW35794   0.061   2.578   3.375 -0.1022  0.0204  0.2239
 8111SOL    HW135795   0.013   2.604   3.454  1.6452  2.3225  0.5115
 8111SOL    HW235796   0.153   2.596   3.396  0.4502 -0.2662 -1.9357
 8112SOL     OW35797   0.512   2.839   7.350 -0.5683  0.0674  0.2720
 8112SOL    HW135798   0.486   2.781   7.421  0.9504  1.0440  1.6248
 8112SOL    HW235799   0.436   2.824   7.293 -0.5556  0.4452  0.1568
 8113SOL     OW35800   0.785   3.911   7.669 -0.5572  0.3628 -0.2284
 8113SOL    HW135801   0.770   3.965   7.746  1.9299  0.1301  0.4215
 8113SOL    HW235802   0.714   3.848   7.659 -0.6004  0.1759  1.2566
 8114SOL     OW35803   2.405   0.197   4.708  0.3088 -0.1542 -0.1825
 8114SOL    HW135804   2.441   0.244   4.782  0.4357  0.5232 -0.6774
 8114SOL    HW235805   2.391   0.273   4.651 -1.3720 -0.8202 -0.6759
 8115SOL     OW35806   2.550   0.110  12.372  0.6106 -0.1330 -0.0679
 8115SOL    HW135807   2.545   0.162  12.451 -0.8416  1.2453 -1.0725
 8115SOL    HW235808   2.534   0.021  12.404  2.2169 -0.7466 -0.9667
 8116SOL     OW35809   3.355   1.802   8.601 -0.4901 -0.0437 -0.5156
 8116SOL    HW135810   3.268   1.842   8.606 -1.4030 -1.9468 -1.2457
 8116SOL    HW235811   3.339   1.721   8.648 -0.0984 -0.1620 -0.5851
 8117SOL     OW35812   1.559   3.469   0.026  0.5142 -0.1423 -0.0611
 8117SOL    HW135813   1.519   3.466  17.653 -0.4907  1.0589  0.3483
 8117SOL    HW235814   1.614   3.548   0.022  0.8622 -0.5398 -3.0404
 8118SOL     OW35815   3.326   1.386   2.745  0.3060  0.1089  0.1970
 8118SOL    HW135816   3.363   1.358   2.829  0.7776  2.1083  0.6634
 8118SOL    HW235817   3.395   1.356   2.686  0.1628  0.8193 -0.3307
 8119SOL     OW35818   4.459   3.289   3.903  0.4678  0.0081 -0.4640
 8119SOL    HW135819   4.541   3.337   3.918  0.0557  1.1821 -1.9232
 8119SOL    HW235820   4.487   3.224   3.838 -0.3228 -1.8500  1.0692
 8120SOL     OW35821   4.371   0.513   2.509 -0.3041  0.0738  0.0470
 8120SOL    HW135822   4.314   0.589   2.520  0.2973  0.7272 -1.3347
 8120SOL    HW235823   4.315   0.446   2.467 -1.5719  0.5558  0.9670
 8121SOL     OW35824   0.392   4.010   8.132 -0.5364  0.4350 -0.3579
 8121SOL    HW135825   0.356   3.986   8.218  0.3077 -3.6590 -1.1169
 8121SOL    HW235826   0.355   3.938   8.081 -0.6003 -0.9328  1.5970
 8122SOL     OW35827   4.664   4.679   6.507  0.1727 -0.6542 -0.1665
 8122SOL    HW135828   0.015   4.701   6.556  0.1887 -1.5852  0.2322
 8122SOL    HW235829   4.607   4.669   6.583  0.6380 -2.1599 -0.0100
 8123SOL     OW35830   4.551   3.408  16.529 -0.5299 -0.2953 -0.1420
 8123SOL    HW135831   4.533   3.319  16.559 -0.0158 -0.6029 -0.7536
 8123SOL    HW235832   4.546   3.402  16.434 -1.9904  2.3086 -0.2325
 8124SOL     OW35833   1.418   0.054   0.365 -0.2640  0.2916  0.4134
 8124SOL    HW135834   1.382   4.715   0.423 -0.2627 -0.1410 -0.0857
 8124SOL    HW235835   1.478   0.091   0.430  0.4377 -0.8879  0.4368
 8125SOL     OW35836   2.100   3.277   3.254  0.1603 -0.4299  0.1555
 8125SOL    HW135837   2.086   3.196   3.205  2.7720  0.2380 -1.6797
 8125SOL    HW235838   2.141   3.324   3.181 -0.3173  0.6633  0.5923
 8126SOL     OW35839   1.550   0.235   9.933 -0.6701 -0.1591 -0.5971
 8126SOL    HW135840   1.546   0.189  10.017  0.3104 -0.4343 -0.6916
 8126SOL    HW235841   1.559   0.324   9.965  1.8096 -0.2128 -1.1604
 8127SOL     OW35842   0.385   3.871   2.969 -0.5152  0.2672 -0.5478
 8127SOL    HW135843   0.313   3.932   2.952 -1.1550 -0.1202  0.7743
 8127SOL    HW235844   0.339   3.790   2.990  0.4012  0.5105  2.3194
 8128SOL     OW35845   4.261   4.032  16.342 -0.3542  1.0438 -0.2115
 8128SOL    HW135846   4.293   4.099  16.402 -0.8973 -0.6739  1.9894
 8128SOL    HW235847   4.284   4.078  16.261  0.8437  0.1156 -0.4081
 8129SOL     OW35848   2.182   4.232   9.687 -0.3877 -0.0819  0.4814
 8129SOL    HW135849   2.166   4.178   9.765  2.1457 -0.1519  0.9460
 8129SOL    HW235850   2.270   4.198   9.674  0.9905  3.8826 -0.5433
 8130SOL     OW35851   1.050   1.119   9.457  0.0818 -0.7062  0.3998
 8130SOL    HW135852   1.012   1.182   9.395  1.4742  0.3043  0.5653
 8130SOL    HW235853   1.144   1.132   9.446 -0.2623  1.6938  0.2287
 8131SOL     OW35854   3.719   1.969   7.717  0.4128  0.2044  0.5225
 8131SOL    HW135855   3.641   1.914   7.719  0.2733  0.2630 -2.7980
 8131SOL    HW235856   3.715   1.996   7.808 -1.6519  0.6515  0.2859
 8132SOL     OW35857   3.022   4.712   8.257 -0.1550 -0.3002 -0.6662
 8132SOL    HW135858   3.064   0.064   8.225 -3.1125  2.3242  1.9837
 8132SOL    HW235859   2.943   4.705   8.202 -0.9715  0.8399  0.3350
 8133SOL     OW35860   0.932   3.140  12.859 -0.0949 -0.8992  0.3115
 8133SOL    HW135861   0.995   3.145  12.787 -0.1729  1.5862  0.3875
 8133SOL    HW235862   0.855   3.139  12.802  0.2857 -0.2888 -0.2130
 8134SOL     OW35863   4.570   2.878   5.667  0.4189 -0.2757  0.4013
 8134SOL    HW135864   4.536   2.968   5.670 -1.7912 -1.1113  0.2019
 8134SOL    HW235865   4.564   2.849   5.576  1.2884 -0.2328  0.3284
 8135SOL     OW35866   0.839   0.789   5.938  0.0119  0.3823 -0.0804
 8135SOL    HW135867   0.760   0.806   5.887  0.1095  0.3366 -0.2455
 8135SOL    HW235868   0.863   0.881   5.954  2.8994 -0.5202  0.8155
 8136SOL     OW35869   0.911   4.601   9.395 -0.0497 -0.3280  0.9425
 8136SOL    HW135870   0.945   4.681   9.435  2.0003 -2.2456  3.0542
 8136SOL    HW235871   0.826   4.595   9.438 -0.9480  0.6228 -0.6693
 8137SOL     OW35872   0.891   1.853  15.196  0.0843  0.1081 -0.5311
 8137SOL    HW135873   0.867   1.767  15.228 -0.3689 -0.1800 -1.6214
 8137SOL    HW235874   0.822   1.910  15.229  0.3751 -0.5064  1.1148
 8138SOL     OW35875   0.740   0.584   8.293 -0.2631  0.5280 -0.1577
 8138SOL    HW135876   0.788   0.654   8.337 -0.4029  1.4988 -1.5616
 8138SOL    HW235877   0.659   0.584   8.344  0.4683  1.4928  0.9908
 8139SOL     OW35878   0.635   3.216   1.569 -0.1497  0.0143  0.1026
 8139SOL    HW135879   0.674   3.207   1.656  0.1837  2.8557  0.2374
 8139SOL    HW235880   0.654   3.303   1.533 -1.3693 -0.3644 -1.4403
 8140SOL     OW35881   4.056   1.046  16.372  0.1266 -0.0928 -0.0061
 8140SOL    HW135882   4.012   1.043  16.456  0.9367  1.2825  0.4659
 8140SOL    HW235883   4.147   1.061  16.397 -0.1483  0.9000  0.3828
 8141SOL     OW35884   2.276   3.286   4.805 -0.0432  0.5512  0.3394
 8141SOL    HW135885   2.196   3.235   4.821 -0.1046 -0.0058 -1.7334
 8141SOL    HW235886   2.250   3.370   4.845  2.2264  1.1267  0.5730
 8142SOL     OW35887   0.558   2.406   3.809  0.1412 -0.9447  0.5029
 8142SOL    HW135888   0.617   2.379   3.879  1.2279  0.0781 -0.0108
 8142SOL    HW235889   0.494   2.335   3.819 -0.3055 -0.5651  0.3255
 8143SOL     OW35890   0.499   2.960   4.834  0.5896  0.3613  0.2317
 8143SOL    HW135891   0.563   2.956   4.764  2.4230  0.2022  1.9159
 8143SOL    HW235892   0.552   2.957   4.914  1.8859 -0.5866 -0.6677
 8144SOL     OW35893   0.559   3.391   8.581 -0.0188  0.3192  0.3251
 8144SOL    HW135894   0.647   3.360   8.561 -0.6021 -0.9698 -0.2559
 8144SOL    HW235895   0.571   3.385   8.675  1.8956 -3.1920 -0.1381
 8145SOL     OW35896   1.914   3.981   3.147 -0.6234  0.0973  0.0386
 8145SOL    HW135897   1.830   4.023   3.130  0.3759  1.5646 -1.2644
 8145SOL    HW235898   1.910   3.968   3.242  3.9691  0.9684  0.3307
 8146SOL     OW35899   1.844   1.514   8.658  0.2431 -0.0129  0.0551
 8146SOL    HW135900   1.863   1.441   8.599 -0.6231  0.0651 -0.3219
 8146SOL    HW235901   1.875   1.593   8.614  1.3699 -0.2049  0.5136
 8147SOL     OW35902   0.015   3.557   1.562  0.3914  0.1112 -0.6431
 8147SOL    HW135903   4.681   3.628   1.546 -0.7062 -1.0608 -1.5518
 8147SOL    HW235904   4.716   3.495   1.494 -0.4656  0.5640 -0.7116
 8148SOL     OW35905   4.693   0.661   7.851 -0.7455 -0.1673 -0.2530
 8148SOL    HW135906   0.017   0.591   7.890 -0.1025 -0.3306 -1.4151
 8148SOL    HW235907   4.623   0.605   7.817 -0.4737  0.7096 -2.2576
 8149SOL     OW35908   1.349   0.089   7.678  0.6027  0.0971  0.3167
 8149SOL    HW135909   1.420   0.040   7.637 -0.1425  1.4349 -2.5443
 8149SOL    HW235910   1.374   0.181   7.670 -1.2907  0.3357 -2.9454
 8150SOL     OW35911   3.001   1.761   4.088 -0.2128 -0.1042 -0.2561
 8150SOL    HW135912   2.919   1.718   4.113  0.3561 -0.0203  1.7473
 8150SOL    HW235913   2.991   1.853   4.112 -1.2623 -0.2686 -0.0789
 8151SOL     OW35914   0.737   1.954   2.237  0.4630 -0.1686  0.1527
 8151SOL    HW135915   0.695   1.952   2.150 -0.0522  0.6476  0.3771
 8151SOL    HW235916   0.756   2.048   2.242  0.6644 -0.1302 -1.2732
 8152SOL     OW35917   3.717   3.617  17.384 -0.3213 -0.5619 -0.4127
 8152SOL    HW135918   3.716   3.567  17.303  1.5305 -0.2656 -0.6166
 8152SOL    HW235919   3.684   3.554  17.449 -0.7337 -1.7392 -1.7637
 8153SOL     OW35920   2.460   2.397   8.997 -0.2104 -0.6581  0.4278
 8153SOL    HW135921   2.495   2.336   9.062 -0.1417 -0.1026  0.9148
 8153SOL    HW235922   2.483   2.474   9.048 -0.6160 -0.0913 -0.2395
 8154SOL     OW35923   2.545   2.802  13.013 -0.1492 -0.7802 -0.1823
 8154SOL    HW135924   2.535   2.714  13.048  4.5231 -1.6399 -0.9395
 8154SOL    HW235925   2.537   2.839  13.100  1.2331 -1.7808  0.3730
 8155SOL     OW35926   4.188   1.470   4.268 -0.4532  0.7581  0.1062
 8155SOL    HW135927   4.193   1.381   4.231 -0.1677  0.4613  0.8512
 8155SOL    HW235928   4.274   1.484   4.306  0.8970 -2.6279 -1.6563
 8156SOL     OW35929   0.261   0.459   4.956 -0.5336  0.1825 -0.1520
 8156SOL    HW135930   0.280   0.442   5.048  1.4113 -1.3832 -0.8511
 8156SOL    HW235931   0.232   0.550   4.960  0.9475  0.7944 -3.2808
 8157SOL     OW35932   1.053   2.373  12.804  0.9677 -0.5761  0.2468
 8157SOL    HW135933   1.036   2.313  12.731 -1.9376 -0.0629  0.4965
 8157SOL    HW235934   1.100   2.308  12.857  1.8597  0.0843  0.2510
 8158SOL     OW35935   1.089   0.380  11.638  0.4114  0.0873 -0.2551
 8158SOL    HW135936   1.051   0.371  11.726 -0.0429 -2.1164 -0.6747
 8158SOL    HW235937   1.035   0.449  11.599 -0.6295 -0.8375 -0.4634
 8159SOL     OW35938   1.748   4.171   1.048 -0.4017 -0.2475 -0.0346
 8159SOL    HW135939   1.730   4.145   0.958 -1.2392  1.1668 -0.2601
 8159SOL    HW235940   1.660   4.151   1.081 -0.0568 -1.2952  0.2680
 8160SOL     OW35941   2.807   1.487   5.772 -0.2437 -0.0981 -0.0964
 8160SOL    HW135942   2.898   1.479   5.742 -0.7131 -1.8598 -1.0446
 8160SOL    HW235943   2.796   1.569   5.723  1.3091 -0.2708 -0.7448
 8161SOL     OW35944   2.075   4.151   7.985 -0.0934  0.0831 -0.0406
 8161SOL    HW135945   2.077   4.179   8.076  1.1407 -1.5474  0.4147
 8161SOL    HW235946   1.993   4.102   7.982  0.1799 -0.3815  0.0500
 8162SOL     OW35947   3.560   2.460  10.381  0.5548 -0.0724 -0.4988
 8162SOL    HW135948   3.528   2.549  10.396  0.4828 -0.4183  1.4239
 8162SOL    HW235949   3.571   2.433  10.472 -2.1117 -1.7140 -0.6683
 8163SOL     OW35950   4.679   1.580   9.679  0.6692  0.0184 -0.2894
 8163SOL    HW135951   4.601   1.582   9.734  0.1510 -5.0415 -0.8376
 8163SOL    HW235952   0.014   1.577   9.752 -0.5500  1.1869  0.8129
 8164SOL     OW35953   2.398   2.252   7.602  0.1285 -0.2661 -0.5436
 8164SOL    HW135954   2.344   2.316   7.650  0.8631 -1.5808  2.0609
 8164SOL    HW235955   2.338   2.194   7.556  0.9059 -0.6879 -1.0148
 8165SOL     OW35956   4.576   4.327   6.894  0.2379 -0.0470 -0.3082
 8165SOL    HW135957   4.622   4.381   6.959 -0.1043 -1.6872  1.2991
 8165SOL    HW235958   4.656   4.287   6.859  1.9668  1.5734  1.7646
 8166SOL     OW35959   2.605   3.030   8.725 -0.5262 -0.2545 -0.2663
 8166SOL    HW135960   2.649   2.965   8.780  0.6191 -0.5395 -1.5288
 8166SOL    HW235961   2.534   3.055   8.784 -0.5015 -1.8819  0.4307
 8167SOL     OW35962   1.523   1.414  14.090  0.3565  0.0509 -0.8054
 8167SOL    HW135963   1.465   1.481  14.127  1.9725  0.2478  1.3794
 8167SOL    HW235964   1.600   1.423  14.146  0.1593 -0.1540 -0.5010
 8168SOL     OW35965   2.986   2.027   5.439  0.1332  0.2367  0.3923
 8168SOL    HW135966   3.075   2.062   5.445 -0.2598  1.1211  1.0215
 8168SOL    HW235967   3.006   1.934   5.448  0.0246  0.0867 -1.0132
 8169SOL     OW35968   2.820   4.427   6.161  0.3675 -0.2888  0.4578
 8169SOL    HW135969   2.912   4.453   6.157  0.0242  1.0038  1.0182
 8169SOL    HW235970   2.805   4.449   6.253 -0.9266  0.6594  0.0287
 8170SOL     OW35971   3.832   2.044  12.794 -0.2288  0.1336  0.4321
 8170SOL    HW135972   3.738   2.061  12.794 -0.8094 -3.0276 -2.6216
 8170SOL    HW235973   3.829   1.954  12.825  0.3235  0.6258  1.9292
 8171SOL     OW35974   1.779   0.019   3.243 -0.0082 -0.0679  1.0860
 8171SOL    HW135975   1.822   0.003   3.327 -1.0808 -0.6836  1.5190
 8171SOL    HW235976   1.857   0.038   3.190  0.3908 -0.3871  1.5601
 8172SOL     OW35977   3.498   3.429   2.924 -0.0518 -0.1042 -0.5702
 8172SOL    HW135978   3.591   3.413   2.905 -0.1182 -1.3265  0.1248
 8172SOL    HW235979   3.458   3.364   2.866 -0.1262 -1.4973  1.0411
 8173SOL     OW35980   3.918   2.177   4.863 -0.5426  0.2452 -0.1211
 8173SOL    HW135981   3.990   2.239   4.869  1.6688 -2.2406 -1.0581
 8173SOL    HW235982   3.888   2.196   4.774  3.9527  3.2108 -1.0217
 8174SOL     OW35983   1.345   2.406  13.212 -0.1038 -0.1313  0.0055
 8174SOL    HW135984   1.253   2.417  13.238  0.0597 -0.0092  0.5376
 8174SOL    HW235985   1.371   2.322  13.249  1.8385  0.4468 -0.0660
 8175SOL     OW35986   2.776   1.070  14.791  0.7235  0.5238  0.4634
 8175SOL    HW135987   2.798   1.159  14.816  0.6654  1.2785 -2.1780
 8175SOL    HW235988   2.691   1.067  14.835  1.1711 -1.1055  1.2337
 8176SOL     OW35989   2.817   2.219   7.375  0.0207 -0.9230  0.0679
 8176SOL    HW135990   2.883   2.150   7.369 -1.7208 -2.6033  0.2531
 8176SOL    HW235991   2.747   2.167   7.415 -1.1027  0.4340 -0.1322
 8177SOL     OW35992   4.125   2.070   7.094  0.2859 -0.6248 -0.5985
 8177SOL    HW135993   4.142   2.077   7.000 -1.5158 -1.2379 -0.9785
 8177SOL    HW235994   4.045   2.018   7.095  0.9410 -1.6280 -1.0148
 8178SOL     OW35995   0.878   4.220   9.970  0.0345 -0.2217  0.3815
 8178SOL    HW135996   0.961   4.266   9.974  1.2175 -2.1453 -1.9207
 8178SOL    HW235997   0.816   4.290   9.950 -0.3275 -0.0649  2.1141
 8179SOL     OW35998   0.588   3.268   4.795  0.0151  0.6368  0.0539
 8179SOL    HW135999   0.593   3.191   4.851 -1.3928  0.4086 -0.1456
 8179SOL    HW236000   0.643   3.326   4.848 -0.7519  0.2183  1.2783
 8180SOL     OW36001   3.462   3.138   7.831  0.0708  0.1689 -0.2997
 8180SOL    HW136002   3.434   3.170   7.745 -1.1996  1.5414  0.6173
 8180SOL    HW236003   3.403   3.193   7.883  1.5330  1.1294  0.3513
 8181SOL     OW36004   2.514   3.668   8.327 -0.2545  0.1195 -0.8270
 8181SOL    HW136005   2.568   3.702   8.399 -0.7772  2.2626 -1.4634
 8181SOL    HW236006   2.485   3.594   8.381  0.2785  0.5562  0.0687
 8182SOL     OW36007   4.291   2.021  16.304  0.1427 -0.1761 -0.2285
 8182SOL    HW136008   4.206   1.983  16.325  0.7902  0.0844  2.7782
 8182SOL    HW236009   4.286   2.023  16.208 -0.4933 -2.2807 -0.2430
 8183SOL     OW36010   0.479   4.347   5.502  0.4450 -0.2253 -0.0863
 8183SOL    HW136011   0.449   4.351   5.411  0.3847  1.4285 -0.0021
 8183SOL    HW236012   0.571   4.325   5.489  0.4229 -1.7065  2.2317
 8184SOL     OW36013   0.552   4.450   2.903 -0.3670  0.1225  0.3399
 8184SOL    HW136014   0.602   4.526   2.874  0.4427 -0.5921 -0.1453
 8184SOL    HW236015   0.571   4.396   2.827  1.6786  0.2454  0.7679
 8185SOL     OW36016   2.195   0.403   3.652  0.1439  0.5205 -0.0344
 8185SOL    HW136017   2.286   0.401   3.681  0.3325 -1.1913 -0.7034
 8185SOL    HW236018   2.188   0.313   3.620  3.4232  0.4309 -0.5659
 8186SOL     OW36019   1.099   2.680  12.824  0.0790  0.3499  0.0159
 8186SOL    HW136020   1.059   2.594  12.806 -0.7003  0.6420  0.3593
 8186SOL    HW236021   1.161   2.665  12.895 -1.8303 -1.8659  1.2244
 8187SOL     OW36022   2.661   3.675   3.013 -0.9103 -0.2492  0.2916
 8187SOL    HW136023   2.630   3.745   2.955  0.3330 -0.2084 -0.3235
 8187SOL    HW236024   2.714   3.621   2.954 -3.0464 -1.4425 -0.5678
 8188SOL     OW36025   4.379   3.817  14.182 -0.0890 -0.4007 -0.8698
 8188SOL    HW136026   4.470   3.843  14.170  0.2234 -0.5926  1.0906
 8188SOL    HW236027   4.406   3.745  14.238 -1.8492  0.7256  1.4274
 8189SOL     OW36028   3.940   0.803  13.294 -0.3224  0.2929  0.4875
 8189SOL    HW136029   3.998   0.770  13.364  2.9961  1.5954 -1.6318
 8189SOL    HW236030   3.994   0.798  13.215  1.7112 -1.3937  1.9546
 8190SOL     OW36031   1.822   3.594   6.184 -0.1780 -0.5207  0.2264
 8190SOL    HW136032   1.855   3.681   6.161 -1.6129 -0.1221 -0.2921
 8190SOL    HW236033   1.892   3.563   6.242 -2.3163 -1.8111  2.1227
 8191SOL     OW36034   4.197   0.274   1.454  0.0654  0.1022  0.5927
 8191SOL    HW136035   4.111   0.284   1.414  1.7010 -0.2394 -2.9606
 8191SOL    HW236036   4.180   0.230   1.538 -0.3770  0.7487  0.8408
 8192SOL     OW36037   4.196   2.553   3.395  0.6997 -0.2923 -0.3240
 8192SOL    HW136038   4.169   2.552   3.303  1.2317 -1.7144 -0.4750
 8192SOL    HW236039   4.291   2.545   3.389  0.8968  2.3820 -0.5818
 8193SOL     OW36040   4.053   2.620   2.419 -0.1981  0.7053 -0.2909
 8193SOL    HW136041   4.030   2.527   2.408  2.0980  0.1203 -0.0792
 8193SOL    HW236042   3.981   2.666   2.376 -0.8512  0.4596  0.5489
 8194SOL     OW36043   0.145   2.170   8.037 -0.1985  0.0348 -0.4429
 8194SOL    HW136044   0.090   2.219   8.099  1.0087  0.6577  0.1203
 8194SOL    HW236045   0.195   2.116   8.099  1.0748  0.1365 -1.3892
 8195SOL     OW36046   4.046   4.628   7.927 -0.8681  0.1858  0.0884
 8195SOL    HW136047   4.055   4.542   7.968 -0.0974 -0.0631 -0.6195
 8195SOL    HW236048   4.133   4.662   7.949  0.3108 -1.8197 -1.5213
 8196SOL     OW36049   4.482   3.976   6.724 -0.0413  0.0890  0.2190
 8196SOL    HW136050   4.416   3.927   6.674  0.8208  0.9076 -1.7213
 8196SOL    HW236051   4.501   4.050   6.667  0.5536  0.4672  0.9112
 8197SOL     OW36052   2.204   1.405  13.675 -0.0942 -0.0780  0.3671
 8197SOL    HW136053   2.113   1.429  13.659 -0.9073 -2.1730  1.6916
 8197SOL    HW236054   2.185   1.314  13.699  2.8303 -0.9193 -0.6140
 8198SOL     OW36055   3.324   3.522   5.452  0.0987 -0.5049  0.3233
 8198SOL    HW136056   3.230   3.537   5.438  0.7490  0.7412 -2.5101
 8198SOL    HW236057   3.364   3.537   5.367  0.1464 -0.4679  0.3524
 8199SOL     OW36058   3.716   2.358  12.064  0.4949 -0.1853 -0.6097
 8199SOL    HW136059   3.627   2.393  12.065 -0.6226 -3.0222 -2.7076
 8199SOL    HW236060   3.697   2.286  12.124  0.9200 -1.6392 -2.2301
 8200SOL     OW36061   4.137   0.884   8.943 -0.4784  0.5463 -0.2743
 8200SOL    HW136062   4.100   0.879   9.031  1.7307  1.8550  0.7174
 8200SOL    HW236063   4.180   0.969   8.952  1.0436 -0.0086 -2.2244
 8201SOL     OW36064   1.752   4.504   9.666 -0.0770 -0.6265 -0.5190
 8201SOL    HW136065   1.711   4.443   9.728 -0.3646  0.7204  0.6146
 8201SOL    HW236066   1.701   4.475   9.590 -1.1793 -1.2343  0.4350
 8202SOL     OW36067   1.750   2.071   4.887  0.7590  0.0210  0.0646
 8202SOL    HW136068   1.753   2.157   4.928  2.7416  0.5534 -1.2062
 8202SOL    HW236069   1.656   2.064   4.873  0.6997  1.2807 -0.1587
 8203SOL     OW36070   4.006   4.473   7.270 -0.1391  0.5532 -0.1936
 8203SOL    HW136071   3.938   4.486   7.335 -1.6778 -0.8909 -1.5275
 8203SOL    HW236072   4.045   4.393   7.307  0.6613  1.8129  1.6623
 8204SOL     OW36073   3.756   3.081  13.686  0.1431 -0.1105  0.4151
 8204SOL    HW136074   3.754   2.999  13.637 -1.5342 -0.1169  0.5051
 8204SOL    HW236075   3.669   3.074  13.726 -0.0856  3.5506  0.5998
 8205SOL     OW36076   1.660   2.801   7.260 -0.4089 -0.2340 -0.4367
 8205SOL    HW136077   1.576   2.772   7.295 -1.1146  0.1032 -1.8436
 8205SOL    HW236078   1.680   2.720   7.214 -3.3889 -0.8660 -0.5990
 8206SOL     OW36079   2.758   0.887   3.412  0.2006 -0.1978  0.2461
 8206SOL    HW136080   2.755   0.937   3.330  0.6070  3.1268  2.2511
 8206SOL    HW236081   2.669   0.856   3.428 -0.3086  0.6554 -0.9414
 8207SOL     OW36082   0.705   1.614   9.797 -0.2382 -0.5315  0.0818
 8207SOL    HW136083   0.691   1.522   9.819 -0.5834 -1.1336 -2.6748
 8207SOL    HW236084   0.665   1.614   9.710  0.8856  1.5603 -0.4562
 8208SOL     OW36085   0.052   4.437   9.015 -0.4646 -0.1790 -0.2551
 8208SOL    HW136086   4.688   4.464   9.006 -1.4244 -3.6055 -0.8117
 8208SOL    HW236087   0.057   4.407   9.106  1.6090  0.9025 -0.0197
 8209SOL     OW36088   0.938   3.242   9.477  0.2719 -0.2301 -0.1172
 8209SOL    HW136089   0.997   3.252   9.552 -0.3191 -1.0925  0.4721
 8209SOL    HW236090   0.855   3.238   9.524  0.9865 -0.4951  1.1245
 8210SOL     OW36091   4.251   2.765   2.550  0.3357  0.2317 -0.1203
 8210SOL    HW136092   4.294   2.802   2.473 -0.3091  0.9676 -0.1199
 8210SOL    HW236093   4.176   2.723   2.507 -0.1326  1.3671 -0.3937
 8211SOL     OW36094   3.441   1.544   8.744  0.0681  0.2438 -0.1341
 8211SOL    HW136095   3.526   1.506   8.769 -0.7799  0.3207  2.8604
 8211SOL    HW236096   3.425   1.511   8.655  0.5416  0.4239 -0.2867
 8212SOL     OW36097   0.321   0.913   8.244 -0.0867  0.0053  0.0478
 8212SOL    HW136098   0.377   0.957   8.180  0.7278 -1.3446 -0.1656
 8212SOL    HW236099   0.251   0.976   8.261 -1.7514 -1.4152 -1.5841
 8213SOL     OW36100   3.623   1.553   5.747 -0.7790 -0.5628 -0.4855
 8213SOL    HW136101   3.648   1.483   5.687  0.2492 -0.0227 -0.6755
 8213SOL    HW236102   3.556   1.608   5.706  0.4171  0.3726 -1.1785
 8214SOL     OW36103   4.495   4.034   7.305  0.1197 -0.2024 -0.1190
 8214SOL    HW136104   4.432   4.008   7.239  0.2599  0.5091 -0.5415
 8214SOL    HW236105   4.567   4.061   7.247  0.3510 -1.1128 -0.2467
 8215SOL     OW36106   0.362   0.814   6.782  0.4393 -0.6716  0.2007
 8215SOL    HW136107   0.327   0.773   6.703 -1.6423 -0.0086  0.7832
 8215SOL    HW236108   0.286   0.815   6.840 -1.2049  1.1039 -1.9580
 8216SOL     OW36109   0.145   1.617   2.994 -0.6140 -0.3401  0.1890
 8216SOL    HW136110   0.159   1.573   2.910 -3.6468 -0.3351 -0.3060
 8216SOL    HW236111   0.194   1.696   2.969  0.8801 -1.1662  0.5274
 8217SOL     OW36112   0.724   2.292   3.992 -0.3606 -0.6028  0.1996
 8217SOL    HW136113   0.704   2.214   4.043 -0.0449  0.6961  2.2908
 8217SOL    HW236114   0.729   2.352   4.067  0.0899 -2.9663  2.0452
 8218SOL     OW36115   1.357   3.305  10.763 -0.2622  0.3609  0.3923
 8218SOL    HW136116   1.355   3.299  10.667  1.0827  0.8426  0.3393
 8218SOL    HW236117   1.265   3.296  10.788 -0.0995  1.0015  1.2295
 8219SOL     OW36118   3.376   3.946   9.000 -0.1227  0.1373 -0.5485
 8219SOL    HW136119   3.303   3.993   8.958 -0.5041  0.5029  0.5310
 8219SOL    HW236120   3.447   4.006   8.976 -0.1731 -0.1298 -1.3992
 8220SOL     OW36121   3.371   3.021   6.092 -0.9354 -0.4463  0.5816
 8220SOL    HW136122   3.369   3.084   6.020  1.2811 -0.5124  0.4643
 8220SOL    HW236123   3.318   2.951   6.053  0.2089 -0.9052 -0.1384
 8221SOL     OW36124   3.857   0.289  11.546  0.1002  0.0982  0.0168
 8221SOL    HW136125   3.863   0.202  11.585 -0.8905  0.6341  1.3629
 8221SOL    HW236126   3.872   0.351  11.618 -0.9250  0.3495  0.0188
 8222SOL     OW36127   4.121   2.961   2.267 -0.9458  0.0987  0.0131
 8222SOL    HW136128   4.167   3.044   2.258 -2.0280  0.9232  2.0770
 8222SOL    HW236129   4.190   2.896   2.267 -0.5054  0.5829  1.4049
 8223SOL     OW36130   2.926   0.100   3.098 -0.1285 -0.7827 -0.5898
 8223SOL    HW136131   2.957   0.156   3.169 -1.2442  0.4906 -1.1049
 8223SOL    HW236132   2.993   0.032   3.107  0.9781  0.4905  0.6244
 8224SOL     OW36133   2.033   2.337  14.782  0.1608  0.0949 -0.3540
 8224SOL    HW136134   2.093   2.384  14.840 -0.5532 -0.1536  0.5875
 8224SOL    HW236135   1.986   2.412  14.747  1.3772  1.5012  1.0435
 8225SOL     OW36136   3.092   4.690   2.740  0.2390  0.2206 -0.0771
 8225SOL    HW136137   3.041   4.620   2.781  1.1595 -0.9654 -1.0132
 8225SOL    HW236138   3.122   4.653   2.658  1.6313 -0.1477  0.5949
 8226SOL     OW36139   3.275   0.404   4.508  0.1550 -0.7500 -0.3364
 8226SOL    HW136140   3.261   0.323   4.557  1.1758 -1.2065 -0.7806
 8226SOL    HW236141   3.228   0.462   4.568  0.8843  0.6666 -1.1289
 8227SOL     OW36142   0.153   4.315   2.042 -0.0371 -0.1298 -0.4065
 8227SOL    HW136143   0.109   4.389   2.084  1.0733  0.3507 -0.0719
 8227SOL    HW236144   0.134   4.322   1.948 -0.1828 -2.2697 -0.5194
 8228SOL     OW36145   3.447   2.064  13.029  0.1392  0.0744  0.1199
 8228SOL    HW136146   3.488   2.150  13.034 -0.1765  0.3238 -1.4963
 8228SOL    HW236147   3.510   2.024  12.969 -1.0926  0.0872 -1.1754
 8229SOL     OW36148   1.751   3.881   5.882  0.1239  0.1841  0.5415
 8229SOL    HW136149   1.689   3.946   5.848  1.3801  0.1999 -1.6832
 8229SOL    HW236150   1.825   3.875   5.823  1.0055  1.4801  1.4955
 8230SOL     OW36151   0.397   1.794  10.817  0.3366 -0.1934  0.2716
 8230SOL    HW136152   0.435   1.830  10.737  0.7582 -2.6808 -0.6648
 8230SOL    HW236153   0.474   1.755  10.859  0.5629 -1.0524 -0.9377
 8231SOL     OW36154   4.177   1.208  10.181  0.2050  0.1594 -0.4235
 8231SOL    HW136155   4.258   1.160  10.164  0.0201 -0.5083  0.5621
 8231SOL    HW236156   4.152   1.184  10.270  0.3298 -0.8825 -0.6707
 8232SOL     OW36157   1.726   0.266   7.412 -0.7600  0.2950 -0.5836
 8232SOL    HW136158   1.741   0.356   7.384 -3.5643  0.6739 -0.8797
 8232SOL    HW236159   1.766   0.222   7.337  0.3205  1.3091 -0.6094
 8233SOL     OW36160   2.280   1.738   7.942  0.0608  0.2481  0.4295
 8233SOL    HW136161   2.225   1.759   7.867  1.3332 -0.6195 -0.7398
 8233SOL    HW236162   2.365   1.751   7.900 -0.9216 -0.0251 -1.6220
 8234SOL     OW36163   1.771   4.522   3.480  0.0159 -0.2004 -0.5192
 8234SOL    HW136164   1.711   4.452   3.502 -0.3196  0.9876  2.2326
 8234SOL    HW236165   1.703   4.589   3.471 -0.9230 -1.0395  0.4560
 8235SOL     OW36166   0.584   2.297   7.898  0.3812 -0.1470  0.3993
 8235SOL    HW136167   0.499   2.257   7.877  1.6229 -1.7927 -1.5290
 8235SOL    HW236168   0.646   2.258   7.836 -0.0193 -0.6642  0.3245
 8236SOL     OW36169   3.427   0.025   7.835  0.0408 -0.4434 -0.2519
 8236SOL    HW136170   3.513   0.010   7.873 -0.5929 -0.4414  1.2062
 8236SOL    HW236171   3.446   0.072   7.754  0.1552  0.1501  0.1175
 8237SOL     OW36172   4.702   2.407  12.928  0.5060  0.2061  0.0442
 8237SOL    HW136173   4.671   2.320  12.901 -2.2716  0.8316  1.1202
 8237SOL    HW236174   0.045   2.413  12.865 -1.3095  1.0988 -1.9426
 8238SOL     OW36175   3.511   0.751   1.506 -0.3549  0.0556  0.0115
 8238SOL    HW136176   3.567   0.674   1.502 -1.1614 -0.5828  1.0706
 8238SOL    HW236177   3.532   0.775   1.597 -4.0358  1.1534  0.5918
 8239SOL     OW36178   1.663   4.540   7.529  0.2449  0.4945  0.2187
 8239SOL    HW136179   1.701   4.476   7.469  1.2331  0.2819  1.0714
 8239SOL    HW236180   1.659   4.478   7.602  2.1742  0.4423  0.2826
 8240SOL     OW36181   0.537   2.578   8.443 -0.1166 -0.3342 -0.8421
 8240SOL    HW136182   0.591   2.598   8.367  0.6148  0.8172 -0.0221
 8240SOL    HW236183   0.541   2.652   8.503 -1.3280 -3.1142  2.7211
 8241SOL     OW36184   4.629   2.604   4.221  0.0081 -0.4993  0.2635
 8241SOL    HW136185   4.617   2.574   4.131 -0.1105 -1.4178  0.5906
 8241SOL    HW236186   4.645   2.698   4.212  2.2659 -0.7640  1.5486
 8242SOL     OW36187   0.266   3.742   2.246 -0.0315 -0.0059  0.6875
 8242SOL    HW136188   0.294   3.813   2.187 -0.1731  2.3578  3.4623
 8242SOL    HW236189   0.334   3.676   2.234  1.2735  1.4170  0.1494
 8243SOL     OW36190   3.192   0.877   4.446 -0.2636  0.0655  0.4284
 8243SOL    HW136191   3.288   0.880   4.447 -0.2159 -1.4334  1.0429
 8243SOL    HW236192   3.175   0.806   4.384 -2.7641  0.1919  0.9740
 8244SOL     OW36193   1.452   0.425  13.963  0.0476 -0.3541  0.0434
 8244SOL    HW136194   1.453   0.468  14.048  3.0079  1.8530 -1.1075
 8244SOL    HW236195   1.485   0.340  13.994 -0.7027 -0.5644  0.2702
 8245SOL     OW36196   1.210   0.202   2.033  0.2195 -0.3022 -0.5655
 8245SOL    HW136197   1.115   0.210   2.026  0.5950  2.0279 -2.8350
 8245SOL    HW236198   1.230   0.173   2.122  0.6060 -1.6986 -1.1056
 8246SOL     OW36199   3.706   3.213   8.680  0.7043 -0.0533  0.5558
 8246SOL    HW136200   3.676   3.283   8.622  0.9880  0.3473  0.8878
 8246SOL    HW236201   3.783   3.249   8.724  2.1597 -0.9725 -1.2353
 8247SOL     OW36202   4.238   4.465   8.126  0.1792  0.8132 -0.4846
 8247SOL    HW136203   4.248   4.556   8.098 -1.5480  1.7277  1.8828
 8247SOL    HW236204   4.294   4.428   8.058  2.6277  1.9127  0.9595
 8248SOL     OW36205   0.957   1.231   7.166 -0.6182 -0.0819  0.1981
 8248SOL    HW136206   1.017   1.178   7.219  1.9121  3.1748  0.5638
 8248SOL    HW236207   0.975   1.320   7.198 -1.5902 -0.3690  1.5568
 8249SOL     OW36208   2.285   2.590   3.760  0.2187 -0.5366  0.1844
 8249SOL    HW136209   2.293   2.516   3.699  0.9129 -0.5804  0.3275
 8249SOL    HW236210   2.371   2.631   3.746  0.4156 -1.2731 -0.8028
 8250SOL     OW36211   2.079   1.513   4.302  0.1411  0.7676 -0.7808
 8250SOL    HW136212   1.992   1.494   4.267  0.7301 -1.8711 -0.7842
 8250SOL    HW236213   2.138   1.446   4.267 -0.7995 -1.3095  1.6032
 8251SOL     OW36214   2.599   1.874   9.785  0.1320  0.0364 -0.2527
 8251SOL    HW136215   2.629   1.911   9.701 -0.1020 -2.8433 -1.6087
 8251SOL    HW236216   2.674   1.884   9.844 -0.3231  2.8876 -0.1636
 8252SOL     OW36217   4.022   4.563   2.707  0.2478 -0.2653 -0.2359
 8252SOL    HW136218   3.945   4.511   2.729 -1.9719  2.3341 -1.7990
 8252SOL    HW236219   4.011   4.610   2.624 -1.3132 -2.5145 -1.2964
 8253SOL     OW36220   4.223   0.766   6.056  0.1591  0.0997 -0.6455
 8253SOL    HW136221   4.243   0.832   5.989 -0.0117  0.9987  0.1935
 8253SOL    HW236222   4.151   0.815   6.096  0.0143  0.8831 -1.8452
 8254SOL     OW36223   4.425   2.215   5.339 -0.0536 -0.0707 -0.6688
 8254SOL    HW136224   4.503   2.201   5.393 -2.2662  1.1488  2.9188
 8254SOL    HW236225   4.437   2.309   5.324 -0.7902  0.0201 -0.7133
 8255SOL     OW36226   2.241   1.902  13.887  0.3471 -0.2563  0.3480
 8255SOL    HW136227   2.309   1.835  13.899 -0.4831 -0.8049  1.8971
 8255SOL    HW236228   2.281   1.988  13.892 -0.1115 -0.0465  0.4067
 8256SOL     OW36229   0.702   3.254  12.330 -0.1625 -0.0793 -0.1938
 8256SOL    HW136230   0.681   3.180  12.273  0.8650  0.5357 -1.3802
 8256SOL    HW236231   0.628   3.309  12.305 -1.4645 -2.2635 -1.1408
 8257SOL     OW36232   1.512   1.459   7.002  0.0039 -0.1834 -0.3175
 8257SOL    HW136233   1.548   1.391   7.059 -0.5917  0.2844  0.6084
 8257SOL    HW236234   1.429   1.422   6.973  0.5682 -2.0420  0.4553
 8258SOL     OW36235   4.565   3.461  13.125  0.5102 -0.0764 -0.1049
 8258SOL    HW136236   4.635   3.448  13.188  0.0297 -0.7066  0.2918
 8258SOL    HW236237   4.594   3.426  13.041  1.5023  1.6125 -0.4789
 8259SOL     OW36238   4.381   3.876  10.793 -0.0154 -0.6628 -0.3850
 8259SOL    HW136239   4.473   3.872  10.765  0.2589 -0.3787  0.4903
 8259SOL    HW236240   4.376   3.790  10.834 -0.4223  0.1428  1.2541
 8260SOL     OW36241   1.186   1.716   1.306  0.2650 -0.3966  0.2182
 8260SOL    HW136242   1.125   1.664   1.255  0.0973 -1.8824  1.9434
 8260SOL    HW236243   1.168   1.807   1.285  3.7884 -0.1103 -1.6182
 8261SOL     OW36244   3.895   2.753   7.999 -1.0049 -0.2765  0.4812
 8261SOL    HW136245   3.888   2.699   8.077 -0.9317 -0.6025  0.2633
 8261SOL    HW236246   3.978   2.715   7.970 -2.3659 -0.8702 -2.6976
 8262SOL     OW36247   1.050   4.437   7.517 -0.7436 -0.6390 -0.0763
 8262SOL    HW136248   1.079   4.368   7.458 -0.6188 -1.2457  0.6864
 8262SOL    HW236249   1.133   4.460   7.559 -0.7100  0.4507 -0.7583
 8263SOL     OW36250   1.172   4.015   1.140 -0.2627 -0.0561  0.1262
 8263SOL    HW136251   1.154   4.107   1.125 -0.6337 -0.3575 -1.2999
 8263SOL    HW236252   1.104   3.992   1.203  1.8288 -1.8878  1.7186
 8264SOL     OW36253   0.920   0.324   8.352 -1.2412 -0.4128 -0.4766
 8264SOL    HW136254   0.884   0.388   8.289 -1.5552 -0.1340 -0.0151
 8264SOL    HW236255   1.002   0.308   8.305 -0.6061 -1.9066  1.1891
 8265SOL     OW36256   0.956   1.059  14.553  0.0184 -0.4919 -0.0909
 8265SOL    HW136257   0.926   0.984  14.603 -2.9755  0.2284 -0.8147
 8265SOL    HW236258   1.041   1.025  14.523  0.6977  1.3704 -0.3048
 8266SOL     OW36259   1.809   2.582   6.543  0.3962 -0.2829 -0.2063
 8266SOL    HW136260   1.814   2.517   6.613 -1.4957 -0.6664 -0.4204
 8266SOL    HW236261   1.888   2.578   6.490 -0.2228 -0.8662 -1.0995
 8267SOL     OW36262   1.444   1.082   2.233 -0.3480 -0.2651 -0.0055
 8267SOL    HW136263   1.492   1.001   2.215  0.0193 -0.0777  0.1357
 8267SOL    HW236264   1.366   1.049   2.276 -1.3964  2.3112  0.0838
 8268SOL     OW36265   2.607   1.221   8.372 -0.3327 -0.3473  0.5503
 8268SOL    HW136266   2.681   1.169   8.340 -0.2819 -0.0100  0.1198
 8268SOL    HW236267   2.645   1.308   8.360 -0.7513 -0.2910 -0.3298
 8269SOL     OW36268   2.622   2.016   1.645  0.3244 -0.1667  0.1763
 8269SOL    HW136269   2.540   1.969   1.627 -1.1028  2.1189  0.6926
 8269SOL    HW236270   2.578   2.094   1.677  1.4335  1.1241 -1.4780
 8270SOL     OW36271   2.021   1.004   3.333  0.1507 -0.6852 -0.0414
 8270SOL    HW136272   1.946   1.032   3.386 -0.5324  0.6815 -1.7474
 8270SOL    HW236273   2.037   0.913   3.360  0.8192 -0.1095  1.4588
 8271SOL     OW36274   3.319   4.302   6.751 -0.3328  0.4959  0.6764
 8271SOL    HW136275   3.296   4.329   6.662 -0.4230  0.3936  0.6691
 8271SOL    HW236276   3.305   4.381   6.804 -2.6660  2.4469 -2.8198
 8272SOL     OW36277   1.389   1.389   0.997  0.3772  0.4504 -0.6553
 8272SOL    HW136278   1.331   1.452   0.953 -0.8567  2.6568  4.1958
 8272SOL    HW236279   1.347   1.307   0.972  1.3160  0.2768 -1.6730
 8273SOL     OW36280   0.303   3.968   2.646 -0.6884 -0.1765  0.4134
 8273SOL    HW136281   0.314   4.023   2.568 -0.2615 -0.7988  0.0316
 8273SOL    HW236282   0.395   3.969   2.672 -0.2603  0.8321 -1.1542
 8274SOL     OW36283   1.740   3.708   6.627  0.1173 -0.4409 -0.2633
 8274SOL    HW136284   1.719   3.706   6.721 -0.3568  0.9975 -0.3372
 8274SOL    HW236285   1.715   3.619   6.602 -1.7503 -0.1379  0.4930
 8275SOL     OW36286   3.115   2.691   6.671  0.0473 -0.6141  0.1223
 8275SOL    HW136287   3.158   2.609   6.697  1.0121  0.1607  0.9670
 8275SOL    HW236288   3.030   2.683   6.713  0.4084 -0.6911  0.8395
 8276SOL     OW36289   3.167   1.328   9.025 -0.3485 -0.0048  0.2073
 8276SOL    HW136290   3.073   1.342   9.033  0.0628  1.9176  1.7791
 8276SOL    HW236291   3.168   1.311   8.931  0.6469  1.1915  0.0035
 8277SOL     OW36292   0.504   0.565  12.780 -0.0022 -0.1010 -0.4723
 8277SOL    HW136293   0.552   0.609  12.710 -2.7154  0.7124 -1.8154
 8277SOL    HW236294   0.441   0.502  12.746 -1.3595  1.9433 -1.6663
 8278SOL     OW36295   0.373   1.362   9.526 -0.3230 -0.0921  0.4112
 8278SOL    HW136296   0.417   1.354   9.611  1.7511 -2.0799 -0.8420
 8278SOL    HW236297   0.313   1.287   9.522 -0.4675  0.0102  0.6593
 8279SOL     OW36298   3.602   1.833  11.471 -0.0440  0.1957  0.1568
 8279SOL    HW136299   3.563   1.753  11.507  0.0411 -0.2883 -0.8295
 8279SOL    HW236300   3.612   1.804  11.380 -0.5680 -0.1135  0.2006
 8280SOL     OW36301   0.400   4.101  17.055 -0.0139 -0.3029 -0.0671
 8280SOL    HW136302   0.374   4.192  17.044  0.7042  0.3750  3.9370
 8280SOL    HW236303   0.318   4.054  17.067 -0.8646  1.5411  1.2628
 8281SOL     OW36304   0.044   0.547   2.705  0.2534 -0.0296  0.2963
 8281SOL    HW136305   0.057   0.631   2.660  0.4355  1.1627  2.5944
 8281SOL    HW236306   0.122   0.499   2.679 -1.3178 -1.7257 -1.2529
 8282SOL     OW36307   4.012   2.476   2.970 -0.4574 -0.0099 -0.6287
 8282SOL    HW136308   4.054   2.410   2.916  0.2456 -0.2816  0.2354
 8282SOL    HW236309   3.947   2.420   3.013 -0.6659 -0.8751 -2.0753
 8283SOL     OW36310   1.045   1.216   3.112 -0.3472  0.2805  0.0016
 8283SOL    HW136311   0.990   1.272   3.057  1.2894  0.8148 -1.0958
 8283SOL    HW236312   0.991   1.147   3.150  1.9147 -0.2640  2.2226
 8284SOL     OW36313   2.598   4.509   3.490  0.1528 -0.1715 -0.4982
 8284SOL    HW136314   2.659   4.439   3.513 -1.4500 -1.0560  1.1126
 8284SOL    HW236315   2.654   4.583   3.513 -0.9732  1.0557 -1.6853
 8285SOL     OW36316   4.559   1.888   0.959 -0.0349  0.0013  0.2828
 8285SOL    HW136317   4.621   1.952   0.926  2.7594 -2.6602  0.3004
 8285SOL    HW236318   4.599   1.875   1.045  2.7907  1.3442 -0.8549
 8286SOL     OW36319   2.377   3.842   9.654 -0.0121 -0.1542  0.1045
 8286SOL    HW136320   2.290   3.871   9.681  0.4324  0.0942  1.2742
 8286SOL    HW236321   2.416   3.778   9.715  2.1259 -0.2328 -1.3373
 8287SOL     OW36322   3.478   2.210  15.763 -0.1940  0.1721  0.2340
 8287SOL    HW136323   3.573   2.212  15.768 -0.1574  0.5962 -0.6781
 8287SOL    HW236324   3.459   2.143  15.699  2.0785  0.0552 -0.2948
 8288SOL     OW36325   3.548   2.567   1.045  0.5241 -0.2504 -0.2576
 8288SOL    HW136326   3.493   2.504   0.997  1.1735  0.3321 -1.7468
 8288SOL    HW236327   3.506   2.652   1.034 -3.2593 -2.0220  0.1929
 8289SOL     OW36328   4.442   4.623  11.205  0.1603 -0.2560 -0.2216
 8289SOL    HW136329   4.406   4.634  11.117  1.6136 -0.2796 -0.8245
 8289SOL    HW236330   4.366   4.573  11.236 -1.1931  1.9801  0.0636
 8290SOL     OW36331   2.187   2.179   5.898  0.2274  0.4400  0.3878
 8290SOL    HW136332   2.143   2.202   5.980  0.1177  0.9459  0.1854
 8290SOL    HW236333   2.172   2.260   5.848 -0.0754 -0.3220 -0.7468
 8291SOL     OW36334   4.591   2.876   3.012 -0.4687  0.1070 -0.0326
 8291SOL    HW136335   4.620   2.804   2.956  0.1009 -0.2909  0.7593
 8291SOL    HW236336   4.614   2.946   2.952 -1.9909  2.2548  1.8815
 8292SOL     OW36337   4.610   3.153   8.424  0.5481  0.5395 -0.0922
 8292SOL    HW136338   4.558   3.198   8.491 -0.0654  0.8380 -0.7718
 8292SOL    HW236339   4.656   3.085   8.474 -0.2702  1.3317  1.7528
 8293SOL     OW36340   3.011   2.551   4.400 -0.8261  0.4172  0.2409
 8293SOL    HW136341   2.985   2.638   4.372  2.2349  1.0335 -0.7464
 8293SOL    HW236342   2.940   2.516   4.454  0.1065 -1.5771  0.1666
 8294SOL     OW36343   2.304   1.816   3.406 -0.2810 -0.0354  0.0906
 8294SOL    HW136344   2.292   1.722   3.418 -0.5226  0.0971  0.8763
 8294SOL    HW236345   2.359   1.809   3.328  0.0229  1.4167  0.1768
 8295SOL     OW36346   0.381   4.717   4.747 -0.2887  0.4898 -0.3870
 8295SOL    HW136347   0.417   0.064   4.699  0.9342 -0.0186 -0.2602
 8295SOL    HW236348   0.469   4.689   4.772 -0.7857 -2.9320 -2.5111
 8296SOL     OW36349   3.802   3.945   1.031 -0.6827 -0.0748 -0.3675
 8296SOL    HW136350   3.856   4.011   1.075  2.8784 -1.8384 -2.1162
 8296SOL    HW236351   3.846   3.869   1.068  1.1938  0.5573 -1.3005
 8297SOL     OW36352   4.644   1.208   7.501  0.0605  0.0904  0.2807
 8297SOL    HW136353   4.707   1.239   7.566  0.0598  1.7727 -0.5225
 8297SOL    HW236354   4.620   1.292   7.462 -2.5742 -0.4363  0.7643
 8298SOL     OW36355   3.757   2.620   4.651 -0.2908 -0.0673  0.1080
 8298SOL    HW136356   3.746   2.676   4.574 -1.3720  1.5061  1.4004
 8298SOL    HW236357   3.847   2.591   4.636 -0.4103 -0.8628  0.9922
 8299SOL     OW36358   1.654   1.522  16.932 -0.0825 -0.1143  0.1678
 8299SOL    HW136359   1.629   1.434  16.903 -3.1756  0.9519 -0.4345
 8299SOL    HW236360   1.724   1.516  16.997 -0.5512 -5.3099  0.1914
 8300SOL     OW36361   0.279   4.658  12.722  0.2110  0.0360  0.0358
 8300SOL    HW136362   0.330   4.577  12.715  1.3266  0.6683  0.9285
 8300SOL    HW236363   0.335   0.000  12.690 -0.9262  1.5317  1.3252
 8301SOL     OW36364   0.348   0.124  12.952  0.2804  0.1375  0.1655
 8301SOL    HW136365   0.411   0.114  12.881  2.6312  0.5623  2.2072
 8301SOL    HW236366   0.323   0.032  12.961  1.2290  0.0051  1.4471
 8302SOL     OW36367   1.123   2.807   2.357 -0.2596  0.2147 -0.3635
 8302SOL    HW136368   1.161   2.740   2.300  2.8351 -3.2263  5.6826
 8302SOL    HW236369   1.032   2.778   2.351 -0.6711  1.5730 -0.6257
 8303SOL     OW36370   0.952   3.635   9.827 -0.2757 -0.0995 -0.5278
 8303SOL    HW136371   0.891   3.688   9.879 -0.7338  0.2061 -1.3737
 8303SOL    HW236372   0.958   3.555   9.880  0.6570  0.5285  0.3268
 8304SOL     OW36373   1.649   1.392   1.350  0.0592 -0.3124 -0.1114
 8304SOL    HW136374   1.570   1.351   1.387 -0.4250  1.1755  0.5225
 8304SOL    HW236375   1.661   1.349   1.266  1.5403 -0.3341  0.1099
 8305SOL     OW36376   0.860   4.055  15.317 -0.1451 -0.6205 -0.4410
 8305SOL    HW136377   0.887   3.982  15.372  0.9960 -0.2991 -0.5621
 8305SOL    HW236378   0.774   4.027  15.287 -1.0551  1.2699  0.4004
 8306SOL     OW36379   2.489   1.717   3.909 -0.2187 -0.3474  0.2172
 8306SOL    HW136380   2.397   1.696   3.923 -0.0669 -0.7207  0.6779
 8306SOL    HW236381   2.495   1.731   3.815 -0.9854  1.3521  0.4327
 8307SOL     OW36382   3.852   2.786   6.232 -0.2325 -0.0838  0.6217
 8307SOL    HW136383   3.773   2.823   6.194 -1.7052 -1.2268  2.5867
 8307SOL    HW236384   3.810   2.706   6.263  1.4207 -0.4959  1.8163
 8308SOL     OW36385   3.650   0.141   7.044  0.0326 -0.0723 -0.0190
 8308SOL    HW136386   3.610   0.081   6.981 -0.8589 -0.9151  1.3218
 8308SOL    HW236387   3.721   0.082   7.070 -2.1006 -2.2729  0.8313
 8309SOL     OW36388   4.005   4.656   6.547 -0.0547 -0.5556 -0.0981
 8309SOL    HW136389   4.013   4.577   6.602 -0.3238 -0.3599  0.2277
 8309SOL    HW236390   3.912   4.655   6.523 -0.1838 -0.4313  0.3820
 8310SOL     OW36391   0.091   1.240  13.829  0.2283 -0.6067 -0.7217
 8310SOL    HW136392   4.725   1.232  13.815  0.1683  0.9724 -1.2080
 8310SOL    HW236393   0.097   1.310  13.894 -2.1019  0.3456 -1.5334
 8311SOL     OW36394   3.925   4.233   1.034  0.0429 -0.1483  0.2465
 8311SOL    HW136395   3.861   4.233   0.962 -0.2614  0.1966  0.5162
 8311SOL    HW236396   3.972   4.315   1.022  1.2672 -0.6814  1.4422
 8312SOL     OW36397   2.991   1.573   0.732 -0.4258  0.2610  0.5890
 8312SOL    HW136398   3.036   1.517   0.669 -1.7821 -1.3697  1.0669
 8312SOL    HW236399   3.011   1.530   0.815  0.1600  0.4378  0.5391
 8313SOL     OW36400   0.570   3.066   8.301  0.0189 -0.2947  0.1486
 8313SOL    HW136401   0.548   3.056   8.208  0.2381 -1.6435  0.2394
 8313SOL    HW236402   0.494   3.053   8.358 -0.1135  2.3512  0.5520
 8314SOL     OW36403   3.370   0.436  10.915 -0.5060 -0.3693 -0.0233
 8314SOL    HW136404   3.396   0.527  10.925  1.6390 -0.7492 -2.3155
 8314SOL    HW236405   3.407   0.403  10.834 -2.1304  0.7830 -1.2362
 8315SOL     OW36406   4.477   3.401   5.777 -0.0418 -0.3256 -0.4987
 8315SOL    HW136407   4.516   3.450   5.705 -1.7675  0.7366 -0.7255
 8315SOL    HW236408   4.411   3.465   5.804  0.7603  0.8573 -1.3448
 8316SOL     OW36409   3.116   3.019   9.510  0.3102  0.0883  0.1229
 8316SOL    HW136410   3.087   3.038   9.600  0.2581  0.1425  0.0948
 8316SOL    HW236411   3.146   2.929   9.519  0.5685  0.3531  1.9368
 8317SOL     OW36412   4.456   1.047   5.655 -0.3247 -0.0061  0.0304
 8317SOL    HW136413   4.470   1.130   5.609 -1.4655  1.7358  2.7780
 8317SOL    HW236414   4.535   1.046   5.709 -1.4976 -0.5971  1.7640
 8318SOL     OW36415   0.910   0.328  14.291  0.1222 -0.5448 -0.6826
 8318SOL    HW136416   0.860   0.367  14.219 -2.6707 -0.6597  1.2127
 8318SOL    HW236417   0.853   0.253  14.310 -0.5899  0.3026  0.4950
 8319SOL     OW36418   2.583   0.878   7.299  0.0721 -0.9991 -1.2537
 8319SOL    HW136419   2.665   0.880   7.348  0.2851  0.0607 -1.6383
 8319SOL    HW236420   2.577   0.973   7.285  1.5355 -0.6944  0.1620
 8320SOL     OW36421   0.400   0.908   6.427  0.2605 -0.6364  0.4877
 8320SOL    HW136422   0.415   0.866   6.342  1.1564  1.4498 -0.4056
 8320SOL    HW236423   0.370   0.830   6.474  1.1569  1.4728  4.5332
 8321SOL     OW36424   3.699   3.096   4.062  0.3252 -0.0646  0.1419
 8321SOL    HW136425   3.714   3.020   4.006 -0.2968 -0.3659  0.3769
 8321SOL    HW236426   3.726   3.169   4.007  1.7854 -0.0105  0.9446
 8322SOL     OW36427   2.093   4.345   7.579 -0.1024 -0.6304 -0.3042
 8322SOL    HW136428   2.041   4.282   7.629 -1.2846 -2.3597 -3.7508
 8322SOL    HW236429   2.171   4.302   7.544  0.2820  0.2926 -0.5774
 8323SOL     OW36430   2.330   2.947   6.296 -0.3556  0.0012  0.5435
 8323SOL    HW136431   2.349   2.967   6.388  2.0955  0.0554  0.0296
 8323SOL    HW236432   2.415   2.941   6.252 -0.3408 -0.2286  0.6030
 8324SOL     OW36433   2.841   4.498   4.696 -0.5310  0.1207  0.0275
 8324SOL    HW136434   2.754   4.518   4.663 -0.6235 -0.9188 -0.3530
 8324SOL    HW236435   2.831   4.457   4.782 -3.0480 -2.0928 -1.3314
 8325SOL     OW36436   4.063   3.938   1.332  0.3294  0.1137 -0.3102
 8325SOL    HW136437   3.995   3.913   1.395  0.3333  0.0494 -0.3319
 8325SOL    HW236438   4.095   3.854   1.299  0.2940 -1.4724  3.7648
 8326SOL     OW36439   1.303   4.432  10.175  0.1392 -0.4519 -0.2172
 8326SOL    HW136440   1.294   4.404  10.084  0.3559  1.4535 -0.8159
 8326SOL    HW236441   1.312   4.347  10.218 -1.3800 -1.5729 -2.1189
 8327SOL     OW36442   1.346   1.698  13.039 -0.3373  0.0314  0.0988
 8327SOL    HW136443   1.415   1.702  12.972  0.4102 -3.0325  0.7071
 8327SOL    HW236444   1.293   1.623  13.012 -0.4859  0.4428 -0.7650
 8328SOL     OW36445   2.161   4.086   0.111 -0.1386  0.4193  0.1787
 8328SOL    HW136446   2.183   4.009   0.059  2.7281  1.1702  0.2817
 8328SOL    HW236447   2.150   4.045   0.197  1.9287  2.7161  1.5222
 8329SOL     OW36448   3.451   3.458   9.098  0.3276 -0.4511  0.4178
 8329SOL    HW136449   3.362   3.491   9.086  0.5312  0.4780  1.4995
 8329SOL    HW236450   3.510   3.532   9.084  1.9134 -1.3726  2.3376
 8330SOL     OW36451   3.919   3.028   7.107 -0.2572 -0.3044  0.4364
 8330SOL    HW136452   3.978   2.964   7.148  1.0072 -0.5023 -1.6760
 8330SOL    HW236453   3.944   3.020   7.015 -2.0385  0.3258 -0.1073
 8331SOL     OW36454   4.508   3.104   3.687 -0.4256 -0.1380  0.4584
 8331SOL    HW136455   4.575   3.148   3.634  0.1284 -0.8969  0.5397
 8331SOL    HW236456   4.518   3.016   3.651  0.2489  0.8272 -1.7063
 8332SOL     OW36457   2.482   3.377   7.623  0.7145  0.1088  0.5168
 8332SOL    HW136458   2.393   3.377   7.657 -0.0953 -0.9176 -1.6050
 8332SOL    HW236459   2.534   3.356   7.700  0.4129 -0.2748  0.6160
 8333SOL     OW36460   2.695   1.002   8.648  0.1963 -0.3335 -0.2227
 8333SOL    HW136461   2.784   0.968   8.649  1.2136  2.3326 -0.3354
 8333SOL    HW236462   2.652   0.951   8.579 -1.4475 -0.5429  0.9460
 8334SOL     OW36463   0.487   3.051   3.899  0.0030  0.1127 -0.0811
 8334SOL    HW136464   0.570   3.060   3.852  0.7075 -2.7286  0.5996
 8334SOL    HW236465   0.440   3.123   3.857 -0.1290 -0.2869 -0.6117
 8335SOL     OW36466   0.251   4.317  11.434 -0.1757  0.7287 -0.5967
 8335SOL    HW136467   0.186   4.357  11.376  0.0646  0.4740 -1.0348
 8335SOL    HW236468   0.326   4.294  11.380 -1.5591  1.0258 -2.6212
 8336SOL     OW36469   4.264   1.789   1.546  0.1830 -0.1643  0.3045
 8336SOL    HW136470   4.260   1.707   1.497 -1.0205 -0.9971  1.7920
 8336SOL    HW236471   4.301   1.849   1.481 -0.4547  0.2652  0.3325
 8337SOL     OW36472   1.539   0.493  10.083  0.1012  0.1174  0.0012
 8337SOL    HW136473   1.633   0.506  10.069  0.1195 -2.3531 -1.9684
 8337SOL    HW236474   1.522   0.567  10.142 -2.2792 -0.9128  0.6147
 8338SOL     OW36475   4.539   3.121   4.752  0.1035  0.5667  0.0199
 8338SOL    HW136476   4.515   3.045   4.699  0.4346  0.8791 -0.5774
 8338SOL    HW236477   4.509   3.101   4.841 -0.7801 -0.2414 -0.4563
 8339SOL     OW36478   1.208   0.831   6.256  0.2468 -0.2203 -0.1437
 8339SOL    HW136479   1.229   0.858   6.345  1.7667 -0.0124 -0.5766
 8339SOL    HW236480   1.291   0.831   6.209  0.5718 -0.4817  0.4357
 8340SOL     OW36481   4.043   3.471   5.053  0.2643  0.8196 -0.4700
 8340SOL    HW136482   3.985   3.486   5.128  0.8673  0.6237  0.0402
 8340SOL    HW236483   4.114   3.429   5.102 -0.7391 -0.2394  0.0863
 8341SOL     OW36484   3.282   3.613   6.755 -0.3905  0.0218 -0.2626
 8341SOL    HW136485   3.287   3.636   6.848  1.5688  0.3896 -0.4559
 8341SOL    HW236486   3.202   3.561   6.755 -1.4572  1.6684  1.3632
 8342SOL     OW36487   0.930   1.419   6.404 -0.3781 -0.9778  0.7996
 8342SOL    HW136488   0.951   1.340   6.455 -0.1328 -0.1365  2.0188
 8342SOL    HW236489   1.018   1.446   6.381 -1.4489  0.5351 -1.4706
 8343SOL     OW36490   2.019   2.021   3.659  0.1923 -0.4345  0.3428
 8343SOL    HW136491   1.985   2.110   3.647  0.7603 -0.2918 -0.1903
 8343SOL    HW236492   2.044   1.998   3.570 -1.2206  2.0016 -0.6790
 8344SOL     OW36493   3.115   2.351   8.336 -0.1553  0.0260  0.6165
 8344SOL    HW136494   3.033   2.393   8.363 -0.3772  0.3219 -0.4811
 8344SOL    HW236495   3.180   2.409   8.374  0.7643 -0.4019 -0.2996
 8345SOL     OW36496   4.415   3.539   3.401 -0.0885  0.7528 -0.1318
 8345SOL    HW136497   4.339   3.483   3.389 -1.9830  2.9971  1.5754
 8345SOL    HW236498   4.392   3.606   3.466  1.6346  1.3301 -0.1060
 8346SOL     OW36499   1.567   4.027   2.795 -0.4841 -0.1867 -0.0674
 8346SOL    HW136500   1.565   4.081   2.716  0.1766 -0.6685 -0.4131
 8346SOL    HW236501   1.475   4.042   2.819 -1.0345 -1.8360 -1.1481
 8347SOL     OW36502   3.962   2.478   1.506 -0.0836 -0.4143  0.0239
 8347SOL    HW136503   3.949   2.567   1.473  0.5405  0.4842  2.2043
 8347SOL    HW236504   4.051   2.490   1.539 -0.2310 -0.3633  0.4036
 8348SOL     OW36505   1.767   2.041   7.454 -0.4353  0.3202  0.4928
 8348SOL    HW136506   1.684   2.064   7.412  1.4860  1.7931 -2.5143
 8348SOL    HW236507   1.811   2.077   7.377 -0.7619 -0.4741 -0.0642
 8349SOL     OW36508   3.759   2.133   5.082  0.8145 -0.3459 -0.2044
 8349SOL    HW136509   3.799   2.165   5.001  1.2263  0.7617  0.4399
 8349SOL    HW236510   3.717   2.207   5.125 -1.9903 -0.4682 -2.7826
 8350SOL     OW36511   3.976   0.217  17.379 -0.1321  0.2864  0.1711
 8350SOL    HW136512   3.939   0.129  17.378 -1.1599  0.7314 -2.2232
 8350SOL    HW236513   3.903   0.278  17.371 -1.2944 -1.1128  0.2546
 8351SOL     OW36514   0.836   1.696   2.375 -0.2582  0.4784 -0.4861
 8351SOL    HW136515   0.769   1.631   2.354  1.4964 -1.9263  1.3355
 8351SOL    HW236516   0.805   1.777   2.334 -1.9288 -0.0582 -0.2693
 8352SOL     OW36517   4.117   0.104  13.682 -0.0004  0.0925 -0.2036
 8352SOL    HW136518   4.179   0.120  13.610 -0.0147  0.8282 -0.0547
 8352SOL    HW236519   4.168   0.122  13.761  0.0378  0.8629 -0.3996
 8353SOL     OW36520   4.092   4.618   5.462 -0.4879 -0.6603  0.5076
 8353SOL    HW136521   4.188   4.615   5.470 -0.3808  0.2813 -0.4672
 8353SOL    HW236522   4.076   4.524   5.448 -1.2596 -0.4769  0.2185
 8354SOL     OW36523   2.777   2.502  14.798  0.3282 -0.0453 -0.2033
 8354SOL    HW136524   2.816   2.426  14.755  2.5635  0.5360  0.8360
 8354SOL    HW236525   2.720   2.448  14.854 -2.3431  1.4122 -1.5282
 8355SOL     OW36526   2.209   3.886   8.793 -0.3590 -0.0565  0.3983
 8355SOL    HW136527   2.123   3.915   8.825 -1.3989 -2.7181  0.0168
 8355SOL    HW236528   2.199   3.797   8.826  2.0329  0.5642  2.7706
 8356SOL     OW36529   1.737   0.315   4.468  0.2494 -0.0013  0.0097
 8356SOL    HW136530   1.702   0.229   4.492  3.1507 -0.5164  2.3355
 8356SOL    HW236531   1.822   0.302   4.510  0.5959 -1.0334 -0.9901
 8357SOL     OW36532   4.280   2.906   4.394  0.1329 -0.1207  0.8622
 8357SOL    HW136533   4.277   2.990   4.348  2.1593  0.1850  1.3226
 8357SOL    HW236534   4.265   2.855   4.314 -0.3102  0.5898  0.4890
 8358SOL     OW36535   0.487   4.319  13.189 -0.1664 -0.5423  0.5385
 8358SOL    HW136536   0.517   4.298  13.101 -2.0849 -3.6568  0.6119
 8358SOL    HW236537   0.410   4.262  13.197 -0.5823 -0.4356 -2.7104
 8359SOL     OW36538   1.619   2.459  13.206 -0.0161  0.3067  0.0435
 8359SOL    HW136539   1.527   2.437  13.219  0.0157  0.6902  0.9192
 8359SOL    HW236540   1.659   2.471  13.292  0.2188  2.2365 -0.3291
 8360SOL     OW36541   2.618   0.166   7.657  0.9848 -0.0078 -0.3314
 8360SOL    HW136542   2.596   0.193   7.746 -3.1906 -0.2990 -1.2861
 8360SOL    HW236543   2.576   0.244   7.620  0.4347  0.5752  1.5350
 8361SOL     OW36544   1.545   3.174  16.438  0.3605 -0.0051 -0.2166
 8361SOL    HW136545   1.523   3.097  16.385  2.1206 -1.2744  0.9028
 8361SOL    HW236546   1.468   3.228  16.423  1.1972  1.0953 -0.5529
 8362SOL     OW36547   2.323   3.702   5.582  0.1158 -0.2773  0.2102
 8362SOL    HW136548   2.308   3.784   5.535 -1.4680  0.2891  1.7049
 8362SOL    HW236549   2.298   3.651   5.505 -1.4942  0.0537  0.5199
 8363SOL     OW36550   0.571   4.561  13.089 -0.0167 -0.3846  0.4652
 8363SOL    HW136551   0.546   4.486  13.143 -1.5730 -0.7717 -0.7909
 8363SOL    HW236552   0.484   4.585  13.056 -0.0026 -1.5783 -0.4324
 8364SOL     OW36553   0.081   4.332  15.396 -0.1912  0.1962  0.1786
 8364SOL    HW136554   0.150   4.288  15.346 -1.0722 -0.0680 -0.7971
 8364SOL    HW236555   0.129   4.355  15.476  2.0641 -0.6607 -0.9296
 8365SOL     OW36556   0.535   3.471   8.109 -0.4426 -0.0239  0.5820
 8365SOL    HW136557   0.625   3.445   8.089 -0.4702 -0.2705  0.7768
 8365SOL    HW236558   0.530   3.439   8.199  1.5843 -0.7368  0.4220
 8366SOL     OW36559   2.242   4.414   7.861  0.3440  0.3802  0.2163
 8366SOL    HW136560   2.272   4.403   7.771 -0.3709  0.7097 -0.0662
 8366SOL    HW236561   2.300   4.360   7.916  2.8003  0.5619 -2.2240
 8367SOL     OW36562   1.756   3.395  17.439  0.2698 -0.3139 -0.0696
 8367SOL    HW136563   1.696   3.466  17.417  0.9582 -0.1393 -1.3823
 8367SOL    HW236564   1.775   3.350  17.356 -0.7976 -1.0092  0.0551
 8368SOL     OW36565   3.249   1.762  17.219  0.7075  0.0898 -0.3247
 8368SOL    HW136566   3.200   1.739  17.298 -1.4561 -0.6196 -1.8804
 8368SOL    HW236567   3.249   1.680  17.171 -0.0113 -0.0280 -0.1267
 8369SOL     OW36568   4.071   4.318  12.099  0.2552 -0.3933  0.0873
 8369SOL    HW136569   3.991   4.363  12.124  0.5281 -0.5427  1.2516
 8369SOL    HW236570   4.073   4.349  12.009  0.4659 -0.6336  0.0073
 8370SOL     OW36571   1.465   4.308   3.888 -0.4432  0.0925  0.2972
 8370SOL    HW136572   1.520   4.270   3.820  0.6722  2.5166 -0.1398
 8370SOL    HW236573   1.514   4.379   3.929  0.1280 -0.9342  1.3975
 8371SOL     OW36574   0.687   4.113   9.111 -0.2296  0.0970  0.0035
 8371SOL    HW136575   0.757   4.087   9.050 -1.0897  1.5761 -1.6360
 8371SOL    HW236576   0.718   4.202   9.129  0.7576  0.0939 -1.6522
 8372SOL     OW36577   3.686   3.765   9.684  0.2845 -0.3615 -0.1706
 8372SOL    HW136578   3.618   3.814   9.729 -0.0892 -0.0642 -1.0542
 8372SOL    HW236579   3.764   3.804   9.723 -0.2555  0.1026  0.4395
 8373SOL     OW36580   1.709   3.000   6.741  0.0059 -0.0054  0.0733
 8373SOL    HW136581   1.728   2.954   6.660 -1.9512 -2.4791  1.0415
 8373SOL    HW236582   1.775   2.967   6.803 -1.2523 -0.5369  1.1319
 8374SOL     OW36583   4.180   0.812   8.257  0.3660 -0.4814  0.0476
 8374SOL    HW136584   4.176   0.840   8.348  0.8050 -0.2209 -0.0133
 8374SOL    HW236585   4.089   0.818   8.229 -0.0108 -0.5852  1.2445
 8375SOL     OW36586   2.120   3.873   0.301 -0.4189 -0.0435  0.7343
 8375SOL    HW136587   2.158   3.786   0.290 -0.2324  0.4273 -2.3653
 8375SOL    HW236588   2.104   3.875   0.395 -1.5206 -0.0876  0.5447
 8376SOL     OW36589   2.235   2.668   4.900  0.1840  0.2010  0.5595
 8376SOL    HW136590   2.206   2.577   4.896  0.1263  0.3097 -1.2118
 8376SOL    HW236591   2.310   2.666   4.841 -0.5418  1.4186 -0.3801
 8377SOL     OW36592   4.304   3.410   4.404 -0.6871 -0.5161 -0.3007
 8377SOL    HW136593   4.356   3.452   4.335  1.1323 -0.4532  1.1374
 8377SOL    HW236594   4.352   3.443   4.480 -1.2963  0.2006 -0.2193
 8378SOL     OW36595   1.220   0.801   3.589  0.1864 -0.5732 -0.3462
 8378SOL    HW136596   1.248   0.765   3.505 -2.3201  1.1288 -1.9075
 8378SOL    HW236597   1.197   0.890   3.562  2.5176  0.4899  1.1836
 8379SOL     OW36598   0.737   1.974  13.994  0.1874 -0.2334 -0.1092
 8379SOL    HW136599   0.766   1.889  14.026  0.6142 -0.5274 -1.2759
 8379SOL    HW236600   0.647   1.974  14.024 -0.3552  1.1266 -1.7293
 8380SOL     OW36601   0.099   4.470   6.846 -0.1270  0.0595 -0.3804
 8380SOL    HW136602   0.182   4.429   6.871 -0.1664  0.8541  1.0585
 8380SOL    HW236603   0.090   4.445   6.754 -0.7687 -0.2460 -0.2366
 8381SOL     OW36604   2.031   0.050   9.850 -0.0621 -0.0010 -0.0949
 8381SOL    HW136605   2.101   0.097   9.804 -0.9353 -1.0378 -2.4242
 8381SOL    HW236606   1.968   0.043   9.779  0.4092 -1.5827 -0.3398
 8382SOL     OW36607   3.840   1.543  13.876 -0.0120 -0.3342 -0.0180
 8382SOL    HW136608   3.799   1.611  13.929  0.2620 -0.2038  0.0238
 8382SOL    HW236609   3.931   1.573  13.875  0.3480 -1.4107  0.8648
 8383SOL     OW36610   4.011   0.890   3.492 -0.4576  0.1611  0.1251
 8383SOL    HW136611   3.958   0.970   3.501 -2.0861 -1.0156  0.9759
 8383SOL    HW236612   3.950   0.825   3.528 -0.9468  0.0487 -0.9208
 8384SOL     OW36613   2.822   0.554   6.988 -0.0349  0.6342  0.1021
 8384SOL    HW136614   2.874   0.475   7.002 -1.4666 -0.1271  1.0816
 8384SOL    HW236615   2.854   0.604   7.064  1.3852  1.7055 -1.1990
 8385SOL     OW36616   2.100   2.041   1.137 -1.2408 -0.6174  0.1336
 8385SOL    HW136617   2.018   2.040   1.087  0.7378  1.5480 -3.1909
 8385SOL    HW236618   2.103   1.950   1.165  0.4744 -0.0618  1.7791
 8386SOL     OW36619   2.161   0.356  10.603  0.3198 -0.2925  0.2332
 8386SOL    HW136620   2.157   0.322  10.513  1.8549 -1.2661  0.5365
 8386SOL    HW236621   2.171   0.451  10.592 -2.7267 -0.3053 -2.6629
 8387SOL     OW36622   2.821   1.039  14.326  0.0464 -0.0238 -0.0656
 8387SOL    HW136623   2.745   1.075  14.372 -0.1181 -0.8505  0.2947
 8387SOL    HW236624   2.844   1.121  14.282 -0.0153  0.4362  0.7409
 8388SOL     OW36625   1.248   3.783   3.547  0.1142 -0.6134  0.0526
 8388SOL    HW136626   1.216   3.751   3.631  0.8400 -1.8005 -0.1151
 8388SOL    HW236627   1.342   3.767   3.559  0.1673 -0.5216 -0.2204
 8389SOL     OW36628   3.983   3.107   5.812 -0.1739  0.1292  0.4307
 8389SOL    HW136629   3.953   3.044   5.747  0.8265  0.6892 -0.5688
 8389SOL    HW236630   3.913   3.088   5.874  0.0704 -0.4823  0.5171
 8390SOL     OW36631   1.847   3.675   3.166 -0.8081 -0.4216 -0.0312
 8390SOL    HW136632   1.835   3.751   3.109 -0.7987 -1.4399 -1.3902
 8390SOL    HW236633   1.913   3.626   3.117  1.5299  1.9631  0.7285
 8391SOL     OW36634   1.584   1.146   3.648  0.0264  0.0119 -0.3347
 8391SOL    HW136635   1.532   1.066   3.638  0.5459 -0.2991 -0.5494
 8391SOL    HW236636   1.523   1.202   3.697  0.5462 -1.3447  1.9009
 8392SOL     OW36637   1.572   4.398   9.857  0.2144 -0.0011  0.7730
 8392SOL    HW136638   1.485   4.366   9.880  0.2786 -1.0499 -0.4473
 8392SOL    HW236639   1.560   4.489   9.886 -1.5772 -0.3136  1.0059
 8393SOL     OW36640   1.745   3.470   2.755 -0.5618  0.3670 -0.4784
 8393SOL    HW136641   1.666   3.517   2.726 -0.9109  1.4230  2.2145
 8393SOL    HW236642   1.749   3.408   2.682  0.2484 -1.5990  1.2212
 8394SOL     OW36643   2.074   2.875   5.847 -0.0270 -0.1714  0.5597
 8394SOL    HW136644   2.147   2.859   5.906  0.4030  2.0076  0.6322
 8394SOL    HW236645   2.094   2.968   5.837 -2.8619  0.2071 -1.5355
 8395SOL     OW36646   2.713   3.960   4.073 -0.3807 -0.2054  0.3938
 8395SOL    HW136647   2.777   4.027   4.047 -0.4375  0.8324  2.9086
 8395SOL    HW236648   2.651   4.009   4.127  1.2616  1.2153  0.9794
 8396SOL     OW36649   3.209   3.887   1.086  0.1354  0.0149  0.3287
 8396SOL    HW136650   3.255   3.957   1.133 -0.5881 -1.1061  2.6942
 8396SOL    HW236651   3.120   3.892   1.122 -0.5052 -0.4223 -1.1490
 8397SOL     OW36652   2.723   1.718   7.032  0.4848  0.3977 -0.1865
 8397SOL    HW136653   2.666   1.698   6.958 -0.0078  2.5859 -0.3897
 8397SOL    HW236654   2.805   1.679   7.000 -0.7225 -1.4051 -1.0805
 8398SOL     OW36655   1.367   1.426  13.843  0.5657 -0.0831 -0.2699
 8398SOL    HW136656   1.423   1.500  13.819  1.4043 -0.3164  0.9798
 8398SOL    HW236657   1.395   1.404  13.932  0.4968  1.7750  0.2065
 8399SOL     OW36658   3.291   0.713  10.725  0.1966 -0.0109 -0.5456
 8399SOL    HW136659   3.240   0.793  10.735 -1.9425 -1.3155 -1.1624
 8399SOL    HW236660   3.345   0.718  10.804 -0.5051 -2.0528  0.0560
 8400SOL     OW36661   4.342   0.446  16.553  0.1114  0.3210  0.0440
 8400SOL    HW136662   4.281   0.377  16.578  1.5452 -1.0384 -0.2085
 8400SOL    HW236663   4.419   0.422  16.605 -0.2284 -1.6938 -0.3616
 8401SOL     OW36664   1.723   0.486  17.696 -0.5315  0.3123 -0.3162
 8401SOL    HW136665   1.747   0.567  17.652  2.5413 -0.6165 -0.3474
 8401SOL    HW236666   1.688   0.425  17.631 -0.2946 -0.4929  0.3046
 8402SOL     OW36667   0.985   3.765   8.954  0.1239  0.3177  0.4216
 8402SOL    HW136668   0.921   3.712   9.001  1.2637 -1.2493  0.1986
 8402SOL    HW236669   0.995   3.717   8.872  0.1500 -3.2475  2.5317
 8403SOL     OW36670   4.390   0.985   1.885  0.1556  0.5287  0.2711
 8403SOL    HW136671   4.410   1.075   1.860  2.0046 -0.3131 -1.3142
 8403SOL    HW236672   4.308   0.961   1.841 -1.0605 -0.4879  3.0778
 8404SOL     OW36673   2.989   1.187  10.975  0.5054  0.1346  0.1761
 8404SOL    HW136674   3.012   1.156  11.063 -0.0058  1.2239  0.6938
 8404SOL    HW236675   2.900   1.216  10.992  0.1406 -0.1995 -1.2149
 8405SOL     OW36676   0.360   0.913   3.622  0.1710  0.9138  0.6018
 8405SOL    HW136677   0.451   0.908   3.651  0.7628  0.8836 -1.2713
 8405SOL    HW236678   0.368   0.959   3.538 -0.7013  2.7679  1.5456
 8406SOL     OW36679   1.057   3.162   1.541  0.0610 -0.0479 -0.2906
 8406SOL    HW136680   1.150   3.174   1.557 -0.1310  0.4675  0.4385
 8406SOL    HW236681   1.037   3.107   1.616 -1.9675  1.3846  0.2326
 8407SOL     OW36682   3.752   2.765  13.799 -0.5364 -0.5168  0.4430
 8407SOL    HW136683   3.846   2.747  13.797 -0.5400 -0.6050  0.9934
 8407SOL    HW236684   3.722   2.797  13.714 -0.2113 -2.5983 -0.4533
 8408SOL     OW36685   3.454   3.374  15.664  0.2987 -0.2852 -0.4787
 8408SOL    HW136686   3.525   3.366  15.728 -0.9329  0.1269  0.9388
 8408SOL    HW236687   3.505   3.414  15.594 -0.4127 -0.9231 -1.3451
 8409SOL     OW36688   4.002   4.455   6.743 -0.8953 -1.0914  0.2025
 8409SOL    HW136689   3.907   4.465   6.748 -0.8156 -0.6434  0.8675
 8409SOL    HW236690   4.014   4.360   6.750 -1.0121 -1.1065  0.1962
 8410SOL     OW36691   3.091   4.392   9.368 -0.2287 -0.3552  0.4681
 8410SOL    HW136692   3.005   4.425   9.341 -0.1178 -0.0331  0.5178
 8410SOL    HW236693   3.105   4.416   9.460 -1.7538 -2.1252  1.1884
 8411SOL     OW36694   4.222   4.076   2.315 -0.1519  0.6724  0.3603
 8411SOL    HW136695   4.132   4.066   2.348 -0.0455  1.6305  0.9569
 8411SOL    HW236696   4.249   4.157   2.360 -1.4852  0.3386  1.7488
 8412SOL     OW36697   3.202   0.655   6.833  0.0329 -0.2990 -0.3473
 8412SOL    HW136698   3.167   0.566   6.842  0.3180 -0.1911  1.8140
 8412SOL    HW236699   3.154   0.681   6.754  0.9531  0.8311 -0.5312
 8413SOL     OW36700   1.774   0.252   5.318  0.1470 -0.0671 -0.8132
 8413SOL    HW136701   1.782   0.290   5.405 -0.7359  1.2810 -1.3182
 8413SOL    HW236702   1.742   0.328   5.270  0.1105  0.2373 -0.3045
 8414SOL     OW36703   3.163   3.813   4.459 -0.0478 -0.0774 -0.1944
 8414SOL    HW136704   3.194   3.836   4.372 -0.0575  1.8595  0.2978
 8414SOL    HW236705   3.243   3.828   4.510 -0.6084 -1.0298  0.9776
 8415SOL     OW36706   4.035   3.166  11.086 -0.6929 -0.2808 -0.3458
 8415SOL    HW136707   3.988   3.144  11.006 -0.8441  1.1377 -0.6520
 8415SOL    HW236708   4.126   3.152  11.061 -0.6039 -1.6805  0.7538
 8416SOL     OW36709   4.064   1.088  16.662 -0.3649  0.2599  0.2522
 8416SOL    HW136710   4.065   1.182  16.679 -2.9230 -0.1490  2.4878
 8416SOL    HW236711   3.980   1.057  16.696 -1.0111  1.1790 -0.5007
 8417SOL     OW36712   2.202   2.967  13.780  0.5913 -0.2338 -0.1273
 8417SOL    HW136713   2.138   2.909  13.741 -0.2933  0.8569 -0.2986
 8417SOL    HW236714   2.146   3.034  13.821 -1.0786 -0.3946 -2.1880
 8418SOL     OW36715   2.211   2.647  15.995 -0.4968  0.0364 -0.6815
 8418SOL    HW136716   2.251   2.701  15.926  0.2236  1.0004  0.4921
 8418SOL    HW236717   2.196   2.719  16.057  1.8414 -0.8505  0.9019
 8419SOL     OW36718   4.161   1.775   9.904  0.3929 -0.2864  0.1399
 8419SOL    HW136719   4.209   1.758   9.985  2.3305  0.2479 -0.8960
 8419SOL    HW236720   4.182   1.700   9.850 -0.6647  0.0450 -0.7380
 8420SOL     OW36721   2.889   3.562   8.626  0.1719  0.3303  0.0363
 8420SOL    HW136722   2.799   3.536   8.606  1.4748 -1.9042 -2.8105
 8420SOL    HW236723   2.919   3.495   8.689 -2.2709 -1.5177 -0.7728
 8421SOL     OW36724   0.715   1.612  11.659 -0.5089  0.0999  0.3808
 8421SOL    HW136725   0.773   1.621  11.735 -0.9036 -0.9829  0.8130
 8421SOL    HW236726   0.647   1.670  11.693 -0.7797 -0.8531  1.4499
 8422SOL     OW36727   1.176   0.481   7.786 -0.4299  0.1540 -0.3127
 8422SOL    HW136728   1.228   0.404   7.764 -0.4869  0.3112 -0.9844
 8422SOL    HW236729   1.086   0.451   7.776 -0.9159  0.9726  1.5335
 8423SOL     OW36730   4.669   4.122   2.657 -0.4034 -0.3758 -0.2316
 8423SOL    HW136731   4.654   4.061   2.584 -0.6938 -1.0440  0.3882
 8423SOL    HW236732   4.580   4.151   2.673 -0.5887 -0.8917 -0.3369
 8424SOL     OW36733   1.305   1.555   6.490 -0.1826  0.2202 -0.4909
 8424SOL    HW136734   1.257   1.602   6.558  1.0172 -0.8503  1.0835
 8424SOL    HW236735   1.292   1.468   6.528  0.2756 -0.1166 -1.1060
 8425SOL     OW36736   2.731   3.599   7.231  0.0593  0.1290 -0.3411
 8425SOL    HW136737   2.767   3.514   7.253 -1.1117 -0.5741 -1.0917
 8425SOL    HW236738   2.666   3.615   7.300  0.1125 -3.8281  0.5948
 8426SOL     OW36739   1.336   0.722   6.537 -0.2083 -0.5981  0.0497
 8426SOL    HW136740   1.242   0.709   6.524 -0.3943 -0.7293  1.4518
 8426SOL    HW236741   1.355   0.685   6.624 -1.6260  0.2382  0.7132
 8427SOL     OW36742   2.676   0.196   5.880 -0.6362  0.1001  0.0568
 8427SOL    HW136743   2.665   0.250   5.802 -1.5480  2.3201  1.7442
 8427SOL    HW236744   2.616   0.237   5.942 -1.0633 -0.2745 -0.1056
 8428SOL     OW36745   0.580   0.721   8.102 -0.1770  0.2113 -0.1821
 8428SOL    HW136746   0.628   0.672   8.169  1.0064 -1.3991 -2.2017
 8428SOL    HW236747   0.529   0.776   8.161 -0.9867  0.8593 -1.4848
 8429SOL     OW36748   4.235   2.314   7.051  0.4037  0.0663 -0.0846
 8429SOL    HW136749   4.187   2.234   7.071 -0.8018  1.0356  0.8516
 8429SOL    HW236750   4.318   2.283   7.015 -1.1593 -4.6433  0.4418
 8430SOL     OW36751   1.670   0.185   2.146 -0.1793  0.2815  0.3897
 8430SOL    HW136752   1.689   0.141   2.230  0.3074 -1.9251 -0.8807
 8430SOL    HW236753   1.604   0.247   2.178  1.8201  0.8230  3.4607
 8431SOL     OW36754   0.376   3.580   5.877  0.0055 -0.2957 -0.1173
 8431SOL    HW136755   0.337   3.586   5.964 -2.2980  0.2630 -1.1957
 8431SOL    HW236756   0.323   3.506   5.846  0.8973 -0.8879 -0.2354
 8432SOL     OW36757   0.318   1.784   7.311 -0.3058  0.0856  0.8828
 8432SOL    HW136758   0.252   1.733   7.264  1.8964 -1.8007 -0.1480
 8432SOL    HW236759   0.380   1.791   7.239 -2.3966 -1.9951 -1.1139
 8433SOL     OW36760   1.719   4.060   1.566 -0.4775  0.2099 -0.2243
 8433SOL    HW136761   1.674   4.125   1.512 -0.2727  0.7842  0.2974
 8433SOL    HW236762   1.708   4.103   1.651 -1.8341 -1.3424  0.3992
 8434SOL     OW36763   3.639   1.213   2.111 -0.1298  0.5052  0.0963
 8434SOL    HW136764   3.687   1.260   2.178  1.1319 -0.9959  0.2460
 8434SOL    HW236765   3.550   1.243   2.131  0.3093  1.3368  0.7459
 8435SOL     OW36766   3.585   3.381   3.460 -0.1411  0.5207 -0.7255
 8435SOL    HW136767   3.594   3.359   3.367  2.0028 -2.9672  0.3233
 8435SOL    HW236768   3.528   3.457   3.443 -0.0941  0.2365 -2.1895
 8436SOL     OW36769   1.004   2.935   3.772  0.2042  0.2410 -0.3539
 8436SOL    HW136770   0.986   2.863   3.711  0.5346  0.8097 -1.1193
 8436SOL    HW236771   0.929   2.930   3.832  2.0536 -0.4346  1.8949
 8437SOL     OW36772   3.185   2.918   5.486 -0.2480  0.4711 -0.1691
 8437SOL    HW136773   3.220   2.885   5.403  1.6538  0.9824  0.4410
 8437SOL    HW236774   3.133   2.844   5.515 -0.2688 -0.2032 -1.9018
 8438SOL     OW36775   2.190   0.550   2.569  0.1383 -0.1193  0.7521
 8438SOL    HW136776   2.113   0.529   2.516 -0.4407 -2.1692  2.3943
 8438SOL    HW236777   2.260   0.565   2.504 -0.6233 -1.4067 -0.3826
 8439SOL     OW36778   3.907   1.686   8.156 -0.0203 -0.0973  0.4040
 8439SOL    HW136779   3.899   1.601   8.112 -0.5628  0.6952 -1.0341
 8439SOL    HW236780   3.898   1.743   8.079  0.1580  1.0507  1.2281
 8440SOL     OW36781   3.537   2.821   8.221  0.2976  0.1576 -0.4164
 8440SOL    HW136782   3.562   2.788   8.307 -0.4592 -0.4226 -0.4206
 8440SOL    HW236783   3.569   2.748   8.167  1.6860 -0.7602  1.6379
 8441SOL     OW36784   0.927   3.760  13.636 -0.3837 -0.6562 -0.3240
 8441SOL    HW136785   0.896   3.755  13.726  1.7583 -1.5562  0.3706
 8441SOL    HW236786   1.022   3.762  13.646 -0.3087  1.5429 -1.4955
 8442SOL     OW36787   4.343   3.661   4.651 -0.4671 -0.4528 -0.2361
 8442SOL    HW136788   4.349   3.742   4.702 -0.2468  0.4744 -1.7197
 8442SOL    HW236789   4.270   3.676   4.590  0.4366 -1.0542 -1.4512
 8443SOL     OW36790   3.913   1.381   2.197  0.6207  0.6141 -0.1611
 8443SOL    HW136791   3.930   1.451   2.133  0.2838 -0.0413 -0.9712
 8443SOL    HW236792   3.975   1.411   2.263 -0.1599  1.5372  0.1413
 8444SOL     OW36793   3.331   2.647   7.829  0.0817  0.0731 -0.0477
 8444SOL    HW136794   3.245   2.606   7.834 -0.2167  0.4695 -1.8140
 8444SOL    HW236795   3.308   2.738   7.847 -1.0018 -0.5276  1.6635
 8445SOL     OW36796   2.171   1.710   1.659 -0.1632 -0.2630  0.1557
 8445SOL    HW136797   2.085   1.749   1.645 -0.2831 -0.7725 -0.5342
 8445SOL    HW236798   2.186   1.654   1.583  0.8304  0.3452 -0.0884
 8446SOL     OW36799   3.262   0.745   2.315  0.6676  0.1110 -0.2467
 8446SOL    HW136800   3.265   0.741   2.411  0.1882  1.1900 -0.1926
 8446SOL    HW236801   3.169   0.763   2.305 -0.0657 -1.9200  3.0872
 8447SOL     OW36802   2.729   4.659   5.918 -0.0714 -0.2198  0.1405
 8447SOL    HW136803   2.718   0.012   5.868 -0.4352 -0.5068 -0.2455
 8447SOL    HW236804   2.663   4.669   5.986 -0.0680  0.4585  0.0427
 8448SOL     OW36805   0.435   0.839   5.954 -0.1004  0.1657  0.4187
 8448SOL    HW136806   0.498   0.858   5.885 -2.5659 -0.4048 -2.0091
 8448SOL    HW236807   0.418   0.747   5.936 -0.8281  0.1905  0.9699
 8449SOL     OW36808   2.929   0.546   3.531  0.6546  0.4792 -0.3033
 8449SOL    HW136809   2.937   0.634   3.569 -0.6479  1.4147 -2.2020
 8449SOL    HW236810   3.011   0.517   3.570  1.9848 -0.2629 -3.6117
 8450SOL     OW36811   0.159   1.393   1.438 -0.4439 -0.3314 -0.8062
 8450SOL    HW136812   0.198   1.466   1.390 -1.0274  1.8582  2.0308
 8450SOL    HW236813   0.073   1.433   1.448 -0.2248  0.2221 -1.1874
 8451SOL     OW36814   0.787   3.726   7.169 -0.9891  0.4859  0.5396
 8451SOL    HW136815   0.874   3.692   7.149 -2.3920 -1.2108 -2.6278
 8451SOL    HW236816   0.800   3.819   7.188 -0.9034  1.0991 -2.6448
 8452SOL     OW36817   2.189   2.739   9.376 -0.0014 -0.4142  0.6296
 8452SOL    HW136818   2.137   2.661   9.360  0.1403 -0.5824  0.9920
 8452SOL    HW236819   2.120   2.803   9.395 -0.1699 -0.5182  0.3648
 8453SOL     OW36820   0.147   3.064   6.506  0.2385 -0.5173 -0.4699
 8453SOL    HW136821   0.121   2.975   6.483  1.1168 -0.4577 -1.6957
 8453SOL    HW236822   0.091   3.066   6.583  1.3965  0.0313  0.3515
 8454SOL     OW36823   0.592   0.957   3.754  0.0789  0.2728 -0.4894
 8454SOL    HW136824   0.668   0.940   3.811 -0.0139  1.0144 -0.1441
 8454SOL    HW236825   0.597   1.049   3.728  0.4152  0.1261 -0.9285
 8455SOL     OW36826   1.038   1.050   7.597 -0.5640 -0.1627  0.2097
 8455SOL    HW136827   1.082   0.972   7.566  0.7328  0.4871  0.4392
 8455SOL    HW236828   0.960   1.057   7.541  0.6609  1.6285 -1.2608
 8456SOL     OW36829   0.093   3.064  10.055  0.3328  0.1215 -0.1498
 8456SOL    HW136830   0.179   3.092  10.087  0.8741  0.0772 -1.5454
 8456SOL    HW236831   0.112   2.970  10.057 -1.5821 -0.2919 -1.4929
 8457SOL     OW36832   2.948   2.224   8.662  0.3768 -0.1969 -0.5140
 8457SOL    HW136833   3.036   2.254   8.639  1.1049 -1.2591  0.8413
 8457SOL    HW236834   2.907   2.310   8.675 -0.5142 -0.7162  0.1238
 8458SOL     OW36835   4.271   1.019   5.253  0.1230  0.1591 -0.0408
 8458SOL    HW136836   4.188   0.980   5.228  0.4886  0.5072 -1.7518
 8458SOL    HW236837   4.277   0.985   5.343 -0.5144 -0.3050 -0.1783
 8459SOL     OW36838   4.370   1.888   6.201 -0.3145 -0.1353 -0.1067
 8459SOL    HW136839   4.349   1.965   6.148 -0.7363  0.7641  1.3370
 8459SOL    HW236840   4.463   1.904   6.215 -0.2983  0.3333 -0.7513
 8460SOL     OW36841   3.001   3.334   4.681  0.7820  0.2666 -0.0281
 8460SOL    HW136842   3.083   3.285   4.677 -0.0086 -1.1552  0.9820
 8460SOL    HW236843   3.023   3.413   4.631 -1.4740 -1.0581 -3.1085
 8461SOL     OW36844   3.890   3.840  17.513  0.2822 -0.8897  0.4954
 8461SOL    HW136845   3.838   3.921  17.505  2.1403  0.2740  0.1535
 8461SOL    HW236846   3.821   3.784  17.476  0.0083 -1.0803  1.3085
 8462SOL     OW36847   2.340   3.769  14.945  0.0011  0.1028 -0.2829
 8462SOL    HW136848   2.355   3.860  14.920 -0.8105  0.4337  0.4375
 8462SOL    HW236849   2.425   3.726  14.933  2.2411  4.4520 -0.1251
 8463SOL     OW36850   1.438   2.209  11.676 -0.4642  0.4037  1.0431
 8463SOL    HW136851   1.360   2.266  11.679  0.0395  1.2902 -2.7567
 8463SOL    HW236852   1.398   2.126  11.651  2.4005 -1.2073  1.7960
 8464SOL     OW36853   4.069   1.825   9.567 -1.2061  1.1582 -0.0245
 8464SOL    HW136854   3.997   1.839   9.506 -3.1404 -3.6285  1.1878
 8464SOL    HW236855   4.090   1.917   9.583 -1.1847  1.0658  0.4761
 8465SOL     OW36856   2.751   2.461   4.929 -0.0708  0.2796  0.0098
 8465SOL    HW136857   2.726   2.479   5.019 -0.7763 -0.4014 -0.0517
 8465SOL    HW236858   2.764   2.548   4.889  1.0993  0.6591  1.1934
 8466SOL     OW36859   3.697   1.671   2.270  0.1179 -0.1505 -0.1538
 8466SOL    HW136860   3.630   1.735   2.295  2.3901  2.1185  0.1976
 8466SOL    HW236861   3.719   1.699   2.181  1.5452  1.8617  0.8140
 8467SOL     OW36862   3.371   1.075   6.190 -0.1615  0.3328 -0.1660
 8467SOL    HW136863   3.415   1.156   6.164  0.2875  0.0041 -0.4152
 8467SOL    HW236864   3.281   1.097   6.168 -0.0320 -0.2840 -1.2722
 8468SOL     OW36865   1.335   3.230   9.266 -0.2474 -0.0216 -0.2381
 8468SOL    HW136866   1.254   3.281   9.278  0.2430  0.5103  0.7888
 8468SOL    HW236867   1.316   3.182   9.186 -2.4211 -0.9947  0.8424
 8469SOL     OW36868   2.991   0.447   9.366  0.2163 -0.5969 -0.4615
 8469SOL    HW136869   3.057   0.498   9.414 -1.0217 -0.4376  1.0803
 8469SOL    HW236870   3.037   0.364   9.375 -0.5725 -1.0645 -0.7109
 8470SOL     OW36871   4.132   1.627  14.735  0.5422  0.0264 -0.6758
 8470SOL    HW136872   4.166   1.717  14.736  3.9685 -1.2801  0.5661
 8470SOL    HW236873   4.191   1.581  14.795  0.1123 -0.3719 -0.5636
 8471SOL     OW36874   2.009   2.819   1.889  0.6903  0.7280 -0.0643
 8471SOL    HW136875   1.975   2.730   1.900  1.0646  0.8809  2.3384
 8471SOL    HW236876   2.040   2.822   1.799 -1.2639 -1.2644 -0.8100
 8472SOL     OW36877   0.912   3.094   1.288  0.2126  0.1178  0.1108
 8472SOL    HW136878   0.928   3.100   1.382  0.4632  0.7904  0.0231
 8472SOL    HW236879   0.848   3.166   1.286  3.9099  3.3802  0.1866
 8473SOL     OW36880   2.526   2.383   7.367  0.5816  0.0913 -0.1700
 8473SOL    HW136881   2.493   2.305   7.411 -0.3473  1.3617  1.3785
 8473SOL    HW236882   2.499   2.375   7.276  2.2341 -0.1820 -0.6474
 8474SOL     OW36883   2.972   2.145   2.952 -0.7090  0.5609  0.5526
 8474SOL    HW136884   2.934   2.060   2.974 -0.0892 -0.3567 -1.9857
 8474SOL    HW236885   2.907   2.208   2.986 -0.4631  0.6797  0.8063
 8475SOL     OW36886   4.489   1.635   7.075 -0.3052  0.7512  0.2636
 8475SOL    HW136887   4.481   1.624   7.170 -0.2567  2.0268  0.4139
 8475SOL    HW236888   4.483   1.543   7.049 -0.8554  1.1330 -0.9564
 8476SOL     OW36889   3.044   1.590   3.551 -0.1371  0.1610  0.6454
 8476SOL    HW136890   2.960   1.546   3.563 -0.6954  1.3049  0.8958
 8476SOL    HW236891   3.031   1.659   3.616  2.2150 -1.4662  2.8719
 8477SOL     OW36892   0.190   1.781   5.146 -0.4736  0.3265  0.1470
 8477SOL    HW136893   0.265   1.736   5.109 -1.6966 -0.2039 -1.6900
 8477SOL    HW236894   0.116   1.740   5.101  0.3077  0.1971 -1.0089
 8478SOL     OW36895   2.350   4.156  11.174 -0.5371  0.2939 -0.2418
 8478SOL    HW136896   2.398   4.238  11.181  0.4460 -0.2047 -1.2646
 8478SOL    HW236897   2.260   4.190  11.174 -1.0091 -0.9382  0.7036
 8479SOL     OW36898   0.250   3.511   8.180 -0.1123  0.1773 -0.1802
 8479SOL    HW136899   0.267   3.573   8.109 -1.5613  1.4205  0.5683
 8479SOL    HW236900   0.328   3.456   8.170  0.7320  0.9040  2.2917
 8480SOL     OW36901   0.334   0.602   3.208 -0.1847 -0.0281 -0.0335
 8480SOL    HW136902   0.358   0.522   3.256 -0.8338  0.0422  0.4094
 8480SOL    HW236903   0.292   0.571   3.128 -3.3193 -0.6376  1.8448
 8481SOL     OW36904   3.227   3.954   5.555  1.0883  0.2687  0.0237
 8481SOL    HW136905   3.220   3.897   5.478  1.6104  2.7698 -1.8856
 8481SOL    HW236906   3.288   3.897   5.602 -1.4794 -2.6053 -0.1444
 8482SOL     OW36907   0.768   1.792  12.651 -0.3882 -0.4877 -0.7230
 8482SOL    HW136908   0.687   1.741  12.660 -0.0755 -1.0169 -0.8935
 8482SOL    HW236909   0.743   1.884  12.647 -1.1939 -0.6118  1.9783
 8483SOL     OW36910   3.537   1.821  10.269 -0.1322 -0.2593  0.6953
 8483SOL    HW136911   3.552   1.742  10.322  1.2752 -2.4008 -2.8911
 8483SOL    HW236912   3.496   1.873  10.337 -1.7574  0.9359 -1.2220
 8484SOL     OW36913   0.407   0.048   5.045 -0.4276 -0.5107 -0.8131
 8484SOL    HW136914   0.367   0.065   4.960  0.4151 -1.2431 -1.3565
 8484SOL    HW236915   0.496   0.081   5.035 -0.2916 -0.8728 -0.7936
 8485SOL     OW36916   3.609   3.786  14.187  0.2310  0.2726  0.2212
 8485SOL    HW136917   3.519   3.763  14.166  0.5774  0.4828 -1.4323
 8485SOL    HW236918   3.614   3.731  14.266  1.6170  0.4726  0.2605
 8486SOL     OW36919   3.374   2.785   5.000  0.1813 -0.3619  0.0192
 8486SOL    HW136920   3.443   2.834   4.956 -0.3640 -0.8016 -1.3212
 8486SOL    HW236921   3.385   2.696   4.967 -1.7842 -0.3838 -0.5664
 8487SOL     OW36922   4.091   2.158   3.841  0.5754 -0.6018 -0.6849
 8487SOL    HW136923   4.181   2.144   3.869  0.0830 -0.4693  0.9937
 8487SOL    HW236924   4.037   2.118   3.909  1.1628  0.5709  0.4644
 8488SOL     OW36925   3.277   3.878  10.886 -0.5054 -0.3966 -0.3229
 8488SOL    HW136926   3.289   3.855  10.794  2.2798 -0.1064 -0.0516
 8488SOL    HW236927   3.332   3.813  10.929  1.3982  0.9975 -0.6107
 8489SOL     OW36928   3.077   3.243   5.484 -0.3008 -0.0810 -0.1812
 8489SOL    HW136929   3.107   3.229   5.573  0.3192 -2.2427 -0.7201
 8489SOL    HW236930   3.153   3.212   5.433 -1.2042  0.1032 -1.6548
 8490SOL     OW36931   0.113   0.975   6.061  0.5433  0.2081 -0.2655
 8490SOL    HW136932   0.188   1.017   6.103  0.3233  1.5939 -1.2805
 8490SOL    HW236933   0.136   0.977   5.969  0.5075  0.0352 -0.2787
 8491SOL     OW36934   2.423   2.576   1.686  0.2394 -0.1563  0.3564
 8491SOL    HW136935   2.452   2.525   1.761 -1.3979 -0.5861  0.7055
 8491SOL    HW236936   2.428   2.657   1.736 -0.2070 -0.4839  0.9378
 8492SOL     OW36937   3.623   0.556  17.218 -0.7004  0.5984 -0.7015
 8492SOL    HW136938   3.586   0.467  17.213  0.0749  0.2935 -0.8736
 8492SOL    HW236939   3.565   0.587  17.288  0.2001 -0.6850  0.6070
 8493SOL     OW36940   0.470   0.113   3.067  0.3696  0.0460 -0.4827
 8493SOL    HW136941   0.512   0.050   3.126 -0.8985 -2.9358 -2.7799
 8493SOL    HW236942   0.391   0.134   3.116  0.9611  2.4053 -0.5444
 8494SOL     OW36943   0.820   2.921  15.769 -0.0211  0.0624 -0.1352
 8494SOL    HW136944   0.907   2.913  15.810 -0.7744 -0.5423  1.3702
 8494SOL    HW236945   0.847   2.909  15.678 -1.6414 -0.6919 -0.5093
 8495SOL     OW36946   2.906   3.987   3.414 -0.0324  0.1235  0.4748
 8495SOL    HW136947   2.850   3.946   3.480 -2.1568  0.1313 -1.3326
 8495SOL    HW236948   2.864   3.968   3.330  0.5583 -0.5200  0.3252
 8496SOL     OW36949   2.303   4.061  13.384  0.1632 -0.0496  0.3600
 8496SOL    HW136950   2.240   4.126  13.417 -0.7310 -0.5082 -0.4420
 8496SOL    HW236951   2.241   4.022  13.322  1.4615 -1.1690 -0.2195
 8497SOL     OW36952   2.458   0.065   4.176 -0.3396 -0.0629 -1.1947
 8497SOL    HW136953   2.365   0.070   4.198 -1.1155 -2.2309 -3.9231
 8497SOL    HW236954   2.460   0.094   4.085 -0.7271  1.1820 -0.8078
 8498SOL     OW36955   3.370   2.697   4.098  0.0104  1.1988 -0.2072
 8498SOL    HW136956   3.357   2.685   4.192  2.1136  2.0217  0.1811
 8498SOL    HW236957   3.294   2.652   4.061  1.4291 -1.7593  0.4715
 8499SOL     OW36958   4.654   3.279   6.280 -0.5152  0.4140 -0.1846
 8499SOL    HW136959   4.706   3.355   6.254 -1.0287  0.3939 -1.2696
 8499SOL    HW236960   4.611   3.249   6.200 -1.2210 -2.0945  1.1461
 8500SOL     OW36961   1.124   2.043  10.339 -0.4409  0.0715  0.3440
 8500SOL    HW136962   1.172   1.961  10.329 -3.0292 -1.1706 -2.0393
 8500SOL    HW236963   1.168   2.084  10.413  2.0077  0.7682 -1.5153
 8501SOL     OW36964   1.240   1.644   4.421 -0.3115  0.5453  0.0007
 8501SOL    HW136965   1.158   1.625   4.466 -0.1087  2.0699  1.0175
 8501SOL    HW236966   1.240   1.740   4.420 -1.9271  0.5315 -0.2061
 8502SOL     OW36967   0.239   1.257  12.993  0.3445  0.1620  0.3839
 8502SOL    HW136968   0.234   1.296  12.906  0.4992  2.7762  1.5614
 8502SOL    HW236969   0.281   1.332  13.035  0.8235 -0.3833  0.8833
 8503SOL     OW36970   0.327   1.264   3.788  0.0150  0.0912  0.5363
 8503SOL    HW136971   0.330   1.355   3.817  0.6329  0.0475  0.6053
 8503SOL    HW236972   0.235   1.239   3.792 -0.5429  1.8078 -1.4160
 8504SOL     OW36973   4.241   1.557   2.088  0.4842 -0.7675  0.1745
 8504SOL    HW136974   4.145   1.564   2.085  0.5942  2.0655  3.3950
 8504SOL    HW236975   4.263   1.594   2.003  1.7208  1.1658  1.3367
 8505SOL     OW36976   0.812   3.975   5.351 -0.2522 -0.1049  0.6108
 8505SOL    HW136977   0.849   4.003   5.434 -0.6800  0.5859  0.5694
 8505SOL    HW236978   0.885   3.999   5.294 -0.6285 -0.5719 -0.0703
 8506SOL     OW36979   3.371   4.359   9.481  0.0096  0.2087  0.8276
 8506SOL    HW136980   3.281   4.383   9.459 -0.0326 -2.6670 -2.2521
 8506SOL    HW236981   3.421   4.440   9.483 -0.6532  0.6312  0.1335
 8507SOL     OW36982   2.408   3.503   4.616  1.0025  0.1213  0.3595
 8507SOL    HW136983   2.486   3.476   4.568  0.9682 -1.6555  1.2937
 8507SOL    HW236984   2.446   3.463   4.694 -0.3931 -0.2234  0.8767
 8508SOL     OW36985   0.449   2.293   3.305 -0.0882  0.0483 -0.4295
 8508SOL    HW136986   0.544   2.304   3.306 -0.1490  0.4143  1.1701
 8508SOL    HW236987   0.445   2.217   3.248  3.8898  0.1448 -0.8577
 8509SOL     OW36988   0.371   1.591   4.575 -0.1420  0.1580 -0.9287
 8509SOL    HW136989   0.298   1.538   4.608 -0.3558  1.0884  0.0981
 8509SOL    HW236990   0.341   1.677   4.605  1.8333  0.7807 -0.7667
 8510SOL     OW36991   0.664   3.410  14.649  0.4706 -0.8546  0.0931
 8510SOL    HW136992   0.703   3.371  14.728  0.1956 -1.3448 -0.0087
 8510SOL    HW236993   0.744   3.418  14.597  0.0802  0.0766 -0.3505
 8511SOL     OW36994   3.396   2.593  17.507  0.6567 -0.2397  0.1913
 8511SOL    HW136995   3.431   2.612  17.420 -0.2847 -0.0783 -0.1627
 8511SOL    HW236996   3.389   2.682  17.543 -0.0326 -0.6939  1.1724
 8512SOL     OW36997   0.673   0.944   4.762 -0.0667  0.3361 -0.1638
 8512SOL    HW136998   0.642   0.907   4.679 -1.1010  3.0882 -1.0131
 8512SOL    HW236999   0.647   1.036   4.759  0.9894  0.6821  1.3630
 8513SOL     OW37000   0.189   2.526   3.977  0.2555 -0.1787  0.0542
 8513SOL    HW137001   0.161   2.435   3.980 -2.4051  0.5843 -1.2711
 8513SOL    HW237002   0.108   2.561   3.939  0.4388  0.8352  0.6088
 8514SOL     OW37003   3.177   4.223   6.048  0.3908 -0.2164  0.2616
 8514SOL    HW137004   3.184   4.181   5.962 -0.1869  0.2437 -0.0132
 8514SOL    HW237005   3.143   4.307   6.018  1.1338  0.1845  0.5522
 8515SOL     OW37006   4.156   0.858   1.494  0.0829  0.0178  0.4365
 8515SOL    HW137007   4.162   0.912   1.415 -0.9452  2.5574  2.0798
 8515SOL    HW237008   4.210   0.784   1.469  3.1922  2.6411 -0.5109
 8516SOL     OW37009   0.754   0.549  17.500 -0.0367  0.3369  0.0830
 8516SOL    HW137010   0.800   0.480  17.451  1.0057  0.2292  1.2244
 8516SOL    HW237011   0.772   0.539  17.593  2.5467  0.9499 -0.3494
 8517SOL     OW37012   1.727   2.255   8.199  0.3453 -0.0521 -0.4000
 8517SOL    HW137013   1.800   2.196   8.179  1.6854  0.7253  2.1205
 8517SOL    HW237014   1.662   2.202   8.245 -0.1394  0.9927  0.1339
 8518SOL     OW37015   4.177   2.580   5.901  0.1423  0.0326  0.2314
 8518SOL    HW137016   4.143   2.547   5.818 -2.2092 -1.5975  1.8533
 8518SOL    HW237017   4.192   2.673   5.883  0.6295 -0.4386 -1.7355
 8519SOL     OW37018   4.724   1.685   4.977  0.2664  0.0425 -0.4244
 8519SOL    HW137019   4.677   1.601   4.977 -0.9264  0.7130 -0.4291
 8519SOL    HW237020   4.702   1.718   4.890 -1.8954 -0.4671 -0.0590
 8520SOL     OW37021   1.960   2.280   7.567  0.0738 -0.2636 -0.2963
 8520SOL    HW137022   1.873   2.314   7.547  1.1004  1.6258 -1.6824
 8520SOL    HW237023   1.962   2.272   7.662 -1.9259  3.3250  0.0791
 8521SOL     OW37024   3.900   2.568  15.557 -0.0536  0.2359  0.0605
 8521SOL    HW137025   3.934   2.513  15.629  1.2076  0.4060 -0.3975
 8521SOL    HW237026   3.807   2.572  15.578  0.6263 -1.4414  3.3862
 8522SOL     OW37027   2.560   2.107  13.069  0.0503 -0.1215 -0.0441
 8522SOL    HW137028   2.594   2.122  12.981 -0.1081  0.1473 -0.0589
 8522SOL    HW237029   2.478   2.064  13.042 -0.9879  1.6016  0.4048
 8523SOL     OW37030   1.930   2.065  12.735  0.0034  0.6794  0.5345
 8523SOL    HW137031   1.928   1.997  12.803 -0.7698 -0.0717 -0.2372
 8523SOL    HW237032   1.877   2.127  12.784  1.1451 -0.8229  3.6698
 8524SOL     OW37033   2.886   0.150   7.877 -0.3235  0.2006 -0.2347
 8524SOL    HW137034   2.796   0.148   7.908 -0.4100  0.0620 -0.4986
 8524SOL    HW237035   2.916   0.068   7.915 -3.5958  0.4930  2.9278
 8525SOL     OW37036   3.624   1.037   6.773  0.0226  0.0718  0.3827
 8525SOL    HW137037   3.628   0.947   6.803  2.1748 -0.3498 -1.1642
 8525SOL    HW237038   3.574   1.069   6.848  1.2990  0.8927  0.8715
 8526SOL     OW37039   1.753   3.383  11.619  0.1793 -0.2532  0.4391
 8526SOL    HW137040   1.715   3.407  11.534  2.8777 -0.7708 -0.9212
 8526SOL    HW237041   1.845   3.410  11.614  0.3623 -0.7476  1.0501
 8527SOL     OW37042   1.291   3.440   2.206 -0.1416  0.1024 -0.0714
 8527SOL    HW137043   1.380   3.408   2.190  0.2887  0.8802  0.7612
 8527SOL    HW237044   1.246   3.358   2.225 -0.9312  0.1016 -1.9474
 8528SOL     OW37045   4.150   1.868   7.853  0.5458  0.3554  0.0323
 8528SOL    HW137046   4.057   1.849   7.842  0.3179 -1.0289  4.1648
 8528SOL    HW237047   4.141   1.904   7.942 -0.1092 -1.7163  0.8042
 8529SOL     OW37048   3.804   2.468   5.032 -0.3668 -0.1941  0.4025
 8529SOL    HW137049   3.826   2.558   5.007  1.2216 -0.7809 -0.3173
 8529SOL    HW237050   3.765   2.438   4.950  0.7333 -0.4438 -0.0340
 8530SOL     OW37051   2.304   0.011  11.957 -0.1219  0.0827 -0.0081
 8530SOL    HW137052   2.326   4.646  11.958  0.8835  0.3387  1.5253
 8530SOL    HW237053   2.311   0.037  12.048 -2.9825  0.1318  0.2060
 8531SOL     OW37054   2.978   3.266   3.508  0.2087 -0.3602 -0.0183
 8531SOL    HW137055   3.030   3.260   3.589  0.8015  1.5011 -0.2552
 8531SOL    HW237056   2.982   3.361   3.498 -1.3834 -0.4478 -1.3961
 8532SOL     OW37057   2.710   2.625   5.497 -0.0325  0.1668  0.2117
 8532SOL    HW137058   2.622   2.633   5.459 -0.3587 -1.1870  0.7080
 8532SOL    HW237059   2.735   2.708   5.538  1.3948  0.0207 -0.3768
 8533SOL     OW37060   0.021   1.717   7.217 -0.4393  0.2625  0.4211
 8533SOL    HW137061   0.023   1.736   7.311 -0.9543  1.3961  0.2008
 8533SOL    HW237062   4.680   1.652   7.207  1.5517 -2.4286  4.0171
 8534SOL     OW37063   0.471   1.884   7.587 -0.1377  0.6735 -0.9704
 8534SOL    HW137064   0.408   1.842   7.530  0.5330  1.6003 -2.3903
 8534SOL    HW237065   0.494   1.957   7.530  0.0876  0.5015 -1.0986
 8535SOL     OW37066   3.840   1.793  12.931  0.0226  0.1163  0.1180
 8535SOL    HW137067   3.899   1.731  12.974 -0.4086  0.1170  0.7102
 8535SOL    HW237068   3.758   1.774  12.976  0.7338  1.0587  1.8431
 8536SOL     OW37069   2.857   2.253  14.315  0.2669  0.5733  0.3063
 8536SOL    HW137070   2.903   2.335  14.297  0.8710  0.0678 -0.4714
 8536SOL    HW237071   2.936   2.201  14.325 -0.2218 -0.0608  0.8871
 8537SOL     OW37072   2.714   3.515  14.609 -0.6013  0.2007 -0.1419
 8537SOL    HW137073   2.667   3.595  14.634  0.5975  1.6237 -2.4977
 8537SOL    HW237074   2.727   3.540  14.518 -0.2476 -0.9728 -0.4112
 8538SOL     OW37075   2.228   3.989   3.210 -0.0228  0.1514  0.2130
 8538SOL    HW137076   2.274   4.073   3.215  0.0541  0.0474  1.1968
 8538SOL    HW237077   2.142   4.031   3.203  0.3162  0.4589 -2.0896
 8539SOL     OW37078   1.020   1.709  12.609 -0.1376  0.2879  0.5012
 8539SOL    HW137079   0.931   1.737  12.631 -0.9054 -1.4412 -0.4341
 8539SOL    HW237080   1.022   1.621  12.572 -2.9564  1.4673 -2.4994
 8540SOL     OW37081   2.691   3.456  11.209 -0.4864  0.4189 -0.4276
 8540SOL    HW137082   2.602   3.439  11.181 -1.1557  0.0473  1.8636
 8540SOL    HW237083   2.677   3.473  11.303 -0.4169  1.9306 -0.6846
 8541SOL     OW37084   2.087   3.668   2.597 -0.7114  0.0729  0.0633
 8541SOL    HW137085   2.124   3.661   2.509  1.3462 -1.8259  1.0744
 8541SOL    HW237086   2.163   3.685   2.653 -0.3999 -1.4263  0.0883
 8542SOL     OW37087   3.294   2.452  10.579  0.0367  0.0386 -0.1043
 8542SOL    HW137088   3.304   2.529  10.524 -0.3567  0.6791  0.7114
 8542SOL    HW237089   3.354   2.474  10.651  0.5207 -0.4983 -0.3494
 8543SOL     OW37090   3.863   0.115   8.370 -0.0745  0.0662 -0.0500
 8543SOL    HW137091   3.881   0.065   8.290  0.4730 -1.8728  1.2803
 8543SOL    HW237092   3.920   0.189   8.350  0.0524  0.0941  0.4210
 8544SOL     OW37093   3.470   2.218   1.479  0.2064  0.9744  0.2995
 8544SOL    HW137094   3.534   2.192   1.413 -0.3109 -0.2950  0.2818
 8544SOL    HW237095   3.509   2.301   1.505 -0.9760  0.5736  3.4077
 8545SOL     OW37096   1.961   1.972  13.885 -0.2174 -0.0265 -0.1199
 8545SOL    HW137097   1.940   1.928  13.968  2.1937  1.0554  1.0531
 8545SOL    HW237098   2.051   1.941  13.883  0.1830  1.1482 -0.0957
 8546SOL     OW37099   1.402   1.009   0.292 -0.0596 -0.3009 -0.2620
 8546SOL    HW137100   1.373   0.996   0.382  1.4309 -0.6349  0.1859
 8546SOL    HW237101   1.463   0.934   0.291  0.9196  0.4703  1.2591
 8547SOL     OW37102   0.318   1.855   4.464  0.1560  0.2482 -0.2890
 8547SOL    HW137103   0.233   1.828   4.430  0.7011 -1.3637 -0.3721
 8547SOL    HW237104   0.373   1.826   4.391 -0.5925  0.6610 -1.0114
 8548SOL     OW37105   1.614   3.832   3.020 -0.4466 -0.3099 -0.0981
 8548SOL    HW137106   1.563   3.863   3.095  0.2989  0.1354  0.2192
 8548SOL    HW237107   1.613   3.737   3.035 -1.7575 -0.0689  1.3463
 8549SOL     OW37108   3.220   0.443  10.538 -0.5690 -0.1887 -0.3274
 8549SOL    HW137109   3.219   0.491  10.455 -2.0235 -1.3566 -0.9983
 8549SOL    HW237110   3.211   0.357  10.497 -0.4055 -1.1501  1.6963
 8550SOL     OW37111   1.575   1.057   6.657  0.6340  0.0925  0.4990
 8550SOL    HW137112   1.638   0.988   6.632  1.0609 -0.4342  3.0094
 8550SOL    HW237113   1.631   1.134   6.664  0.1836  0.5866 -1.3201
 8551SOL     OW37114   1.548   1.167  10.648  0.2115 -0.0090  0.0620
 8551SOL    HW137115   1.573   1.075  10.637  3.6879  0.8042  1.2340
 8551SOL    HW237116   1.563   1.185  10.741 -0.7220 -1.9198  0.5844
 8552SOL     OW37117   2.532   2.698  13.580  0.5934 -0.0127  0.0206
 8552SOL    HW137118   2.545   2.791  13.596 -0.5656 -0.2720  2.4810
 8552SOL    HW237119   2.623   2.672  13.565  0.7835  0.0133  1.1775
 8553SOL     OW37120   4.672   0.405   6.562  0.3994  0.1291 -0.1472
 8553SOL    HW137121   4.695   0.445   6.645 -1.5007  3.5789 -1.2831
 8553SOL    HW237122   4.674   0.311   6.578  0.1296 -0.3849 -3.1125
 8554SOL     OW37123   1.961   2.779   0.373  0.4325 -0.0891 -0.2668
 8554SOL    HW137124   2.054   2.796   0.388 -0.3447  1.4812  2.7783
 8554SOL    HW237125   1.911   2.834   0.434 -0.3897 -0.8582 -0.2386
 8555SOL     OW37126   1.004   0.455   6.517 -0.8823  0.1091  0.3470
 8555SOL    HW137127   1.071   0.395   6.486 -1.2924  0.2817 -0.9205
 8555SOL    HW237128   0.954   0.461   6.435  0.5696  0.2475 -0.5393
 8556SOL     OW37129   3.369   0.661   2.956  0.2831 -0.0786  0.4483
 8556SOL    HW137130   3.362   0.669   3.051 -2.8030 -0.1411  0.2118
 8556SOL    HW237131   3.323   0.578   2.942  1.9697 -1.1266  1.0833
 8557SOL     OW37132   4.195   3.707  12.041  0.5257 -0.5017 -0.4942
 8557SOL    HW137133   4.152   3.702  12.127 -0.8402  0.4304 -1.1200
 8557SOL    HW237134   4.288   3.712  12.064  0.3868 -0.2116 -0.0015
 8558SOL     OW37135   2.549   4.093   8.538 -0.2901 -0.9094  0.0287
 8558SOL    HW137136   2.632   4.098   8.491  0.2811  0.8766  1.2253
 8558SOL    HW237137   2.577   4.108   8.629  0.8696 -0.8707 -0.3438
 8559SOL     OW37138   3.116   4.124   4.816  0.5581  0.4469 -0.2840
 8559SOL    HW137139   3.021   4.127   4.801  0.6767  1.4988 -0.8115
 8559SOL    HW237140   3.122   4.172   4.898  1.7093 -0.7207  0.3121
 8560SOL     OW37141   2.467   2.694   5.114  0.9997 -0.2599 -0.1445
 8560SOL    HW137142   2.525   2.619   5.125  2.0102  0.7551  1.5301
 8560SOL    HW237143   2.452   2.684   5.020  1.1434  1.0303 -0.3118
 8561SOL     OW37144   2.127   0.730   6.133 -0.3357 -0.1221  0.4551
 8561SOL    HW137145   2.061   0.798   6.118 -0.3203 -0.4453 -1.1626
 8561SOL    HW237146   2.092   0.689   6.212 -2.1798 -1.0648 -0.8511
 8562SOL     OW37147   0.302   4.421   9.408 -0.2227  0.4444 -0.4793
 8562SOL    HW137148   0.289   4.389   9.497 -0.8415 -2.6609 -1.6633
 8562SOL    HW237149   0.372   4.485   9.418 -0.6605  0.8016  0.2371
 8563SOL     OW37150   1.213   0.618   5.316  0.0148  0.5619  0.4106
 8563SOL    HW137151   1.272   0.629   5.241 -1.5756 -2.2358 -1.2553
 8563SOL    HW237152   1.257   0.684   5.370 -0.5091  0.8305  0.4987
 8564SOL     OW37153   0.930   1.979  12.520  0.5472 -0.2385 -0.1249
 8564SOL    HW137154   0.940   1.883  12.516 -0.8406 -0.3756 -0.1267
 8564SOL    HW237155   0.899   1.996  12.431  0.1360 -0.2543  0.0141
 8565SOL     OW37156   0.123   4.055   9.224  0.6932 -0.1194 -0.0672
 8565SOL    HW137157   0.204   4.107   9.231  2.2038 -2.7980  2.2172
 8565SOL    HW237158   0.121   4.047   9.128  0.1037  0.1394 -0.0713
 8566SOL     OW37159   3.764   1.267   3.369  0.2457  0.3919 -0.6706
 8566SOL    HW137160   3.832   1.259   3.302  0.9398 -0.3261  0.1032
 8566SOL    HW237161   3.738   1.176   3.385 -0.7788  0.8871  0.4472
 8567SOL     OW37162   3.487   2.441   8.586  0.3953  0.0301  0.1604
 8567SOL    HW137163   3.527   2.396   8.512  1.1152  3.0757 -1.3016
 8567SOL    HW237164   3.522   2.386   8.657  0.3127  4.0362  3.3023
 8568SOL     OW37165   2.827   1.233   5.901 -0.3585  0.1969 -0.2507
 8568SOL    HW137166   2.802   1.310   5.851  1.2538  0.7455 -0.2242
 8568SOL    HW237167   2.880   1.189   5.834 -1.1746 -0.5929 -0.3700
 8569SOL     OW37168   2.693   0.880   5.542  0.2282 -0.7689 -0.4332
 8569SOL    HW137169   2.649   0.857   5.461  1.4394  1.3883 -1.6994
 8569SOL    HW237170   2.711   0.799   5.590 -0.6904 -1.4034 -1.1527
 8570SOL     OW37171   0.799   2.151   5.038 -0.8534 -0.7357  0.1529
 8570SOL    HW137172   0.835   2.161   4.950  0.2981 -1.0409  0.5844
 8570SOL    HW237173   0.874   2.128   5.093 -0.7985  0.5457  0.6001
 8571SOL     OW37174   0.004   3.984   3.107  0.0831  0.2146 -0.2008
 8571SOL    HW137175   4.722   3.908   3.164  1.3652  1.4498  1.6688
 8571SOL    HW237176   0.045   3.942   3.031  0.8323  1.3159 -0.4154
 8572SOL     OW37177   3.002   1.667  11.576  0.4976 -0.0788  0.3510
 8572SOL    HW137178   2.966   1.626  11.498 -1.4756 -0.5306  1.4787
 8572SOL    HW237179   2.964   1.610  11.644 -1.2123  0.0694 -0.4662
 8573SOL     OW37180   2.876   3.826   5.343 -0.2823  0.7480  0.3841
 8573SOL    HW137181   2.852   3.820   5.436 -0.6582 -1.6416  0.1298
 8573SOL    HW237182   2.801   3.790   5.296 -0.5421  0.2966  1.1316
 8574SOL     OW37183   2.645   2.293   3.772  0.0119 -0.1971 -0.8238
 8574SOL    HW137184   2.627   2.202   3.797  1.0875 -0.0247  0.5398
 8574SOL    HW237185   2.607   2.336   3.848 -0.4711  0.8183 -1.6454
 8575SOL     OW37186   1.473   4.526   2.426  0.4499  0.3262 -0.4026
 8575SOL    HW137187   1.566   4.514   2.446  0.7679  0.8444 -1.5672
 8575SOL    HW237188   1.428   4.490   2.503  1.8308 -0.4904  0.0228
 8576SOL     OW37189   3.074   0.413   5.588 -0.0797 -0.4731 -0.0733
 8576SOL    HW137190   3.061   0.472   5.663  1.9111 -0.6022  0.3689
 8576SOL    HW237191   3.020   0.344   5.627  1.8679 -2.5343 -1.0703
 8577SOL     OW37192   4.540   2.616   1.847 -0.2951  0.5527  0.2777
 8577SOL    HW137193   4.547   2.711   1.856 -0.8675  0.9744 -3.6953
 8577SOL    HW237194   4.597   2.599   1.772  1.7354 -1.7824  2.3395
 8578SOL     OW37195   0.785   4.274   6.065  0.0031  0.3162 -0.1145
 8578SOL    HW137196   0.878   4.269   6.087 -0.6588  0.1337  2.5572
 8578SOL    HW237197   0.765   4.198   6.010  0.4044  0.5424 -0.5769
 8579SOL     OW37198   0.254   3.176  10.986 -0.3980 -0.1259 -0.5060
 8579SOL    HW137199   0.277   3.266  11.007  2.9692 -1.6340  2.3304
 8579SOL    HW237200   0.279   3.123  11.062 -0.7664  0.2034 -0.1517
 8580SOL     OW37201   0.621   1.968  15.230 -0.4559 -0.3837 -0.3222
 8580SOL    HW137202   0.610   2.063  15.225  0.9253 -0.1789  0.4426
 8580SOL    HW237203   0.595   1.938  15.143 -2.9720 -0.2434  0.4095
 8581SOL     OW37204   3.373   3.233   7.558  0.5229 -0.3150 -0.1436
 8581SOL    HW137205   3.387   3.234   7.463  0.0566 -0.3621 -0.2124
 8581SOL    HW237206   3.284   3.266   7.560  0.5647 -0.2877  1.6468
 8582SOL     OW37207   3.835   3.755  14.411  0.0221  0.2192  0.0764
 8582SOL    HW137208   3.832   3.791  14.322 -1.2785  1.3799  0.6012
 8582SOL    HW237209   3.759   3.697  14.420 -0.5141  0.7926 -0.7990
 8583SOL     OW37210   1.584   4.216   6.435  0.6785 -0.5110  0.2814
 8583SOL    HW137211   1.498   4.217   6.477  0.1871 -3.0350 -0.6882
 8583SOL    HW237212   1.609   4.128   6.462  1.2270 -0.7983 -1.1392
 8584SOL     OW37213   0.826   4.361   2.492 -0.6973  0.3884  0.0305
 8584SOL    HW137214   0.818   4.347   2.398  1.1898 -0.1792 -0.0522
 8584SOL    HW237215   0.878   4.284   2.515 -0.0719  1.0934  0.9675
 8585SOL     OW37216   0.971   2.283   1.343 -0.6528  0.9514  0.2011
 8585SOL    HW137217   0.904   2.351   1.348 -2.8845 -1.3162  1.3906
 8585SOL    HW237218   1.052   2.329   1.323  0.5752 -1.6234 -0.7602
 8586SOL     OW37219   2.217   2.433  15.842 -0.0836  0.1076 -0.7751
 8586SOL    HW137220   2.225   2.511  15.897  0.0167 -0.4684  0.0136
 8586SOL    HW237221   2.311   2.415  15.832 -0.2272 -0.5779 -0.8387
 8587SOL     OW37222   4.082   4.090  10.197  0.2763 -0.6079 -0.0337
 8587SOL    HW137223   4.173   4.081  10.168  0.7222  0.6613  0.9515
 8587SOL    HW237224   4.098   4.062  10.287 -0.7451 -0.9620  0.0427
 8588SOL     OW37225   3.176   3.615  13.434  0.1321 -0.2667 -0.3690
 8588SOL    HW137226   3.170   3.710  13.425 -0.8474 -0.1992  0.8624
 8588SOL    HW237227   3.269   3.601  13.450 -0.4331 -4.1378 -0.4319
 8589SOL     OW37228   3.421   4.542  16.681 -0.4127  0.6721 -0.1580
 8589SOL    HW137229   3.380   4.472  16.732  1.8575  0.9209  1.9835
 8589SOL    HW237230   3.339   4.581  16.650  0.5784  1.5389 -1.7329
 8590SOL     OW37231   0.993   4.434   2.996 -0.3443  0.1708  0.2563
 8590SOL    HW137232   0.960   4.508   2.945  1.3436  0.8706  0.2056
 8590SOL    HW237233   0.914   4.382   2.979  0.8333 -1.4423 -0.3424
 8591SOL     OW37234   4.195   3.361   3.355 -0.4425  0.1095  0.1737
 8591SOL    HW137235   4.122   3.302   3.337 -1.4267  1.6812 -0.9926
 8591SOL    HW237236   4.257   3.334   3.287 -0.8009  0.1581 -0.1688
 8592SOL     OW37237   3.994   3.210   8.622  0.5756 -0.5204  0.0491
 8592SOL    HW137238   4.052   3.172   8.688 -0.1181  0.0623  0.9837
 8592SOL    HW237239   3.956   3.279   8.676 -0.1112 -2.6364  2.2525
 8593SOL     OW37240   4.572   2.590   3.957 -0.4952 -0.7503 -0.0586
 8593SOL    HW137241   4.503   2.654   3.943  0.2127 -0.4881 -2.3117
 8593SOL    HW237242   4.558   2.528   3.885 -3.3291  0.6259 -0.6871
 8594SOL     OW37243   1.348   1.803   5.089  0.1332 -0.1591 -0.1714
 8594SOL    HW137244   1.384   1.887   5.119 -2.4303  0.8187  0.1184
 8594SOL    HW237245   1.256   1.815   5.112  0.7265  2.2540  0.9421
 8595SOL     OW37246   3.887   4.659   8.167 -0.0167  0.0157  0.2116
 8595SOL    HW137247   3.795   4.659   8.139 -0.2154 -0.2319  0.8711
 8595SOL    HW237248   3.922   4.710   8.094  3.5995 -1.5761  0.8614
 8596SOL     OW37249   3.438   2.111  16.824 -0.0010 -0.1319  0.5411
 8596SOL    HW137250   3.516   2.133  16.874  0.4756  0.1756 -0.3523
 8596SOL    HW237251   3.371   2.161  16.872  0.7324  1.7473 -0.3808
 8597SOL     OW37252   4.197   1.509   5.669 -0.1130 -0.3526  0.3634
 8597SOL    HW137253   4.169   1.545   5.585 -1.4181 -0.9457  0.5546
 8597SOL    HW237254   4.165   1.580   5.726  1.3158 -0.4857  1.3281
 8598SOL     OW37255   2.231   4.196   2.929 -0.5781 -0.4053 -0.4520
 8598SOL    HW137256   2.319   4.234   2.928 -0.5234 -0.5364 -0.9164
 8598SOL    HW237257   2.198   4.249   3.001 -0.2375 -1.4178  0.4614
 8599SOL     OW37258   3.742   1.636   2.844  0.2386  0.4032  0.0804
 8599SOL    HW137259   3.816   1.578   2.862  0.1688 -0.0998 -1.2649
 8599SOL    HW237260   3.766   1.642   2.752  1.7173 -0.5262  0.3890
 8600SOL     OW37261   0.675   1.441   0.604  0.1209 -0.2459 -1.2758
 8600SOL    HW137262   0.665   1.508   0.672 -1.9479 -0.8676 -0.9714
 8600SOL    HW237263   0.769   1.433   0.593  0.5301  1.9556  0.5812
 8601SOL     OW37264   1.355   2.732   3.452 -0.2359  0.4234  0.2527
 8601SOL    HW137265   1.329   2.660   3.509 -0.7604  1.8464  1.8083
 8601SOL    HW237266   1.274   2.781   3.436  0.6365  1.9946  0.6198
 8602SOL     OW37267   2.458   2.620  16.362  0.0859 -0.7363  0.3298
 8602SOL    HW137268   2.473   2.702  16.316  0.1977  0.0197  1.6978
 8602SOL    HW237269   2.401   2.641  16.436  2.3285  2.4486  1.1649
 8603SOL     OW37270   3.387   0.379   2.624  0.6299  0.0560 -0.4851
 8603SOL    HW137271   3.373   0.297   2.671  2.2861 -0.8976 -1.6427
 8603SOL    HW237272   3.303   0.388   2.579 -0.2307 -1.6634  0.8019
 8604SOL     OW37273   0.476   3.651  13.539 -0.1675 -0.3948  0.3017
 8604SOL    HW137274   0.404   3.609  13.585  0.3158 -0.3033  1.1372
 8604SOL    HW237275   0.429   3.729  13.509  0.9509  1.1813  2.5629
 8605SOL     OW37276   4.400   1.918   5.724 -0.6627 -0.3598 -0.2152
 8605SOL    HW137277   4.375   2.010   5.738  2.0380  0.4759 -0.8003
 8605SOL    HW237278   4.493   1.931   5.706 -0.8423  0.6755 -0.4437
 8606SOL     OW37279   3.159   1.440   0.537  0.0494  0.4310  0.1637
 8606SOL    HW137280   3.116   1.426   0.452  3.1241  1.1046 -1.4756
 8606SOL    HW237281   3.223   1.371   0.552  0.8203  1.9362  3.8553
 8607SOL     OW37282   0.126   2.497   4.410 -0.4940  0.1100  0.3880
 8607SOL    HW137283   0.122   2.416   4.360  0.0974  1.1555 -1.3413
 8607SOL    HW237284   0.070   2.552   4.355  0.1265  0.4528  0.0990
 8608SOL     OW37285   3.867   0.093   7.365 -0.3355  0.4482  0.1116
 8608SOL    HW137286   3.854   0.187   7.377 -0.5104  0.6407 -1.6442
 8608SOL    HW237287   3.840   0.084   7.273  0.8325 -0.0446 -0.1815
 8609SOL     OW37288   0.417   1.596   4.885  0.0105  0.4525 -0.2622
 8609SOL    HW137289   0.399   1.683   4.851 -0.0874  1.2115  1.6983
 8609SOL    HW237290   0.350   1.546   4.838  2.1392 -0.5038 -2.2354
 8610SOL     OW37291   1.641   0.007   0.198  0.4436 -0.4859  0.1996
 8610SOL    HW137292   1.653   0.099   0.221  1.7574 -0.7543  0.6322
 8610SOL    HW237293   1.547   0.002   0.214  0.5600 -1.1767  0.6730
 8611SOL     OW37294   4.020   2.683   7.425 -0.2196  0.2749 -0.1792
 8611SOL    HW137295   4.113   2.665   7.443  0.0313  1.1229 -0.6305
 8611SOL    HW237296   4.021   2.755   7.362  1.2422 -0.4894 -1.0265
 8612SOL     OW37297   4.477   1.641   6.680 -0.3099 -0.3412  0.3854
 8612SOL    HW137298   4.538   1.584   6.633  0.3874  0.5213  0.2344
 8612SOL    HW237299   4.410   1.581   6.713 -3.1174  1.1118 -2.6995
 8613SOL     OW37300   1.506   2.911   1.598 -0.1777  0.0709 -0.0162
 8613SOL    HW137301   1.549   2.907   1.512  0.3500 -1.3653  0.3144
 8613SOL    HW237302   1.418   2.879   1.583 -0.9882  3.7337 -3.1304
 8614SOL     OW37303   2.962   1.145   5.071  0.2350  0.5041 -0.6813
 8614SOL    HW137304   2.912   1.193   5.005  1.5402  0.4654 -1.7049
 8614SOL    HW237305   3.037   1.107   5.025 -1.2022 -3.3954  0.2174
 8615SOL     OW37306   0.307   4.348  17.058  0.2797  0.4479 -0.1235
 8615SOL    HW137307   0.295   4.435  17.095  1.6313  0.2522  0.7652
 8615SOL    HW237308   0.228   4.344  17.003 -0.2067  1.9509  0.4527
 8616SOL     OW37309   3.943   2.867  13.349 -0.0426 -0.0480  0.0821
 8616SOL    HW137310   3.985   2.812  13.415  1.0459  1.3597  0.5596
 8616SOL    HW237311   3.962   2.956  13.377 -0.6679  0.5013 -1.2645
 8617SOL     OW37312   3.232   0.446   2.934  0.1803  0.4663 -0.1922
 8617SOL    HW137313   3.272   0.386   2.997 -0.6788  0.4980  0.3731
 8617SOL    HW237314   3.224   0.386   2.860  0.5813 -0.2369  0.3348
 8618SOL     OW37315   2.334   3.263   3.709  0.0860  1.0313  0.1417
 8618SOL    HW137316   2.321   3.197   3.778  0.3741  0.2217 -0.5881
 8618SOL    HW237317   2.388   3.326   3.757  2.1020 -2.1293  1.9996
 8619SOL     OW37318   4.434   0.148  17.234 -0.2211  0.2794 -0.1612
 8619SOL    HW137319   4.447   0.054  17.248  1.7106  0.8437  1.8575
 8619SOL    HW237320   4.442   0.181  17.324 -1.6691 -1.0735  0.4676
 8620SOL     OW37321   0.666   1.019   9.017 -0.2980  0.1097  0.4781
 8620SOL    HW137322   0.661   0.944   8.957  0.5048  0.1984  0.2924
 8620SOL    HW237323   0.598   0.987   9.076 -1.0809 -0.1144 -0.5314
 8621SOL     OW37324   0.727   1.530   9.392 -0.1101 -0.6277 -0.3538
 8621SOL    HW137325   0.637   1.555   9.369 -0.0429  1.7513  2.0476
 8621SOL    HW237326   0.712   1.437   9.408 -4.2356 -0.1688 -1.5388
 8622SOL     OW37327   2.852   3.836   4.838 -0.0609 -0.3334  0.3967
 8622SOL    HW137328   2.842   3.828   4.933 -0.3668 -1.1769  0.2946
 8622SOL    HW237329   2.787   3.779   4.798  1.9471 -2.9885  0.8644
 8623SOL     OW37330   2.077   0.859   7.679 -0.5419  0.4117  0.3225
 8623SOL    HW137331   2.029   0.805   7.616 -1.3753 -0.1960  1.4757
 8623SOL    HW237332   2.101   0.789   7.740  2.8835  1.1889 -0.1285
 8624SOL     OW37333   3.255   2.723   2.796 -0.5707 -0.4911  0.3167
 8624SOL    HW137334   3.194   2.704   2.725 -0.2247 -0.6084  0.0532
 8624SOL    HW237335   3.329   2.699   2.740 -1.3071 -3.0234  0.4335
 8625SOL     OW37336   3.724   4.695   4.377  0.0811  0.1218  0.1175
 8625SOL    HW137337   3.761   4.631   4.316  0.5928  0.7590 -0.2328
 8625SOL    HW237338   3.780   0.043   4.370  0.9804 -0.7286 -1.8167
 8626SOL     OW37339   4.335   4.051   2.086  0.3839  0.3278 -0.8633
 8626SOL    HW137340   4.370   3.966   2.114 -0.4189  0.4176  0.3620
 8626SOL    HW237341   4.287   4.067   2.166 -1.1320 -1.7244 -1.3527
 8627SOL     OW37342   3.904   2.178   9.579 -0.0711  0.0706  0.2637
 8627SOL    HW137343   3.996   2.158   9.596  0.2425  0.9744 -0.3506
 8627SOL    HW237344   3.882   2.206   9.668  2.7857 -2.5341  1.7817
 8628SOL     OW37345   2.274   4.475  16.356 -0.3276  0.3844 -0.0963
 8628SOL    HW137346   2.209   4.439  16.416  1.4428 -2.2484  0.2300
 8628SOL    HW237347   2.339   4.410  16.382 -0.1986  0.2419 -0.7645
 8629SOL     OW37348   1.323   4.545   1.658  0.2811 -0.0225  0.1127
 8629SOL    HW137349   1.252   4.571   1.599 -1.2845 -1.8408  1.1762
 8629SOL    HW237350   1.286   4.575   1.741 -1.8126 -0.0430 -0.8009
 8630SOL     OW37351   0.563   1.825   5.711  0.1705  0.2522 -0.2716
 8630SOL    HW137352   0.557   1.763   5.784 -0.2876  1.3306  0.6079
 8630SOL    HW237353   0.642   1.797   5.665  0.9288  2.1957 -0.1151
 8631SOL     OW37354   2.466   3.618   5.297 -0.2340  0.4358 -0.0844
 8631SOL    HW137355   2.424   3.540   5.262  0.6422  0.3829 -1.0343
 8631SOL    HW237356   2.553   3.580   5.307  0.1080  1.0960 -0.5141
 8632SOL     OW37357   4.672   1.893   3.733 -0.1295 -0.3565  0.2404
 8632SOL    HW137358   4.580   1.871   3.747 -0.4082  0.4984 -0.2592
 8632SOL    HW237359   4.714   1.809   3.712  1.4929  0.5795 -0.3026
 8633SOL     OW37360   1.996   0.937   3.055 -0.1999  0.8954 -0.1684
 8633SOL    HW137361   1.996   1.030   3.076 -1.1719  0.7457  0.4909
 8633SOL    HW237362   1.909   0.930   3.017  1.0147 -1.7681 -2.4627
 8634SOL     OW37363   1.977   4.568   7.045 -0.5647  0.6460 -0.0128
 8634SOL    HW137364   1.980   4.493   7.104  1.0507 -0.6736 -1.7785
 8634SOL    HW237365   2.007   4.532   6.962  0.2728  1.0787  0.0959
 8635SOL     OW37366   0.600   3.480   5.967 -0.0346 -0.5407 -0.3042
 8635SOL    HW137367   0.608   3.414   5.898  2.9222 -1.6723  1.1056
 8635SOL    HW237368   0.517   3.521   5.943  0.1023 -0.3290 -0.4184
 8636SOL     OW37369   0.413   1.790  15.557  0.1158 -0.2041 -0.1313
 8636SOL    HW137370   0.414   1.695  15.553  0.7396 -0.1871 -0.3122
 8636SOL    HW237371   0.500   1.812  15.524 -0.8928  3.7672 -0.2503
 8637SOL     OW37372   4.426   0.668   4.965  0.2986  0.1680  0.1731
 8637SOL    HW137373   4.375   0.587   4.970  0.3923  0.0550 -0.6826
 8637SOL    HW237374   4.487   0.629   4.903 -1.2484  0.9036 -1.7987
 8638SOL     OW37375   2.965   2.406   2.719 -0.1046 -0.6332 -0.0727
 8638SOL    HW137376   2.925   2.374   2.799 -1.2583 -1.3506 -0.9290
 8638SOL    HW237377   2.898   2.414   2.651 -1.1352 -1.3213  0.8748
 8639SOL     OW37378   3.435   3.905   6.352 -0.1140  0.0186 -0.5221
 8639SOL    HW137379   3.473   3.820   6.328  1.8317  0.9106 -0.5981
 8639SOL    HW237380   3.438   3.901   6.448 -0.8855 -3.4177 -0.6466
 8640SOL     OW37381   1.268   0.815  10.554 -0.2444  0.0561  0.8247
 8640SOL    HW137382   1.351   0.842  10.594 -0.3437  1.2348  0.2263
 8640SOL    HW237383   1.282   0.720  10.548  1.6578  0.3588  0.4862
 8641SOL     OW37384   1.640   1.144  15.444  0.2531 -0.4308  0.0807
 8641SOL    HW137385   1.630   1.141  15.349  0.5411 -0.0464  0.0350
 8641SOL    HW237386   1.583   1.214  15.475  0.5412  0.4540 -1.3774
 8642SOL     OW37387   2.054   0.199   6.417  0.5333 -0.2122  0.1438
 8642SOL    HW137388   2.007   0.116   6.422  0.7458 -0.4565 -1.6997
 8642SOL    HW237389   2.136   0.170   6.458 -1.6005 -2.3828  2.8151
 8643SOL     OW37390   1.637   4.242  11.394 -0.1357 -0.3402  0.4819
 8643SOL    HW137391   1.655   4.333  11.416 -2.3248  0.0563  0.7051
 8643SOL    HW237392   1.658   4.222  11.303  3.5355  0.9203  1.0497
 8644SOL     OW37393   0.735   1.396   4.847 -0.0674  0.1216  0.0685
 8644SOL    HW137394   0.738   1.467   4.783 -0.1715 -0.6145 -0.7649
 8644SOL    HW237395   0.726   1.326   4.782  0.7795 -0.4603  0.5678
 8645SOL     OW37396   0.106   2.096  16.461 -0.0758  0.3033  0.1260
 8645SOL    HW137397   0.092   2.007  16.430 -0.2105  1.6760 -3.8383
 8645SOL    HW237398   0.020   2.137  16.449 -0.7173 -1.2622 -0.5170
 8646SOL     OW37399   4.640   2.708  13.349  0.3721  0.0614 -0.3310
 8646SOL    HW137400   4.644   2.768  13.274  0.2586 -0.5416 -0.8185
 8646SOL    HW237401   4.548   2.724  13.369  1.0746  0.8187  2.3134
 8647SOL     OW37402   3.867   1.776   1.780  0.3814  0.5255  0.1130
 8647SOL    HW137403   3.778   1.768   1.815  0.3542 -1.4191 -0.3736
 8647SOL    HW237404   3.906   1.841   1.839 -1.0442 -1.6312  3.4072
 8648SOL     OW37405   2.670   2.188  14.521 -0.4860 -0.1556 -0.1216
 8648SOL    HW137406   2.719   2.177  14.440 -0.3268  1.7140 -0.2747
 8648SOL    HW237407   2.732   2.250  14.559  1.0153 -1.1953 -0.8796
 8649SOL     OW37408   1.450   0.512  17.191  0.3242 -0.0472 -0.0047
 8649SOL    HW137409   1.505   0.529  17.267  0.0935 -1.0010  0.3734
 8649SOL    HW237410   1.496   0.557  17.120  0.9852 -1.4436 -0.4738
 8650SOL     OW37411   0.223   3.911  10.251  0.7475  0.4956 -0.2588
 8650SOL    HW137412   0.136   3.898  10.290  1.4559  1.2484  1.6100
 8650SOL    HW237413   0.209   4.000  10.218 -0.4853 -0.4784 -2.3490
 8651SOL     OW37414   3.838   2.172   9.967 -0.5845 -0.1643  0.3509
 8651SOL    HW137415   3.855   2.089   9.923  2.0631  0.6719 -0.1964
 8651SOL    HW237416   3.789   2.215   9.897 -0.2813 -0.0984  0.1775
 8652SOL     OW37417   0.942   0.477   7.287  1.0015  0.6335 -0.3193
 8652SOL    HW137418   0.922   0.436   7.203  2.9404 -1.7164  0.3588
 8652SOL    HW237419   0.921   0.569   7.276  0.6574  0.7939  1.5434
 8653SOL     OW37420   4.328   3.449   8.296  0.0464 -0.2893  0.5613
 8653SOL    HW137421   4.374   3.484   8.220 -0.5977 -1.7530 -0.4785
 8653SOL    HW237422   4.286   3.530   8.326 -0.0069 -0.3339  0.6082
 8654SOL     OW37423   2.251   2.430   7.759 -0.2544  0.1352 -0.4246
 8654SOL    HW137424   2.196   2.444   7.836 -0.6495 -1.8197 -0.3525
 8654SOL    HW237425   2.307   2.506   7.777  0.8302 -0.5098 -1.0828
 8655SOL     OW37426   0.433   1.714  12.280 -0.1572 -0.1803 -0.0121
 8655SOL    HW137427   0.415   1.633  12.232 -0.0819 -0.9920  1.3395
 8655SOL    HW237428   0.528   1.726  12.272 -0.3782 -0.1269 -2.6585
 8656SOL     OW37429   3.043   3.581  13.200 -0.6923  0.3776  0.3042
 8656SOL    HW137430   3.080   3.584  13.289  2.1747  1.2412 -0.9271
 8656SOL    HW237431   3.116   3.601  13.142 -0.3200 -3.5271 -0.6096
 8657SOL     OW37432   0.209   4.584   8.240  0.2140  0.0148 -0.0066
 8657SOL    HW137433   0.288   4.538   8.268  0.2838  0.5352  0.6581
 8657SOL    HW237434   0.143   4.535   8.288  2.1012 -0.4627  2.0768
 8658SOL     OW37435   1.366   4.128  15.813  0.1999  0.0087 -0.0872
 8658SOL    HW137436   1.448   4.117  15.764  0.2056 -1.6835  0.2990
 8658SOL    HW237437   1.386   4.102  15.903 -0.5592 -1.9754 -0.4843
 8659SOL     OW37438   3.271   1.778   4.098 -0.3867 -0.2180  0.2653
 8659SOL    HW137439   3.282   1.712   4.167  0.7894  0.1622  0.4355
 8659SOL    HW237440   3.177   1.768   4.083  0.1803 -1.0415 -2.7658
 8660SOL     OW37441   3.768   0.011   5.684  0.2370 -0.7655 -0.2994
 8660SOL    HW137442   3.751   4.724   5.591  4.4177 -0.5489 -1.0788
 8660SOL    HW237443   3.699   0.072   5.709  2.0257  0.8973  0.5888
 8661SOL     OW37444   3.398   2.992  15.917 -0.1234 -0.4253  0.0924
 8661SOL    HW137445   3.361   3.080  15.925 -0.4414 -0.6481  1.1096
 8661SOL    HW237446   3.334   2.936  15.961  0.0192  0.2762  1.1999
 8662SOL     OW37447   4.611   0.168  15.053 -0.8860 -0.1618 -0.1802
 8662SOL    HW137448   4.696   0.182  15.095 -0.6345 -0.5375 -0.5566
 8662SOL    HW237449   4.621   0.074  15.039 -2.9570 -0.4918  0.6066
 8663SOL     OW37450   1.322   0.520  11.758 -0.2828 -0.1293 -0.8719
 8663SOL    HW137451   1.272   0.440  11.766  1.7720 -1.0674  2.6084
 8663SOL    HW237452   1.334   0.514  11.663  2.0969 -0.9684 -0.5171
 8664SOL     OW37453   0.447   0.297   4.827 -0.0506  0.2353 -0.1809
 8664SOL    HW137454   0.366   0.333   4.864 -1.1381 -1.1156 -1.2405
 8664SOL    HW237455   0.502   0.332   4.897  1.9619 -0.9122 -1.2113
 8665SOL     OW37456   2.746   1.874   6.039  0.1448  0.3972  0.7689
 8665SOL    HW137457   2.725   1.967   6.044  0.5850  0.4665  1.3177
 8665SOL    HW237458   2.816   1.872   5.973  0.2813 -2.1417  1.0070
 8666SOL     OW37459   2.136   1.126   7.950 -0.4850 -0.2705 -0.0353
 8666SOL    HW137460   2.076   1.126   8.024  1.2065  0.3715  1.3307
 8666SOL    HW237461   2.215   1.116   8.002 -0.1905 -0.5852 -0.5453
 8667SOL     OW37462   1.688   2.778   8.580  0.3429  0.8468 -0.3934
 8667SOL    HW137463   1.658   2.868   8.592 -0.7957  0.3009  0.8150
 8667SOL    HW237464   1.607   2.730   8.565  0.2067  0.8271  0.4423
 8668SOL     OW37465   0.133   3.408  10.228  0.0959  0.2260 -0.5876
 8668SOL    HW137466   0.155   3.330  10.278 -1.5874  0.5854  0.7268
 8668SOL    HW237467   0.193   3.466  10.276  0.4204  0.0932 -0.8332
 8669SOL     OW37468   3.463   0.129   5.128 -0.3942 -0.1383  0.2184
 8669SOL    HW137469   3.429   0.180   5.054  0.1566 -1.6911 -1.0869
 8669SOL    HW237470   3.488   0.055   5.073 -2.2838  0.7772 -1.8901
 8670SOL     OW37471   1.159   0.604  10.270  0.0211  0.5648  0.7660
 8670SOL    HW137472   1.186   0.691  10.239 -3.9243  1.3679 -0.4556
 8670SOL    HW237473   1.218   0.589  10.343  0.3905  1.1158  0.5791
 8671SOL     OW37474   4.011   4.241   9.786  0.6030  0.6302  0.1163
 8671SOL    HW137475   3.966   4.220   9.868 -0.8515 -0.3121 -0.9219
 8671SOL    HW237476   4.029   4.335   9.797  0.4225  0.8247 -1.2526
 8672SOL     OW37477   4.098   2.014   5.895  0.1124 -0.3120 -0.1689
 8672SOL    HW137478   4.168   2.059   5.943 -1.4040 -0.5574  2.3202
 8672SOL    HW237479   4.053   2.087   5.853 -1.4338 -2.0078 -1.4608
 8673SOL     OW37480   4.459   3.391  14.154 -0.4474 -0.0378 -0.9777
 8673SOL    HW137481   4.416   3.421  14.074 -0.0643  1.4161 -0.6467
 8673SOL    HW237482   4.464   3.474  14.203 -0.7233 -0.2068 -0.6642
 8674SOL     OW37483   1.506   2.018   1.619 -0.7128  0.1297  0.0924
 8674SOL    HW137484   1.517   1.968   1.700  2.3730  0.9193  0.1651
 8674SOL    HW237485   1.600   2.035   1.607 -0.1921 -1.0767  2.4630
 8675SOL     OW37486   3.835   3.384   6.378  0.3791 -0.3813 -0.0154
 8675SOL    HW137487   3.914   3.438   6.378 -0.7689  1.3406  3.5025
 8675SOL    HW237488   3.876   3.302   6.351 -0.4092 -0.2525 -1.6304
 8676SOL     OW37489   0.765   2.554  15.177  0.3932 -0.4963  0.2449
 8676SOL    HW137490   0.831   2.603  15.227 -0.6481  1.3445 -0.1998
 8676SOL    HW237491   0.779   2.467  15.212  1.6098 -0.5581 -0.3825
 8677SOL     OW37492   1.739   3.811   4.789  0.0152 -0.1688  0.1343
 8677SOL    HW137493   1.815   3.776   4.836  0.0735  0.2897  0.3845
 8677SOL    HW237494   1.774   3.886   4.741 -1.2391 -0.1876 -0.8024
 8678SOL     OW37495   1.637   4.352   8.059 -0.5820 -0.0025 -0.1512
 8678SOL    HW137496   1.554   4.392   8.084 -1.4191 -2.0950  0.3667
 8678SOL    HW237497   1.705   4.419   8.072 -1.7839  0.8115  1.9663
 8679SOL     OW37498   4.094   3.971   2.875 -0.7107 -0.0381  0.3136
 8679SOL    HW137499   4.116   4.061   2.899 -1.8527 -0.0126  1.2497
 8679SOL    HW237500   4.056   3.994   2.791 -1.4094  1.0008  0.9155
 8680SOL     OW37501   3.839   3.386  15.378 -0.1089  0.5512 -0.2220
 8680SOL    HW137502   3.883   3.425  15.453 -2.1932 -0.2265  1.3996
 8680SOL    HW237503   3.881   3.438  15.309  0.2863 -1.2861 -1.3814
 8681SOL     OW37504   1.187   4.278  16.108 -0.4313 -0.2335  0.6539
 8681SOL    HW137505   1.106   4.278  16.159 -1.7392  2.2186 -1.4311
 8681SOL    HW237506   1.228   4.204  16.153 -0.6946 -1.1225 -0.5675
 8682SOL     OW37507   1.876   3.233   4.462 -0.0369  0.2011  0.4098
 8682SOL    HW137508   1.912   3.273   4.541  2.0216  0.5829 -0.7395
 8682SOL    HW237509   1.783   3.227   4.486 -0.5383 -0.4405 -1.7063
 8683SOL     OW37510   1.082   0.289   8.585 -0.8337  0.3115 -0.9376
 8683SOL    HW137511   1.029   0.274   8.507  1.3995 -1.6610 -2.0819
 8683SOL    HW237512   1.123   0.372   8.561 -1.0133  0.8357  0.5992
 8684SOL     OW37513   0.349   2.227   3.544 -0.1411 -0.1061 -0.6772
 8684SOL    HW137514   0.307   2.145   3.517 -2.3737  0.4316  1.1519
 8684SOL    HW237515   0.390   2.270   3.469 -2.4108  2.5513 -0.4100
 8685SOL     OW37516   3.519   4.502   2.071 -0.1696  0.8948 -0.6249
 8685SOL    HW137517   3.527   4.577   2.012  0.7856  0.2803 -1.2696
 8685SOL    HW237518   3.454   4.446   2.028 -0.6064  0.3641  0.7016
 8686SOL     OW37519   2.545   4.284   7.745 -0.0538 -0.2376 -0.3028
 8686SOL    HW137520   2.573   4.235   7.823  1.1414 -0.5225 -0.9166
 8686SOL    HW237521   2.532   4.375   7.773 -1.6719  0.2086 -2.4717
 8687SOL     OW37522   1.413   2.206   6.819  0.1174  0.1144  0.1918
 8687SOL    HW137523   1.410   2.136   6.754 -0.2109  1.5969 -1.3759
 8687SOL    HW237524   1.353   2.267   6.777 -1.9789 -1.4355  0.9202
 8688SOL     OW37525   2.188   4.503   5.558 -0.3517  0.4743  0.2515
 8688SOL    HW137526   2.238   4.497   5.640  0.4114 -0.1109 -0.2623
 8688SOL    HW237527   2.108   4.451   5.565 -0.7034  0.7861 -1.5471
 8689SOL     OW37528   3.662   3.438   8.526  0.0362  0.1370  0.5117
 8689SOL    HW137529   3.597   3.485   8.473  1.3089 -0.7093 -1.7755
 8689SOL    HW237530   3.735   3.414   8.470 -1.1598  0.9111 -1.3845
 8690SOL     OW37531   3.580   2.205  15.387  0.3158  0.4751 -0.5182
 8690SOL    HW137532   3.673   2.221  15.405  0.5352  0.2759 -1.4745
 8690SOL    HW237533   3.575   2.232  15.295 -0.0877 -1.1967 -0.9960
 8691SOL     OW37534   2.817   1.007   5.262  0.7183  0.5625 -0.3410
 8691SOL    HW137535   2.726   1.031   5.243  0.1433  0.6515  2.4567
 8691SOL    HW237536   2.866   1.059   5.198  1.4709  0.8317  0.4521
 8692SOL     OW37537   3.559   2.867   1.225  0.2999  0.2152  0.7746
 8692SOL    HW137538   3.537   2.789   1.276 -1.1634 -0.2859 -0.6157
 8692SOL    HW237539   3.528   2.847   1.137 -1.4461  2.2822  0.9203
 8693SOL     OW37540   0.747   1.220   4.611 -0.3294  0.4879 -0.5300
 8693SOL    HW137541   0.746   1.283   4.539 -1.5998 -0.4850 -1.3781
 8693SOL    HW237542   0.820   1.164   4.585  0.3516  0.8162  0.6856
 8694SOL     OW37543   0.522   1.765   3.280  0.6963 -0.4826 -0.2702
 8694SOL    HW137544   0.529   1.733   3.190  1.1884 -1.8660  0.2732
 8694SOL    HW237545   0.427   1.751   3.284  0.7167 -0.5998 -0.2121
 8695SOL     OW37546   3.097   3.477   4.246 -0.0216 -0.0678 -0.0864
 8695SOL    HW137547   3.137   3.397   4.211  0.2236 -0.0127  0.0702
 8695SOL    HW237548   3.117   3.536   4.173 -0.3546 -1.2204 -1.1191
 8696SOL     OW37549   4.636   2.643   0.716 -0.1334  0.0490 -0.6655
 8696SOL    HW137550   4.627   2.549   0.700  1.3851 -0.1730 -0.2162
 8696SOL    HW237551   4.564   2.678   0.663  1.2101  2.6524 -0.7620
 8697SOL     OW37552   0.932   1.353  14.439  0.3508 -0.4033  0.0302
 8697SOL    HW137553   0.961   1.272  14.479 -2.5950 -1.1850  0.5997
 8697SOL    HW237554   1.016   1.395  14.421 -0.0124 -1.1994 -3.4031
 8698SOL     OW37555   2.898   3.043   5.638 -0.2797  0.1303  0.7524
 8698SOL    HW137556   2.891   3.028   5.543 -2.5782  2.9733  0.4938
 8698SOL    HW237557   2.987   3.078   5.642  0.5237 -1.5811 -1.6877
 8699SOL     OW37558   1.836   1.885   6.259  0.2657 -0.1149 -0.0021
 8699SOL    HW137559   1.835   1.936   6.177 -2.1782 -0.2788 -0.0582
 8699SOL    HW237560   1.897   1.942   6.307  1.9118 -0.3910 -1.7640
 8700SOL     OW37561   0.188   1.707   7.011  0.5690 -0.1341  0.2632
 8700SOL    HW137562   0.252   1.638   7.027  0.5210 -0.1652  0.3213
 8700SOL    HW237563   0.127   1.699   7.085  0.2363 -0.8966 -0.0928
 8701SOL     OW37564   0.309   1.061  13.203  0.6964  0.0927  0.2611
 8701SOL    HW137565   0.311   1.134  13.141  0.3823  0.9119  1.2122
 8701SOL    HW237566   0.235   1.012  13.167 -0.6144  1.6614  0.8034
 8702SOL     OW37567   0.909   2.508  15.497 -0.3370 -0.1194  0.1692
 8702SOL    HW137568   0.868   2.504  15.584 -0.2191  3.0775  0.3964
 8702SOL    HW237569   0.988   2.456  15.510 -0.7053  0.0175  3.1155
 8703SOL     OW37570   0.812   0.370   0.060  0.3915 -1.0230 -0.6217
 8703SOL    HW137571   0.762   0.321  17.709  0.1372 -1.7588  0.1301
 8703SOL    HW237572   0.815   0.300   0.126  2.9466  0.7878  1.1589
 8704SOL     OW37573   2.585   0.774   4.376  0.4887  0.0162  0.1530
 8704SOL    HW137574   2.660   0.715   4.368  2.0224  1.9982 -0.0037
 8704SOL    HW237575   2.627   0.843   4.325  0.2342  1.0967  1.4163
 8705SOL     OW37576   0.501   0.054   7.767 -0.0426  0.0604  0.3247
 8705SOL    HW137577   0.488   4.710   7.827 -2.0686  0.0801 -0.0935
 8705SOL    HW237578   0.441   0.120   7.801  1.2578  0.8348  1.1450
 8706SOL     OW37579   0.073   2.951   4.795  0.1058  0.5302  0.0790
 8706SOL    HW137580   0.050   3.028   4.744  0.1947  2.1699  2.4684
 8706SOL    HW237581   0.029   2.883   4.745 -0.6409 -0.5179  2.1522
 8707SOL     OW37582   0.310   2.943  17.471  0.6222 -0.4601  0.6046
 8707SOL    HW137583   0.238   2.997  17.439  2.4484  0.1380 -2.4721
 8707SOL    HW237584   0.310   2.868  17.412  0.4574  0.6510 -0.8136
 8708SOL     OW37585   3.061   3.335   0.253 -0.3426  0.3092  0.1161
 8708SOL    HW137586   3.082   3.313   0.163  0.5361  0.4590  0.2844
 8708SOL    HW237587   3.146   3.354   0.294 -2.0781  0.7180  3.5245
 8709SOL     OW37588   4.053   0.662   9.469  0.7063  0.5111  0.1860
 8709SOL    HW137589   4.054   0.657   9.565 -1.6527  1.0167  0.2311
 8709SOL    HW237590   4.038   0.754   9.449 -0.9844  0.0968 -0.4427
 8710SOL     OW37591   4.051   2.715  13.834 -0.1782  0.3057  0.4809
 8710SOL    HW137592   4.058   2.676  13.921  0.1665 -0.1631  0.2470
 8710SOL    HW237593   4.143   2.733  13.817  0.1844 -1.8988  0.0437
 8711SOL     OW37594   3.721   3.384   3.961 -0.1747 -0.3901 -0.5764
 8711SOL    HW137595   3.717   3.462   4.017 -2.5685 -2.0923  1.6267
 8711SOL    HW237596   3.651   3.397   3.897 -1.6512  1.1294  1.3783
 8712SOL     OW37597   1.260   4.522  12.064 -0.2378  0.5393  0.0985
 8712SOL    HW137598   1.311   4.479  12.132 -0.5505 -0.4959 -0.3168
 8712SOL    HW237599   1.238   4.596  12.120  0.5357  0.7994  0.0622
 8713SOL     OW37600   1.678   3.460   2.491  0.3897 -1.0196  0.1027
 8713SOL    HW137601   1.632   3.392   2.443  0.5275 -0.0149 -1.4345
 8713SOL    HW237602   1.635   3.537   2.455 -0.9212 -0.7793  2.1504
 8714SOL     OW37603   2.885   2.466   5.623  0.7104  0.2480 -0.3871
 8714SOL    HW137604   2.812   2.522   5.596 -1.0550 -1.1900  1.3673
 8714SOL    HW237605   2.860   2.394   5.565  0.1331 -0.3589  0.6042
 8715SOL     OW37606   4.452   1.614   7.344 -0.3064 -0.6466  0.2989
 8715SOL    HW137607   4.423   1.585   7.430 -0.7108  0.7735  0.6443
 8715SOL    HW237608   4.395   1.689   7.327  1.0098  0.1797 -0.4957
 8716SOL     OW37609   1.754   4.382   6.589  0.2719 -0.6416  0.7430
 8716SOL    HW137610   1.702   4.336   6.523 -0.2915 -0.2250  0.8907
 8716SOL    HW237611   1.786   4.450   6.530 -0.1501 -0.5475  0.6178
 8717SOL     OW37612   0.122   4.383  16.825  0.3498  0.9127 -0.4579
 8717SOL    HW137613   0.150   4.471  16.802 -0.0678  1.0683 -0.3590
 8717SOL    HW237614   0.125   4.329  16.746  2.2165 -0.4141  0.5277
 8718SOL     OW37615   2.860   4.169   4.013  0.2888  0.5313 -0.4424
 8718SOL    HW137616   2.933   4.109   3.998 -2.2597 -2.4882 -0.6099
 8718SOL    HW237617   2.908   4.250   3.992  0.4999  0.1444 -1.4530
 8719SOL     OW37618   0.482   4.281   2.446 -0.3574 -0.0551 -0.0620
 8719SOL    HW137619   0.422   4.343   2.405  0.2319  0.7626  0.3176
 8719SOL    HW237620   0.429   4.202   2.440 -1.2591  0.4397  1.4669
 8720SOL     OW37621   3.886   1.767   4.187 -0.3981 -0.3815  0.2540
 8720SOL    HW137622   3.898   1.739   4.278 -0.0587 -0.6186  0.1339
 8720SOL    HW237623   3.828   1.700   4.152 -0.9325  0.7441 -0.9931
 8721SOL     OW37624   2.198   1.678   5.497 -0.6312  0.4039  0.2482
 8721SOL    HW137625   2.271   1.622   5.522 -0.1926 -0.3411 -2.7124
 8721SOL    HW237626   2.138   1.606   5.482  0.3276 -0.6718  1.5754
 8722SOL     OW37627   4.693   1.602   3.919 -0.6006 -0.5075 -0.2841
 8722SOL    HW137628   0.037   1.545   3.945 -1.5432 -1.8965 -0.7020
 8722SOL    HW237629   4.689   1.589   3.824 -1.0539 -0.3955 -0.2810
 8723SOL     OW37630   0.561   3.855  10.539 -0.6074 -0.3342 -0.6738
 8723SOL    HW137631   0.611   3.925  10.497 -1.8109  1.6884  1.2993
 8723SOL    HW237632   0.557   3.793  10.466  3.0527 -3.0319  1.4427
 8724SOL     OW37633   3.743   0.248  16.250 -0.1554  0.2494 -0.1071
 8724SOL    HW137634   3.773   0.186  16.316  1.9955  0.8537 -0.5139
 8724SOL    HW237635   3.688   0.204  16.185  0.1762 -2.2120  1.3087
 8725SOL     OW37636   1.306   1.503   4.888 -0.4802 -0.4463 -0.5499
 8725SOL    HW137637   1.253   1.423   4.880  2.7055 -2.4831 -1.1773
 8725SOL    HW237638   1.302   1.504   4.983 -1.8462  0.5024 -0.6202
 8726SOL     OW37639   1.015   0.232   2.528  0.1411 -0.0555 -0.2298
 8726SOL    HW137640   0.956   0.302   2.500 -0.8051 -0.8235 -0.1545
 8726SOL    HW237641   1.045   0.268   2.612  0.3672 -0.8488  0.0327
 8727SOL     OW37642   1.961   0.961   7.318  0.4452 -0.1267  0.2742
 8727SOL    HW137643   1.918   0.948   7.234  0.4603 -1.6856  0.5128
 8727SOL    HW237644   1.904   1.033   7.343  0.0648 -1.2395  2.5862
 8728SOL     OW37645   1.857   2.259   3.893 -0.3249  0.0411  0.1553
 8728SOL    HW137646   1.835   2.261   3.986  1.8108 -0.2226  0.6605
 8728SOL    HW237647   1.952   2.271   3.896 -0.1987 -1.3341  1.4092
 8729SOL     OW37648   1.820   2.413   7.302  0.3696  0.6268 -0.2872
 8729SOL    HW137649   1.765   2.455   7.368 -0.3002  0.1018 -0.5200
 8729SOL    HW237650   1.849   2.488   7.250 -3.2022 -0.1090 -3.2808
 8730SOL     OW37651   2.400   0.735   5.165 -0.5295  0.1434 -0.1503
 8730SOL    HW137652   2.373   0.813   5.115  0.7830  0.2481 -0.6899
 8730SOL    HW237653   2.476   0.764   5.214  0.0819  0.5939 -1.3575
 8731SOL     OW37654   0.551   4.597   4.030 -0.0102 -0.0521  0.2395
 8731SOL    HW137655   0.488   4.667   4.045  2.2259  1.8038  0.9872
 8731SOL    HW237656   0.572   4.606   3.937  0.8617  0.2194  0.4611
 8732SOL     OW37657   0.505   4.233   8.728 -0.0600 -0.1869  0.0669
 8732SOL    HW137658   0.536   4.294   8.795 -2.1304 -0.6402  1.4360
 8732SOL    HW237659   0.446   4.183   8.784 -1.0202  1.4202  0.5169
 8733SOL     OW37660   4.435   2.759   6.245 -0.1806  0.4349 -0.1056
 8733SOL    HW137661   4.452   2.837   6.297  0.2328 -1.0082  1.9527
 8733SOL    HW237662   4.517   2.717   6.271 -0.5402 -2.1458 -3.1499
 8734SOL     OW37663   3.096   3.725  16.290 -0.0244  0.4815  0.1883
 8734SOL    HW137664   3.002   3.707  16.289  0.0527  0.0122  1.2367
 8734SOL    HW237665   3.136   3.645  16.324  0.5334 -0.3648 -2.4693
 8735SOL     OW37666   4.273   1.055   7.526  0.3542 -0.1934  0.7652
 8735SOL    HW137667   4.323   1.134   7.547  0.9504 -0.0335 -1.2820
 8735SOL    HW237668   4.315   0.987   7.579  0.4624 -2.0916 -1.7837
 8736SOL     OW37669   4.233   0.070  15.793  0.1421  0.2510 -0.3184
 8736SOL    HW137670   4.271   0.014  15.860  0.0767 -0.2048 -0.6661
 8736SOL    HW237671   4.253   0.021  15.713  0.5030 -2.5441  1.4963
 8737SOL     OW37672   3.058   3.638   5.946 -0.1250  0.3127 -0.5651
 8737SOL    HW137673   3.038   3.653   5.853 -3.0202  0.9668  0.1686
 8737SOL    HW237674   3.063   3.729   5.975 -1.3800  0.6785 -1.4589
 8738SOL     OW37675   4.120   3.383   9.287  0.0001 -0.4415 -0.1114
 8738SOL    HW137676   4.057   3.415   9.352 -0.2433 -0.2664 -0.4314
 8738SOL    HW237677   4.177   3.460   9.275 -0.3022  0.0989  1.8583
 8739SOL     OW37678   1.647   4.314  15.984 -0.0523  0.1222  0.0993
 8739SOL    HW137679   1.591   4.360  15.922  0.5634  1.8321  0.8359
 8739SOL    HW237680   1.578   4.258  16.021  0.3921  0.3243  1.2306
 8740SOL     OW37681   0.597   2.780   6.714  0.0826  0.3174 -0.3722
 8740SOL    HW137682   0.601   2.856   6.772  0.7161  0.5444 -0.7131
 8740SOL    HW237683   0.681   2.738   6.732  1.0950  2.2365 -0.5211
 8741SOL     OW37684   3.806   2.460  10.609 -0.0688  0.0465 -0.4441
 8741SOL    HW137685   3.867   2.518  10.565  1.3638 -0.6847  0.5561
 8741SOL    HW237686   3.761   2.532  10.654 -0.5737 -1.6015  1.7180
 8742SOL     OW37687   3.924   1.809   2.552  0.5217  0.0827 -0.1787
 8742SOL    HW137688   3.898   1.886   2.500 -0.6476  0.2823  0.6969
 8742SOL    HW237689   3.948   1.854   2.632 -0.4452 -0.8722  0.6492
 8743SOL     OW37690   0.025   2.297   3.994  0.1751 -0.1485 -0.2936
 8743SOL    HW137691   0.083   2.232   3.954  1.4445  0.5232  0.4500
 8743SOL    HW237692   4.664   2.271   3.972 -0.0881  2.2678 -2.0444
 8744SOL     OW37693   0.384   3.486   7.124  0.2422  0.3200 -0.2276
 8744SOL    HW137694   0.414   3.449   7.041 -1.4621  1.2218 -1.2503
 8744SOL    HW237695   0.379   3.405   7.175  2.2538  0.7939  0.7176
 8745SOL     OW37696   4.286   2.837   8.940  0.0448 -0.2871  0.0040
 8745SOL    HW137697   4.364   2.865   8.989 -0.8548  2.2132  0.0122
 8745SOL    HW237698   4.215   2.876   8.991  0.0843 -0.7576  0.4228
 8746SOL     OW37699   1.923   2.527   4.248  1.1113 -0.0575 -0.0369
 8746SOL    HW137700   1.887   2.577   4.174  0.5425  0.5209  0.6353
 8746SOL    HW237701   1.898   2.440   4.218 -1.2736  1.4072 -2.4201
 8747SOL     OW37702   2.161   0.472   7.066 -0.0661  0.2799 -0.1007
 8747SOL    HW137703   2.142   0.438   6.978 -0.7883 -1.3206  0.6842
 8747SOL    HW237704   2.245   0.517   7.068  0.6156 -0.9705 -0.7382
 8748SOL     OW37705   2.985   0.720   2.671 -0.5589 -0.7287  0.2000
 8748SOL    HW137706   2.981   0.678   2.757 -2.5263  1.6512  1.2883
 8748SOL    HW237707   2.937   0.658   2.616 -0.8463  1.7327 -2.3266
 8749SOL     OW37708   0.093   2.932   9.362  0.5044  0.0520 -0.1488
 8749SOL    HW137709   0.127   2.883   9.436 -1.1433 -0.5077  0.2436
 8749SOL    HW237710   0.059   2.860   9.308 -0.1222  0.1824  0.0679
 8750SOL     OW37711   1.408   0.767  10.270  0.0892 -0.3269  0.0960
 8750SOL    HW137712   1.363   0.794  10.350 -1.6536  2.4175 -1.8487
 8750SOL    HW237713   1.447   0.690  10.312  2.7330  0.7990 -0.2891
 8751SOL     OW37714   1.412   1.093   5.921 -0.2891 -0.1329  0.0053
 8751SOL    HW137715   1.409   1.180   5.881 -1.4217 -0.0271  0.3171
 8751SOL    HW237716   1.438   1.040   5.846 -0.9984  0.7213 -0.8335
 8752SOL     OW37717   0.472   4.259   0.653 -0.4592 -0.2527 -0.2900
 8752SOL    HW137718   0.494   4.197   0.723 -1.1266 -0.9305 -0.6782
 8752SOL    HW237719   0.378   4.239   0.647 -0.6670  1.0658 -1.4410
 8753SOL     OW37720   1.336   0.335   2.660  0.3710 -0.2458  0.1788
 8753SOL    HW137721   1.322   0.360   2.751 -1.0211 -3.0888  0.7687
 8753SOL    HW237722   1.242   0.343   2.641 -0.0608  0.4905  2.7034
 8754SOL     OW37723   1.385   1.353   8.407 -0.0666 -0.1866 -0.5798
 8754SOL    HW137724   1.334   1.330   8.329 -1.7248 -0.8362  0.7090
 8754SOL    HW237725   1.401   1.264   8.438 -1.6747  0.7376  2.9125
 8755SOL     OW37726   2.317   0.274   8.055 -0.5027 -1.0259  0.2278
 8755SOL    HW137727   2.288   0.334   7.986  2.0195 -0.1233 -0.0500
 8755SOL    HW237728   2.234   0.231   8.072 -1.4552  0.0091 -1.7533
 8756SOL     OW37729   0.927   3.399  11.813  0.4036  0.6129  0.8553
 8756SOL    HW137730   0.918   3.487  11.777 -0.3094  0.0418 -0.3571
 8756SOL    HW237731   1.021   3.405  11.831  0.8307 -1.0083 -0.9813
 8757SOL     OW37732   2.054   3.021  10.697 -0.0842  0.4716 -0.3730
 8757SOL    HW137733   2.143   3.044  10.673  0.9722 -0.4420  2.6233
 8757SOL    HW237734   2.063   2.928  10.675  0.3922  0.1881  1.0111
 8758SOL     OW37735   1.489   3.537  17.014  0.3611 -0.5597  0.2765
 8758SOL    HW137736   1.574   3.580  17.020 -0.4616  1.3340 -1.8952
 8758SOL    HW237737   1.426   3.607  16.999  0.7134  0.0104  1.3980
 8759SOL     OW37738   1.085   0.025  15.457  0.3463  0.4229  0.9255
 8759SOL    HW137739   1.057   4.665  15.481  1.8131 -1.0303 -2.7055
 8759SOL    HW237740   1.082   0.031  15.361 -1.4070 -1.8869  0.8338
 8760SOL     OW37741   2.572   4.037   5.484  0.1050 -0.6436  0.3757
 8760SOL    HW137742   2.606   4.068   5.400 -2.2885  1.9978  0.3856
 8760SOL    HW237743   2.645   4.059   5.542 -0.3597  0.1931  0.6371
 8761SOL     OW37744   1.944   0.632  17.462 -0.1615  0.5360 -0.0287
 8761SOL    HW137745   1.922   0.564  17.398  2.5068  0.8275 -1.2338
 8761SOL    HW237746   1.921   0.709  17.410 -0.0267  1.3325  1.0828
 8762SOL     OW37747   4.569   0.224  15.677 -0.0508  0.4922 -0.0604
 8762SOL    HW137748   4.652   0.180  15.658  0.3931  1.0112  0.6275
 8762SOL    HW237749   4.504   0.160  15.649 -1.0254  0.5307  2.1301
 8763SOL     OW37750   2.106   4.689   0.052 -0.2062  0.1198 -0.8616
 8763SOL    HW137751   2.160   4.683  17.687  0.5164 -3.3661 -0.1201
 8763SOL    HW237752   2.030   4.636   0.028 -1.5641  1.6638  0.0607
 8764SOL     OW37753   1.544   1.247  11.385 -0.5465 -0.4377 -0.2048
 8764SOL    HW137754   1.461   1.225  11.342  0.2781 -3.0168 -0.4856
 8764SOL    HW237755   1.608   1.197  11.334  0.6859 -0.8169  1.6927
 8765SOL     OW37756   4.201   2.726   4.610  0.4964  0.8388  0.0985
 8765SOL    HW137757   4.229   2.773   4.532  2.9814 -0.0140  0.4855
 8765SOL    HW237758   4.140   2.659   4.577  0.6802  0.0788  1.3111
 8766SOL     OW37759   3.478   1.471   4.742  0.4141 -0.2706 -0.1846
 8766SOL    HW137760   3.509   1.512   4.823 -2.4407  3.4311 -0.9480
 8766SOL    HW237761   3.466   1.382   4.776 -0.1948  0.4931  1.6374
 8767SOL     OW37762   2.285   2.212  11.827 -0.0773  0.1040 -0.1057
 8767SOL    HW137763   2.359   2.165  11.788 -0.3773 -0.6383  0.2122
 8767SOL    HW237764   2.301   2.181  11.916  0.9098  2.7134  0.6353
 8768SOL     OW37765   4.299   0.138   7.804  0.1188  0.1051 -0.1610
 8768SOL    HW137766   4.266   0.101   7.722  2.0596  2.7045 -2.0833
 8768SOL    HW237767   4.362   0.208   7.787  0.5114  0.2190  1.7514
 8769SOL     OW37768   2.096   3.220  10.494  0.1108  0.0628  0.3582
 8769SOL    HW137769   2.130   3.271  10.421 -0.6082 -1.3947 -1.0194
 8769SOL    HW237770   2.159   3.238  10.564  0.8581  0.0463 -0.3145
 8770SOL     OW37771   3.161   2.485   4.003  0.9602  1.0140  0.1239
 8770SOL    HW137772   3.222   2.422   3.963 -1.7495 -0.2429 -2.0253
 8770SOL    HW237773   3.140   2.451   4.090  0.2984 -0.7410 -0.7216
 8771SOL     OW37774   3.292   0.104   4.189 -0.3351 -0.1546 -0.4826
 8771SOL    HW137775   3.235   0.144   4.255  1.6908 -1.0841  1.8537
 8771SOL    HW237776   3.237   0.078   4.115  1.2510 -1.6756 -1.1535
 8772SOL     OW37777   1.666   0.070  10.676  0.3055 -0.3956 -0.4291
 8772SOL    HW137778   1.629   0.057  10.763  0.6813  1.8916  0.0666
 8772SOL    HW237779   1.729   0.141  10.689  0.2615 -1.0623  3.3470
 8773SOL     OW37780   0.953   1.763   0.553  0.5158  0.0069  0.8418
 8773SOL    HW137781   0.959   1.723   0.466 -1.3257  0.8369  0.3410
 8773SOL    HW237782   1.009   1.841   0.552  0.9692 -0.3334 -0.5811
 8774SOL     OW37783   1.744   4.510  17.127  0.3722  0.1401  0.2997
 8774SOL    HW137784   1.804   4.501  17.054  0.5363  2.6339  0.1129
 8774SOL    HW237785   1.802   4.554  17.190 -1.4371  1.2846  1.1684
 8775SOL     OW37786   4.362   3.762   1.889 -0.7189 -0.6400  0.6619
 8775SOL    HW137787   4.316   3.677   1.891  0.6063 -1.3487  0.8871
 8775SOL    HW237788   4.364   3.794   1.979  3.5953 -0.0368  0.3291
 8776SOL     OW37789   0.486   3.826   4.435 -0.1189  0.0807 -0.5492
 8776SOL    HW137790   0.465   3.735   4.455  1.4388 -0.2750 -0.4645
 8776SOL    HW237791   0.404   3.873   4.443  0.1732  0.8418 -2.0029
 8777SOL     OW37792   3.461   4.314  11.732  0.0746 -0.0551  0.2651
 8777SOL    HW137793   3.507   4.384  11.685 -0.6134 -0.5601 -1.1557
 8777SOL    HW237794   3.483   4.334  11.823 -1.7509  2.4068  0.1950
 8778SOL     OW37795   3.793   3.272   9.099  0.3070 -1.0658  0.1275
 8778SOL    HW137796   3.732   3.294   9.169  0.8507 -2.1862  0.9467
 8778SOL    HW237797   3.730   3.234   9.037 -0.8301  1.0832 -0.0154
 8779SOL     OW37798   3.266   4.551   9.873  0.1309  0.6147  0.4688
 8779SOL    HW137799   3.229   4.594   9.950 -0.8717  0.6418 -0.0138
 8779SOL    HW237800   3.313   4.625   9.836 -0.8648  0.9722 -0.0846
 8780SOL     OW37801   3.945   2.387   6.436 -0.8200  0.0421  0.2086
 8780SOL    HW137802   3.991   2.325   6.492  0.4961  1.4196  0.6722
 8780SOL    HW237803   3.955   2.458   6.500 -1.1907 -0.8766  1.2862
 8781SOL     OW37804   0.518   1.347  15.168 -0.1757  0.2242 -0.4437
 8781SOL    HW137805   0.583   1.343  15.097 -0.1332  0.0280 -0.3952
 8781SOL    HW237806   0.519   1.266  15.220 -1.5570 -1.7810 -3.5030
 8782SOL     OW37807   1.226   1.615  10.758  0.0125 -0.2300 -0.4932
 8782SOL    HW137808   1.186   1.529  10.768 -0.3915  0.0353  0.1685
 8782SOL    HW237809   1.290   1.601  10.688  0.8241  1.0959 -0.0079
 8783SOL     OW37810   2.944   3.803   8.761  0.2579 -0.1687 -0.1829
 8783SOL    HW137811   2.925   3.725   8.709 -0.5720  0.4941 -0.8629
 8783SOL    HW237812   3.038   3.815   8.751  0.1927  0.6201  0.1446
 8784SOL     OW37813   0.924   3.955  16.540  0.4016  0.5180 -0.7398
 8784SOL    HW137814   0.926   4.004  16.623  0.2699 -2.9221  1.2929
 8784SOL    HW237815   0.845   3.998  16.508 -0.9041 -0.3269  1.3367
 8785SOL     OW37816   2.103   0.521  11.973  0.0467 -0.6742 -0.2611
 8785SOL    HW137817   2.129   0.438  12.012  1.1837 -0.1134  0.1634
 8785SOL    HW237818   2.010   0.507  11.989 -0.3204 -0.5435 -2.2986
 8786SOL     OW37819   3.249   3.623   0.285  0.0127  0.5269  0.1442
 8786SOL    HW137820   3.262   3.573   0.365 -0.0705  0.2457 -0.0173
 8786SOL    HW237821   3.292   3.574   0.214  1.0224 -1.4088  2.1069
 8787SOL     OW37822   2.981   0.559   2.904  0.0199 -0.2057  0.0713
 8787SOL    HW137823   3.076   0.543   2.909 -0.2283 -0.9375  2.4022
 8787SOL    HW237824   2.948   0.480   2.946 -0.9905 -0.8454 -1.9538
 8788SOL     OW37825   1.160   0.210  12.497  0.1366 -0.3973 -0.6763
 8788SOL    HW137826   1.069   0.186  12.482 -0.7866  2.4511  0.4791
 8788SOL    HW237827   1.184   0.142  12.561 -0.8808  0.0078  0.1202
 8789SOL     OW37828   3.995   2.413   4.059 -0.1614 -0.1661  0.1322
 8789SOL    HW137829   3.935   2.463   4.003  1.9981  0.0779 -1.9497
 8789SOL    HW237830   3.940   2.353   4.110 -1.2134 -0.0955 -0.9339
 8790SOL     OW37831   1.284   3.975   9.115  0.4261 -0.5562 -0.2016
 8790SOL    HW137832   1.275   3.911   9.186 -1.8709 -1.1383 -1.0109
 8790SOL    HW237833   1.195   4.000   9.091  0.6272 -0.1901 -0.5549
 8791SOL     OW37834   2.145   3.665   3.233  0.3246 -0.3003 -0.1702
 8791SOL    HW137835   2.111   3.607   3.301  1.9568  1.1271  1.8403
 8791SOL    HW237836   2.129   3.752   3.269  0.3179 -1.3343  2.3032
 8792SOL     OW37837   0.817   0.317   1.541 -0.3913  0.6755 -0.8718
 8792SOL    HW137838   0.768   0.294   1.620  0.8313  0.1750 -0.2599
 8792SOL    HW237839   0.874   0.385   1.577 -2.5242  0.2915  3.2976
 8793SOL     OW37840   2.727   3.886   9.339  0.2954  0.1989 -0.3728
 8793SOL    HW137841   2.638   3.900   9.308 -0.0187  1.0848  0.9550
 8793SOL    HW237842   2.730   3.792   9.321  2.0261  0.3945 -1.1549
 8794SOL     OW37843   2.594   0.910   6.170  0.1287  0.3591  0.3140
 8794SOL    HW137844   2.600   0.930   6.077 -1.0837 -0.0444  0.1588
 8794SOL    HW237845   2.501   0.924   6.188 -0.5469 -1.0951 -2.1385
 8795SOL     OW37846   2.010   1.068   9.618 -0.0650 -0.1048  0.2817
 8795SOL    HW137847   1.965   1.075   9.534 -3.2785 -1.3848  1.8987
 8795SOL    HW237848   2.096   1.103   9.595  0.2135 -0.2250  1.1599
 8796SOL     OW37849   0.883   3.574   8.770  0.3422  0.4097 -0.4516
 8796SOL    HW137850   0.922   3.545   8.687  0.3599 -2.9745  0.7526
 8796SOL    HW237851   0.916   3.505   8.827 -1.8975  0.0431  0.4182
 8797SOL     OW37852   1.608   2.009   9.678  0.3916 -0.2478  0.4484
 8797SOL    HW137853   1.701   2.026   9.693  1.0190 -2.2502 -1.0288
 8797SOL    HW237854   1.610   1.915   9.659  1.1610 -0.1405 -0.0163
 8798SOL     OW37855   3.762   2.561   5.644  0.4241  0.5109  0.2722
 8798SOL    HW137856   3.695   2.540   5.708  1.0702  2.0154  1.4439
 8798SOL    HW237857   3.708   2.617   5.588  0.6650  0.2695 -0.1990
 8799SOL     OW37858   4.451   1.849   2.171 -0.1518  0.1144 -0.1016
 8799SOL    HW137859   4.404   1.887   2.097  0.1849 -1.0141 -0.8822
 8799SOL    HW237860   4.516   1.799   2.124 -1.6302 -1.4440 -0.4822
 8800SOL     OW37861   3.092   3.121  10.368 -0.2942 -0.1950 -0.4966
 8800SOL    HW137862   3.069   3.055  10.434 -2.4291  0.7606 -0.2785
 8800SOL    HW237863   3.066   3.203  10.410  0.1057 -0.3997  0.1605
 8801SOL     OW37864   4.000   1.475   7.340  0.5017  0.2232  0.2871
 8801SOL    HW137865   3.916   1.519   7.350  0.9797  1.6978 -2.0099
 8801SOL    HW237866   3.980   1.392   7.383 -2.2602  0.9661  0.4632
 8802SOL     OW37867   1.123   2.868   3.454  0.1507  0.1525  0.3306
 8802SOL    HW137868   1.138   2.928   3.380  1.3045 -1.7051 -0.9322
 8802SOL    HW237869   1.028   2.875   3.463  0.3260  1.5605  1.1231
 8803SOL     OW37870   1.302   1.823   0.929  0.3984 -0.5365  0.7724
 8803SOL    HW137871   1.251   1.751   0.966  0.9559 -0.7045  1.2189
 8803SOL    HW237872   1.303   1.878   1.007 -0.9357  2.8980 -1.6591
 8804SOL     OW37873   4.270   1.100   4.916  0.6645 -0.3441 -0.5008
 8804SOL    HW137874   4.345   1.072   4.969 -0.2925  1.0981  1.6412
 8804SOL    HW237875   4.257   1.013   4.878  1.6647 -0.1768 -1.2246
 8805SOL     OW37876   1.841   2.638   3.110  0.3177 -0.2873  0.3980
 8805SOL    HW137877   1.919   2.683   3.078 -0.4774 -0.2027 -1.3802
 8805SOL    HW237878   1.820   2.572   3.044 -0.8517  1.3506 -0.8617
 8806SOL     OW37879   4.036   0.181   3.449 -0.1759 -0.9204  0.1947
 8806SOL    HW137880   4.007   0.169   3.358  0.2859 -0.4285 -0.0207
 8806SOL    HW237881   4.122   0.138   3.441 -0.1169 -0.9224  0.9101
 8807SOL     OW37882   1.500   3.799   3.854  0.2571 -0.2126  0.2575
 8807SOL    HW137883   1.552   3.785   3.933  1.4247  1.0811 -0.2817
 8807SOL    HW237884   1.411   3.797   3.891  0.2091  1.2629  0.2227
 8808SOL     OW37885   1.626   0.247   0.970  0.6329 -0.2521 -0.4315
 8808SOL    HW137886   1.579   0.193   0.905 -1.3364 -0.2690  0.9923
 8808SOL    HW237887   1.671   0.176   1.014 -0.0917  0.3643  1.2891
 8809SOL     OW37888   3.114   2.351   2.253  0.5760 -0.0984 -0.8432
 8809SOL    HW137889   3.085   2.377   2.165 -1.8841  0.8358  0.2539
 8809SOL    HW237890   3.102   2.256   2.253 -0.9868  0.0942 -2.3872
 8810SOL     OW37891   0.600   0.263   5.921  0.2624 -0.5425  0.3990
 8810SOL    HW137892   0.608   0.310   6.003 -0.7484  0.4886 -0.0920
 8810SOL    HW237893   0.519   0.294   5.880  0.5811 -1.0164 -0.6003
 8811SOL     OW37894   3.922   2.343   6.924  0.2400 -0.1825  0.2178
 8811SOL    HW137895   3.928   2.260   6.877 -0.0510 -0.4381  0.6324
 8811SOL    HW237896   3.928   2.324   7.018  0.9434 -1.0577 -0.0126
 8812SOL     OW37897   2.142   1.559  15.195  0.0046 -0.6881 -0.5581
 8812SOL    HW137898   2.115   1.507  15.119 -0.7709  0.4689 -1.0704
 8812SOL    HW237899   2.070   1.541  15.256  1.5481  0.2854  1.5543
 8813SOL     OW37900   4.641   1.910   6.190 -0.4619 -0.0379  0.0079
 8813SOL    HW137901   4.667   1.862   6.111 -3.3562 -2.6936  0.6678
 8813SOL    HW237902   4.718   1.909   6.246 -0.6034 -1.7820  0.1623
 8814SOL     OW37903   3.306   2.022   5.866  0.8312  0.3410  0.8410
 8814SOL    HW137904   3.354   1.967   5.804  0.1081 -0.6542  1.1719
 8814SOL    HW237905   3.333   1.988   5.952 -2.9534  1.2438  2.3726
 8815SOL     OW37906   0.513   3.799   6.783 -0.9546  0.3282  0.2583
 8815SOL    HW137907   0.598   3.796   6.740 -1.6046  0.7210 -1.0484
 8815SOL    HW237908   0.535   3.760   6.868  1.1035  1.2677  0.1490
 8816SOL     OW37909   2.925   0.083   3.623  0.4647  0.0987 -0.5466
 8816SOL    HW137910   2.900   4.725   3.655 -0.5694  0.3833 -0.5803
 8816SOL    HW237911   2.991   0.057   3.558 -0.0132 -0.8210 -0.6552
 8817SOL     OW37912   2.430   0.544   7.912 -0.4782  0.1929  0.1102
 8817SOL    HW137913   2.455   0.568   8.001  0.9087 -0.9788  0.0470
 8817SOL    HW237914   2.488   0.609   7.872 -0.6383 -0.1446 -0.6819
 8818SOL     OW37915   3.868   1.963  13.793  0.2984  0.9092 -0.3416
 8818SOL    HW137916   3.939   1.957  13.858 -0.0626 -0.2116 -0.0560
 8818SOL    HW237917   3.801   2.013  13.839 -1.9204 -0.0970 -2.5104
 8819SOL     OW37918   1.586   3.579   6.374  0.0603  0.2178  0.4508
 8819SOL    HW137919   1.665   3.543   6.334  1.1336 -0.4235  3.0976
 8819SOL    HW237920   1.612   3.671   6.369  0.6603 -0.0209 -0.8789
 8820SOL     OW37921   1.933   2.541  15.160 -0.3018  0.5829  0.3740
 8820SOL    HW137922   1.972   2.455  15.175 -1.6650 -0.5504 -2.5746
 8820SOL    HW237923   2.003   2.602  15.182  0.5537 -0.6578  1.1374
 8821SOL     OW37924   1.428   0.165   7.106  0.0785  0.1322 -0.1485
 8821SOL    HW137925   1.421   0.130   7.195  4.0207 -2.0537 -0.6687
 8821SOL    HW237926   1.491   0.105   7.067 -0.9098  0.2772 -1.9715
 8822SOL     OW37927   4.480   1.414   4.333 -0.0989 -0.2067 -0.3432
 8822SOL    HW137928   4.499   1.373   4.417 -0.7535 -0.3602 -0.2751
 8822SOL    HW237929   4.545   1.370   4.278 -1.3224 -0.8391 -1.2821
 8823SOL     OW37930   2.846   3.002   5.329 -0.2001 -0.4387 -0.5172
 8823SOL    HW137931   2.763   3.042   5.355 -0.3387 -0.9197 -0.2027
 8823SOL    HW237932   2.889   3.082   5.301 -1.0896  0.5970  1.1023
 8824SOL     OW37933   1.888   2.510   4.652  0.2688 -0.8440  0.6771
 8824SOL    HW137934   1.893   2.426   4.605  1.1680 -1.2714  1.5240
 8824SOL    HW237935   1.848   2.568   4.588  0.5187  3.0924  4.1288
 8825SOL     OW37936   3.799   4.722  17.359  0.4434 -0.1951  0.2974
 8825SOL    HW137937   3.823   4.633  17.336  0.7518 -0.3475  1.2091
 8825SOL    HW237938   3.745   4.712  17.437  0.6296  3.5950  0.9208
 8826SOL     OW37939   3.494   3.734   3.729  0.4887  0.0821 -0.4794
 8826SOL    HW137940   3.407   3.720   3.693  0.7294 -0.8340 -0.6893
 8826SOL    HW237941   3.535   3.798   3.671 -0.6971 -0.6860 -2.1434
 8827SOL     OW37942   2.826   1.637   5.358  0.3569  0.0077  0.2944
 8827SOL    HW137943   2.815   1.544   5.379 -0.0063  0.1474  0.7070
 8827SOL    HW237944   2.912   1.627   5.316  0.5555  1.3678  0.4013
 8828SOL     OW37945   1.733   0.242   5.943 -0.3630 -0.1965 -0.0106
 8828SOL    HW137946   1.724   0.316   6.003  0.4919 -1.0507  1.1661
 8828SOL    HW237947   1.643   0.229   5.914  0.1641 -0.9545 -1.2978
 8829SOL     OW37948   0.366   2.444  12.300  0.4545  0.4811 -0.1472
 8829SOL    HW137949   0.390   2.374  12.360  0.0847  0.5554  0.0877
 8829SOL    HW237950   0.452   2.463  12.262  0.5902  1.3221  0.5792
 8830SOL     OW37951   0.847   2.726   6.819 -0.0717 -0.1903 -0.1223
 8830SOL    HW137952   0.908   2.656   6.797  0.4021  0.9785 -2.6253
 8830SOL    HW237953   0.862   2.730   6.913  2.2088  0.1815 -0.5205
 8831SOL     OW37954   3.061   2.936   2.955  0.3304 -0.0417 -0.1070
 8831SOL    HW137955   3.071   2.925   2.860  2.3373 -1.7693  0.2959
 8831SOL    HW237956   3.064   3.031   2.969 -2.0555  0.2934 -1.8990
 8832SOL     OW37957   0.179   2.802  11.441 -0.4767  0.3460  0.5868
 8832SOL    HW137958   0.161   2.860  11.514 -1.2719 -0.3954  0.9768
 8832SOL    HW237959   0.096   2.802  11.393 -0.5206 -0.1970  0.6632
 8833SOL     OW37960   2.910   2.499   8.377  0.7061 -0.0088 -0.0420
 8833SOL    HW137961   2.927   2.584   8.335 -0.8256  0.1848 -0.2635
 8833SOL    HW237962   2.848   2.454   8.321  2.6970 -0.5926 -1.7964
 8834SOL     OW37963   0.262   0.550   3.502 -0.1426  0.1885 -0.3619
 8834SOL    HW137964   0.248   0.504   3.584 -0.8515  0.2001 -0.4781
 8834SOL    HW237965   0.248   0.637   3.541 -0.7216 -0.0530 -0.0434
 8835SOL     OW37966   2.136   2.541   3.107  0.2708  0.0778  0.5322
 8835SOL    HW137967   2.132   2.528   3.202 -1.2200 -2.4815  0.0997
 8835SOL    HW237968   2.229   2.566   3.102  0.8739 -1.8162  2.0688
 8836SOL     OW37969   3.647   4.381   9.849 -0.5084 -0.3815  0.4259
 8836SOL    HW137970   3.632   4.452   9.786 -0.1300 -1.3302 -0.7395
 8836SOL    HW237971   3.560   4.350   9.872 -0.6503  0.8099  1.4897
 8837SOL     OW37972   4.139   4.222   4.110 -0.1843  0.0871  0.3293
 8837SOL    HW137973   4.053   4.227   4.152  0.2038  1.8738  0.9048
 8837SOL    HW237974   4.195   4.276   4.166 -0.5147  0.5124  0.2532
 8838SOL     OW37975   0.775   0.105   4.084  0.1072 -0.1006  0.1478
 8838SOL    HW137976   0.718   0.034   4.114  1.0496 -1.1935 -0.6463
 8838SOL    HW237977   0.718   0.180   4.066  2.6525  1.2528 -2.2718
 8839SOL     OW37978   0.141   0.915   5.779 -0.6686  0.0621 -0.0309
 8839SOL    HW137979   0.201   0.842   5.766 -0.1861  0.5069 -0.3185
 8839SOL    HW237980   0.172   0.963   5.702 -0.9370 -0.2477 -0.3302
 8840SOL     OW37981   0.498   2.151   9.837  0.7057  0.0126 -0.0744
 8840SOL    HW137982   0.476   2.165   9.745 -0.6120 -1.4213  0.0252
 8840SOL    HW237983   0.510   2.241   9.868  0.3103  0.1935 -0.4419
 8841SOL     OW37984   3.862   1.346  14.163 -0.7145  0.1991 -0.5773
 8841SOL    HW137985   3.810   1.267  14.149  0.1125  0.0802 -2.8542
 8841SOL    HW237986   3.802   1.417  14.139  0.7673  1.1593 -1.4310
 8842SOL     OW37987   2.117   3.859   6.663  0.3417 -0.2693 -0.0338
 8842SOL    HW137988   2.149   3.858   6.753 -0.5917 -1.0544  0.2856
 8842SOL    HW237989   2.174   3.921   6.618  1.9215 -1.1326  0.8106
 8843SOL     OW37990   1.272   3.452   8.842  0.0701 -0.2966  0.2281
 8843SOL    HW137991   1.184   3.454   8.881 -0.1602 -2.1303 -0.1712
 8843SOL    HW237992   1.271   3.518   8.773  1.8356 -0.4985  0.0159
 8844SOL     OW37993   3.835   0.610   2.615  0.1020  0.2017  0.3491
 8844SOL    HW137994   3.748   0.570   2.614 -0.2122  0.8621  0.8373
 8844SOL    HW237995   3.833   0.696   2.656 -0.4689 -0.3652  1.5139
 8845SOL     OW37996   1.954   2.091   5.804 -0.1276  0.3856 -0.0677
 8845SOL    HW137997   1.968   2.092   5.709 -0.6461  1.4719 -0.1418
 8845SOL    HW237998   2.042   2.104   5.838 -0.1416  2.3866 -0.7510
 8846SOL     OW37999   0.318   1.085   0.615 -0.2266  0.2206 -0.7808
 8846SOL    HW138000   0.349   1.176   0.618 -0.2250  0.2200 -0.7778
 8846SOL    HW238001   0.395   1.033   0.641 -1.9106 -1.9821 -0.2060
 8847SOL     OW38002   4.006   1.815  13.624 -0.1250  0.5081 -0.6214
 8847SOL    HW138003   3.936   1.759  13.591 -1.2022 -0.1894  2.8441
 8847SOL    HW238004   3.960   1.851  13.699  1.9553 -0.7157  1.2565
 8848SOL     OW38005   3.273   0.887  13.623 -0.0246  0.0035  0.4215
 8848SOL    HW138006   3.215   0.814  13.602  1.4199 -0.2971 -2.4258
 8848SOL    HW238007   3.209   0.957  13.636 -2.2287 -1.9535  0.1432
 8849SOL     OW38008   1.840   2.950   4.770  0.0225  0.4118  0.0254
 8849SOL    HW138009   1.855   2.941   4.676 -0.1369  2.2075 -0.1707
 8849SOL    HW238010   1.886   2.874   4.807  0.9731  0.8121 -0.3326
 8850SOL     OW38011   3.222   1.651   9.380 -0.3140 -0.4065  0.2400
 8850SOL    HW138012   3.274   1.572   9.397  0.7724  0.2909  0.1234
 8850SOL    HW238013   3.136   1.622   9.352  0.1434 -0.8841 -0.6515
 8851SOL     OW38014   1.900   0.778   4.842  0.5234  0.5205 -0.7806
 8851SOL    HW138015   1.912   0.686   4.819  1.6105  0.5446 -0.3247
 8851SOL    HW238016   1.842   0.788   4.767 -1.5337  2.2939  1.0381
 8852SOL     OW38017   3.800   4.366   9.498  0.5577  0.4647  1.0144
 8852SOL    HW138018   3.750   4.286   9.480  0.6536  0.6399 -0.0619
 8852SOL    HW238019   3.888   4.331   9.484 -0.5964 -2.1870  0.2615
 8853SOL     OW38020   4.365   0.401  15.666 -0.3077  0.6699 -0.3224
 8853SOL    HW138021   4.441   0.343  15.668 -0.9843 -0.1726  1.4344
 8853SOL    HW238022   4.322   0.370  15.587 -0.0375  0.1718 -0.2778
 8854SOL     OW38023   1.363   1.907  11.375 -0.2136  0.1476  0.3079
 8854SOL    HW138024   1.418   1.830  11.360 -1.7707 -0.7570 -0.7485
 8854SOL    HW238025   1.283   1.867  11.409  0.0661 -0.0779  0.6928
 8855SOL     OW38026   2.192   1.513   1.457  0.3149 -0.3640 -0.5666
 8855SOL    HW138027   2.259   1.453   1.424  0.4704  0.1165 -1.1284
 8855SOL    HW238028   2.124   1.498   1.390  1.4092 -1.4824 -1.4299
 8856SOL     OW38029   4.263   0.831   4.473 -0.0429  0.2557  0.6100
 8856SOL    HW138030   4.195   0.788   4.524  0.1300  2.0178  2.3314
 8856SOL    HW238031   4.338   0.799   4.524 -0.3530  0.0632  0.9418
 8857SOL     OW38032   4.029   1.478   3.174  0.5089  0.1279  0.0816
 8857SOL    HW138033   4.066   1.466   3.262 -0.5887  0.4629  0.5815
 8857SOL    HW238034   3.946   1.520   3.194  0.7859 -0.4211  2.4878
 8858SOL     OW38035   3.919   1.933   9.802 -0.0469 -0.6814  0.0992
 8858SOL    HW138036   3.864   1.873   9.751  1.4361 -3.6017  1.9329
 8858SOL    HW238037   3.990   1.877   9.835 -0.0057  0.3728  1.7556
 8859SOL     OW38038   1.022   1.926   3.619 -0.2572  0.5757 -0.7236
 8859SOL    HW138039   1.007   2.020   3.607  2.0950  0.8863 -1.2550
 8859SOL    HW238040   1.104   1.922   3.570  0.3987 -1.6897  0.6058
 8860SOL     OW38041   2.952   4.606  14.446  0.0790 -0.1838  0.1629
 8860SOL    HW138042   2.878   4.636  14.393  0.3627 -0.0886 -0.1758
 8860SOL    HW238043   2.995   4.552  14.380  0.9672 -1.0481  1.4469
 8861SOL     OW38044   3.377   3.445   4.369  0.4201  0.4732 -0.3297
 8861SOL    HW138045   3.409   3.514   4.310  0.0566 -1.4637 -2.8190
 8861SOL    HW238046   3.283   3.450   4.353  0.3663  1.1473  0.2313
 8862SOL     OW38047   2.032   2.302   4.834  0.0835  0.0545 -0.8363
 8862SOL    HW138048   1.960   2.262   4.884 -2.3375  3.2294 -1.8263
 8862SOL    HW238049   1.983   2.356   4.772 -1.0738 -0.8848 -0.7490
 8863SOL     OW38050   0.641   1.989   3.388  0.1476 -0.3263  0.1663
 8863SOL    HW138051   0.712   1.959   3.446  0.3490 -0.6191 -0.2346
 8863SOL    HW238052   0.598   1.906   3.367 -1.2234  0.1105  1.2148
 8864SOL     OW38053   2.040   2.144   8.920 -0.3352  0.2773 -0.0962
 8864SOL    HW138054   2.064   2.180   8.834  1.3530  1.6674  0.9356
 8864SOL    HW238055   2.105   2.195   8.969 -0.5993  2.2374 -1.7698
 8865SOL     OW38056   0.266   1.841   6.024  0.0089  0.2336  0.0061
 8865SOL    HW138057   0.254   1.873   6.113 -0.7016  0.1715 -0.0707
 8865SOL    HW238058   0.179   1.809   6.002  0.6095 -0.0424 -1.9501
 8866SOL     OW38059   1.314   4.044  10.452  0.6297  0.0805 -0.3208
 8866SOL    HW138060   1.266   4.071  10.530 -1.2229  2.3613 -2.2394
 8866SOL    HW238061   1.369   3.975  10.490 -0.0227 -0.3731 -0.1984
 8867SOL     OW38062   1.245   0.402   9.387  0.0700 -0.8048  0.1786
 8867SOL    HW138063   1.258   0.491   9.417 -1.3658 -0.2733 -0.7634
 8867SOL    HW238064   1.215   0.373   9.473  1.9485 -4.2660 -0.3366
 8868SOL     OW38065   1.876   0.257   0.830  0.1425 -0.2410  0.5760
 8868SOL    HW138066   1.821   0.192   0.873  1.1155 -1.1839  0.4032
 8868SOL    HW238067   1.883   0.314   0.906  0.9155 -0.8386  0.9560
 8869SOL     OW38068   1.250   2.230   5.368 -0.0321  0.0801  0.3729
 8869SOL    HW138069   1.305   2.287   5.421 -0.5438  0.2439  0.7333
 8869SOL    HW238070   1.206   2.180   5.437  0.2746 -0.7968 -0.0660
 8870SOL     OW38071   2.770   4.478  16.255  0.8628  0.5768  0.0995
 8870SOL    HW138072   2.835   4.507  16.191 -0.1434  0.3811 -1.0248
 8870SOL    HW238073   2.680   4.503  16.232  0.0224 -1.1420  1.4940
 8871SOL     OW38074   2.143   0.084  16.868  0.7619  0.1938  0.0023
 8871SOL    HW138075   2.142   0.151  16.936  0.5083  0.7418 -0.5440
 8871SOL    HW238076   2.224   0.038  16.890 -0.2625 -1.1397  0.9829
 8872SOL     OW38077   3.066   2.853   9.194  0.1424 -0.3360  0.0993
 8872SOL    HW138078   3.031   2.828   9.280  2.6280 -0.4746  1.0629
 8872SOL    HW238079   3.160   2.844   9.207  0.2995  3.4480  1.3439
 8873SOL     OW38080   2.331   1.628   6.973 -0.3917  0.4145 -0.1377
 8873SOL    HW138081   2.376   1.610   7.056 -0.0008  2.4990  0.0950
 8873SOL    HW238082   2.277   1.704   6.997 -4.0215 -2.1905 -0.0523
 8874SOL     OW38083   1.089   3.371   4.653 -0.0343 -0.8578 -0.0560
 8874SOL    HW138084   1.057   3.350   4.565 -0.0513  1.7986 -0.6727
 8874SOL    HW238085   1.023   3.437   4.676  0.4987 -0.8750  1.5051
 8875SOL     OW38086   4.485   0.180   7.297 -0.3299 -0.3573 -0.6597
 8875SOL    HW138087   4.555   0.197   7.234 -1.0847  0.8217 -1.1831
 8875SOL    HW238088   4.405   0.204   7.250  0.1849 -1.7540 -2.2402
 8876SOL     OW38089   0.827   3.207   8.723  0.3822  0.2132  0.1887
 8876SOL    HW138090   0.782   3.127   8.752  0.5664  0.0692  0.0830
 8876SOL    HW238091   0.772   3.270   8.769  0.7688 -0.0923  1.0662
 8877SOL     OW38092   0.694   0.761   5.305  0.5600 -0.0673  0.4262
 8877SOL    HW138093   0.780   0.801   5.303  0.4064  0.2812  0.7631
 8877SOL    HW238094   0.709   0.668   5.291 -0.1485  0.2342 -2.2782
 8878SOL     OW38095   0.133   0.037   8.026  0.3270  0.1797  0.1022
 8878SOL    HW138096   0.038   0.029   8.017  0.2939 -0.0866  0.6944
 8878SOL    HW238097   0.157   4.681   8.065 -1.3064  0.2730  1.2934
 8879SOL     OW38098   0.269   0.838   4.057 -0.0936  0.0102 -0.2728
 8879SOL    HW138099   0.314   0.793   4.128 -1.5929  1.2886  1.5016
 8879SOL    HW238100   0.274   0.768   3.993  3.0247 -1.9666  2.1458
 8880SOL     OW38101   2.606   1.536   8.613 -0.0885  0.0037  0.1223
 8880SOL    HW138102   2.580   1.474   8.681  0.5304 -0.9009 -0.4802
 8880SOL    HW238103   2.621   1.616   8.665  2.9991 -0.5005 -0.0411
 8881SOL     OW38104   0.250   2.327  15.372  0.2869 -0.0004  0.2059
 8881SOL    HW138105   0.308   2.360  15.303 -0.4502 -0.2428 -0.5384
 8881SOL    HW238106   0.308   2.338  15.447 -0.9223  2.1299  0.8271
 8882SOL     OW38107   4.566   0.142  12.040 -0.3130 -0.2631  0.4258
 8882SOL    HW138108   4.487   0.196  12.045  1.5012  2.6956 -2.5745
 8882SOL    HW238109   4.541   0.067  12.094 -1.1480  0.9317  1.6962
 8883SOL     OW38110   3.025   1.023  17.572  0.6423  0.3787 -0.5769
 8883SOL    HW138111   3.057   1.087  17.636 -0.0880  0.1150  0.0530
 8883SOL    HW238112   3.032   0.943  17.624 -0.7678 -1.2428 -2.8637
 8884SOL     OW38113   3.335   2.219   3.580 -0.0612 -0.2118  0.7150
 8884SOL    HW138114   3.426   2.239   3.602  1.2259 -2.3130 -2.7407
 8884SOL    HW238115   3.330   2.196   3.487  0.1364  2.3057  0.0959
 8885SOL     OW38116   0.643   0.445   6.535  0.2590  0.3971  0.3621
 8885SOL    HW138117   0.710   0.441   6.467  0.9452  1.2108  0.9978
 8885SOL    HW238118   0.572   0.488   6.486  1.5092  2.6718  0.5775
 8886SOL     OW38119   3.134   3.800  11.850  0.1640  0.3688  0.2171
 8886SOL    HW138120   3.205   3.754  11.895  0.5816  0.3358 -0.4685
 8886SOL    HW238121   3.179   3.845  11.779  2.8304 -0.8526  1.1122
 8887SOL     OW38122   3.115   4.501   7.502 -0.0210  0.2997 -0.4502
 8887SOL    HW138123   3.130   4.489   7.408 -0.1471 -0.5371 -0.3636
 8887SOL    HW238124   3.074   4.588   7.512 -0.6431 -0.1572  0.9905
 8888SOL     OW38125   1.502   4.513   5.156  0.0254  0.4551  0.2012
 8888SOL    HW138126   1.491   4.581   5.222  1.3303  0.7633  0.1136
 8888SOL    HW238127   1.596   4.514   5.138 -0.2761  0.9846 -1.3489
 8889SOL     OW38128   1.268   1.682  16.651  0.4365 -0.0899  0.0524
 8889SOL    HW138129   1.289   1.606  16.705 -0.2845  1.0333  1.9028
 8889SOL    HW238130   1.342   1.739  16.666  2.0570 -1.9974 -0.6080
 8890SOL     OW38131   2.614   1.989   3.738 -0.1055  0.8997  0.2685
 8890SOL    HW138132   2.705   1.998   3.768  0.5424 -2.7475 -0.5856
 8890SOL    HW238133   2.632   1.954   3.651 -1.8379  2.7728 -0.8399
 8891SOL     OW38134   3.196   0.209  13.769 -0.3857  0.1944 -0.1172
 8891SOL    HW138135   3.249   0.241  13.842 -0.6710 -2.6311  1.3171
 8891SOL    HW238136   3.110   0.248  13.783 -1.6542 -2.4121 -0.7252
 8892SOL     OW38137   2.927   0.626   4.083  0.3902  0.1724  0.3602
 8892SOL    HW138138   2.895   0.672   4.005  1.2305 -0.4929 -0.3793
 8892SOL    HW238139   2.899   0.540   4.050 -0.8239  1.2815 -1.4705
 8893SOL     OW38140   0.028   2.538   7.840  0.2127 -0.1390  0.1637
 8893SOL    HW138141   0.114   2.512   7.873 -0.5168 -2.1435  0.4524
 8893SOL    HW238142   4.708   2.576   7.913 -0.9656 -1.4384  0.0574
 8894SOL     OW38143   4.299   2.243  11.566  0.2939  0.3714  0.3685
 8894SOL    HW138144   4.290   2.273  11.475 -1.1022  0.4221  0.5190
 8894SOL    HW238145   4.216   2.195  11.573  0.2265  0.3766 -0.3683
 8895SOL     OW38146   3.537   2.887   6.451 -0.6506  0.4026  0.4294
 8895SOL    HW138147   3.595   2.915   6.521  1.3196 -0.8975 -0.6813
 8895SOL    HW238148   3.451   2.898   6.492 -1.0302  1.5892 -0.6921
 8896SOL     OW38149   0.808   3.118   5.734 -0.4932 -0.5248 -0.2230
 8896SOL    HW138150   0.733   3.176   5.726 -0.6006 -0.5432  0.6123
 8896SOL    HW238151   0.811   3.102   5.829 -3.0392 -0.8903 -0.2167
 8897SOL     OW38152   4.106   2.874   3.057 -0.0245  0.2504  0.2219
 8897SOL    HW138153   4.134   2.949   3.005 -0.2007  0.5538  0.5625
 8897SOL    HW238154   4.190   2.847   3.095  0.1239 -0.4934 -0.6374
 8898SOL     OW38155   1.177   1.126   7.338 -0.4799  0.3952 -0.5221
 8898SOL    HW138156   1.120   1.125   7.415 -0.7056  2.6026 -0.6824
 8898SOL    HW238157   1.245   1.190   7.358 -2.0935  1.4623  1.5032
 8899SOL     OW38158   3.626   1.074   6.495  0.3927 -0.5743  0.3701
 8899SOL    HW138159   3.573   0.996   6.477  0.9823 -0.5830 -1.3982
 8899SOL    HW238160   3.655   1.047   6.582 -1.8633  0.8324  1.5423
 8900SOL     OW38161   3.912   1.480   9.918 -0.2044  0.1745  0.1728
 8900SOL    HW138162   3.868   1.404   9.954 -3.1547  1.2425 -1.1843
 8900SOL    HW238163   3.917   1.553   9.980 -1.3246  1.4796 -1.2633
 8901SOL     OW38164   3.939   4.045   0.468  0.0064 -0.1706  0.2081
 8901SOL    HW138165   3.978   4.028   0.383 -0.1355 -0.7755  0.2635
 8901SOL    HW238166   3.866   4.104   0.449  0.4098  0.1941 -0.1837
 8902SOL     OW38167   1.107   3.698  17.279  0.3119  0.3760  0.3081
 8902SOL    HW138168   1.119   3.719  17.187  0.3342 -4.5828 -0.8331
 8902SOL    HW238169   1.042   3.629  17.263  0.1730  0.6775 -0.4150
 8903SOL     OW38170   0.542   3.238  11.660 -0.1266  0.5595 -0.3924
 8903SOL    HW138171   0.506   3.155  11.692  1.3535 -0.5808 -1.7224
 8903SOL    HW238172   0.473   3.303  11.675 -0.1006  0.2703  0.9874
 8904SOL     OW38173   1.606   1.104   7.290  0.4166 -0.3860  0.1141
 8904SOL    HW138174   1.645   1.126   7.206  0.5286  0.2541  0.3377
 8904SOL    HW238175   1.584   1.011   7.277 -0.5744 -0.3286  1.4028
 8905SOL     OW38176   0.215   1.931   3.563  0.1596 -0.5120  0.1531
 8905SOL    HW138177   0.152   2.003   3.572  0.5415 -0.3773  1.6808
 8905SOL    HW238178   0.231   1.944   3.470  2.2940 -0.4579  0.5325
 8906SOL     OW38179   1.859   0.161  15.934  0.0808  0.2157  0.5854
 8906SOL    HW138180   1.794   0.093  15.920  1.5209 -0.8270 -1.0284
 8906SOL    HW238181   1.888   0.140  16.023  2.2264 -1.1389 -0.4445
 8907SOL     OW38182   2.988   3.962   2.623  0.5881  0.1776 -0.2668
 8907SOL    HW138183   3.005   3.961   2.529  1.8257 -0.9923 -0.0415
 8907SOL    HW238184   2.897   3.990   2.617  0.3764 -0.4092  0.1619
 8908SOL     OW38185   4.228   1.154   0.737 -1.0508  0.4429  0.5588
 8908SOL    HW138186   4.279   1.074   0.750  0.1484  0.9648 -0.8460
 8908SOL    HW238187   4.150   1.124   0.783 -0.0490 -1.7645  0.8158
 8909SOL     OW38188   4.351   3.604   2.503  0.5016  0.3882 -0.3869
 8909SOL    HW138189   4.314   3.564   2.583  0.3941 -0.6810 -0.9629
 8909SOL    HW238190   4.342   3.697   2.521  1.2392  0.1008  1.4833
 8910SOL     OW38191   2.722   0.197   8.203 -0.7929  0.3253  0.0596
 8910SOL    HW138192   2.804   0.209   8.252 -0.5964  0.7289 -0.3703
 8910SOL    HW238193   2.714   0.292   8.197  0.0951  0.4387  0.5787
 8911SOL     OW38194   1.494   3.061   5.576  0.2220  0.1980  0.1832
 8911SOL    HW138195   1.579   3.074   5.618  0.0773 -0.5453  0.7080
 8911SOL    HW238196   1.466   3.150   5.554 -0.2110  0.2604  0.9598
 8912SOL     OW38197   2.199   2.731   6.207  0.2900  0.2703 -0.2660
 8912SOL    HW138198   2.229   2.821   6.212  1.1872 -0.0135 -0.4977
 8912SOL    HW238199   2.239   2.708   6.123  1.4925  2.4502 -0.2770
 8913SOL     OW38200   3.238   2.261  12.348 -0.5466 -0.1546  0.3270
 8913SOL    HW138201   3.250   2.297  12.260 -0.2352  1.0788  0.8778
 8913SOL    HW238202   3.207   2.171  12.339 -1.8344  0.0535  2.7943
 8914SOL     OW38203   1.883   4.310  16.359 -0.6321 -0.4999 -0.9894
 8914SOL    HW138204   1.797   4.347  16.337  0.2727  0.7701 -2.3373
 8914SOL    HW238205   1.859   4.217  16.354 -3.9728  0.2623  1.1284
 8915SOL     OW38206   0.755   3.884   2.123  0.2602  0.2639  0.1980
 8915SOL    HW138207   0.828   3.827   2.101 -1.7239 -2.5148  0.8305
 8915SOL    HW238208   0.764   3.957   2.062 -0.0879  0.6882  0.6411
 8916SOL     OW38209   3.517   3.757   9.288  0.1462 -0.2565 -0.3131
 8916SOL    HW138210   3.593   3.749   9.346 -1.0577  0.2708  1.3529
 8916SOL    HW238211   3.561   3.740   9.205 -1.7997  0.4480 -1.4864
 8917SOL     OW38212   2.486   1.078   9.763 -0.1502 -0.1205 -0.1824
 8917SOL    HW138213   2.459   1.103   9.674 -1.0122 -1.1681 -0.2074
 8917SOL    HW238214   2.431   1.003   9.786  2.1343 -1.1765  1.7986
 8918SOL     OW38215   3.618   2.388   0.644  0.4298 -0.1288 -0.0572
 8918SOL    HW138216   3.564   2.315   0.613  0.2452 -0.6356  1.4554
 8918SOL    HW238217   3.560   2.449   0.690 -1.0206 -0.6766 -1.1506
 8919SOL     OW38218   3.370   3.186   9.106  0.2467 -0.5753  0.3395
 8919SOL    HW138219   3.428   3.153   9.173 -1.5186 -3.5342  0.4159
 8919SOL    HW238220   3.381   3.281   9.112  0.7969 -0.6852  0.9691
 8920SOL     OW38221   2.828   4.348   8.752 -0.3334 -0.2359  0.4735
 8920SOL    HW138222   2.771   4.288   8.800  0.5800 -0.1121  1.6992
 8920SOL    HW238223   2.766   4.389   8.692  0.1071 -0.4418 -0.1314
 8921SOL     OW38224   1.673   1.034  10.949 -0.0484  0.2211  0.3907
 8921SOL    HW138225   1.679   1.060  11.041 -0.7387 -0.7433  0.7179
 8921SOL    HW238226   1.760   1.039  10.912  0.1610  0.6364  0.9302
 8922SOL     OW38227   0.253   1.891   5.726 -0.0927 -0.6096 -0.4057
 8922SOL    HW138228   0.261   1.868   5.819 -1.5273 -1.5868 -0.5218
 8922SOL    HW238229   0.345   1.890   5.700 -0.6342  3.3425 -2.3764
 8923SOL     OW38230   1.757   1.019  17.626 -0.0065  0.1912 -0.1029
 8923SOL    HW138231   1.819   1.026  17.554  0.3582  0.4876  0.2401
 8923SOL    HW238232   1.794   1.091  17.676  0.4190 -0.4069  0.4449
 8924SOL     OW38233   4.257   3.437  10.694  0.3049  0.4076  0.4104
 8924SOL    HW138234   4.300   3.470  10.773  2.7626  0.8360 -1.1198
 8924SOL    HW238235   4.232   3.349  10.724 -2.2621  1.0425  0.2060
 8925SOL     OW38236   3.372   4.660   8.213 -0.1779  0.2912  0.1489
 8925SOL    HW138237   3.379   4.565   8.216 -0.0103  0.2544 -1.3733
 8925SOL    HW238238   3.277   4.668   8.208 -0.0990  0.5690 -0.9099
 8926SOL     OW38239   2.666   3.857   4.435 -0.2293 -0.1071  0.3682
 8926SOL    HW138240   2.731   3.787   4.428  0.8287  0.8821  0.2603
 8926SOL    HW238241   2.726   3.932   4.429 -0.4111  0.1175  1.3211
 8927SOL     OW38242   2.261   0.308   5.820 -0.6866 -0.0180 -0.0671
 8927SOL    HW138243   2.187   0.256   5.853 -1.7851  0.6597 -1.4253
 8927SOL    HW238244   2.217   0.392   5.807 -3.1727 -0.8556  3.1127
 8928SOL     OW38245   3.921   3.871   2.405 -0.1936  0.8531 -0.4102
 8928SOL    HW138246   3.998   3.824   2.437 -1.2354  1.0517  2.4116
 8928SOL    HW238247   3.884   3.801   2.351  0.3729  0.9074 -0.8700
 8929SOL     OW38248   3.248   1.237   4.610  0.0753  0.2430  0.6111
 8929SOL    HW138249   3.328   1.194   4.641 -0.9778  0.8657  4.2298
 8929SOL    HW238250   3.192   1.242   4.687 -0.6966  2.7379 -0.1094
 8930SOL     OW38251   0.313   4.574  13.024  0.0030 -0.2230  0.4682
 8930SOL    HW138252   0.233   4.523  13.040 -1.6718  1.2478 -3.1553
 8930SOL    HW238253   0.349   4.520  12.954  1.6027 -1.0892  1.9561
 8931SOL     OW38254   3.211   2.194   5.420 -0.0368  0.0272  0.4304
 8931SOL    HW138255   3.165   2.235   5.493 -1.4328 -1.7883  0.5784
 8931SOL    HW238256   3.209   2.261   5.352  0.5408 -1.6081 -1.2048
 8932SOL     OW38257   3.224   2.563   3.385 -0.3096 -0.1069  0.7023
 8932SOL    HW138258   3.245   2.476   3.348  0.6876  0.9721 -1.2926
 8932SOL    HW238259   3.200   2.612   3.307  1.3896  0.2648  0.4034
 8933SOL     OW38260   2.176   3.966   4.642  0.5195  0.3331  0.0893
 8933SOL    HW138261   2.137   3.979   4.556  0.2228  0.2868  0.2183
 8933SOL    HW238262   2.259   3.928   4.614 -0.1618 -2.8678  2.3913
 8934SOL     OW38263   3.280   4.469   5.642 -0.4943  0.6789 -0.2765
 8934SOL    HW138264   3.259   4.497   5.553  0.5042  0.2042 -0.6600
 8934SOL    HW238265   3.376   4.463   5.645 -0.5656 -0.7079 -0.9338
 8935SOL     OW38266   2.352   4.259  15.550  0.2720 -0.4254  0.1823
 8935SOL    HW138267   2.443   4.280  15.570  0.3331 -2.0727  1.6002
 8935SOL    HW238268   2.346   4.253  15.454 -1.5971 -1.6049  0.3674
 8936SOL     OW38269   0.985   1.728   7.620  0.2873  0.1260 -0.1002
 8936SOL    HW138270   1.049   1.791   7.652  1.0236 -0.2787 -0.7946
 8936SOL    HW238271   0.968   1.682   7.703 -2.8767 -0.3693 -1.0040
 8937SOL     OW38272   1.621   3.226   9.289 -0.2991 -0.9248 -0.3368
 8937SOL    HW138273   1.634   3.215   9.383  0.5378 -0.0043 -0.3357
 8937SOL    HW238274   1.527   3.222   9.274 -0.4089  2.4734 -0.5821
 8938SOL     OW38275   1.701   1.951   3.911  0.6860  0.3264  0.7364
 8938SOL    HW138276   1.735   2.032   3.875 -1.0229  0.2517 -1.0179
 8938SOL    HW238277   1.777   1.896   3.891 -0.8971 -1.6154 -0.0292
 8939SOL     OW38278   2.729   0.226   5.335  0.5148  0.4041 -0.2454
 8939SOL    HW138279   2.708   0.266   5.250 -0.8128 -2.5535 -1.3003
 8939SOL    HW238280   2.667   0.155   5.320 -1.5182  1.8887  1.1083
 8940SOL     OW38281   3.532   0.613   5.213 -0.0901  0.7555  0.4555
 8940SOL    HW138282   3.521   0.548   5.283  3.3862  1.1472  1.3722
 8940SOL    HW238283   3.531   0.552   5.140  1.8807  0.1157  0.9533
 8941SOL     OW38284   0.493   0.468   4.264  0.0644  0.3077  0.1170
 8941SOL    HW138285   0.425   0.400   4.260  0.9625 -0.4839 -1.5940
 8941SOL    HW238286   0.543   0.472   4.183 -0.0395  2.7357  0.1921
 8942SOL     OW38287   2.078   0.329   8.245 -0.2077  0.2561 -0.5422
 8942SOL    HW138288   1.985   0.306   8.251  0.0722 -1.2199 -2.0500
 8942SOL    HW238289   2.123   0.245   8.239  0.2067  0.5319 -1.3773
 8943SOL     OW38290   3.673   2.457   2.857 -0.5133  0.0011  0.1500
 8943SOL    HW138291   3.723   2.385   2.896 -0.7349  0.2882  0.9649
 8943SOL    HW238292   3.655   2.426   2.768 -1.8992 -0.9721  0.7688
 8944SOL     OW38293   4.068   3.197   3.949  0.1479 -0.1001  0.0178
 8944SOL    HW138294   4.031   3.166   3.866  0.5204 -1.1496  0.2533
 8944SOL    HW238295   4.082   3.113   3.991 -0.1494 -0.8199 -1.3219
 8945SOL     OW38296   3.874   0.709  16.564 -0.2648  0.1935  0.3538
 8945SOL    HW138297   3.960   0.669  16.576 -1.0167 -1.5545 -0.1285
 8945SOL    HW238298   3.840   0.661  16.489  0.0298  0.3868  0.0989
 8946SOL     OW38299   0.751   0.875   7.971  0.1993  0.3145 -0.0079
 8946SOL    HW138300   0.730   0.854   7.881  1.1591  0.3686 -0.2524
 8946SOL    HW238301   0.682   0.828   8.017  1.5921  0.4384  2.2092
 8947SOL     OW38302   0.858   3.409   3.458 -0.1896  0.5818  0.0046
 8947SOL    HW138303   0.858   3.317   3.430 -0.0984  0.9213 -1.1288
 8947SOL    HW238304   0.814   3.452   3.384  0.0328  3.1821  1.4103
 8948SOL     OW38305   0.742   0.488   5.243 -0.3710 -0.4872 -0.1565
 8948SOL    HW138306   0.813   0.423   5.246 -1.2947 -1.3974  1.9699
 8948SOL    HW238307   0.699   0.468   5.326  1.5490  0.8768  1.1519
 8949SOL     OW38308   2.123   2.872   3.906  0.1471 -0.1482 -0.0326
 8949SOL    HW138309   2.084   2.794   3.866 -0.4467  0.0570  0.1381
 8949SOL    HW238310   2.043   2.903   3.948  0.2131  0.8883 -0.6721
 8950SOL     OW38311   2.776   4.710   3.398  0.2101 -0.9888 -0.7783
 8950SOL    HW138312   2.757   0.052   3.335  0.0464 -1.9544 -1.8128
 8950SOL    HW238313   2.821   0.037   3.461 -0.9500 -2.6166  1.4638
 8951SOL     OW38314   3.611   4.071   4.225 -0.2442  0.3478 -0.2158
 8951SOL    HW138315   3.548   4.090   4.156 -1.8286 -1.4093  0.7623
 8951SOL    HW238316   3.596   4.139   4.291  0.0183  2.0886 -1.9392
 8952SOL     OW38317   1.328   4.317  13.682  0.0464  0.1866  0.2297
 8952SOL    HW138318   1.370   4.387  13.731 -1.0478  1.3456 -0.4927
 8952SOL    HW238319   1.386   4.243  13.701 -0.0142 -0.3598 -1.6172
 8953SOL     OW38320   3.072   3.643   9.914 -0.2634  0.1240 -0.7008
 8953SOL    HW138321   3.094   3.555   9.884 -1.1935 -0.6171  0.7291
 8953SOL    HW238322   3.047   3.627  10.005  0.5989 -2.3374 -0.9095
 8954SOL     OW38323   0.768   1.998   1.438 -0.7532 -0.3839  0.2719
 8954SOL    HW138324   0.698   2.064   1.438 -0.7700 -0.3983  0.5694
 8954SOL    HW238325   0.815   2.014   1.356 -0.0971 -2.1871  0.2908
 8955SOL     OW38326   4.451   3.618   7.283  0.7454  0.2199 -0.3566
 8955SOL    HW138327   4.414   3.655   7.363  0.1609 -0.6249 -0.2309
 8955SOL    HW238328   4.473   3.695   7.231 -2.1716  1.0100 -0.4312
 8956SOL     OW38329   1.699   1.731   4.589  0.0290 -0.0943 -0.2253
 8956SOL    HW138330   1.625   1.733   4.650  1.2898 -0.6358  1.3057
 8956SOL    HW238331   1.754   1.666   4.632  0.5741  1.7638  1.8693
 8957SOL     OW38332   1.469   1.614   3.292  0.4519 -0.3075 -0.2349
 8957SOL    HW138333   1.373   1.608   3.289  0.4984 -0.3976 -1.6419
 8957SOL    HW238334   1.484   1.664   3.212 -0.9871  0.6381  0.0776
 8958SOL     OW38335   4.187   3.661   9.621  0.1543  0.5029 -0.4368
 8958SOL    HW138336   4.214   3.750   9.600  0.0691  0.6299 -0.0190
 8958SOL    HW238337   4.225   3.660   9.709  1.9195 -3.4233 -1.2165
 8959SOL     OW38338   1.011   3.709   5.667 -0.2348 -0.0190 -0.0738
 8959SOL    HW138339   0.921   3.702   5.697 -0.5571 -1.2206 -1.3167
 8959SOL    HW238340   1.058   3.633   5.702  0.9738  0.3480 -0.9141
 8960SOL     OW38341   0.266   2.395  14.798 -0.0506  0.4371  0.0146
 8960SOL    HW138342   0.304   2.344  14.869  2.3076  0.7443 -1.0404
 8960SOL    HW238343   0.322   2.473  14.796  1.1850 -0.4908 -1.2861
 8961SOL     OW38344   1.665   2.207   0.777  0.0913  0.1473  0.3865
 8961SOL    HW138345   1.648   2.129   0.724  1.7509  1.7738 -2.5521
 8961SOL    HW238346   1.603   2.270   0.739  1.3409  0.6983 -0.7286
 8962SOL     OW38347   3.842   3.590  13.167  0.0844  0.0602  0.1702
 8962SOL    HW138348   3.837   3.581  13.071 -0.6421 -0.6523  0.2624
 8962SOL    HW238349   3.888   3.673  13.177 -1.1296  0.8232 -0.5825
 8963SOL     OW38350   0.782   3.655  10.149 -0.3121 -0.8699  0.8053
 8963SOL    HW138351   0.814   3.650  10.239  3.2543 -0.2505 -0.4406
 8963SOL    HW238352   0.689   3.670  10.165 -0.8252 -2.0870 -0.9156
 8964SOL     OW38353   0.619   2.834   1.977  0.2505 -0.1792  0.9486
 8964SOL    HW138354   0.706   2.872   1.983  0.6032 -0.8741  0.2909
 8964SOL    HW238355   0.566   2.909   1.954 -0.3239 -0.9454 -0.2567
 8965SOL     OW38356   0.565   4.314   3.387 -0.3218 -0.3568  0.0461
 8965SOL    HW138357   0.482   4.301   3.432 -0.3657 -2.3276 -0.5963
 8965SOL    HW238358   0.538   4.308   3.295 -1.6677 -1.3236  0.5016
 8966SOL     OW38359   1.801   3.381   5.879  0.3839  0.1855  0.4645
 8966SOL    HW138360   1.814   3.292   5.912  2.0885  0.3294  0.1790
 8966SOL    HW238361   1.888   3.412   5.853  0.2880 -0.5987 -0.7893
 8967SOL     OW38362   0.040   2.261  12.054 -0.6894  0.1214 -0.2991
 8967SOL    HW138363   0.027   2.304  11.969 -0.8719 -1.2460 -0.9573
 8967SOL    HW238364   4.718   2.184  12.029 -0.0633 -0.5498  0.5348
 8968SOL     OW38365   4.331   3.427   1.666 -0.4141  0.4852  0.0305
 8968SOL    HW138366   4.424   3.410   1.676 -0.6571 -1.1651 -0.5302
 8968SOL    HW238367   4.307   3.451   1.756 -1.7985 -2.8406  0.5445
 8969SOL     OW38368   1.546   4.516   9.157  0.1593  0.4657 -0.2378
 8969SOL    HW138369   1.486   4.572   9.107 -0.4769  0.0663  0.0716
 8969SOL    HW238370   1.492   4.438   9.169  1.0088  0.0212  0.7184
 8970SOL     OW38371   4.617   3.317  16.247 -0.1919 -0.1860  0.3510
 8970SOL    HW138372   4.528   3.343  16.221  0.8890  1.1455 -1.9960
 8970SOL    HW238373   4.661   3.400  16.230 -0.6344 -0.2174 -0.9897
 8971SOL     OW38374   0.738   0.191   9.473 -0.2133 -0.3319  0.0102
 8971SOL    HW138375   0.740   0.286   9.458  1.2636 -0.2893  0.4348
 8971SOL    HW238376   0.827   0.187   9.507 -0.3290  0.3379  0.4042
 8972SOL     OW38377   4.717   0.980   3.978 -0.2138  0.0918  1.1367
 8972SOL    HW138378   0.068   1.029   3.998 -1.4420  3.4970 -2.4963
 8972SOL    HW238379   0.014   0.924   3.904 -0.7319  0.3246  0.7894
 8973SOL     OW38380   2.000   1.809   9.943 -0.2428 -0.0412  0.0475
 8973SOL    HW138381   2.073   1.747   9.946 -0.2769 -0.0009  2.1951
 8973SOL    HW238382   1.964   1.796  10.031 -1.1598  1.5400 -0.1112
 8974SOL     OW38383   4.109   3.250   6.552 -0.4953 -0.4203 -0.6028
 8974SOL    HW138384   4.126   3.156   6.547 -0.0876 -0.4148  0.6749
 8974SOL    HW238385   4.130   3.260   6.645  0.4299 -2.9771 -0.5513
 8975SOL     OW38386   0.334   3.909   7.090 -0.2236  0.1687  0.0150
 8975SOL    HW138387   0.261   3.857   7.124 -0.1532 -0.3687 -0.6423
 8975SOL    HW238388   0.411   3.855   7.113 -0.3684 -0.8296 -1.8136
 8976SOL     OW38389   3.260   1.723  11.645  0.3361 -0.0043 -0.3520
 8976SOL    HW138390   3.266   1.790  11.713  4.2965 -0.1439 -0.5658
 8976SOL    HW238391   3.165   1.718  11.638  0.3639 -0.8744 -0.1943
 8977SOL     OW38392   0.697   2.167  17.666  0.4516  0.3633  0.5056
 8977SOL    HW138393   0.643   2.094  17.638 -0.4303  0.5921  1.6228
 8977SOL    HW238394   0.679   2.247  17.616 -2.5367 -1.7040 -1.6736
 8978SOL     OW38395   4.223   3.900   6.193  0.0068 -0.5835 -0.6158
 8978SOL    HW138396   4.263   3.899   6.106  0.3262 -1.6655 -0.4595
 8978SOL    HW238397   4.287   3.944   6.250 -0.5017  1.0071 -1.2975
 8979SOL     OW38398   0.249   1.651   6.390  0.7825 -0.7258 -0.0225
 8979SOL    HW138399   0.235   1.644   6.484 -0.5639  0.4151 -0.1271
 8979SOL    HW238400   0.223   1.569   6.349  1.2907 -0.8656 -0.0689
 8980SOL     OW38401   2.641   4.418  12.639  0.5235  0.1781 -0.8519
 8980SOL    HW138402   2.681   4.505  12.649  0.5551  0.5265 -3.9833
 8980SOL    HW238403   2.716   4.361  12.653 -0.4372 -0.9707 -0.3299
 8981SOL     OW38404   4.462   2.511   3.394 -0.1151 -0.3750 -0.4089
 8981SOL    HW138405   4.490   2.445   3.330 -1.0170  0.8145 -2.0297
 8981SOL    HW238406   4.543   2.544   3.431 -0.8392 -0.3741  1.1777
 8982SOL     OW38407   2.160   2.988   1.337  0.8158 -0.5362 -0.0899
 8982SOL    HW138408   2.229   3.006   1.272  1.4698 -0.1137  0.7235
 8982SOL    HW238409   2.135   3.075   1.367  1.2809  0.1021 -1.5382
 8983SOL     OW38410   2.049   3.811   2.178  0.4010 -0.3372 -0.4980
 8983SOL    HW138411   2.058   3.907   2.184  0.0289 -0.2831 -0.8017
 8983SOL    HW238412   2.136   3.776   2.156  1.4317  1.5920  0.5172
 8984SOL     OW38413   2.034   3.889   4.103 -0.2310 -0.0584  0.1118
 8984SOL    HW138414   2.002   3.868   4.016  1.7936 -2.2699 -0.1173
 8984SOL    HW238415   1.951   3.926   4.132  0.1233  0.9269 -0.1549
 8985SOL     OW38416   3.872   2.759   4.213  0.1045 -0.1125  0.6304
 8985SOL    HW138417   3.898   2.773   4.122  2.4076 -1.5376  1.0640
 8985SOL    HW238418   3.802   2.694   4.209 -0.2082  0.3454 -1.1129
 8986SOL     OW38419   1.694   0.365   7.048 -0.8452  0.2252  0.5885
 8986SOL    HW138420   1.636   0.304   7.094  2.7862 -0.8688  3.6682
 8986SOL    HW238421   1.768   0.307   7.029 -3.2611 -2.3701 -0.9898
 8987SOL     OW38422   2.228   4.620   3.146  0.3980 -0.0121 -0.0163
 8987SOL    HW138423   2.280   4.633   3.225  0.9401  0.1995 -0.4115
 8987SOL    HW238424   2.155   4.676   3.173 -1.1830 -2.6766  1.2199
 8988SOL     OW38425   4.574   2.254  11.523  0.3981  0.0668 -0.0735
 8988SOL    HW138426   4.484   2.287  11.511  0.2387 -0.3970 -0.1446
 8988SOL    HW238427   4.623   2.336  11.513 -0.3885  0.6819  1.0739
 8989SOL     OW38428   3.104   1.497   8.106 -0.4377 -0.1789  0.1254
 8989SOL    HW138429   3.121   1.556   8.179 -0.6613  1.0237 -0.7924
 8989SOL    HW238430   3.176   1.438   8.127 -2.9091 -3.1808  0.2732
 8990SOL     OW38431   1.419   1.860   8.357  0.5967  0.4967 -0.1979
 8990SOL    HW138432   1.353   1.816   8.304  1.6516 -1.3887  0.0425
 8990SOL    HW238433   1.460   1.781   8.392  1.4036  1.2566  0.5909
 8991SOL     OW38434   1.646   2.296  14.904  0.0291  0.1259 -0.0567
 8991SOL    HW138435   1.648   2.242  14.825 -2.2571 -0.3581  0.2263
 8991SOL    HW238436   1.692   2.236  14.963 -0.0408 -1.1388 -1.3026
 8992SOL     OW38437   1.605   3.666   2.140 -0.5003 -0.0798 -0.5401
 8992SOL    HW138438   1.630   3.756   2.158 -0.7880 -0.0510 -0.2945
 8992SOL    HW238439   1.587   3.643   2.231  0.7622  0.2809 -0.2020
 8993SOL     OW38440   4.244   2.224   4.207  0.3234 -0.6187  0.2537
 8993SOL    HW138441   4.322   2.258   4.162 -0.2172 -0.0646 -0.2589
 8993SOL    HW238442   4.185   2.201   4.135  0.3886 -1.8958  0.6085
 8994SOL     OW38443   1.029   3.289   7.931 -0.6434 -0.0576 -0.1264
 8994SOL    HW138444   1.025   3.365   7.989  0.1761 -0.5471  0.5671
 8994SOL    HW238445   0.993   3.324   7.849  1.2896 -2.4548 -2.0228
 8995SOL     OW38446   1.555   0.818   1.527  0.0443 -0.6733 -0.7197
 8995SOL    HW138447   1.525   0.732   1.557  0.4686 -0.5060  0.1869
 8995SOL    HW238448   1.507   0.831   1.445 -0.6582  0.0036 -0.2001
 8996SOL     OW38449   0.421   1.070  10.681  0.1843 -0.3681 -0.3671
 8996SOL    HW138450   0.420   0.999  10.616  0.0796 -1.0657  0.3942
 8996SOL    HW238451   0.434   1.016  10.759  0.8537  1.0639  0.4985
 8997SOL     OW38452   0.103   2.716   3.803  0.1824 -0.7523  0.2306
 8997SOL    HW138453   0.042   2.763   3.859 -0.0016 -0.9437  0.1894
 8997SOL    HW238454   0.168   2.781   3.777 -2.0760  0.8692 -1.3387
 8998SOL     OW38455   0.113   0.815   2.282  0.4259  0.5150 -0.1711
 8998SOL    HW138456   0.063   0.894   2.262 -0.1952 -0.2866 -1.8221
 8998SOL    HW238457   0.044   0.749   2.273 -0.5417  1.4484  0.3320
 8999SOL     OW38458   3.667   2.991   3.387 -0.6341 -0.8319 -0.5813
 8999SOL    HW138459   3.722   3.017   3.313 -1.2079  3.0775  0.3424
 8999SOL    HW238460   3.725   2.929   3.431 -1.4078 -1.2720 -0.1965
 9000SOL     OW38461   0.557   4.353  11.393  0.3200  0.4646  1.0079
 9000SOL    HW138462   0.580   4.354  11.300  1.9513 -1.9886  1.3727
 9000SOL    HW238463   0.596   4.270  11.421  0.9937  0.1781 -0.7414
 9001SOL     OW38464   2.793   2.900  12.869 -0.1133  0.2175 -0.3298
 9001SOL    HW138465   2.716   2.857  12.904  1.4090 -1.4462  0.9943
 9001SOL    HW238466   2.813   2.963  12.939 -1.5170  1.1227 -0.7360
 9002SOL     OW38467   2.593   4.508   8.835  0.1343 -0.0484  0.3126
 9002SOL    HW138468   2.561   4.439   8.893 -2.6468  0.3067 -0.7698
 9002SOL    HW238469   2.542   4.585   8.864 -2.3799 -2.4254  2.1893
 9003SOL     OW38470   4.334   1.896   2.627  0.3209  0.8657 -0.0876
 9003SOL    HW138471   4.368   1.926   2.542 -1.0489  0.2711 -0.8451
 9003SOL    HW238472   4.402   1.832   2.651 -1.7120 -1.2597  0.0130
 9004SOL     OW38473   1.346   3.767   1.264  0.2688 -0.5748  0.2130
 9004SOL    HW138474   1.259   3.805   1.251  1.4676  1.9042 -0.6888
 9004SOL    HW238475   1.326   3.685   1.309  3.0863 -2.9896 -2.9949
 9005SOL     OW38476   0.365   0.944  11.507 -0.5825 -0.1571  0.2693
 9005SOL    HW138477   0.340   1.023  11.459  3.9305  1.8998  1.3549
 9005SOL    HW238478   0.291   0.943  11.568 -0.0664 -0.3881  0.8868
 9006SOL     OW38479   2.772   4.116   5.654 -0.4219  0.3345 -0.7805
 9006SOL    HW138480   2.853   4.161   5.678  0.2306 -0.8684 -0.7083
 9006SOL    HW238481   2.709   4.183   5.681 -0.4264  0.2869 -0.6708
 9007SOL     OW38482   4.466   0.653  11.732  0.0133  0.2878 -0.2504
 9007SOL    HW138483   4.488   0.593  11.660  0.6984  0.2675 -0.0209
 9007SOL    HW238484   4.547   0.644  11.781  0.0788  2.1203 -0.0498
 9008SOL     OW38485   0.856   1.672   6.955  0.1995  0.3222  0.6649
 9008SOL    HW138486   0.799   1.642   7.025  0.0334 -0.8148  0.0421
 9008SOL    HW238487   0.882   1.760   6.984  1.0799  0.2992 -0.0654
 9009SOL     OW38488   0.876   4.634  13.263 -0.5458 -0.0886  0.0270
 9009SOL    HW138489   0.791   4.603  13.295 -0.8420  0.9897  0.2723
 9009SOL    HW238490   0.940   4.578  13.308 -0.5596 -0.7601 -0.7864
 9010SOL     OW38491   2.856   2.474   6.632 -0.0435  0.6937  0.2529
 9010SOL    HW138492   2.797   2.521   6.690  0.1757 -0.8352  1.6898
 9010SOL    HW238493   2.822   2.481   6.543 -0.1302 -0.4852  0.1932
 9011SOL     OW38494   2.480   2.125  17.471  0.3768 -0.0438 -0.0076
 9011SOL    HW138495   2.412   2.159  17.413  0.6547 -0.9513 -0.8610
 9011SOL    HW238496   2.465   2.031  17.476 -2.5935  0.3411 -2.0462
 9012SOL     OW38497   1.880   0.397   0.421  0.0913  0.1422  0.3339
 9012SOL    HW138498   1.964   0.434   0.450 -0.0283  1.2965 -0.7801
 9012SOL    HW238499   1.869   0.453   0.344  1.1181  1.1821  0.9398
 9013SOL     OW38500   0.147   3.666   2.894  0.3547  0.2624  0.3904
 9013SOL    HW138501   0.200   3.665   2.814  0.4118  1.9204  0.3922
 9013SOL    HW238502   0.096   3.746   2.882  0.9632  0.6872  0.6438
 9014SOL     OW38503   2.708   0.855   2.494 -0.3488 -0.0838  0.4381
 9014SOL    HW138504   2.735   0.943   2.470  1.7032 -1.3500 -1.8438
 9014SOL    HW238505   2.636   0.832   2.436 -0.5289 -0.1751  0.6971
 9015SOL     OW38506   1.945   3.181  13.262 -0.3598  0.5172 -0.2588
 9015SOL    HW138507   1.899   3.258  13.296  2.0820  2.3685 -1.1981
 9015SOL    HW238508   2.024   3.191  13.315 -0.6284 -1.6603  0.5692
 9016SOL     OW38509   3.827   2.272   9.341  0.0888  0.4527 -0.1913
 9016SOL    HW138510   3.814   2.185   9.305  0.9657  1.0499 -1.9228
 9016SOL    HW238511   3.864   2.254   9.427 -1.3715 -0.4634  0.2502
 9017SOL     OW38512   4.199   3.777   3.206 -0.5722  0.0338 -0.0006
 9017SOL    HW138513   4.117   3.794   3.159 -0.3420  1.4498  0.1275
 9017SOL    HW238514   4.173   3.713   3.273 -0.2144  0.8629  0.9235
 9018SOL     OW38515   4.690   1.975   1.548  0.3444  0.0646  0.7358
 9018SOL    HW138516   4.677   2.069   1.541  2.0531  0.0964 -1.7684
 9018SOL    HW238517   4.608   1.947   1.507  1.6253 -0.3603 -1.4759
 9019SOL     OW38518   2.037   2.258  15.974  0.2580  0.2622 -0.0604
 9019SOL    HW138519   2.032   2.309  16.055  1.7227  1.2228 -0.5664
 9019SOL    HW238520   2.096   2.313  15.922  0.4179  1.4217  1.3401
 9020SOL     OW38521   0.576   1.203   7.317 -0.1492  0.4022  0.6177
 9020SOL    HW138522   0.589   1.178   7.225 -0.2883  1.7575  0.2222
 9020SOL    HW238523   0.585   1.298   7.311 -4.2288  0.6083 -3.0310
 9021SOL     OW38524   1.016   4.087   9.218  0.1455  0.0040  0.0413
 9021SOL    HW138525   0.981   4.143   9.288 -1.9055 -1.3392  0.0731
 9021SOL    HW238526   1.031   4.003   9.262 -3.9029 -1.1254 -0.7501
 9022SOL     OW38527   1.107   1.229   4.339 -0.4075 -0.4291  0.2625
 9022SOL    HW138528   1.083   1.307   4.288 -1.5728 -1.2579 -0.4628
 9022SOL    HW238529   1.078   1.161   4.278 -1.6564 -0.1275  0.5137
 9023SOL     OW38530   1.682   1.562   0.729  0.0354 -0.3987 -0.1841
 9023SOL    HW138531   1.629   1.489   0.762  1.5246 -0.4711  2.0937
 9023SOL    HW238532   1.772   1.528   0.725  1.7810  3.9454  1.5704
 9024SOL     OW38533   3.621   0.231   2.976 -0.0869  0.4718  0.0372
 9024SOL    HW138534   3.661   0.145   2.984 -3.7649 -1.3479 -0.8220
 9024SOL    HW238535   3.693   0.282   2.939  0.3210 -0.5935 -0.6403
 9025SOL     OW38536   0.328   3.634   7.502  0.1107 -0.3040 -0.2423
 9025SOL    HW138537   0.234   3.619   7.504  0.1247 -0.1229  1.7034
 9025SOL    HW238538   0.353   3.550   7.464 -0.1062  0.2896 -1.6965
 9026SOL     OW38539   0.959   0.302   6.781 -0.2090 -0.1946  0.2041
 9026SOL    HW138540   1.033   0.243   6.795  0.2299  0.3210  0.0568
 9026SOL    HW238541   0.989   0.352   6.705 -0.3865  0.0346  0.2848
 9027SOL     OW38542   4.683   2.259   1.555  0.6850  0.0956 -0.0294
 9027SOL    HW138543   4.683   2.249   1.460  1.5296 -1.3220  0.1172
 9027SOL    HW238544   0.046   2.287   1.558  1.2808 -1.7074 -2.0123
 9028SOL     OW38545   3.255   0.768   1.550 -0.3512 -1.2075 -0.9871
 9028SOL    HW138546   3.343   0.770   1.511  0.8543 -0.3587  1.7762
 9028SOL    HW238547   3.250   0.688   1.603  0.0248 -0.1569  0.6268
 9029SOL     OW38548   0.462   1.540  11.902 -0.0397 -0.4880  0.0297
 9029SOL    HW138549   0.377   1.496  11.916 -0.5539  0.3768 -0.3895
 9029SOL    HW238550   0.532   1.486  11.938  0.0989 -1.0380 -1.0470
 9030SOL     OW38551   3.067   0.353   7.282  0.0281 -0.0376 -0.5748
 9030SOL    HW138552   3.104   0.438   7.306 -0.3242  0.0999 -0.5275
 9030SOL    HW238553   2.974   0.370   7.292  0.6358  1.6473  2.3372
 9031SOL     OW38554   0.072   4.277  15.834 -0.5376  0.2278 -0.7372
 9031SOL    HW138555   0.000   4.221  15.863 -0.8860  1.7121  1.2862
 9031SOL    HW238556   0.126   4.296  15.910 -1.2015 -0.0259 -0.2017
 9032SOL     OW38557   0.736   0.230   2.453  0.0233 -0.1452 -0.5406
 9032SOL    HW138558   0.778   0.147   2.431 -2.2682 -1.3488 -0.4124
 9032SOL    HW238559   0.703   0.208   2.541  0.1701  2.8941  0.2650
 9033SOL     OW38560   0.831   1.444   5.329 -0.4474 -0.0946  0.6423
 9033SOL    HW138561   0.747   1.427   5.370 -0.0046 -0.8728  1.2149
 9033SOL    HW238562   0.810   1.406   5.244 -0.4931 -1.9630  1.5026
 9034SOL     OW38563   3.243   1.046   7.500  0.5066  0.2162  0.3077
 9034SOL    HW138564   3.233   0.995   7.581  3.2888 -1.4882 -0.4403
 9034SOL    HW238565   3.243   1.136   7.534 -0.9152  0.4937 -0.4542
 9035SOL     OW38566   1.093   4.615   0.058  0.0686 -0.1370 -0.1921
 9035SOL    HW138567   0.999   4.598   0.046  0.1922 -1.2294  0.4422
 9035SOL    HW238568   1.085   4.657   0.143  0.1242 -0.0789 -0.2157
 9036SOL     OW38569   1.557   3.673   2.409  0.2742  0.0095 -0.4617
 9036SOL    HW138570   1.489   3.642   2.469  0.2834  2.9928  1.1036
 9036SOL    HW238571   1.602   3.743   2.455  0.0572 -0.7873  0.9579
 9037SOL     OW38572   2.350   1.051  11.909  0.0456 -0.2975  0.5207
 9037SOL    HW138573   2.346   1.127  11.967 -0.0722 -0.6652  0.9915
 9037SOL    HW238574   2.290   1.069  11.836  1.3407  1.3525 -0.1117
 9038SOL     OW38575   4.041   3.042   6.871 -0.9730  0.0367 -1.1212
 9038SOL    HW138576   4.019   3.058   6.779 -1.1851  1.0342 -0.8912
 9038SOL    HW238577   4.080   3.125   6.896 -1.9845  0.0394  0.4437
 9039SOL     OW38578   4.466   2.536  17.514  0.8364 -0.6320 -0.3869
 9039SOL    HW138579   4.406   2.609  17.498 -2.7507 -3.0933  1.7371
 9039SOL    HW238580   4.437   2.470  17.451 -0.7086  0.6124 -0.9821
 9040SOL     OW38581   4.221   0.768   0.393  0.0129 -0.4996  0.0998
 9040SOL    HW138582   4.187   0.704   0.331  1.3813 -0.9601 -0.1766
 9040SOL    HW238583   4.292   0.724   0.441 -0.5211 -0.9088  0.5136
 9041SOL     OW38584   1.929   3.866   5.670 -0.6556 -0.2347  0.3105
 9041SOL    HW138585   2.022   3.889   5.677 -0.6031 -0.1714 -0.5383
 9041SOL    HW238586   1.891   3.934   5.614 -2.0975  0.6583  2.3998
 9042SOL     OW38587   3.813   0.835   8.594 -0.4206  0.6281  0.2965
 9042SOL    HW138588   3.842   0.804   8.508  2.3990  0.5829  1.2976
 9042SOL    HW238589   3.864   0.777   8.650  2.1553 -0.6267 -3.3197
 9043SOL     OW38590   0.130   0.244   2.712  0.2994 -0.3519 -0.4205
 9043SOL    HW138591   0.176   0.242   2.796  1.0163 -0.2655 -0.8084
 9043SOL    HW238592   0.052   0.192   2.729 -0.1200  0.8588  1.2973
 9044SOL     OW38593   0.552   1.795   9.208  0.4405 -0.1975 -0.2650
 9044SOL    HW138594   0.590   1.874   9.246  2.0178 -0.6198 -0.9706
 9044SOL    HW238595   0.492   1.841   9.149 -1.6116 -3.1163 -0.4306
 9045SOL     OW38596   3.762   4.578   5.341 -0.8766 -0.5190  0.2343
 9045SOL    HW138597   3.854   4.584   5.365 -0.8464 -2.2072  0.5392
 9045SOL    HW238598   3.733   4.667   5.359  3.7823  0.9385  0.4551
 9046SOL     OW38599   1.194   1.426  14.319 -0.2886  0.2520 -0.1325
 9046SOL    HW138600   1.264   1.470  14.270 -0.4223  1.6217  0.9058
 9046SOL    HW238601   1.160   1.380  14.243  0.4704 -0.0413 -0.2958
 9047SOL     OW38602   3.578   2.505   7.590  0.4943 -0.5903 -0.3570
 9047SOL    HW138603   3.673   2.509   7.584  0.5550 -0.4146  0.6924
 9047SOL    HW238604   3.551   2.570   7.526 -2.7627  0.0859  1.6702
 9048SOL     OW38605   1.659   0.743  14.499  0.5103 -0.0517  0.2904
 9048SOL    HW138606   1.667   0.648  14.506  2.6798  0.0470 -1.0084
 9048SOL    HW238607   1.737   0.786  14.537  0.4962 -1.4115  1.8581
 9049SOL     OW38608   3.604   0.794  16.563 -0.4333 -0.1633  0.0875
 9049SOL    HW138609   3.690   0.763  16.590 -0.3829  0.6797  0.9081
 9049SOL    HW238610   3.568   0.822  16.647 -0.8675 -1.8319  0.4548
 9050SOL     OW38611   0.910   3.174  15.544 -0.4075  0.3923 -0.0770
 9050SOL    HW138612   0.947   3.099  15.590 -0.6418  1.0599  1.2196
 9050SOL    HW238613   0.910   3.141  15.455 -1.6244  1.1855 -0.3801
 9051SOL     OW38614   3.836   2.996   1.474 -0.0487  0.1917 -0.3735
 9051SOL    HW138615   3.754   3.017   1.429 -1.4391  0.3135  2.1700
 9051SOL    HW238616   3.902   2.984   1.406  2.1612 -0.9929  1.9780
 9052SOL     OW38617   3.859   1.039  10.344 -0.9510  0.4085  0.0390
 9052SOL    HW138618   3.800   1.095  10.394  0.6443  0.9807  1.2794
 9052SOL    HW238619   3.942   1.080  10.367 -1.1436  0.9331 -0.1972
 9053SOL     OW38620   0.289   2.192  17.688 -0.7006 -0.1656 -0.1011
 9053SOL    HW138621   0.198   2.197  17.661 -0.6525 -0.3258 -0.2895
 9053SOL    HW238622   0.306   2.265   0.034  0.5345 -0.6173  0.1036
 9054SOL     OW38623   1.505   1.926   6.138 -0.1953  0.1352  0.1364
 9054SOL    HW138624   1.464   1.982   6.072 -1.1871 -1.0582 -0.2518
 9054SOL    HW238625   1.548   1.872   6.071 -2.6986  1.1075 -2.2249
 9055SOL     OW38626   4.487   0.151   5.279 -0.1048  0.0525  0.3979
 9055SOL    HW138627   4.578   0.121   5.276 -0.1304 -0.0294  0.4627
 9055SOL    HW238628   4.492   0.205   5.358  3.1110 -0.5143  0.5801
 9056SOL     OW38629   3.560   4.144   6.390 -0.4257 -0.8450  0.0985
 9056SOL    HW138630   3.532   4.053   6.378  3.6064 -1.9636 -0.6243
 9056SOL    HW238631   3.476   4.189   6.396 -0.1576 -0.5536  1.7805
 9057SOL     OW38632   4.353   3.430   1.393 -0.3543  0.1223 -0.1594
 9057SOL    HW138633   4.412   3.356   1.382  1.2088  1.0820  1.8176
 9057SOL    HW238634   4.346   3.425   1.488 -0.2431  1.4936 -0.0692
 9058SOL     OW38635   2.637   0.578   7.438  0.1843 -0.2893 -0.2347
 9058SOL    HW138636   2.581   0.652   7.464  0.6794 -0.2734  0.8156
 9058SOL    HW238637   2.583   0.499   7.435  1.0475 -0.8915  0.1856
 9059SOL     OW38638   1.354   4.584   3.762  0.3529  0.2656  0.4704
 9059SOL    HW138639   1.307   4.604   3.843 -0.7858  1.3057 -0.4707
 9059SOL    HW238640   1.350   4.656   3.699  1.4105 -2.4556 -2.7290
 9060SOL     OW38641   0.083   3.696   4.749 -0.0886 -0.4534 -0.0071
 9060SOL    HW138642   0.030   3.776   4.741  0.5548 -0.3163 -2.9164
 9060SOL    HW238643   0.040   3.629   4.695 -0.1278 -0.1605 -0.3427
 9061SOL     OW38644   1.742   3.132   3.652 -0.8583  0.2608 -0.3279
 9061SOL    HW138645   1.784   3.109   3.569  1.5678  0.1267  0.9276
 9061SOL    HW238646   1.652   3.155   3.628 -1.2604 -2.0385 -0.9878
 9062SOL     OW38647   4.246   1.150  15.791 -0.4329  0.1231  0.2648
 9062SOL    HW138648   4.177   1.127  15.854 -0.2638 -0.4326  0.2492
 9062SOL    HW238649   4.208   1.150  15.703  0.5835  0.4969 -0.1768
 9063SOL     OW38650   3.152   0.887  11.031 -0.4332  0.0736 -0.6084
 9063SOL    HW138651   3.133   0.980  11.014 -2.7159  0.0168  1.6795
 9063SOL    HW238652   3.119   0.869  11.119 -0.1822  0.4645 -0.4299
 9064SOL     OW38653   2.691   3.191  13.673 -0.3465 -0.1524  0.2661
 9064SOL    HW138654   2.605   3.177  13.713 -0.6850  1.7904  0.2003
 9064SOL    HW238655   2.711   3.279  13.702 -1.1430  0.0423  0.2233
 9065SOL     OW38656   4.129   4.000   4.573 -0.2832 -0.4673  0.5192
 9065SOL    HW138657   4.174   4.044   4.645  1.3992 -0.3242 -0.6219
 9065SOL    HW238658   4.188   4.018   4.500  0.1351  1.0539  1.2326
 9066SOL     OW38659   2.586   3.599   3.275 -0.0351 -0.2880  0.0302
 9066SOL    HW138660   2.599   3.614   3.181 -0.7929 -1.5965 -0.2929
 9066SOL    HW238661   2.543   3.681   3.300 -1.4755 -1.1292  0.3132
 9067SOL     OW38662   1.042   4.404  13.825 -0.5952 -0.8593 -0.3264
 9067SOL    HW138663   0.998   4.364  13.749  2.4548 -1.0005 -2.0109
 9067SOL    HW238664   1.134   4.382  13.811 -0.8322 -1.8644 -0.3135
 9068SOL     OW38665   0.234   2.899   4.432 -0.2505 -0.3638  0.0525
 9068SOL    HW138666   0.217   2.828   4.494 -1.3016 -1.4170 -1.4430
 9068SOL    HW238667   0.187   2.875   4.353  1.1102  0.7000 -1.0913
 9069SOL     OW38668   2.001   3.654   6.540  0.3829  0.5927 -0.4204
 9069SOL    HW138669   1.911   3.674   6.563  0.8701  2.2566  0.0801
 9069SOL    HW238670   2.055   3.719   6.586  2.0985 -1.0331 -0.1390
 9070SOL     OW38671   2.313   4.205  13.644 -0.7223  0.1288 -0.1019
 9070SOL    HW138672   2.320   4.172  13.554 -0.5919 -0.9585  0.3137
 9070SOL    HW238673   2.221   4.229  13.637 -1.3788 -2.5443 -0.5612
 9071SOL     OW38674   3.079   3.317   3.769 -0.0938  0.4025 -0.4247
 9071SOL    HW138675   3.065   3.244   3.829  0.5002  0.5104 -0.1616
 9071SOL    HW238676   3.028   3.387   3.810 -1.9572 -1.5048  0.5203
 9072SOL     OW38677   0.571   3.702   6.357 -0.5956  0.6996 -0.1377
 9072SOL    HW138678   0.529   3.741   6.281 -0.2930 -0.7021 -1.0397
 9072SOL    HW238679   0.631   3.775   6.368 -0.4613 -0.0991  4.4258
 9073SOL     OW38680   1.965   0.484   3.819 -0.0821 -0.3680 -0.0489
 9073SOL    HW138681   2.037   0.425   3.799  1.2853  1.5573 -0.8088
 9073SOL    HW238682   1.999   0.567   3.786 -1.7375 -0.5318 -2.1249
 9074SOL     OW38683   0.207   0.692   5.229  0.0537 -0.1887  0.0664
 9074SOL    HW138684   0.223   0.647   5.312  0.5974 -2.4503 -1.2403
 9074SOL    HW238685   0.297   0.698   5.198  0.0349 -0.4308 -0.0358
 9075SOL     OW38686   1.241   2.368   4.079 -0.6042 -0.5301 -0.0091
 9075SOL    HW138687   1.232   2.461   4.099 -0.6124 -0.8875  1.5725
 9075SOL    HW238688   1.291   2.385   3.999  1.1726 -1.4012  0.9094
 9076SOL     OW38689   3.701   2.896   0.928  0.1371  0.2611 -0.4705
 9076SOL    HW138690   3.612   2.870   0.951 -0.2542 -0.6336 -3.0074
 9076SOL    HW238691   3.727   2.925   1.016 -0.4483  2.4852 -1.0162
 9077SOL     OW38692   1.742   3.665  16.947  0.4812 -0.5603 -0.1577
 9077SOL    HW138693   1.747   3.745  16.999  0.5594 -0.8068  0.2189
 9077SOL    HW238694   1.822   3.628  16.984  1.3712  0.8681 -0.6610
 9078SOL     OW38695   4.581   2.623   4.657  0.0078  0.1475  0.9592
 9078SOL    HW138696   4.520   2.594   4.590  0.2176  0.1200  0.7805
 9078SOL    HW238697   4.523   2.654   4.727  1.6262  0.6114  2.1097
 9079SOL     OW38698   1.663   3.924   7.414  0.4412  0.5905 -0.1529
 9079SOL    HW138699   1.733   3.989   7.410  1.7498 -0.6992  1.9399
 9079SOL    HW238700   1.592   3.982   7.442  0.7381  0.4151  0.9776
 9080SOL     OW38701   3.221   1.139   8.792  0.3091  0.1367 -0.1788
 9080SOL    HW138702   3.196   1.055   8.830 -1.2634 -0.0807 -1.7120
 9080SOL    HW238703   3.143   1.163   8.741  0.3961 -0.8144 -0.7604
 9081SOL     OW38704   3.203   3.327   2.393 -0.2306 -0.2514  0.7316
 9081SOL    HW138705   3.151   3.314   2.314 -0.3881  0.2010  0.7629
 9081SOL    HW238706   3.255   3.401   2.361 -0.9056 -0.1501 -0.1177
 9082SOL     OW38707   0.447   1.358   5.737  0.0714  0.3486 -0.3047
 9082SOL    HW138708   0.393   1.418   5.787 -0.6376 -0.2114 -0.3907
 9082SOL    HW238709   0.514   1.335   5.802 -0.6749 -1.9438 -0.3189
 9083SOL     OW38710   4.287   1.854   1.253 -0.2640 -0.2285  0.0721
 9083SOL    HW138711   4.248   1.773   1.218 -0.1548 -0.0751 -0.4013
 9083SOL    HW238712   4.269   1.906   1.175  0.2928  0.9033  0.7121
 9084SOL     OW38713   2.722   0.885   8.299 -0.3005  0.9916  0.5507
 9084SOL    HW138714   2.813   0.892   8.327 -0.3284  0.4349  0.7802
 9084SOL    HW238715   2.713   0.960   8.240 -0.2712  1.8968  1.7009
 9085SOL     OW38716   2.085   3.268   2.307 -0.0386  0.2295  0.0860
 9085SOL    HW138717   2.041   3.341   2.351  0.9918  2.2810 -2.3458
 9085SOL    HW238718   2.124   3.309   2.230  1.0642  1.1432  1.1268
 9086SOL     OW38719   0.289   3.577   4.228  0.6341  0.5020 -0.0635
 9086SOL    HW138720   0.263   3.668   4.242  0.4188  0.3310  0.5917
 9086SOL    HW238721   0.236   3.570   4.149  1.3093  0.0627 -0.4821
 9087SOL     OW38722   1.287   3.706   9.931  0.3232  0.0161  1.6131
 9087SOL    HW138723   1.257   3.655   9.856  2.6742  0.5258  0.3237
 9087SOL    HW238724   1.311   3.788   9.887  2.7396  0.1243  3.1269
 9088SOL     OW38725   2.228   1.109   3.124  0.1408 -0.5986  0.0046
 9088SOL    HW138726   2.270   1.039   3.074 -0.3089  0.6613 -2.1754
 9088SOL    HW238727   2.170   1.051   3.172 -1.1167  0.5707 -0.0841
 9089SOL     OW38728   0.256   0.423   3.732 -0.0959 -0.1021 -0.0715
 9089SOL    HW138729   0.304   0.352   3.774  0.9581  1.4236  1.3307
 9089SOL    HW238730   0.167   0.395   3.755  0.2725 -0.0902  1.3447
 9090SOL     OW38731   2.027   2.548   9.298 -0.5937 -0.6826 -0.4584
 9090SOL    HW138732   2.048   2.455   9.308  0.6493 -0.3445  0.0744
 9090SOL    HW238733   1.985   2.570   9.381  0.2710 -0.7783  0.0079
 9091SOL     OW38734   2.685   3.927  13.081  0.0276 -0.5413  0.4798
 9091SOL    HW138735   2.662   4.015  13.110 -0.0318 -0.5178  0.3624
 9091SOL    HW238736   2.738   3.901  13.156 -2.4675  1.9315  3.1327
 9092SOL     OW38737   4.148   2.441  13.548  0.6645  0.0746  0.2900
 9092SOL    HW138738   4.081   2.377  13.571  0.9546 -0.2269  0.3118
 9092SOL    HW238739   4.163   2.423  13.455  1.4762  3.1896 -0.1958
 9093SOL     OW38740   3.566   3.519   0.561 -0.3001 -0.1403  0.2404
 9093SOL    HW138741   3.660   3.505   0.549 -0.4693 -1.6582  0.6893
 9093SOL    HW238742   3.549   3.536   0.654 -2.0184 -3.2534  0.4983
 9094SOL     OW38743   2.882   2.663   0.793  0.4266  0.0539 -0.0256
 9094SOL    HW138744   2.811   2.635   0.852  1.1104 -1.6954 -0.0091
 9094SOL    HW238745   2.904   2.750   0.824 -3.1288  0.7825  0.4778
 9095SOL     OW38746   0.944   2.809   7.991 -0.7939  0.6313  0.5045
 9095SOL    HW138747   0.929   2.831   7.899  0.5643  0.8403  0.3355
 9095SOL    HW238748   0.923   2.716   7.988  0.0621  0.4121  1.3915
 9096SOL     OW38749   1.047   1.888   4.875  0.4754  0.3282 -0.0673
 9096SOL    HW138750   1.012   1.799   4.884 -0.2580  0.8526  2.2984
 9096SOL    HW238751   1.124   1.876   4.819 -0.0736 -1.8686 -0.3441
 9097SOL     OW38752   2.509   3.354  15.404 -0.2450  0.2356 -0.8140
 9097SOL    HW138753   2.553   3.299  15.469 -0.3560  0.7024 -0.3480
 9097SOL    HW238754   2.439   3.290  15.392 -0.0008  0.0953 -1.5480
 9098SOL     OW38755   1.382   2.546   5.258  0.4633 -0.0942 -0.0516
 9098SOL    HW138756   1.441   2.536   5.183  1.2551 -0.0159  0.5682
 9098SOL    HW238757   1.310   2.487   5.234  0.2112  0.1031  0.2275
 9099SOL     OW38758   2.910   2.768   7.383 -0.0448  1.0267 -0.0397
 9099SOL    HW138759   2.861   2.821   7.446 -0.7053 -2.6606  2.5055
 9099SOL    HW238760   2.927   2.690   7.435 -1.0252 -1.1357 -2.9579
 9100SOL     OW38761   4.399   1.853  10.528  0.1119  0.0805  0.6389
 9100SOL    HW138762   4.428   1.926  10.473  1.6619 -0.6280  0.5232
 9100SOL    HW238763   4.458   1.856  10.603 -0.9704 -1.1014  1.5359
 9101SOL     OW38764   3.656   1.952   8.974 -0.2021  0.0760 -0.2527
 9101SOL    HW138765   3.572   1.998   8.974 -0.5887 -0.6421 -0.2394
 9101SOL    HW238766   3.635   1.872   9.022  2.6924 -0.3867  0.2254
 9102SOL     OW38767   2.636   2.746   0.656  0.0525  0.0906  0.2622
 9102SOL    HW138768   2.677   2.667   0.691  2.3666  0.9022 -0.6090
 9102SOL    HW238769   2.709   2.782   0.606  0.2330 -1.8013 -0.8686
 9103SOL     OW38770   3.811   2.353   4.389 -0.2597 -0.2993 -0.3405
 9103SOL    HW138771   3.844   2.315   4.308 -1.5040  0.8736 -1.4003
 9103SOL    HW238772   3.768   2.431   4.354 -1.5132 -2.0492 -2.6171
 9104SOL     OW38773   3.807   1.560   3.301  0.4110  0.4853 -0.3138
 9104SOL    HW138774   3.769   1.485   3.346 -1.6101  0.6795 -1.6829
 9104SOL    HW238775   3.740   1.617   3.341 -1.3594 -0.8758 -1.3411
 9105SOL     OW38776   3.328   1.196  13.032  0.4926  0.2227  0.3850
 9105SOL    HW138777   3.234   1.189  13.047  0.3179  2.0967  0.1377
 9105SOL    HW238778   3.357   1.141  13.105 -1.5390 -0.0654  0.9823
 9106SOL     OW38779   0.863   0.731  11.856  0.5008 -0.7916 -0.1791
 9106SOL    HW138780   0.956   0.716  11.835  0.8336  0.9260  0.0229
 9106SOL    HW238781   0.827   0.698  11.774 -0.3128 -0.9723  0.2595
 9107SOL     OW38782   4.227   1.681  17.261  0.2826 -0.3583  0.2042
 9107SOL    HW138783   4.291   1.734  17.309  2.0532 -0.2473 -2.2647
 9107SOL    HW238784   4.250   1.590  17.280  0.0103 -0.4337  0.1760
 9108SOL     OW38785   2.723   2.946   7.532 -0.2617 -0.2395  0.0369
 9108SOL    HW138786   2.753   2.905   7.613 -0.0524  1.2032  0.6974
 9108SOL    HW238787   2.659   3.007   7.570 -0.2823 -0.4161  0.2801
 9109SOL     OW38788   1.866   1.006   6.502  0.3957 -0.0573 -0.4693
 9109SOL    HW138789   1.853   1.033   6.411  1.3222 -2.1826 -1.2224
 9109SOL    HW238790   1.839   0.914   6.504  1.9370 -0.5187 -1.1491
 9110SOL     OW38791   1.266   4.657   4.313 -0.2968 -0.3686  0.7940
 9110SOL    HW138792   1.194   4.595   4.326 -2.2683  2.3680  2.7330
 9110SOL    HW238793   1.329   4.629   4.380  0.2412 -1.3064 -0.0984
 9111SOL     OW38794   3.352   1.143   4.090 -0.5997 -0.0828 -0.2780
 9111SOL    HW138795   3.379   1.148   4.182  1.2445 -1.3238 -0.7417
 9111SOL    HW238796   3.323   1.234   4.092  0.5894  0.2847  0.4351
 9112SOL     OW38797   2.630   4.728  15.094  0.9850  0.1995 -0.6774
 9112SOL    HW138798   2.594   4.653  15.047 -1.5251  1.9133 -1.4808
 9112SOL    HW238799   2.710   0.020  15.044 -0.1262 -2.5770 -3.5330
 9113SOL     OW38800   0.302   1.110   6.199  0.3269  0.0015  0.0603
 9113SOL    HW138801   0.394   1.103   6.174  0.4187  0.3579  0.3032
 9113SOL    HW238802   0.314   1.064   6.282 -1.5710 -0.1315  0.2563
 9114SOL     OW38803   0.673   4.710   5.891 -0.2038 -0.7282 -0.3521
 9114SOL    HW138804   0.637   0.070   5.898 -1.6927 -1.3893  0.4291
 9114SOL    HW238805   0.641   4.680   5.977 -1.5255 -1.7435 -1.1865
 9115SOL     OW38806   2.036   3.250   4.233 -0.4818  0.7213  0.7961
 9115SOL    HW138807   2.115   3.266   4.285  0.7062  1.6276 -1.2619
 9115SOL    HW238808   1.968   3.236   4.298 -0.1731 -1.6919  0.6035
 9116SOL     OW38809   1.220   1.305   8.956 -0.2580  0.4096  0.0881
 9116SOL    HW138810   1.288   1.276   9.016 -1.7363  0.9733  2.0109
 9116SOL    HW238811   1.151   1.242   8.977  0.8195 -0.4083  1.1048
 9117SOL     OW38812   1.035   2.099   8.255  0.0722  1.1430  0.2586
 9117SOL    HW138813   0.962   2.087   8.315  0.4890  2.9973  1.1428
 9117SOL    HW238814   1.114   2.086   8.306  0.1772 -0.6186 -0.3616
 9118SOL     OW38815   2.349   4.264   7.514  0.5643 -0.3565 -0.0508
 9118SOL    HW138816   2.418   4.321   7.547  0.9956 -0.6430 -0.4494
 9118SOL    HW238817   2.341   4.285   7.420  0.9644 -1.8725 -0.4141
 9119SOL     OW38818   3.164   4.392  16.745  0.0693 -0.5808  0.0153
 9119SOL    HW138819   3.121   4.464  16.699 -0.1327 -0.6349  0.1205
 9119SOL    HW238820   3.174   4.438  16.828  0.8227 -0.2512 -0.2591
 9120SOL     OW38821   2.589   0.356   4.353  0.0306 -0.6555  0.1897
 9120SOL    HW138822   2.593   0.261   4.361 -1.2441 -0.8180 -1.1808
 9120SOL    HW238823   2.679   0.379   4.376  0.0123  0.1232 -0.5246
 9121SOL     OW38824   0.278   0.690   5.592  0.0559 -0.4399 -0.1284
 9121SOL    HW138825   0.369   0.715   5.577 -0.1746  0.4658  0.0215
 9121SOL    HW238826   0.240   0.774   5.567  1.4878  0.2151 -0.0648
 9122SOL     OW38827   0.132   4.389   2.974 -0.2608 -0.5931  0.1500
 9122SOL    HW138828   0.149   4.332   2.900 -1.3947  0.5801 -1.0050
 9122SOL    HW238829   0.193   4.460   2.953 -0.5297 -0.4281 -0.0727
 9123SOL     OW38830   1.603   2.856   8.997  0.1297  0.3874  0.2242
 9123SOL    HW138831   1.594   2.932   8.939  0.8672  0.6755  0.4796
 9123SOL    HW238832   1.536   2.881   9.061 -0.3214  0.7762 -0.3958
 9124SOL     OW38833   2.540   1.065   5.257  0.3320  0.0571  0.1430
 9124SOL    HW138834   2.532   1.161   5.251 -4.9170 -0.4091 -0.9181
 9124SOL    HW238835   2.451   1.051   5.291  0.8119 -3.0344  0.1095
 9125SOL     OW38836   1.168   3.229   3.977 -0.5526  0.0423 -0.1423
 9125SOL    HW138837   1.250   3.187   4.002 -2.1206 -1.2243  2.7657
 9125SOL    HW238838   1.114   3.196   4.049 -0.2750  1.8509  0.8785
 9126SOL     OW38839   1.400   3.845   0.615  0.1772 -0.2197 -0.4311
 9126SOL    HW138840   1.455   3.887   0.681 -2.6495  1.8284  0.6483
 9126SOL    HW238841   1.401   3.923   0.559  0.4054  0.8688  1.0698
 9127SOL     OW38842   3.554   4.015   7.834  0.2797  0.5466  0.6218
 9127SOL    HW138843   3.594   3.929   7.843  1.1041  0.6619 -1.7095
 9127SOL    HW238844   3.575   4.065   7.912 -2.8588 -0.4619  2.0896
 9128SOL     OW38845   2.003   1.115  17.474 -0.1542 -0.1758  0.4424
 9128SOL    HW138846   2.037   1.054  17.408  0.4979 -0.4306  1.0154
 9128SOL    HW238847   2.048   1.194  17.447 -0.4528 -0.8883 -2.1217
 9129SOL     OW38848   1.463   2.004  17.148  0.0412 -0.0728 -0.1959
 9129SOL    HW138849   1.495   1.914  17.136  0.8152  0.2619 -0.6623
 9129SOL    HW238850   1.522   2.053  17.090 -1.1184  2.3396  0.6745
 9130SOL     OW38851   2.955   2.047  11.510 -0.2665 -0.2498  0.2223
 9130SOL    HW138852   2.979   2.123  11.564  0.3258 -0.7409  0.6458
 9130SOL    HW238853   2.975   2.085  11.425  2.9148  0.3033  1.1805
 9131SOL     OW38854   1.972   1.886   3.985 -0.3124 -0.2008  0.2293
 9131SOL    HW138855   2.037   1.951   4.010  0.6152 -1.2660  0.6039
 9131SOL    HW238856   2.000   1.869   3.895  1.0383 -1.5336  0.8965
 9132SOL     OW38857   2.183   1.292  17.365 -0.2610 -0.0653  0.2711
 9132SOL    HW138858   2.165   1.374  17.412 -2.5107 -0.9811  1.0426
 9132SOL    HW238859   2.266   1.267  17.406 -1.6780 -1.0270  2.5933
 9133SOL     OW38860   2.523   2.061   7.207 -0.1834  0.2882 -0.1015
 9133SOL    HW138861   2.511   2.035   7.116 -0.1503 -0.5221  0.1270
 9133SOL    HW238862   2.564   2.146   7.195 -1.5387  0.9588 -0.0393
 9134SOL     OW38863   3.624   2.244   3.239 -0.0282  0.2255 -0.2654
 9134SOL    HW138864   3.680   2.255   3.317 -1.1880 -1.7734  0.8548
 9134SOL    HW238865   3.585   2.158   3.253 -1.1384  0.6550 -0.7678
 9135SOL     OW38866   4.561   0.563   4.727  0.4798 -0.4851  0.5199
 9135SOL    HW138867   4.512   0.627   4.675 -0.4009 -0.7472  1.0384
 9135SOL    HW238868   4.557   0.488   4.667 -1.9250  2.3864 -2.9544
 9136SOL     OW38869   1.185   2.370   9.848 -0.4961 -0.3260  0.1454
 9136SOL    HW138870   1.159   2.280   9.867 -0.0249 -0.1749  1.5103
 9136SOL    HW238871   1.246   2.393   9.919 -1.6555  0.2749  0.9666
 9137SOL     OW38872   1.591   0.014   6.935  0.5639 -0.1895  0.1061
 9137SOL    HW138873   1.656   0.047   6.874 -0.8581  0.7003 -0.9331
 9137SOL    HW238874   1.523   4.727   6.870  1.0937  0.1416 -0.5271
 9138SOL     OW38875   1.198   2.823   7.825  0.2367 -0.5807  0.3363
 9138SOL    HW138876   1.126   2.807   7.764  1.6532 -1.1826 -1.1989
 9138SOL    HW238877   1.191   2.916   7.849 -0.9676 -0.9472  1.3954
 9139SOL     OW38878   0.381   2.626   8.744 -0.1627  0.1949  0.1931
 9139SOL    HW138879   0.425   2.552   8.702 -0.6464  0.2377 -0.3858
 9139SOL    HW238880   0.459   2.681   8.734  1.2165 -1.8872 -0.6985
 9140SOL     OW38881   0.578   1.412  11.534  0.1218 -0.2407 -0.4945
 9140SOL    HW138882   0.562   1.462  11.454  2.8901  0.4610 -0.6056
 9140SOL    HW238883   0.643   1.473  11.569  0.7972  1.0659 -3.9948
 9141SOL     OW38884   1.610   3.876  16.090  0.0274  0.2798  0.0520
 9141SOL    HW138885   1.560   3.807  16.133  1.1531 -1.5267 -1.5151
 9141SOL    HW238886   1.660   3.828  16.023  0.5198  0.9454 -0.0611
 9142SOL     OW38887   3.022   3.177   8.251  0.1042  0.0653  0.2550
 9142SOL    HW138888   3.075   3.111   8.294  1.5802  0.7721 -0.4759
 9142SOL    HW238889   3.084   3.250   8.251  1.6325 -1.2595  1.4798
 9143SOL     OW38890   3.795   2.641   8.728  0.5919  0.3521 -0.2102
 9143SOL    HW138891   3.754   2.612   8.647  0.2901  0.2040 -0.0049
 9143SOL    HW238892   3.750   2.725   8.736  1.0402  0.6289 -0.5659
 9144SOL     OW38893   3.050   2.041   4.150  0.8001  0.5828 -0.5379
 9144SOL    HW138894   2.998   2.121   4.149 -1.2594 -0.7610 -1.1173
 9144SOL    HW238895   3.112   2.063   4.080 -0.7256  1.5785 -1.5611
 9145SOL     OW38896   2.817   0.882   0.224 -0.2236 -0.4114  0.0213
 9145SOL    HW138897   2.849   0.824   0.293  1.5923 -0.5505 -0.9084
 9145SOL    HW238898   2.897   0.934   0.212  0.7682 -1.5176  1.7803
 9146SOL     OW38899   1.673   2.141   4.388 -0.1166  0.3897 -0.3471
 9146SOL    HW138900   1.645   2.089   4.313 -0.6184 -2.7319  1.9865
 9146SOL    HW238901   1.603   2.123   4.451  2.8396 -0.3228  2.7061
 9147SOL     OW38902   3.041   1.320   1.784 -0.4716  0.1717 -0.1309
 9147SOL    HW138903   3.041   1.278   1.870 -0.6187  2.8933  1.2300
 9147SOL    HW238904   2.952   1.357   1.791 -1.2319 -1.5077 -1.0548
 9148SOL     OW38905   4.323   4.721   4.420  0.0280  0.0596 -0.0976
 9148SOL    HW138906   4.315   4.643   4.475  1.8964  0.8965  1.3597
 9148SOL    HW238907   4.248   0.048   4.442 -0.6658 -0.8167 -0.2614
 9149SOL     OW38908   2.640   4.542   4.109 -0.4077 -0.0564  0.4637
 9149SOL    HW138909   2.666   4.602   4.039 -1.6727 -0.5079 -0.3892
 9149SOL    HW238910   2.558   4.580   4.138 -0.4230 -0.7742  1.3775
 9150SOL     OW38911   1.818   3.914   0.132 -0.0092  0.2321  0.0872
 9150SOL    HW138912   1.897   3.898   0.184  0.4246  2.2526  0.0395
 9150SOL    HW238913   1.823   4.003   0.098  0.0929  0.4283  0.6315
 9151SOL     OW38914   2.059   2.318  16.782 -0.0524 -0.1264 -0.4745
 9151SOL    HW138915   2.103   2.279  16.706  1.1772 -0.2880  0.3112
 9151SOL    HW238916   2.098   2.263  16.849 -3.4935 -3.8845 -1.6094
 9152SOL     OW38917   1.702   3.700  17.695 -0.0644  0.1316  0.3130
 9152SOL    HW138918   1.752   3.723  17.616 -0.5736 -1.1133 -0.3668
 9152SOL    HW238919   1.749   3.751   0.047  1.3093 -2.3989  1.2784
 9153SOL     OW38920   4.271   2.722  11.911 -0.1519 -0.1877  0.4969
 9153SOL    HW138921   4.344   2.660  11.920 -0.2297 -0.5353 -1.1328
 9153SOL    HW238922   4.218   2.697  11.987 -3.7129  1.4410 -1.4222
 9154SOL     OW38923   3.581   3.013   4.640  0.1422  0.1789 -0.0864
 9154SOL    HW138924   3.599   2.936   4.585 -0.3459 -0.7492  1.0408
 9154SOL    HW238925   3.658   3.061   4.609 -0.1998  0.7349 -0.0661
 9155SOL     OW38926   0.058   4.721  17.269 -0.4399 -0.1192  0.5031
 9155SOL    HW138927   0.008   0.012  17.190  2.8215 -0.4440 -1.6514
 9155SOL    HW238928   0.009   0.051  17.328  1.4355  2.3232 -0.3456
 9156SOL     OW38929   2.324   0.810   8.085 -0.7970 -0.0368  0.1296
 9156SOL    HW138930   2.280   0.827   8.169  1.2240  0.6966  1.0529
 9156SOL    HW238931   2.300   0.891   8.039  1.7194  1.3880  1.3383
 9157SOL     OW38932   1.011   4.528   9.696  0.0003  0.0463  0.1962
 9157SOL    HW138933   1.034   4.483   9.615 -1.7121 -1.8785  0.7880
 9157SOL    HW238934   1.077   4.596   9.705 -1.8638  1.8568  0.2886
 9158SOL     OW38935   3.545   1.960   4.290 -0.0282 -0.3778  0.3433
 9158SOL    HW138936   3.573   2.010   4.214  0.5250  0.2857  0.9911
 9158SOL    HW238937   3.449   1.967   4.292  0.3327  3.7640  2.0779
 9159SOL     OW38938   2.461   2.713   5.714  0.9081 -0.5411  0.0211
 9159SOL    HW138939   2.551   2.732   5.741  0.5845  0.9087  0.0969
 9159SOL    HW238940   2.467   2.628   5.670 -0.6673 -0.1259 -1.0128
 9160SOL     OW38941   2.523   1.569   1.747  0.8039 -0.3275  0.3642
 9160SOL    HW138942   2.452   1.510   1.770  1.7485 -0.8109  2.0065
 9160SOL    HW238943   2.498   1.657   1.776 -1.5707 -1.7269  2.5107
 9161SOL     OW38944   2.521   3.715  13.678  0.1323 -0.2419  0.1041
 9161SOL    HW138945   2.540   3.627  13.645  1.4769 -0.1109  0.5183
 9161SOL    HW238946   2.608   3.728  13.716  0.2166 -2.2394  0.5857
 9162SOL     OW38947   2.712   1.995  12.779 -0.2113 -0.0049 -0.5137
 9162SOL    HW138948   2.666   1.924  12.733 -0.2855 -0.2276 -0.1007
 9162SOL    HW238949   2.788   1.943  12.806  0.9121  2.0394  0.2670
 9163SOL     OW38950   0.518   4.319   6.140 -0.1960  0.5990 -0.9990
 9163SOL    HW138951   0.603   4.294   6.104  0.7340  0.6340  1.1775
 9163SOL    HW238952   0.521   4.407   6.179 -0.1576  0.0312  0.2835
 9164SOL     OW38953   3.675   3.580   3.108  0.2745 -0.3462  0.1148
 9164SOL    HW138954   3.629   3.497   3.096 -1.5614  0.4980  1.3301
 9164SOL    HW238955   3.757   3.559   3.154 -0.0822  0.9152  1.3319
 9165SOL     OW38956   1.313   1.805  11.779  0.2331  0.4077  0.5038
 9165SOL    HW138957   1.406   1.806  11.758 -0.3011 -1.1641 -1.8546
 9165SOL    HW238958   1.296   1.899  11.790 -1.4062  0.2893 -1.0991
 9166SOL     OW38959   0.413   4.624   5.525  0.4244 -0.8394  0.3147
 9166SOL    HW138960   0.430   4.597   5.435 -4.0353 -1.2009 -0.4121
 9166SOL    HW238961   0.437   4.540   5.566  0.0103 -1.1205 -0.0183
 9167SOL     OW38962   1.244   1.921   7.306 -0.1191  0.0085  0.1887
 9167SOL    HW138963   1.336   1.916   7.332 -0.0651 -2.0351 -0.3954
 9167SOL    HW238964   1.212   1.982   7.373  2.0834 -1.0986  2.2495
 9168SOL     OW38965   0.187   1.378   0.944 -0.4044 -0.1454  0.7403
 9168SOL    HW138966   0.127   1.336   0.882  1.4519  0.3859 -1.4092
 9168SOL    HW238967   0.161   1.340   1.028  0.7292 -3.3941 -0.3849
 9169SOL     OW38968   2.815   4.377   4.947 -0.1015 -0.0920 -0.3754
 9169SOL    HW138969   2.825   4.425   5.028  0.1971  0.1992 -0.5860
 9169SOL    HW238970   2.822   4.288   4.983 -3.2888 -0.5363 -0.7582
 9170SOL     OW38971   2.403   2.595   3.045 -0.8220  0.2287 -0.3000
 9170SOL    HW138972   2.478   2.653   3.052  0.5802 -1.6320  0.2699
 9170SOL    HW238973   2.378   2.614   2.955  1.1377  0.2592 -0.8378
 9171SOL     OW38974   1.457   3.787   4.147  0.0689 -0.4029  0.1806
 9171SOL    HW138975   1.471   3.693   4.136  0.0009 -0.4281  0.2985
 9171SOL    HW238976   1.401   3.798   4.224 -0.0668 -0.4696  0.0917
 9172SOL     OW38977   3.775   1.206  17.672 -0.1759  0.0309 -0.8469
 9172SOL    HW138978   3.823   1.232   0.037 -1.5625  0.8882 -0.2946
 9172SOL    HW238979   3.720   1.284  17.663 -1.3493 -0.7270 -0.2739
 9173SOL     OW38980   2.160   0.111   2.642  0.2430  0.5048  0.3016
 9173SOL    HW138981   2.203   0.064   2.714  2.3839  0.3774 -1.0586
 9173SOL    HW238982   2.180   0.056   2.567 -2.1115  1.2082 -0.8401
 9174SOL     OW38983   2.660   2.488   0.821  0.4093  0.1594  0.6111
 9174SOL    HW138984   2.606   2.410   0.811 -1.6761  1.6886 -0.0301
 9174SOL    HW238985   2.682   2.490   0.914  0.3638  0.7115  0.6098
 9175SOL     OW38986   2.525   2.326   4.032 -0.1960  0.0783 -0.2677
 9175SOL    HW138987   2.444   2.335   4.082 -0.4535  1.8977 -0.9891
 9175SOL    HW238988   2.560   2.407   4.070 -0.7288  0.1726  0.0187
 9176SOL     OW38989   1.760   1.839   9.345 -0.1783 -0.5719 -0.1881
 9176SOL    HW138990   1.836   1.783   9.334 -0.6806 -0.9855 -1.4827
 9176SOL    HW238991   1.731   1.804   9.429  0.0898 -0.5131 -0.0705
 9177SOL     OW38992   0.518   3.296   3.453 -0.1018  0.2434 -0.1006
 9177SOL    HW138993   0.499   3.203   3.439  0.5119  0.1204 -0.1330
 9177SOL    HW238994   0.555   3.301   3.541  0.8918  1.1869 -0.5661
 9178SOL     OW38995   2.793   0.886   7.505  0.2520 -0.2480  0.4171
 9178SOL    HW138996   2.864   0.923   7.452 -0.9322  0.4673 -0.6651
 9178SOL    HW238997   2.837   0.872   7.589  0.7567 -0.3478  0.1390
 9179SOL     OW38998   0.029   3.993   7.191 -0.2071 -0.0268 -0.2635
 9179SOL    HW138999   0.098   4.049   7.155 -0.5864  0.8891  0.4220
 9179SOL    HW239000   0.069   3.957   7.270 -0.2337  0.5832  0.0240
 9180SOL     OW39001   0.320   3.251   4.059  0.6116  1.1915  0.1352
 9180SOL    HW139002   0.346   3.330   4.106 -1.3250  1.6547  0.4557
 9180SOL    HW239003   0.400   3.199   4.061 -0.5544 -0.5981  0.9826
 9181SOL     OW39004   1.431   3.136   3.287 -0.5474  0.0425  0.1217
 9181SOL    HW139005   1.487   3.184   3.225  1.1878 -1.4839  0.5039
 9181SOL    HW239006   1.498   3.088   3.336  0.6052  1.7512  0.2460
 9182SOL     OW39007   4.368   4.178  13.249  0.2241 -0.1601 -0.2604
 9182SOL    HW139008   4.389   4.225  13.330  0.6222 -0.5295 -0.1469
 9182SOL    HW239009   4.365   4.088  13.282  1.4599 -0.6480 -1.4970
 9183SOL     OW39010   2.954   4.456  10.519  0.0179 -0.1002 -0.2043
 9183SOL    HW139011   2.955   4.420  10.608 -0.6303  1.5414  0.4658
 9183SOL    HW239012   2.915   4.385  10.468  0.8335 -1.6491  1.3271
 9184SOL     OW39013   2.876   0.720   0.461 -0.5476 -0.2717  0.2412
 9184SOL    HW139014   2.926   0.665   0.521 -0.2153 -1.5321 -1.2034
 9184SOL    HW239015   2.805   0.760   0.512 -1.7533 -1.0847 -0.8034
 9185SOL     OW39016   1.322   0.422   4.049  0.0699  0.0517  0.2791
 9185SOL    HW139017   1.294   0.337   4.018  0.6024 -0.6313  1.6422
 9185SOL    HW239018   1.406   0.414   4.004  0.0848 -2.4127  0.7397
 9186SOL     OW39019   4.583   3.629  14.607  0.6023  0.1660 -0.3070
 9186SOL    HW139020   4.662   3.682  14.618 -0.0254  0.9225  0.5597
 9186SOL    HW239021   4.613   3.548  14.647  0.8941  1.4740  2.1726
 9187SOL     OW39022   1.341   4.475  16.227  0.3877  0.2653 -0.1415
 9187SOL    HW139023   1.286   4.510  16.297  0.7676 -0.0572  0.3169
 9187SOL    HW239024   1.290   4.398  16.203  2.3565 -0.9515 -0.4134
 9188SOL     OW39025   0.937   1.792   1.556 -0.1484 -0.0775 -0.3025
 9188SOL    HW139026   0.911   1.787   1.648 -2.1231  1.5689 -0.7766
 9188SOL    HW239027   0.897   1.874   1.528  0.9559  0.1598 -1.1847
 9189SOL     OW39028   2.360   0.164  15.375 -0.2029  0.0098 -0.6606
 9189SOL    HW139029   2.373   0.248  15.418 -0.5966 -0.8905  1.2138
 9189SOL    HW239030   2.398   0.169  15.287 -0.7765  0.0698 -0.9031
 9190SOL     OW39031   1.021   4.457   5.489 -0.7923  0.3533  0.4530
 9190SOL    HW139032   1.102   4.478   5.535  0.4183 -0.8529 -1.1291
 9190SOL    HW239033   1.040   4.378   5.438 -0.6961  0.7470 -0.1202
 9191SOL     OW39034   1.644   1.267  16.835 -0.6990 -0.1201  0.0688
 9191SOL    HW139035   1.558   1.233  16.859 -0.9507  0.0107 -0.6448
 9191SOL    HW239036   1.669   1.212  16.761 -1.1515 -2.9629  2.0328
 9192SOL     OW39037   0.925   0.560  12.287  0.2357 -0.4710  0.0107
 9192SOL    HW139038   0.893   0.550  12.376  0.7846  0.5420  0.3255
 9192SOL    HW239039   0.912   0.654  12.282 -1.0421 -0.7708 -2.2541
 9193SOL     OW39040   2.215   4.376  14.235 -0.2776  0.4741  0.5990
 9193SOL    HW139041   2.274   4.337  14.171 -0.9255  0.4250  0.0207
 9193SOL    HW239042   2.234   4.469  14.219 -1.6001  0.3060 -1.9673
 9194SOL     OW39043   1.987   1.053   1.239  0.1233 -0.3231 -0.0143
 9194SOL    HW139044   1.975   1.071   1.332  2.7589 -1.2408  0.4905
 9194SOL    HW239045   2.015   1.138   1.203 -1.0195 -0.4726 -1.2563
 9195SOL     OW39046   2.167   2.371   9.541  0.2835 -0.0109 -0.0067
 9195SOL    HW139047   2.205   2.312   9.606 -1.8374 -1.2040  0.1684
 9195SOL    HW239048   2.199   2.456   9.572  1.4232  0.4625 -2.4983
 9196SOL     OW39049   3.740   2.294   9.755 -0.0055  0.7102 -0.0430
 9196SOL    HW139050   3.729   2.389   9.761 -1.5998  0.4940  0.4067
 9196SOL    HW239051   3.653   2.278   9.718 -0.2270 -0.5264  1.0373
 9197SOL     OW39052   4.617   3.393  11.600 -0.4713  0.2100  0.3737
 9197SOL    HW139053   4.692   3.451  11.603 -0.2940 -0.0236  0.4603
 9197SOL    HW239054   4.652   3.322  11.654  0.0681  0.1334 -0.0808
 9198SOL     OW39055   4.646   3.913   1.567 -0.3172  0.2099 -0.2125
 9198SOL    HW139056   4.718   3.955   1.520  2.5579 -1.6271  2.6190
 9198SOL    HW239057   4.647   3.956   1.652  1.7473  3.5302 -1.9164
 9199SOL     OW39058   0.066   1.078  10.793 -0.0318 -0.8450  0.3457
 9199SOL    HW139059   0.102   1.136  10.725  0.6539 -1.2780  0.3425
 9199SOL    HW239060   0.149   1.046  10.829  1.1747 -1.2635 -2.7933
 9200SOL     OW39061   1.099   1.961   7.773  0.5447 -0.5884  0.1296
 9200SOL    HW139062   1.173   1.958   7.834  0.1450  0.3049  0.6573
 9200SOL    HW239063   1.024   1.963   7.832 -0.3999  0.0098 -1.1014
 9201SOL     OW39064   2.576   1.472   3.744 -0.0450 -0.1988  0.2700
 9201SOL    HW139065   2.508   1.404   3.742 -2.1171  1.8279  1.7129
 9201SOL    HW239066   2.537   1.543   3.693 -1.3070 -0.9527  0.1698
 9202SOL     OW39067   2.546   4.721   6.934  0.4167 -0.1724  0.4201
 9202SOL    HW139068   2.628   0.008   6.888  0.4663  1.3102  0.9880
 9202SOL    HW239069   2.568   0.002   7.027  3.3742  0.5553 -0.3564
 9203SOL     OW39070   4.355   4.223   3.388 -0.0282  0.4127 -0.1907
 9203SOL    HW139071   4.278   4.229   3.333  0.8364  0.1025 -1.4394
 9203SOL    HW239072   4.426   4.211   3.324  0.8911  0.5251  0.7939
 9204SOL     OW39073   0.200   2.991   0.624 -0.2571 -0.0385  0.7661
 9204SOL    HW139074   0.111   2.981   0.657 -0.5674  0.8336  0.1880
 9204SOL    HW239075   0.193   2.922   0.558  0.1088  2.0036 -1.3956
 9205SOL     OW39076   0.496   0.585  14.452 -0.2061  0.6846  0.5068
 9205SOL    HW139077   0.526   0.616  14.366  3.6398  0.6502  1.8339
 9205SOL    HW239078   0.496   0.493  14.427  1.0032  1.6769 -3.1883
 9206SOL     OW39079   2.849   3.361   6.282  0.4554 -0.3500 -0.2524
 9206SOL    HW139080   2.916   3.424   6.311  2.6112 -2.2087 -1.1972
 9206SOL    HW239081   2.775   3.415   6.253  0.5002 -0.3895 -0.4419
 9207SOL     OW39082   1.966   1.611   6.836  0.2789  0.6739 -0.6567
 9207SOL    HW139083   1.995   1.630   6.746  0.3169  4.7071  0.1940
 9207SOL    HW239084   1.954   1.516   6.840  1.7517  0.4347 -1.5459
 9208SOL     OW39085   1.641   2.581   2.080 -0.3580  0.1155 -0.3525
 9208SOL    HW139086   1.654   2.672   2.105 -0.5778  0.9681 -3.2715
 9208SOL    HW239087   1.730   2.546   2.089 -1.0626 -0.9771  2.2702
 9209SOL     OW39088   1.764   2.202   5.576  0.9384  0.0536  0.2821
 9209SOL    HW139089   1.848   2.249   5.581  0.6750  0.5853 -0.2329
 9209SOL    HW239090   1.703   2.254   5.628 -0.1435 -2.2812  1.2963
 9210SOL     OW39091   2.940   0.612   1.143  0.3398  0.2083  0.3033
 9210SOL    HW139092   2.887   0.601   1.222  0.1634  0.7923  0.2634
 9210SOL    HW239093   2.872   0.594   1.078  1.1768  0.1015 -0.5436
 9211SOL     OW39094   0.409   2.914   0.022  0.1714  0.3895 -0.3948
 9211SOL    HW139095   0.318   2.883   0.015  0.0208  1.0900 -1.4837
 9211SOL    HW239096   0.434   2.926  17.644 -1.3219  1.3666 -0.6947
 9212SOL     OW39097   4.640   4.235  14.176  0.4235  0.0032  0.1043
 9212SOL    HW139098   4.650   4.181  14.255  0.8905  1.5651  1.1038
 9212SOL    HW239099   4.670   4.319  14.209 -0.4275  0.2476  0.2334
 9213SOL     OW39100   3.131   2.244   4.659  0.3490  0.2016  0.3363
 9213SOL    HW139101   3.120   2.152   4.638  1.3312  0.3538 -0.8491
 9213SOL    HW239102   3.062   2.274   4.601 -0.8949 -1.6708  0.8551
 9214SOL     OW39103   2.096   3.360   6.653  0.0420  0.4103  0.0973
 9214SOL    HW139104   2.188   3.383   6.636  0.0549 -0.5751 -1.1173
 9214SOL    HW239105   2.055   3.447   6.655  0.4932  0.6088  1.1866
 9215SOL     OW39106   4.264   0.992   1.077 -0.1772 -0.1864  0.0374
 9215SOL    HW139107   4.255   0.968   0.985  0.7900 -0.1209 -0.0688
 9215SOL    HW239108   4.334   0.932   1.100 -1.2588 -0.7274  1.9084
 9216SOL     OW39109   1.926   4.550   9.969  0.2258 -0.1112  0.1238
 9216SOL    HW139110   1.975   4.621   9.928  0.5119 -1.5575 -2.0234
 9216SOL    HW239111   1.981   4.540  10.047  1.6581 -0.5274 -0.9528
 9217SOL     OW39112   1.888   2.231   4.545  0.2384  0.1238 -0.1659
 9217SOL    HW139113   1.811   2.203   4.495  0.1385 -0.5823  0.3734
 9217SOL    HW239114   1.906   2.150   4.593 -4.0085 -0.5090  0.4345
 9218SOL     OW39115   0.935   2.813   7.720 -0.1722 -0.0873  0.3513
 9218SOL    HW139116   0.868   2.857   7.667 -1.0077 -1.1711  0.5014
 9218SOL    HW239117   0.915   2.720   7.716 -0.9040  0.0632  0.4804
 9219SOL     OW39118   2.271   1.090   4.330 -0.0700  0.2242 -0.1438
 9219SOL    HW139119   2.300   1.009   4.287  0.6532  1.1235 -1.3378
 9219SOL    HW239120   2.291   1.071   4.422  0.8354 -0.9333 -0.5847
 9220SOL     OW39121   4.490   2.116   3.694 -0.8400 -0.0672  0.0716
 9220SOL    HW139122   4.574   2.071   3.704 -1.1537 -0.7665 -0.3931
 9220SOL    HW239123   4.522   2.206   3.691  0.2280 -0.4502  0.0811
 9221SOL     OW39124   1.927   1.610   4.044  0.0762 -0.7619 -0.2735
 9221SOL    HW139125   1.930   1.704   4.064 -0.7305 -0.7142 -0.4109
 9221SOL    HW239126   1.967   1.612   3.957  0.8851 -2.3556  0.0539
 9222SOL     OW39127   4.673   2.256   6.071 -0.5018  0.3378  0.0551
 9222SOL    HW139128   4.678   2.239   6.165  0.0941  0.5701  0.0656
 9222SOL    HW239129   4.591   2.305   6.063  0.1068  1.4727  0.7768
 9223SOL     OW39130   2.828   1.306   7.023 -0.1983  1.0346 -0.3726
 9223SOL    HW139131   2.758   1.258   6.980 -0.7912  1.2008  0.4083
 9223SOL    HW239132   2.893   1.241   6.996 -1.3912  0.2286 -1.2794
 9224SOL     OW39133   3.153   0.309   3.861  0.3532 -0.1161  0.2879
 9224SOL    HW139134   3.143   0.357   3.943  1.2115  0.1140  0.2569
 9224SOL    HW239135   3.248   0.300   3.856  0.5197  0.2657  2.8101
 9225SOL     OW39136   0.610   0.736  14.263  0.0580  0.4029 -0.5936
 9225SOL    HW139137   0.670   0.752  14.191  1.7078  0.2843  0.7650
 9225SOL    HW239138   0.617   0.821  14.307 -0.4023  0.1569 -0.0428
 9226SOL     OW39139   0.384   2.177   9.540  0.2559  0.0119  0.3077
 9226SOL    HW139140   0.358   2.103   9.485  0.7305  0.1676 -0.1299
 9226SOL    HW239141   0.319   2.241   9.512 -2.2104 -2.3762  0.5758
 9227SOL     OW39142   3.361   1.062   8.249  0.0764  0.4362  0.0986
 9227SOL    HW139143   3.275   1.024   8.230 -0.2111 -0.4467  3.1930
 9227SOL    HW239144   3.367   1.031   8.340 -0.8442  0.5615  0.2082
 9228SOL     OW39145   1.204   1.692   7.879 -0.6613  0.2167  0.3413
 9228SOL    HW139146   1.203   1.623   7.813  0.9452  1.2357 -0.7537
 9228SOL    HW239147   1.110   1.708   7.893 -1.1694 -1.4014 -1.3298
 9229SOL     OW39148   1.219   4.087   6.603  0.0088 -0.2460 -0.0611
 9229SOL    HW139149   1.236   4.093   6.697  0.1004 -1.9037  0.0228
 9229SOL    HW239150   1.211   3.993   6.589  1.8120 -0.5212  0.6682
 9230SOL     OW39151   3.205   0.502   0.683 -0.2789  0.0355  0.1348
 9230SOL    HW139152   3.187   0.543   0.598  0.5272 -1.3132 -0.6802
 9230SOL    HW239153   3.116   0.484   0.715  0.3945 -2.1128  0.7398
 9231SOL     OW39154   3.672   3.096   5.706 -0.8798  0.0199 -0.1773
 9231SOL    HW139155   3.685   3.024   5.768  2.0858  1.0508  0.3816
 9231SOL    HW239156   3.590   3.064   5.668 -0.9000 -2.4513  1.9378
 9232SOL     OW39157   1.992   4.619  17.243  0.4089 -0.4878 -0.4117
 9232SOL    HW139158   2.034   4.702  17.265 -0.0552 -0.2989 -0.2589
 9232SOL    HW239159   2.004   4.612  17.148 -1.0167  0.7674 -0.6763
 9233SOL     OW39160   1.538   1.587   3.854 -0.4517 -0.5239  0.0494
 9233SOL    HW139161   1.599   1.517   3.878  1.3498  1.0179 -0.0544
 9233SOL    HW239162   1.550   1.653   3.922 -1.2452  0.3896 -0.6915
 9234SOL     OW39163   1.652   3.241   6.809  0.3443 -0.8332 -0.4763
 9234SOL    HW139164   1.584   3.211   6.870 -1.0586  2.8018 -0.2322
 9234SOL    HW239165   1.679   3.154   6.778  2.4961 -0.1201 -0.5475
 9235SOL     OW39166   1.833   0.606   2.645  0.5910 -0.6318  0.3121
 9235SOL    HW139167   1.889   0.596   2.568  0.2046  0.6776 -0.1440
 9235SOL    HW239168   1.753   0.561   2.617 -0.5437  1.5725  0.0376
 9236SOL     OW39169   0.306   3.628   4.867  0.2571 -0.1526  0.1664
 9236SOL    HW139170   0.217   3.645   4.836  0.4697  0.6626  0.0162
 9236SOL    HW239171   0.314   3.687   4.942  1.9644  1.5206 -1.3336
 9237SOL     OW39172   1.702   3.471   7.044 -0.1071 -0.1310 -0.1957
 9237SOL    HW139173   1.775   3.455   7.104  0.1443 -1.1857 -0.7878
 9237SOL    HW239174   1.714   3.394   6.989 -2.0372 -1.2412  0.9263
 9238SOL     OW39175   0.922   0.330   4.417 -0.2928  0.4471  0.1577
 9238SOL    HW139176   0.938   0.243   4.380  0.0251 -0.0875  1.5534
 9238SOL    HW239177   0.969   0.386   4.355  0.7476 -0.6291 -0.0261
 9239SOL     OW39178   1.969   1.263   3.606 -0.3845 -0.7462  0.3237
 9239SOL    HW139179   1.958   1.173   3.575  0.8178  0.1650 -2.8247
 9239SOL    HW239180   1.902   1.312   3.557 -0.5088  0.6615  1.9055
 9240SOL     OW39181   2.851   3.279  13.441 -0.0159  0.1149 -0.3306
 9240SOL    HW139182   2.802   3.252  13.519  0.8459  0.3903  0.3060
 9240SOL    HW239183   2.844   3.199  13.389  3.1127  0.0766 -0.7331
 9241SOL     OW39184   3.122   3.848   4.845 -0.2707 -0.1657  0.9126
 9241SOL    HW139185   3.038   3.813   4.817  0.6373 -1.1803 -0.5301
 9241SOL    HW239186   3.105   3.931   4.802 -0.4873 -1.0397 -0.6776
 9242SOL     OW39187   4.131   1.738   6.242  0.0263 -0.1001  0.0538
 9242SOL    HW139188   4.216   1.781   6.230 -0.5087  1.1005  0.5107
 9242SOL    HW239189   4.158   1.646   6.242  0.7571  0.1140 -1.4764
 9243SOL     OW39190   2.955   3.981  12.298  0.1317 -0.3396 -0.0727
 9243SOL    HW139191   3.040   3.971  12.340  0.2051 -2.3191 -0.7231
 9243SOL    HW239192   2.964   3.960  12.205 -0.7173 -0.6509 -0.0906
 9244SOL     OW39193   0.166   0.690   8.176  0.5780  0.0915 -0.2431
 9244SOL    HW139194   0.237   0.746   8.208  2.9195 -3.2357  0.3654
 9244SOL    HW239195   0.089   0.745   8.184 -1.5340 -2.6523 -1.7087
 9245SOL     OW39196   2.357   3.032   8.403 -0.8487  0.3445 -0.1617
 9245SOL    HW139197   2.344   3.107   8.344  2.1645  1.3330  0.4477
 9245SOL    HW239198   2.453   3.029   8.407 -0.8780  1.4300  1.4473
 9246SOL     OW39199   3.516   3.312   3.191  0.5077 -0.4389 -0.5870
 9246SOL    HW139200   3.496   3.362   3.112 -0.7951  2.1060  1.3310
 9246SOL    HW239201   3.452   3.240   3.197 -0.1480  0.1875  0.0595
 9247SOL     OW39202   3.110   3.334   7.579 -0.1666  0.5126 -0.0053
 9247SOL    HW139203   3.131   3.411   7.632  0.1582 -0.6890  1.6457
 9247SOL    HW239204   3.029   3.301   7.619 -1.5988  0.5467 -2.9092
 9248SOL     OW39205   0.550   2.393   4.472 -0.3216  0.0828 -0.5442
 9248SOL    HW139206   0.521   2.329   4.537  0.0370  0.2680 -0.1952
 9248SOL    HW239207   0.630   2.431   4.509 -0.2667  0.6248 -1.2203
 9249SOL     OW39208   3.035   3.361   9.903 -0.0534  0.3762 -0.1333
 9249SOL    HW139209   3.006   3.403   9.984  0.7347 -0.7078  0.6996
 9249SOL    HW239210   2.949   3.331   9.872  0.2972 -0.8947  0.1109
 9250SOL     OW39211   4.528   4.477   6.205 -0.4020  0.5357 -0.0032
 9250SOL    HW139212   4.499   4.429   6.127 -0.5885  2.2934 -1.0341
 9250SOL    HW239213   4.473   4.437   6.271  0.8672 -0.7856  0.2427
 9251SOL     OW39214   1.932   2.502   8.293  0.2312 -0.4174 -0.0713
 9251SOL    HW139215   1.953   2.588   8.256 -0.0102 -0.2066  0.2775
 9251SOL    HW239216   1.890   2.454   8.221  0.0679  0.1806 -0.3734
 9252SOL     OW39217   2.213   0.592   9.823  0.5770 -0.0064 -0.4502
 9252SOL    HW139218   2.275   0.526   9.792  1.0026  0.5971 -0.8687
 9252SOL    HW239219   2.213   0.582   9.919  2.0116  0.0444 -0.4519
 9253SOL     OW39220   1.854   1.452   1.513 -0.1525  0.3395  0.4297
 9253SOL    HW139221   1.766   1.440   1.478 -0.3060  1.3653  0.4622
 9253SOL    HW239222   1.845   1.522   1.578  1.7027  0.0018  1.0342
 9254SOL     OW39223   1.504   3.440   7.274 -0.3378  0.3425  0.1438
 9254SOL    HW139224   1.540   3.439   7.186  0.3582 -2.0179  0.4379
 9254SOL    HW239225   1.558   3.503   7.321  1.4389 -0.2056 -1.1822
 9255SOL     OW39226   4.253   3.373   5.192  0.0286  0.7201  0.3991
 9255SOL    HW139227   4.325   3.432   5.217  0.8781  0.0446 -0.4700
 9255SOL    HW239228   4.227   3.345   5.279 -0.3968  0.2970  0.1329
 9256SOL     OW39229   0.584   3.829  14.522 -0.3277 -0.3232 -0.1177
 9256SOL    HW139230   0.621   3.790  14.601 -0.0209  1.6717  0.7376
 9256SOL    HW239231   0.506   3.872  14.558  0.2641 -0.4953  1.3697
 9257SOL     OW39232   0.395   4.377   4.127 -0.4362 -0.0343  0.0146
 9257SOL    HW139233   0.475   4.325   4.125 -0.7198 -0.5287  1.8590
 9257SOL    HW239234   0.435   4.461   4.104 -1.1187 -0.0392 -1.2011
 9258SOL     OW39235   0.882   1.196  16.684 -0.0287 -0.3857 -0.1508
 9258SOL    HW139236   0.819   1.193  16.612 -0.9948  0.2161  0.6827
 9258SOL    HW239237   0.957   1.239  16.643 -1.1401  0.0260 -1.7593
 9259SOL     OW39238   2.439   2.241  10.514  0.1686  0.3765 -0.2026
 9259SOL    HW139239   2.383   2.292  10.571 -0.8559 -1.6403  0.5999
 9259SOL    HW239240   2.395   2.253  10.430 -0.2287  0.4488  0.0160
 9260SOL     OW39241   3.569   2.005   6.993  0.2065  0.5843 -0.2079
 9260SOL    HW139242   3.478   1.984   7.014  0.9273 -1.5730  0.7753
 9260SOL    HW239243   3.614   1.960   7.064 -1.0252 -1.6302 -0.8422
 9261SOL     OW39244   4.093   3.620   3.425 -0.6527 -0.2610  0.1369
 9261SOL    HW139245   4.107   3.635   3.518 -1.4378  1.9473 -0.0988
 9261SOL    HW239246   4.111   3.528   3.403  3.5195  0.7093 -0.5579
 9262SOL     OW39247   2.495   2.352   0.586  0.4278  0.3786  0.2054
 9262SOL    HW139248   2.549   2.275   0.602  0.7738  0.8330  1.2104
 9262SOL    HW239249   2.439   2.321   0.515 -1.1499  0.6591  1.3334
 9263SOL     OW39250   3.311   3.982   1.588 -0.1092  0.1199 -0.4085
 9263SOL    HW139251   3.314   4.049   1.520  0.3218 -0.7228 -1.2211
 9263SOL    HW239252   3.280   4.037   1.659  0.3112 -0.8717  0.5596
 9264SOL     OW39253   2.052   4.208   5.861 -0.6583  0.4599 -0.2276
 9264SOL    HW139254   2.026   4.250   5.943 -0.1859 -0.9033  0.6347
 9264SOL    HW239255   1.998   4.256   5.799  0.7734  0.5185 -1.4197
 9265SOL     OW39256   4.267   3.130   8.797 -0.0044 -0.5860  0.2955
 9265SOL    HW139257   4.229   3.167   8.877 -1.5765 -3.4682  0.8686
 9265SOL    HW239258   4.313   3.211   8.774 -1.0885 -0.6013 -1.9081
 9266SOL     OW39259   1.666   4.623  10.014  0.2849  0.4709 -0.2590
 9266SOL    HW139260   1.755   4.592   9.999  0.5367  0.7063  0.7410
 9266SOL    HW239261   1.665   4.677  10.093  0.5970 -1.0568  0.8064
 9267SOL     OW39262   2.217   0.267   3.319 -0.0536 -0.2373  0.0217
 9267SOL    HW139263   2.249   0.209   3.389 -0.3405 -0.8285 -0.3407
 9267SOL    HW239264   2.285   0.282   3.253  0.8330  0.7298  1.1483
 9268SOL     OW39265   0.117   0.257   8.293  0.0621 -0.3982  0.1691
 9268SOL    HW139266   0.094   0.214   8.210  3.2785 -0.7926 -0.5176
 9268SOL    HW239267   0.172   0.331   8.268  1.3672 -1.0642  1.0912
 9269SOL     OW39268   1.528   2.276   9.078 -0.1773  0.2401  0.1538
 9269SOL    HW139269   1.616   2.276   9.041 -0.1239  0.2686  0.2796
 9269SOL    HW239270   1.523   2.184   9.106 -0.5507 -0.1793 -1.3190
 9270SOL     OW39271   0.545   3.013   8.010  0.0644  0.3659  0.1565
 9270SOL    HW139272   0.612   3.068   7.970  0.9262 -1.1946 -0.5356
 9270SOL    HW239273   0.476   3.015   7.945 -0.8040  0.9405  1.0950
 9271SOL     OW39274   3.521   1.518   6.210  0.3578 -0.1861 -0.1772
 9271SOL    HW139275   3.442   1.572   6.202  0.9541  0.5197 -1.2657
 9271SOL    HW239276   3.495   1.451   6.273  0.2667 -0.7805 -0.8479
 9272SOL     OW39277   0.584   1.353   8.647  0.0549  0.4065 -0.2019
 9272SOL    HW139278   0.526   1.429   8.654  1.1050  1.0119  1.9788
 9272SOL    HW239279   0.620   1.353   8.736  3.0028 -2.4174 -1.3941
 9273SOL     OW39280   1.664   1.391   0.987  0.9196  0.0575 -0.5227
 9273SOL    HW139281   1.569   1.388   1.002  0.9672  1.1365 -0.0067
 9273SOL    HW239282   1.683   1.310   1.035  3.2360 -0.4791 -2.3611
 9274SOL     OW39283   2.712   4.304   9.292 -0.6997 -0.5134  0.5603
 9274SOL    HW139284   2.788   4.255   9.325 -0.7781 -0.7719  0.3582
 9274SOL    HW239285   2.659   4.304   9.372 -0.5396  1.0498  0.6592
 9275SOL     OW39286   0.154   1.388  14.046  0.6265  0.0561  0.8079
 9275SOL    HW139287   0.171   1.400  14.139  0.7631 -1.2212  0.9514
 9275SOL    HW239288   0.178   1.472  14.007 -0.6157 -0.4823 -1.1506
 9276SOL     OW39289   0.873   2.536   7.737 -0.4393 -0.3476  0.7315
 9276SOL    HW139290   0.884   2.520   7.831  1.9070 -1.4689  0.2841
 9276SOL    HW239291   0.841   2.452   7.703 -1.8468  0.1322  0.9131
 9277SOL     OW39292   0.189   1.137   7.551  0.5759 -0.2974 -0.2659
 9277SOL    HW139293   0.272   1.098   7.523 -0.0150 -2.1604  0.5302
 9277SOL    HW239294   0.180   1.205   7.484  1.9825 -0.0129 -0.1466
 9278SOL     OW39295   1.853   2.008  13.203  0.3043 -0.7660 -0.4279
 9278SOL    HW139296   1.785   2.071  13.181 -0.1414 -0.6456  1.2929
 9278SOL    HW239297   1.835   1.939  13.139 -0.2307  0.7187 -1.8565
 9279SOL     OW39298   0.056   3.819  15.135  0.2673  0.0388  0.1726
 9279SOL    HW139299   0.135   3.810  15.188  0.9459 -0.3659 -0.9090
 9279SOL    HW239300   0.050   3.912  15.159 -2.3083 -0.0096 -0.3129
 9280SOL     OW39301   4.263   0.853   4.825 -0.5858 -0.2871  0.1815
 9280SOL    HW139302   4.188   0.812   4.784  0.5521 -0.2375 -1.9486
 9280SOL    HW239303   4.307   0.786   4.877  1.2371 -0.3639 -1.4479
 9281SOL     OW39304   0.940   3.520  13.225  0.1817  0.3917 -0.4011
 9281SOL    HW139305   1.034   3.526  13.208  0.7589 -0.7646  2.3643
 9281SOL    HW239306   0.937   3.507  13.319  2.5151  0.2365 -0.3435
 9282SOL     OW39307   1.635   2.662   8.216 -0.2799 -0.0692 -0.1612
 9282SOL    HW139308   1.726   2.643   8.191 -0.3067 -1.0412  0.5119
 9282SOL    HW239309   1.636   2.660   8.311  0.4659  2.6392 -0.0934
 9283SOL     OW39310   2.674   2.426   6.171  0.4818 -0.0720 -0.3140
 9283SOL    HW139311   2.654   2.361   6.238  1.2071  1.2351  1.1718
 9283SOL    HW239312   2.718   2.487   6.231  0.2185 -0.6979  0.5118
 9284SOL     OW39313   0.440   4.133  17.402 -0.0987 -0.5169  0.1203
 9284SOL    HW139314   0.397   4.047  17.403 -1.3445  0.1159  1.1954
 9284SOL    HW239315   0.364   4.189  17.415 -0.5116 -0.9965 -0.1880
 9285SOL     OW39316   0.334   1.700  12.523 -0.6798 -0.4129  0.4647
 9285SOL    HW139317   0.259   1.652  12.487 -0.8571  0.4145 -0.2707
 9285SOL    HW239318   0.374   1.725  12.440 -1.5773 -1.1104 -0.1730
 9286SOL     OW39319   0.075   0.833  16.465 -0.0790  0.0587 -0.0837
 9286SOL    HW139320   0.075   0.841  16.369 -0.6183  2.1152  0.0918
 9286SOL    HW239321   0.062   0.922  16.497  0.0092 -1.0132  2.9292
 9287SOL     OW39322   3.914   4.407   7.652 -0.3530 -0.6503 -0.3489
 9287SOL    HW139323   3.902   4.320   7.690  1.7574 -1.3415 -1.2625
 9287SOL    HW239324   3.870   4.403   7.567 -0.1156  1.1005 -0.5533
 9288SOL     OW39325   2.655   3.822  15.201 -0.1980 -0.7151 -0.2074
 9288SOL    HW139326   2.617   3.792  15.119  0.1527 -3.6958  0.7121
 9288SOL    HW239327   2.590   3.796  15.266 -1.6776  0.6671 -1.1314
 9289SOL     OW39328   3.319   3.232   8.734 -0.3157  0.2331 -0.3148
 9289SOL    HW139329   3.305   3.162   8.798 -1.7276  0.5861 -0.2350
 9289SOL    HW239330   3.307   3.308   8.790  0.0978  1.0519 -1.3442
 9290SOL     OW39331   0.799   0.267  12.640  0.3754  0.2756 -0.6675
 9290SOL    HW139332   0.878   0.321  12.643  0.3866  0.2237 -0.0087
 9290SOL    HW239333   0.814   0.219  12.559 -1.4573  1.7125 -1.8660
 9291SOL     OW39334   0.219   1.216   5.919  0.1360 -0.0265 -0.4813
 9291SOL    HW139335   0.258   1.206   6.006 -0.5433 -3.5527 -0.5709
 9291SOL    HW239336   0.295   1.203   5.862  0.7798  1.0642  0.1347
 9292SOL     OW39337   1.736   4.150   3.488  0.0505  0.0706 -0.0576
 9292SOL    HW139338   1.687   4.081   3.533  1.2468  0.3132  1.5938
 9292SOL    HW239339   1.671   4.187   3.429 -1.0030  0.9237  1.6368
 9293SOL     OW39340   0.367   2.316   8.668 -0.3336  0.1315 -0.3946
 9293SOL    HW139341   0.358   2.279   8.756  1.0840  0.2243 -0.2069
 9293SOL    HW239342   0.277   2.320   8.637  0.9716 -0.2529 -4.1684
 9294SOL     OW39343   1.950   4.113   7.670  0.0120  0.2109 -0.1778
 9294SOL    HW139344   1.875   4.133   7.614 -0.4380 -1.6197 -0.2219
 9294SOL    HW239345   1.914   4.047   7.728 -2.8774 -0.3797 -2.6503
 9295SOL     OW39346   1.254   4.452   5.035  0.3014 -0.0617  0.4036
 9295SOL    HW139347   1.345   4.476   5.052  0.1879  0.3147  0.4958
 9295SOL    HW239348   1.205   4.530   5.061 -2.3023 -1.9288  1.0394
 9296SOL     OW39349   1.919   3.529   2.151 -0.2322 -0.4573 -0.1693
 9296SOL    HW139350   1.921   3.541   2.246  1.6117 -2.6736  0.0705
 9296SOL    HW239351   1.966   3.603   2.115  0.5320 -1.5331 -1.3948
 9297SOL     OW39352   3.910   0.436   6.979 -0.1677  0.1082  0.0338
 9297SOL    HW139353   3.820   0.467   6.989 -0.1853  0.4414 -1.1706
 9297SOL    HW239354   3.901   0.374   6.906 -0.0931 -1.3662  1.2909
 9298SOL     OW39355   1.010   1.794  16.608  0.1553  0.4576 -0.4106
 9298SOL    HW139356   1.000   1.838  16.693 -0.4813 -0.2379 -0.1294
 9298SOL    HW239357   1.097   1.756  16.620  0.2108  0.2481 -1.5203
 9299SOL     OW39358   0.475   3.364   3.197  0.6544 -0.2576 -0.2127
 9299SOL    HW139359   0.391   3.318   3.190  1.4878 -1.4539 -2.2919
 9299SOL    HW239360   0.501   3.344   3.287 -0.0540  1.7792  0.4572
 9300SOL     OW39361   3.462   2.716  13.874 -0.0559 -0.2956  0.4484
 9300SOL    HW139362   3.437   2.626  13.852  0.7925 -0.4063 -0.0781
 9300SOL    HW239363   3.542   2.735  13.825  0.6553 -1.0798  1.2892
 9301SOL     OW39364   3.211   4.286   3.844 -0.0970 -0.7784 -0.3365
 9301SOL    HW139365   3.155   4.229   3.791 -2.6601  1.9594 -0.4949
 9301SOL    HW239366   3.160   4.312   3.920 -0.5363 -0.1631 -0.8413
 9302SOL     OW39367   1.908   2.173   7.235 -0.1435  0.3282  0.0017
 9302SOL    HW139368   2.001   2.193   7.240  0.3521 -2.1902  0.3829
 9302SOL    HW239369   1.875   2.260   7.261 -0.6873 -0.4351  1.8383
 9303SOL     OW39370   0.738   1.719   6.715 -0.2966 -0.3347 -0.0250
 9303SOL    HW139371   0.780   1.691   6.796  1.5116  0.4683 -0.7018
 9303SOL    HW239372   0.733   1.638   6.664 -1.1966 -0.5844  0.4646
 9304SOL     OW39373   0.865   1.468  11.463 -0.7525 -0.1705 -0.4851
 9304SOL    HW139374   0.825   1.512  11.538  0.1316 -0.6437  0.2578
 9304SOL    HW239375   0.953   1.450  11.497 -0.5601  1.9021  0.0998
 9305SOL     OW39376   3.731   4.057  12.821  0.5617  0.0600 -0.3690
 9305SOL    HW139377   3.725   4.110  12.741  2.6234  3.3736  1.7035
 9305SOL    HW239378   3.661   3.996  12.797  1.5214 -0.5501 -1.5964
 9306SOL     OW39379   0.864   3.012   4.808  0.0113 -0.6545 -0.2863
 9306SOL    HW139380   0.959   3.027   4.810 -0.1859  0.4293  0.7835
 9306SOL    HW239381   0.840   3.030   4.717 -2.0452 -2.5277 -0.1209
 9307SOL     OW39382   1.176   0.038   4.684 -0.0530  0.4101  0.0891
 9307SOL    HW139383   1.147   0.100   4.751 -0.8099 -0.9257  1.0088
 9307SOL    HW239384   1.089   0.010   4.655 -0.7702 -0.7577  3.3190
 9308SOL     OW39385   2.045   3.442   5.791 -0.4854 -0.4522  0.6675
 9308SOL    HW139386   2.099   3.502   5.844 -2.4915  0.8424  1.2752
 9308SOL    HW239387   2.111   3.393   5.742 -1.7167 -1.4528  0.0391
 9309SOL     OW39388   4.306   1.492   2.962 -0.2219  0.2489  0.1377
 9309SOL    HW139389   4.364   1.452   3.026 -2.1057 -0.2616  1.5484
 9309SOL    HW239390   4.347   1.578   2.974  0.3704  0.2280 -1.7428
 9310SOL     OW39391   3.894   1.625   6.919 -0.6627 -0.4968 -0.5494
 9310SOL    HW139392   3.953   1.556   6.950  0.8104 -0.1072 -2.4659
 9310SOL    HW239393   3.927   1.649   6.833  0.0068 -1.5758 -0.5986
 9311SOL     OW39394   2.172   4.115  17.128 -0.1506  0.1121 -0.2188
 9311SOL    HW139395   2.232   4.040  17.126 -1.7395 -1.1919  1.6812
 9311SOL    HW239396   2.199   4.166  17.205  2.4933 -1.4838 -0.0982
 9312SOL     OW39397   2.028   0.028   2.888  0.1386 -0.2535  0.4775
 9312SOL    HW139398   2.005   0.080   2.964 -0.4135  1.1189 -0.6331
 9312SOL    HW239399   2.123   0.018   2.888  0.0959 -0.5858  3.8895
 9313SOL     OW39400   3.866   1.214   0.214  0.2234  0.7209 -0.4918
 9313SOL    HW139401   3.785   1.164   0.205  1.5458 -1.3644 -0.8469
 9313SOL    HW239402   3.940   1.155   0.228 -2.3584 -2.2034  0.8716
 9314SOL     OW39403   3.706   0.738   7.256 -0.4379  0.2593 -0.4093
 9314SOL    HW139404   3.698   0.709   7.347  1.6390 -2.2092 -1.0480
 9314SOL    HW239405   3.796   0.770   7.261 -0.1127 -0.8169  0.6750
 9315SOL     OW39406   4.657   4.480  10.190 -0.0670  0.2586 -0.5647
 9315SOL    HW139407   0.021   4.497  10.206 -0.6946  0.1752  3.0722
 9315SOL    HW239408   4.627   4.538  10.121  0.1045  0.3663 -0.5497
 9316SOL     OW39409   1.403   4.138   4.886  0.0489  0.2301 -0.5127
 9316SOL    HW139410   1.379   4.141   4.978 -0.9363 -0.2949 -0.7474
 9316SOL    HW239411   1.449   4.222   4.883 -1.4702  1.0711 -0.0914
 9317SOL     OW39412   2.791   1.979   3.166  0.5499  0.2128  0.4006
 9317SOL    HW139413   2.735   2.020   3.100 -0.7620 -2.8742 -0.3963
 9317SOL    HW239414   2.756   2.030   3.238 -0.6220 -1.3203  0.9171
 9318SOL     OW39415   1.213   1.569   9.007 -0.0695 -0.1091  0.7377
 9318SOL    HW139416   1.198   1.488   8.959 -0.0937 -0.4617  1.3402
 9318SOL    HW239417   1.308   1.566   8.997 -0.0979  1.1638  0.0997
 9319SOL     OW39418   4.302   4.297  16.520 -0.0527 -0.3101 -0.5570
 9319SOL    HW139419   4.382   4.313  16.469  0.4726 -2.4817 -0.4127
 9319SOL    HW239420   4.257   4.382  16.517 -0.4504 -0.4755  1.1420
 9320SOL     OW39421   3.440   2.935   5.623  0.2411  0.4498  0.1203
 9320SOL    HW139422   3.442   2.855   5.675  0.5686 -0.2199 -0.9058
 9320SOL    HW239423   3.352   2.926   5.586 -0.6128 -0.3568  2.3684
 9321SOL     OW39424   3.049   3.119   7.922  0.2529 -0.2342  0.4080
 9321SOL    HW139425   2.999   3.064   7.981 -1.2162  1.0870  0.3932
 9321SOL    HW239426   3.087   3.181   7.985  0.2833  0.1913 -0.0251
 9322SOL     OW39427   3.889   0.186  11.019  0.2509 -0.3266 -0.1047
 9322SOL    HW139428   3.978   0.180  10.983  0.7603 -0.0294  1.0966
 9322SOL    HW239429   3.901   0.235  11.100 -0.6182 -1.3849  0.6728
 9323SOL     OW39430   3.519   1.409   7.694  0.2392  0.4281  0.0610
 9323SOL    HW139431   3.471   1.491   7.707  0.7945  0.4867  1.7061
 9323SOL    HW239432   3.456   1.347   7.730 -0.9733 -0.4237 -3.4617
 9324SOL     OW39433   1.548   2.741  12.826 -0.0198  0.3887 -0.3848
 9324SOL    HW139434   1.484   2.686  12.870 -0.3737 -1.7251 -3.5449
 9324SOL    HW239435   1.560   2.809  12.893 -1.3921 -1.5887  1.8511
 9325SOL     OW39436   2.697   1.203   6.158 -0.0469 -0.9282 -0.3347
 9325SOL    HW139437   2.650   1.120   6.151 -1.9540  0.1549 -0.1488
 9325SOL    HW239438   2.742   1.219   6.074  0.8429  0.7244  0.4552
 9326SOL     OW39439   0.909   2.312   6.272  0.5338 -0.2775 -0.0832
 9326SOL    HW139440   0.887   2.282   6.184 -3.1823  0.2634  0.6641
 9326SOL    HW239441   0.991   2.263   6.279  0.1001 -1.0837 -0.5324
 9327SOL     OW39442   3.871   4.372   6.264  0.4521  0.2142  0.2029
 9327SOL    HW139443   3.805   4.319   6.221  0.7186  0.2303 -0.2271
 9327SOL    HW239444   3.883   4.319   6.342  0.5103  2.0042  1.4219
 9328SOL     OW39445   3.119   1.288  13.439 -0.3047  0.2757 -0.4407
 9328SOL    HW139446   3.128   1.374  13.481 -2.7248  0.7068 -0.7694
 9328SOL    HW239447   3.126   1.307  13.346  1.6156 -0.9935 -0.5394
 9329SOL     OW39448   2.610   2.376   4.687  0.4327  0.0414  0.2938
 9329SOL    HW139449   2.666   2.453   4.677 -1.6373  1.3800 -1.1237
 9329SOL    HW239450   2.585   2.370   4.779 -1.9182 -0.2960 -0.3723
 9330SOL     OW39451   0.559   4.382   5.077  0.2584 -0.2430  0.3753
 9330SOL    HW139452   0.630   4.337   5.123  0.3979  1.4507  1.8257
 9330SOL    HW239453   0.530   4.315   5.016 -0.2988 -0.2034  0.5936
 9331SOL     OW39454   0.916   4.468   6.580 -0.0247  0.0829  0.0803
 9331SOL    HW139455   0.853   4.502   6.516  0.4686 -1.0508 -0.9947
 9331SOL    HW239456   0.935   4.381   6.545  1.4389 -0.5812  2.4937
 9332SOL     OW39457   0.270   0.067   7.383  0.0853 -0.8691  0.0782
 9332SOL    HW139458   0.235   0.027   7.462 -1.1281  2.6639  1.3179
 9332SOL    HW239459   0.365   0.063   7.394  0.3317 -1.2641 -2.1607
 9333SOL     OW39460   2.397   2.864  12.162  0.3430 -0.0995 -0.0996
 9333SOL    HW139461   2.445   2.887  12.083 -0.4409 -1.7770 -1.0722
 9333SOL    HW239462   2.468   2.841  12.221  0.3495 -0.8724 -0.4106
 9334SOL     OW39463   4.053   0.406   2.676  0.4830 -0.6112 -0.1142
 9334SOL    HW139464   4.025   0.491   2.642  2.0310  0.9973  2.5650
 9334SOL    HW239465   4.043   0.432   2.768 -2.1401  1.0566 -0.8659
 9335SOL     OW39466   3.486   2.577   6.507  0.3839 -0.1481  0.4059
 9335SOL    HW139467   3.471   2.670   6.489  1.3543  0.1492  1.1257
 9335SOL    HW239468   3.506   2.574   6.601  0.6602 -0.3538  0.3421
 9336SOL     OW39469   3.847   3.555  10.134 -0.0973 -0.5632  0.0722
 9336SOL    HW139470   3.912   3.550  10.204  0.3230  2.4512 -0.0983
 9336SOL    HW239471   3.828   3.465  10.107 -0.5490 -0.2907 -0.5053
 9337SOL     OW39472   1.790   3.733   3.640  0.4788 -0.6256 -0.4213
 9337SOL    HW139473   1.717   3.793   3.656  2.0323  0.4698  2.5366
 9337SOL    HW239474   1.749   3.647   3.647  1.2655 -0.8314  1.7239
 9338SOL     OW39475   3.985   2.077   3.045  0.3316  0.3290  0.1636
 9338SOL    HW139476   4.038   2.130   2.985  0.2968  1.1217  0.8232
 9338SOL    HW239477   4.001   1.988   3.014 -0.3221  0.4720 -0.5664
 9339SOL     OW39478   2.325   4.428   6.056  0.0793 -0.1324  0.2527
 9339SOL    HW139479   2.277   4.446   6.137 -1.1637  0.0139 -0.5209
 9339SOL    HW239480   2.397   4.490   6.069 -1.2559  1.1578  1.5156
 9340SOL     OW39481   0.418   2.228  13.919  0.0518  0.5024  0.3211
 9340SOL    HW139482   0.493   2.279  13.951  1.1037 -0.3981 -0.6930
 9340SOL    HW239483   0.425   2.238  13.824 -1.6693 -2.8085 -0.1477
 9341SOL     OW39484   1.119   0.100  17.008  0.0770 -0.2615  0.6259
 9341SOL    HW139485   1.154   0.044  17.076 -0.0819  1.3186  2.0133
 9341SOL    HW239486   1.169   0.182  17.013 -0.7234  0.2499  0.3173
 9342SOL     OW39487   4.278   3.447   3.721 -0.2379  0.2581  0.1783
 9342SOL    HW139488   4.188   3.417   3.713 -0.9567  1.9704  1.9371
 9342SOL    HW239489   4.319   3.370   3.760 -0.9621  0.6647  1.7379
 9343SOL     OW39490   3.231   2.310  16.274  0.2834  0.3216 -1.1806
 9343SOL    HW139491   3.178   2.262  16.338  0.6824  0.4675 -0.7404
 9343SOL    HW239492   3.301   2.245  16.262 -1.4042 -1.4839 -1.3914
 9344SOL     OW39493   1.268   1.081   5.431 -0.3322  0.2583  0.0503
 9344SOL    HW139494   1.245   1.129   5.510  0.2111  0.6850 -0.0507
 9344SOL    HW239495   1.361   1.071   5.450 -0.1665 -0.4432 -1.1308
 9345SOL     OW39496   3.329   3.125   3.103 -0.6374 -0.1186 -0.5630
 9345SOL    HW139497   3.377   3.069   3.042 -1.2256 -0.4676 -0.7013
 9345SOL    HW239498   3.317   3.077   3.185  0.0813  0.6965  0.0288
 9346SOL     OW39499   3.528   0.779   2.557 -0.3311  0.4056 -0.2759
 9346SOL    HW139500   3.577   0.790   2.638 -0.8386 -0.7126  0.1848
 9346SOL    HW239501   3.436   0.778   2.584 -0.1656  0.7725  0.3059
 9347SOL     OW39502   1.035   0.354  15.428  0.2210 -0.5275  0.6323
 9347SOL    HW139503   1.079   0.381  15.508  1.1360  0.1392 -0.0977
 9347SOL    HW239504   1.104   0.333  15.364 -1.5489  0.1605 -1.5132
 9348SOL     OW39505   4.388   1.359   2.192  0.1413  0.1834  0.0738
 9348SOL    HW139506   4.469   1.407   2.210  1.3167 -1.1302 -1.7577
 9348SOL    HW239507   4.328   1.425   2.156  1.5049  2.0250  1.1606
 9349SOL     OW39508   4.617   0.978   5.399 -0.3930 -0.3212  0.1217
 9349SOL    HW139509   4.692   1.026   5.432 -1.9579 -0.2554  3.5298
 9349SOL    HW239510   4.621   0.996   5.305 -1.6265  2.6260  0.6531
 9350SOL     OW39511   1.669   2.370   7.740  0.4476  0.4720 -0.0293
 9350SOL    HW139512   1.685   2.277   7.724  0.7584  0.7679 -1.3796
 9350SOL    HW239513   1.743   2.377   7.801  0.2479  1.1286  0.1428
 9351SOL     OW39514   0.917   4.012   2.310  0.2208  0.0216  0.8487
 9351SOL    HW139515   0.993   4.002   2.251 -1.1456 -1.5131 -0.6574
 9351SOL    HW239516   0.842   3.976   2.262  1.2105 -3.1943  1.6568
 9352SOL     OW39517   4.679   2.919   1.468 -0.4609  0.4675 -0.3080
 9352SOL    HW139518   0.000   3.000   1.470  0.0548  0.1546 -0.3756
 9352SOL    HW239519   0.020   2.863   1.502 -0.0676  0.9716 -0.2888
 9353SOL     OW39520   2.159   2.687   0.155  0.0082 -0.2825  0.3448
 9353SOL    HW139521   2.194   2.662   0.241 -0.7036 -1.0598  0.4061
 9353SOL    HW239522   2.069   2.718   0.170  0.2521  0.0019  1.2309
 9354SOL     OW39523   0.689   3.575   9.404 -0.1767 -0.4646 -0.0004
 9354SOL    HW139524   0.606   3.527   9.401 -0.0252 -0.7970  1.2333
 9354SOL    HW239525   0.730   3.541   9.483 -1.1549  1.9955  1.5814
 9355SOL     OW39526   2.363   1.160   3.395 -0.0162 -0.4712  0.2897
 9355SOL    HW139527   2.345   1.086   3.336 -0.8635  1.0808 -1.4105
 9355SOL    HW239528   2.444   1.200   3.365  0.7089 -0.9064  1.6792
 9356SOL     OW39529   2.226   1.787   7.384  0.2452 -0.9085 -0.3406
 9356SOL    HW139530   2.162   1.719   7.402 -0.1732 -0.2655  0.5915
 9356SOL    HW239531   2.272   1.744   7.311 -0.9977 -0.4827 -1.3567
 9357SOL     OW39532   0.804   1.561   0.316  0.0189 -0.0624 -0.0548
 9357SOL    HW139533   0.727   1.593   0.361  2.8655  2.9606  2.6451
 9357SOL    HW239534   0.779   1.474   0.284 -1.1761  0.5685 -0.8412
 9358SOL     OW39535   3.080   4.262   6.514 -0.4184 -0.0668 -0.6896
 9358SOL    HW139536   3.048   4.351   6.529 -1.0694 -0.4584  0.2809
 9358SOL    HW239537   3.157   4.280   6.461  0.4098  0.3888  0.6683
 9359SOL     OW39538   2.112   3.057   8.540 -0.1403 -0.4672  0.4766
 9359SOL    HW139539   2.207   3.052   8.536  0.0249  0.9910  2.3989
 9359SOL    HW239540   2.082   2.968   8.519 -0.3119 -0.2714 -0.0953
 9360SOL     OW39541   0.788   3.935   6.337  0.3629 -0.1150 -0.3610
 9360SOL    HW139542   0.771   4.029   6.339  0.8410 -0.0983  2.3011
 9360SOL    HW239543   0.813   3.920   6.246  0.5088 -0.0187 -0.3380
 9361SOL     OW39544   1.748   4.616   0.792  0.6578 -0.5537  1.1146
 9361SOL    HW139545   1.825   4.560   0.781  1.2785  0.8677 -1.7797
 9361SOL    HW239546   1.680   4.569   0.745  1.9073 -0.5103 -0.7491
 9362SOL     OW39547   2.730   0.177   8.571 -0.8779 -0.1662  0.4116
 9362SOL    HW139548   2.672   0.227   8.629  0.4810  1.5036  0.3564
 9362SOL    HW239549   2.722   0.088   8.603  0.1169 -1.0559 -1.8366
 9363SOL     OW39550   0.979   3.947   6.108 -0.0222 -0.6413  0.3622
 9363SOL    HW139551   1.015   3.865   6.144  0.4026 -0.6167 -0.0166
 9363SOL    HW239552   0.982   3.923   6.016 -2.7013  1.4771 -0.2724
 9364SOL     OW39553   1.760   3.675   4.029  0.2872  0.0932  0.2829
 9364SOL    HW139554   1.688   3.628   4.071 -1.1143 -0.5784 -2.8270
 9364SOL    HW239555   1.827   3.608   4.046 -1.8110 -1.3925  2.7502
 9365SOL     OW39556   2.965   0.855  16.231 -0.0254 -0.1477  0.2896
 9365SOL    HW139557   2.999   0.846  16.142  1.4851 -1.3522  0.9803
 9365SOL    HW239558   2.873   0.880  16.228 -1.1673 -4.0552  2.7774
 9366SOL     OW39559   1.893   4.494  15.677  0.0387 -0.0871 -0.6451
 9366SOL    HW139560   1.913   4.586  15.658 -0.0328  0.2056  0.6958
 9366SOL    HW239561   1.978   4.458  15.703  0.3496  0.0641 -1.4305
 9367SOL     OW39562   0.818   2.194   2.135 -0.6459  0.1741  0.7745
 9367SOL    HW139563   0.765   2.234   2.066 -0.9677 -3.3953 -1.0298
 9367SOL    HW239564   0.906   2.205   2.097 -2.5047  0.9192 -3.2910
 9368SOL     OW39565   1.121   1.352   8.693  0.2396  0.0112  0.6333
 9368SOL    HW139566   1.197   1.404   8.669 -0.4504  0.6838 -0.0883
 9368SOL    HW239567   1.149   1.339   8.784 -1.3960 -0.4039  1.0879
 9369SOL     OW39568   0.278   2.334   7.298  0.1030  0.2628  0.1008
 9369SOL    HW139569   0.184   2.318   7.305  0.0785  1.2791  1.9827
 9369SOL    HW239570   0.293   2.264   7.234 -0.0489  0.4934 -0.1897
 9370SOL     OW39571   2.462   1.487   4.863  0.2156  0.4684 -0.4819
 9370SOL    HW139572   2.533   1.545   4.835  0.9161  0.7065  1.8197
 9370SOL    HW239573   2.390   1.535   4.823  0.4711 -0.3814 -1.9587
 9371SOL     OW39574   0.786   2.712   4.285 -0.0711  0.4393  0.3767
 9371SOL    HW139575   0.706   2.689   4.332 -0.1136  0.4400  0.3047
 9371SOL    HW239576   0.787   2.644   4.218  0.1717  2.1537 -1.3709
 9372SOL     OW39577   2.067   4.464   9.614  0.3455  0.0537 -0.2759
 9372SOL    HW139578   1.981   4.430   9.638  0.8496 -0.1714  1.2181
 9372SOL    HW239579   2.116   4.389   9.648  1.1015 -0.2730 -2.0564
 9373SOL     OW39580   0.563   3.896   3.482 -0.5757  0.2937 -0.6457
 9373SOL    HW139581   0.531   3.945   3.406  1.0526 -0.1363 -1.5859
 9373SOL    HW239582   0.521   3.947   3.552 -1.8834  1.3239 -2.1828
 9374SOL     OW39583   4.600   1.206   8.173  0.8584  0.1634  0.2230
 9374SOL    HW139584   4.616   1.266   8.246  2.6066  1.8917 -1.5864
 9374SOL    HW239585   4.556   1.138   8.224  1.5457  0.7767  1.6535
 9375SOL     OW39586   1.825   0.902   7.087 -0.2673 -0.2980 -0.0600
 9375SOL    HW139587   1.866   0.899   7.000 -0.1805  1.1718 -0.0761
 9375SOL    HW239588   1.768   0.825   7.091 -0.2035 -0.3120  0.5011
 9376SOL     OW39589   2.608   2.632   3.331 -0.1016 -0.5551 -0.4930
 9376SOL    HW139590   2.700   2.613   3.352 -0.2713 -1.8920 -0.9790
 9376SOL    HW239591   2.585   2.552   3.283  0.8006 -0.7680 -0.5821
 9377SOL     OW39592   0.094   1.190   9.198  0.4184  0.6109 -0.1600
 9377SOL    HW139593   0.042   1.182   9.119  0.1788  0.3137  0.0295
 9377SOL    HW239594   0.138   1.273   9.178  0.2753  1.3586  2.5407
 9378SOL     OW39595   3.450   3.651   4.227 -0.0290 -0.1970 -0.2982
 9378SOL    HW139596   3.519   3.648   4.161 -1.3750  0.2473 -1.7248
 9378SOL    HW239597   3.478   3.721   4.285  1.2831  0.0061 -1.1740
 9379SOL     OW39598   4.657   1.018   2.218 -0.0415  0.3181  0.4064
 9379SOL    HW139599   4.680   1.103   2.254 -0.7167  0.6037  0.1651
 9379SOL    HW239600   4.562   1.032   2.213  0.2220  1.5259 -0.9829
 9380SOL     OW39601   4.109   4.241   2.885  0.1417 -0.6109  0.0992
 9380SOL    HW139602   4.071   4.283   2.807 -1.3940  0.2270  1.3025
 9380SOL    HW239603   4.140   4.315   2.938  1.6607 -1.4331  0.3450
 9381SOL     OW39604   4.718   3.405  17.425 -0.1478 -0.0316  0.2162
 9381SOL    HW139605   0.059   3.341  17.441  0.6399  0.9500  0.7449
 9381SOL    HW239606   4.695   3.427  17.515 -2.5277 -0.9333 -0.1723
 9382SOL     OW39607   3.232   1.209   0.688  0.5485 -0.3799 -0.3288
 9382SOL    HW139608   3.261   1.118   0.689  0.8736 -0.2883 -1.7603
 9382SOL    HW239609   3.137   1.197   0.682  0.2886  1.2863  0.4658
 9383SOL     OW39610   3.586   4.631   7.430  0.2797 -0.2676  0.4917
 9383SOL    HW139611   3.526   4.645   7.503 -1.2471 -1.9982 -0.4443
 9383SOL    HW239612   3.602   4.717   7.391  2.7533 -0.1897  1.7191
 9384SOL     OW39613   0.404   0.991   7.423  0.0073 -0.3645  0.1854
 9384SOL    HW139614   0.494   1.025   7.419 -0.1469 -0.1379 -1.1999
 9384SOL    HW239615   0.410   0.931   7.498 -1.2888 -0.8689 -0.1178
 9385SOL     OW39616   0.115   4.711  16.814  0.1642 -0.5216  0.4473
 9385SOL    HW139617   0.062   4.723  16.893  0.5358 -0.0616  0.6304
 9385SOL    HW239618   0.197   0.021  16.848  0.9686 -1.2640 -0.6798
 9386SOL     OW39619   0.487   4.103   8.466  0.0409 -0.2438  0.4045
 9386SOL    HW139620   0.479   4.166   8.538 -3.7211  1.0343 -1.1960
 9386SOL    HW239621   0.399   4.069   8.450 -0.7108  2.5656 -1.3985
 9387SOL     OW39622   3.703   4.553   5.047 -0.4884 -0.0548 -0.0137
 9387SOL    HW139623   3.727   4.530   5.137  0.6810 -1.6477 -0.7275
 9387SOL    HW239624   3.608   4.555   5.039 -0.5081  2.7983  0.9655
 9388SOL     OW39625   1.406   1.925   9.900  0.6781  0.1407 -0.2873
 9388SOL    HW139626   1.345   1.885   9.838  1.7467 -2.0766  0.1200
 9388SOL    HW239627   1.472   1.950   9.836 -1.4216 -1.4251 -3.0711
 9389SOL     OW39628   3.633   0.777  16.301  0.1445 -0.1203  0.3952
 9389SOL    HW139629   3.673   0.692  16.318  0.3778 -0.2692 -0.9554
 9389SOL    HW239630   3.601   0.802  16.388  3.5861  0.1717  1.5870
 9390SOL     OW39631   4.104   1.634  13.916  0.2904 -0.2218 -0.0710
 9390SOL    HW139632   4.094   1.727  13.897  0.0768  0.2666  2.4964
 9390SOL    HW239633   4.154   1.636  13.998 -1.4692 -0.6224  0.9938
 9391SOL     OW39634   0.434   0.580  16.446 -0.4355 -0.1006  0.5492
 9391SOL    HW139635   0.373   0.616  16.511 -2.7993 -0.4120 -1.4699
 9391SOL    HW239636   0.481   0.660  16.424 -1.4393  0.3975  0.1711
 9392SOL     OW39637   1.047   4.192   7.852  0.2545 -0.0138 -0.3294
 9392SOL    HW139638   1.021   4.107   7.889  1.4450 -0.4311 -0.4612
 9392SOL    HW239639   1.073   4.242   7.929 -1.9322  3.1113 -1.6266
 9393SOL     OW39640   2.628   4.200   3.686 -0.2865  0.0592 -0.5315
 9393SOL    HW139641   2.543   4.170   3.653 -0.7711  1.1479 -0.2718
 9393SOL    HW239642   2.605   4.214   3.777  1.9887  4.9136 -0.7289
 9394SOL     OW39643   0.067   2.973   3.291  0.4110 -0.0041 -0.3268
 9394SOL    HW139644   0.094   3.065   3.288 -0.3173  0.2492  0.8118
 9394SOL    HW239645   0.151   2.951   3.331  0.0284 -1.4273 -0.3112
 9395SOL     OW39646   3.685   1.014   3.408  0.8660  0.2678 -0.3222
 9395SOL    HW139647   3.719   0.932   3.373 -0.6870 -1.1693  1.5018
 9395SOL    HW239648   3.635   0.982   3.483  1.8365 -1.5995 -0.4779
 9396SOL     OW39649   2.797   1.998  14.892  0.1210  0.1680  0.2893
 9396SOL    HW139650   2.830   2.042  14.969  0.5790 -1.4280  1.0132
 9396SOL    HW239651   2.858   2.019  14.820 -0.7471 -1.7878 -1.0287
 9397SOL     OW39652   3.806   0.851   1.318 -0.5639 -0.3579  0.2903
 9397SOL    HW139653   3.893   0.885   1.295  0.1755 -1.8919  0.7879
 9397SOL    HW239654   3.820   0.844   1.412 -1.3685  1.2964  0.5256
 9398SOL     OW39655   0.318   0.043  16.328 -0.0402 -0.2485 -0.4709
 9398SOL    HW139656   0.267   0.120  16.306  0.3521  0.0140 -0.4551
 9398SOL    HW239657   0.296   0.009  16.415  1.8654 -0.1453  0.0528
 9399SOL     OW39658   2.683   2.534   5.178  0.0672  0.2032 -0.5206
 9399SOL    HW139659   2.693   2.518   5.272  0.7096  1.8112 -0.3263
 9399SOL    HW239660   2.739   2.610   5.168 -0.9209  1.2214  1.6444
 9400SOL     OW39661   3.624   3.406  12.830 -0.6905 -0.6800 -0.3607
 9400SOL    HW139662   3.693   3.471  12.820 -2.0057  0.1839 -3.7412
 9400SOL    HW239663   3.675   3.328  12.854 -1.1120 -0.0353  2.5842
 9401SOL     OW39664   0.028   1.925  17.211 -0.0254 -0.6519  0.1102
 9401SOL    HW139665   0.114   1.915  17.253 -0.6451 -0.0762  1.5288
 9401SOL    HW239666   0.042   1.936  17.117  0.4711  0.9027  0.3635
 9402SOL     OW39667   2.973   0.271   7.025  0.0808 -0.0122  0.0980
 9402SOL    HW139668   2.886   0.242   7.052  0.1322  0.5571  0.8714
 9402SOL    HW239669   3.022   0.278   7.107 -0.6365  1.9950  0.3472
 9403SOL     OW39670   4.245   0.761   2.756  0.2842 -0.5134 -0.2012
 9403SOL    HW139671   4.221   0.728   2.669  0.2370  0.3026 -0.5071
 9403SOL    HW239672   4.175   0.824   2.773  0.1035 -0.8246  0.1815
 9404SOL     OW39673   3.132   0.051   3.426  0.3217  0.1548 -0.0890
 9404SOL    HW139674   3.081   0.117   3.379  0.1128  2.3486  3.2294
 9404SOL    HW239675   3.219   0.079   3.395  0.8618 -2.6759 -1.1045
 9405SOL     OW39676   0.795   3.708   5.373  0.3736  0.2178 -0.2283
 9405SOL    HW139677   0.741   3.696   5.451  0.5595  0.0991 -0.1173
 9405SOL    HW239678   0.783   3.801   5.356 -0.5856 -0.0775 -1.2257
 9406SOL     OW39679   2.506   2.409   9.567  0.5075  0.6621  0.0883
 9406SOL    HW139680   2.435   2.345   9.575  0.8023  0.3503  0.2121
 9406SOL    HW239681   2.449   2.485   9.576  0.7480  1.0019 -1.2190
 9407SOL     OW39682   2.806   1.573  12.494  0.2571  0.3071 -0.0301
 9407SOL    HW139683   2.759   1.619  12.563  0.9221 -1.7710  1.8149
 9407SOL    HW239684   2.754   1.493  12.491 -0.3215  0.6716  0.3031
 9408SOL     OW39685   2.188   0.497   2.224 -0.4206  0.2520 -0.0876
 9408SOL    HW139686   2.236   0.460   2.150 -0.2589  0.2921 -0.0021
 9408SOL    HW239687   2.241   0.576   2.234  2.6372 -1.7541 -0.5855
 9409SOL     OW39688   4.074   3.214  10.748 -0.0161  0.8111  0.6359
 9409SOL    HW139689   3.998   3.243  10.698  1.1234  1.4684 -0.7139
 9409SOL    HW239690   4.063   3.120  10.761 -0.2853  0.5964 -1.1037
 9410SOL     OW39691   4.151   3.329   3.054  0.0009  0.3308 -0.2331
 9410SOL    HW139692   4.244   3.329   3.080 -0.0030 -0.9414 -0.2349
 9410SOL    HW239693   4.150   3.239   3.021 -0.6228  1.1105 -2.3216
 9411SOL     OW39694   1.002   2.612  13.615 -0.0767  0.4889  0.1823
 9411SOL    HW139695   0.981   2.519  13.606 -2.0453  1.0861 -1.3982
 9411SOL    HW239696   0.968   2.630  13.703  0.5808  1.4065  0.2483
 9412SOL     OW39697   2.145   2.808  10.516 -0.3060  0.5304  0.0846
 9412SOL    HW139698   2.225   2.844  10.479  0.7739 -2.3016 -0.3283
 9412SOL    HW239699   2.148   2.725  10.468  1.2048  2.8174 -3.6774
 9413SOL     OW39700   4.497   0.195   1.888 -0.3522 -0.1370 -0.2610
 9413SOL    HW139701   4.509   0.244   1.969 -1.2530 -0.2394 -0.0745
 9413SOL    HW239702   4.491   0.272   1.832  1.0129  0.3807  0.2967
 9414SOL     OW39703   3.042   3.813   9.449 -0.0340 -0.2245  0.3557
 9414SOL    HW139704   3.117   3.755   9.433  0.1791  0.0030  0.5393
 9414SOL    HW239705   3.013   3.832   9.360 -0.0940 -2.4160 -0.0915
 9415SOL     OW39706   3.109   4.716   9.286 -0.2679  0.3567  0.7198
 9415SOL    HW139707   3.183   4.697   9.227  0.3217  1.8416  0.9884
 9415SOL    HW239708   3.054   4.657   9.235  1.3065 -1.5415  1.2013
 9416SOL     OW39709   0.542   4.650  10.060  0.3588  0.0392  0.0800
 9416SOL    HW139710   0.589   4.718  10.108  0.9520 -1.6574  1.9135
 9416SOL    HW239711   0.462   4.699  10.040  0.2942 -0.7615 -1.6477
 9417SOL     OW39712   2.197   2.264   4.525 -0.2231 -0.5388  0.1614
 9417SOL    HW139713   2.185   2.333   4.459  0.0722 -1.7277 -1.1498
 9417SOL    HW239714   2.107   2.243   4.551  0.0416 -1.2454  0.5133
 9418SOL     OW39715   0.895   2.771   8.868 -0.2120 -0.1782  0.1884
 9418SOL    HW139716   0.882   2.743   8.958  0.7281 -2.4310 -0.3916
 9418SOL    HW239717   0.820   2.829   8.850  0.1254  0.6735  1.5724
 9419SOL     OW39718   1.147   0.578   6.926  0.0478  0.1171 -0.1591
 9419SOL    HW139719   1.069   0.578   6.983 -1.4795  0.5883 -2.2737
 9419SOL    HW239720   1.214   0.576   6.995 -2.3454  1.0665  2.1904
 9420SOL     OW39721   3.938   3.972   8.650 -0.1263  0.2372  0.6097
 9420SOL    HW139722   3.855   3.982   8.603  1.0482 -0.5309 -1.6739
 9420SOL    HW239723   3.923   3.999   8.740 -2.0808 -0.2891  0.4335
 9421SOL     OW39724   0.966   3.812   1.209 -0.1449 -0.1793 -0.2893
 9421SOL    HW139725   0.973   3.833   1.302 -0.3322 -0.5849 -0.1839
 9421SOL    HW239726   0.943   3.719   1.204  0.7836 -0.2880 -2.6968
 9422SOL     OW39727   0.588   0.612  13.433  0.3706 -0.0856 -0.6084
 9422SOL    HW139728   0.595   0.530  13.384 -0.1318  0.4003 -1.4913
 9422SOL    HW239729   0.679   0.627  13.460 -0.2633 -0.2726  1.6722
 9423SOL     OW39730   3.203   2.989   8.308 -0.1051  0.0520  0.1236
 9423SOL    HW139731   3.204   2.989   8.404  0.5070  3.1281  0.1323
 9423SOL    HW239732   3.287   3.024   8.279 -1.0339  0.8136 -1.6532
 9424SOL     OW39733   0.984   1.750  12.303 -0.2432  0.9680  0.2553
 9424SOL    HW139734   1.012   1.663  12.333  0.8394  1.0486 -0.5115
 9424SOL    HW239735   1.049   1.772  12.237  0.3317  2.9552  1.4946
 9425SOL     OW39736   4.435   4.626   3.131  0.3298  0.2274 -0.1179
 9425SOL    HW139737   4.494   4.691   3.093 -0.1122  0.9842  0.4792
 9425SOL    HW239738   4.485   4.547   3.153  1.6609  0.8636 -0.8689
 9426SOL     OW39739   0.674   4.004  15.647  0.1996 -0.2721 -0.3868
 9426SOL    HW139740   0.631   3.936  15.595  1.3200 -2.8299  2.0241
 9426SOL    HW239741   0.595   4.057  15.658  1.1584  0.7390  1.5134
 9427SOL     OW39742   4.513   1.993  14.199 -0.2252 -0.2845  0.8051
 9427SOL    HW139743   4.489   1.980  14.291  1.7353  1.0882  1.4909
 9427SOL    HW239744   4.605   1.968  14.193 -0.2575  0.0944 -1.1966
 9428SOL     OW39745   4.311   3.655   7.524  0.1809  0.4818  0.4018
 9428SOL    HW139746   4.338   3.568   7.554  0.3277  0.6067  0.6359
 9428SOL    HW239747   4.369   3.698   7.587 -0.0066  3.1521 -1.2585
 9429SOL     OW39748   4.185   0.530   4.480  0.0251 -0.0996 -0.2416
 9429SOL    HW139749   4.172   0.516   4.574 -0.6485 -2.3884 -0.6755
 9429SOL    HW239750   4.097   0.511   4.447  0.3858 -2.0536 -0.0703
 9430SOL     OW39751   0.430   2.716  12.399  0.6302  0.1622  0.2227
 9430SOL    HW139752   0.513   2.756  12.373 -0.7804  1.2597 -2.5784
 9430SOL    HW239753   0.398   2.647  12.341  2.2777 -0.5064  0.1000
 9431SOL     OW39754   4.167   0.137   0.405 -0.3211  0.4129 -0.5029
 9431SOL    HW139755   4.106   0.107   0.472 -1.4905 -1.3866 -2.3674
 9431SOL    HW239756   4.189   0.220   0.446  0.2147  0.1464 -0.2509
 9432SOL     OW39757   0.775   2.943   5.992 -0.1417  0.5985  0.2386
 9432SOL    HW139758   0.769   2.865   6.047 -3.6490  2.7750  2.9902
 9432SOL    HW239759   0.865   2.958   6.021  0.4709 -0.6851 -0.9830
 9433SOL     OW39760   0.278   1.804   7.970  0.1588 -0.8099  0.1073
 9433SOL    HW139761   0.264   1.874   7.907 -0.3205 -1.5325 -0.5901
 9433SOL    HW239762   0.358   1.833   8.015  0.3594  0.7795 -1.2981
 9434SOL     OW39763   4.384   3.070   4.034 -0.2709  0.2080 -0.3230
 9434SOL    HW139764   4.400   3.150   3.983 -0.2404  0.7159  0.4787
 9434SOL    HW239765   4.388   3.108   4.122  1.9806 -0.1580 -0.2638
 9435SOL     OW39766   1.618   0.713   3.446  0.0584 -0.0739 -0.0340
 9435SOL    HW139767   1.651   0.785   3.393  0.0497  1.4414  2.0336
 9435SOL    HW239768   1.524   0.710   3.427 -0.1332 -2.5078  1.2807
 9436SOL     OW39769   0.572   0.771  13.205  0.4105 -0.2925 -0.5499
 9436SOL    HW139770   0.583   0.721  13.286 -0.5687 -0.9176 -0.7967
 9436SOL    HW239771   0.480   0.749  13.188 -0.2065  0.8557  1.1959
 9437SOL     OW39772   2.040   0.687   8.960 -0.0118  0.2203 -0.1574
 9437SOL    HW139773   2.052   0.652   9.048  1.1729  0.7840 -0.0862
 9437SOL    HW239774   1.998   0.609   8.923  0.8050  1.1074 -2.9675
 9438SOL     OW39775   0.664   0.267   7.313  0.2949 -0.2285  0.5332
 9438SOL    HW139776   0.656   0.196   7.249  1.4494  0.7910 -0.7429
 9438SOL    HW239777   0.673   0.344   7.256 -1.4244 -1.5003 -1.4312
 9439SOL     OW39778   0.405   0.720   4.278 -0.0399  0.2692  1.0289
 9439SOL    HW139779   0.441   0.632   4.286  2.3408  0.9187 -2.2756
 9439SOL    HW239780   0.475   0.784   4.262 -0.3686  0.6481  1.0903
 9440SOL     OW39781   0.265   3.720   8.010 -0.2432 -0.4807  0.1216
 9440SOL    HW139782   0.354   3.720   7.974 -0.4388 -0.5747 -0.3600
 9440SOL    HW239783   0.223   3.722   7.924 -1.4099 -0.0811  0.7066
 9441SOL     OW39784   0.262   2.767   7.246  0.0210  0.7743 -0.6559
 9441SOL    HW139785   0.291   2.688   7.201  0.1305  1.7388 -2.2638
 9441SOL    HW239786   0.201   2.724   7.307 -0.7212  0.3037 -1.7384
 9442SOL     OW39787   2.169   2.798   2.672 -0.3185  0.5700 -0.0317
 9442SOL    HW139788   2.222   2.872   2.642 -2.0907  1.6782 -0.3813
 9442SOL    HW239789   2.090   2.829   2.628 -0.9569 -1.6070 -0.3970
 9443SOL     OW39790   1.564   0.227   6.190  0.0310 -0.0380 -0.0324
 9443SOL    HW139791   1.597   0.317   6.187 -3.1630  1.1349 -0.4488
 9443SOL    HW239792   1.578   0.204   6.282 -2.4897 -2.1791 -0.1845
 9444SOL     OW39793   0.869   3.316   2.107 -0.6853  0.5453 -0.2826
 9444SOL    HW139794   0.787   3.347   2.145 -1.6375  0.2175 -2.0648
 9444SOL    HW239795   0.896   3.382   2.042  0.3517 -1.5214 -1.9430
 9445SOL     OW39796   3.942   1.190   3.180  0.2519 -0.2454  0.8681
 9445SOL    HW139797   3.984   1.129   3.119  0.0804 -0.1194  0.6270
 9445SOL    HW239798   3.993   1.271   3.176  1.1867 -0.8960 -0.3722
 9446SOL     OW39799   2.965   1.776   2.773  0.9718  0.3713  0.4848
 9446SOL    HW139800   3.003   1.689   2.764  2.0169  0.9854 -1.0652
 9446SOL    HW239801   3.045   1.829   2.783  1.0011  0.5744 -0.8396
 9447SOL     OW39802   0.812   4.635  11.850 -0.4026 -0.1151  0.3048
 9447SOL    HW139803   0.717   4.632  11.850 -0.3406 -2.5281  1.6268
 9447SOL    HW239804   0.825   4.551  11.806  0.9709  1.1646 -1.7138
 9448SOL     OW39805   2.726   0.105   9.888 -0.1675  0.1101 -0.1522
 9448SOL    HW139806   2.804   0.113   9.834 -0.1503  1.7563  0.1324
 9448SOL    HW239807   2.668   0.082   9.815 -0.4761  2.3587 -0.6196
 9449SOL     OW39808   1.843   3.875   5.040  0.2826 -0.3621  0.2460
 9449SOL    HW139809   1.785   3.870   5.116 -0.7590 -1.9961 -0.6449
 9449SOL    HW239810   1.864   3.782   5.028  0.5689 -0.1139 -1.1591
 9450SOL     OW39811   3.502   2.102  16.554 -0.1426 -0.1226  0.6105
 9450SOL    HW139812   3.502   2.080  16.647  0.2404  0.2097  0.6880
 9450SOL    HW239813   3.536   2.191  16.557 -0.3059 -0.0077 -0.7926
 9451SOL     OW39814   4.017   0.265   7.704 -0.5809 -0.1570  0.4328
 9451SOL    HW139815   3.958   0.261   7.629  0.7828  0.5826 -0.6767
 9451SOL    HW239816   4.101   0.241   7.666 -0.0230 -1.6986  2.6428
 9452SOL     OW39817   2.970   3.838   0.498  0.0625  0.3450 -0.1221
 9452SOL    HW139818   3.047   3.894   0.512  1.7467 -1.9466 -0.2415
 9452SOL    HW239819   2.970   3.803   0.587 -0.7623 -0.3076 -0.3800
 9453SOL     OW39820   3.153   4.141   6.872 -0.3946  0.0686  0.3764
 9453SOL    HW139821   3.222   4.187   6.826 -0.7483 -1.0755 -1.3083
 9453SOL    HW239822   3.125   4.085   6.800 -0.6266 -0.4302  0.8522
 9454SOL     OW39823   0.557   0.604   1.633  0.3789  0.8335  0.5926
 9454SOL    HW139824   0.613   0.670   1.675 -1.8876  1.3022  2.8648
 9454SOL    HW239825   0.555   0.537   1.702  1.3953 -0.5397 -0.7224
 9455SOL     OW39826   1.946   1.855   2.573 -0.1993 -0.3993  0.4599
 9455SOL    HW139827   1.883   1.853   2.645  0.9549  1.0749  1.5003
 9455SOL    HW239828   1.944   1.950   2.561 -1.7894 -0.4370  0.3423
 9456SOL     OW39829   1.373   0.779   3.094  0.3397 -0.1054 -0.2557
 9456SOL    HW139830   1.396   0.718   3.024 -1.5173 -0.1968 -0.7880
 9456SOL    HW239831   1.289   0.804   3.055  0.1079 -1.1667 -0.4350
 9457SOL     OW39832   1.629   1.750   3.541  0.4967  0.2511 -0.1708
 9457SOL    HW139833   1.687   1.717   3.473 -0.1907  0.4994 -0.8792
 9457SOL    HW239834   1.553   1.774   3.487 -1.6877 -2.3768  1.7694
 9458SOL     OW39835   3.966   4.047   2.652  0.2088  0.0514  0.4838
 9458SOL    HW139836   3.939   3.992   2.579  2.0112  0.3005 -0.3729
 9458SOL    HW239837   3.882   4.075   2.688  0.2453 -0.5753  1.0558
 9459SOL     OW39838   0.047   0.839   4.275 -0.1524  0.6482 -0.4798
 9459SOL    HW139839   0.119   0.819   4.216 -0.2912 -0.5930 -0.2354
 9459SOL    HW239840   0.021   0.751   4.301 -0.9012  0.8749 -0.4444
 9460SOL     OW39841   2.845   2.058  13.199  0.1814 -0.0770 -0.0906
 9460SOL    HW139842   2.762   2.098  13.171  0.4566  0.3035 -0.3642
 9460SOL    HW239843   2.912   2.112  13.157  0.5514 -0.1921  0.3586
 9461SOL     OW39844   4.296   1.936  16.585 -0.2885 -0.4115  0.4784
 9461SOL    HW139845   4.242   1.968  16.657 -0.8463 -3.4897  1.4329
 9461SOL    HW239846   4.239   1.925  16.508  1.0851 -0.0768 -0.5880
 9462SOL     OW39847   0.354   0.753  14.588 -0.0700  0.1228 -0.5727
 9462SOL    HW139848   0.316   0.686  14.645 -2.7864  2.2875  0.1118
 9462SOL    HW239849   0.401   0.695  14.528  0.6241  0.0987 -0.0104
 9463SOL     OW39850   3.555   4.167   3.386  0.0931  0.4143  0.8616
 9463SOL    HW139851   3.525   4.134   3.301  0.5149  0.0485  0.8555
 9463SOL    HW239852   3.487   4.232   3.400 -1.2551 -0.7136 -0.3972
 9464SOL     OW39853   4.366   2.635   4.821 -0.6281 -0.3190  0.6881
 9464SOL    HW139854   4.291   2.642   4.762  0.0001  2.8806  0.2658
 9464SOL    HW239855   4.337   2.563   4.876  0.4586 -0.2788  1.3114
 9465SOL     OW39856   0.900   3.692   7.789  0.0972 -0.2735 -0.0553
 9465SOL    HW139857   0.868   3.771   7.745  3.4940  1.3278  0.2970
 9465SOL    HW239858   0.849   3.685   7.869  2.8775 -0.2662  1.7309
 9466SOL     OW39859   1.791   2.869   5.451 -0.2004  0.0324  0.1189
 9466SOL    HW139860   1.794   2.779   5.483  0.8938  0.8509  2.3279
 9466SOL    HW239861   1.728   2.852   5.380 -0.7653  1.3916  0.2921
 9467SOL     OW39862   1.158   0.782   5.878  0.0872 -0.0512  0.6106
 9467SOL    HW139863   1.241   0.734   5.874  0.4597  0.2868  3.9810
 9467SOL    HW239864   1.110   0.736   5.946  0.4934 -0.3367  0.7080
 9468SOL     OW39865   1.969   3.035   5.350 -0.0015 -0.3429  0.8434
 9468SOL    HW139866   2.040   2.971   5.356  0.8500  0.2376 -3.5102
 9468SOL    HW239867   1.898   2.995   5.400  0.4192 -3.0839 -0.7926
 9469SOL     OW39868   3.391   3.988   6.014 -0.2794  0.1906 -0.4921
 9469SOL    HW139869   3.376   4.003   6.108  1.6809  2.4688 -0.5488
 9469SOL    HW239870   3.305   3.954   5.990 -0.0373 -0.5577 -0.3175
 9470SOL     OW39871   0.725   2.096   2.866  1.0122  0.4527 -0.0936
 9470SOL    HW139872   0.773   2.063   2.790 -0.1109  0.3075 -0.7368
 9470SOL    HW239873   0.659   2.028   2.880  2.0797 -0.3433  1.1765
 9471SOL     OW39874   1.336   0.369  15.445  0.0266  0.0065  0.8062
 9471SOL    HW139875   1.428   0.361  15.468  0.8080  0.0930 -2.2490
 9471SOL    HW239876   1.342   0.385  15.351 -1.7982 -2.7971  0.2019
 9472SOL     OW39877   3.853   4.057   7.456  0.2102  0.4083  0.2890
 9472SOL    HW139878   3.818   4.052   7.545 -3.9295  1.6814 -1.2667
 9472SOL    HW239879   3.856   3.966   7.427  1.5109 -0.1272  2.1720
 9473SOL     OW39880   0.040   2.095   3.143 -0.0504  0.1481  0.7352
 9473SOL    HW139881   0.076   2.175   3.181 -1.9859  0.9522  0.8580
 9473SOL    HW239882   4.676   2.115   3.155 -0.2866 -0.7464  0.4398
 9474SOL     OW39883   2.359   3.940  13.814 -0.1598  0.5649  0.0111
 9474SOL    HW139884   2.302   3.985  13.751  0.9340  4.1348  1.5818
 9474SOL    HW239885   2.338   3.851  13.786 -0.0892  1.2776 -2.3595
 9475SOL     OW39886   2.433   0.707   6.854 -0.0864  0.0915 -0.3165
 9475SOL    HW139887   2.402   0.628   6.808  3.1657 -0.0808 -2.2671
 9475SOL    HW239888   2.504   0.729   6.794  1.3817  0.4789  1.5523
 9476SOL     OW39889   3.881   4.627   4.151 -0.7222 -0.2802 -0.5112
 9476SOL    HW139890   3.949   4.592   4.093 -0.1084 -0.1854  0.1584
 9476SOL    HW239891   3.879   4.721   4.131 -0.6847 -0.1396  0.1580
 9477SOL     OW39892   2.477   2.636  12.694  0.6419 -0.3438 -0.3499
 9477SOL    HW139893   2.465   2.575  12.767  0.1528 -1.7990 -1.6542
 9477SOL    HW239894   2.470   2.715  12.748  0.0441 -1.2499  0.8731
 9478SOL     OW39895   4.464   0.839  16.554 -0.5332  0.7052 -0.3326
 9478SOL    HW139896   4.376   0.876  16.556 -0.7398  0.2094 -0.3576
 9478SOL    HW239897   4.460   0.811  16.463  2.1261  1.9423 -0.8230
 9479SOL     OW39898   4.028   1.974   4.100 -0.3234  0.0990 -0.0978
 9479SOL    HW139899   4.075   1.916   4.040  1.9536  1.1741  0.6386
 9479SOL    HW239900   3.959   1.914   4.127  0.0497 -2.4055 -4.6538
 9480SOL     OW39901   2.050   1.505   7.962  0.5288 -0.4010 -0.3039
 9480SOL    HW139902   2.037   1.461   7.878  0.8776  0.4762 -0.8249
 9480SOL    HW239903   2.122   1.563   7.940  0.9173 -1.1667 -1.0545
 9481SOL     OW39904   0.424   1.243   1.124 -0.2782  0.4215  0.6939
 9481SOL    HW139905   0.337   1.275   1.148 -0.4998  1.1902 -1.1140
 9481SOL    HW239906   0.429   1.246   1.028  1.1613  1.8885  0.8240
 9482SOL     OW39907   3.190   4.142   9.307  0.0938  0.0783 -0.8708
 9482SOL    HW139908   3.166   4.228   9.341 -1.9583 -1.4275  1.4604
 9482SOL    HW239909   3.251   4.168   9.238  0.8861  0.8333  0.1172
 9483SOL     OW39910   3.230   1.979  16.654  0.2375 -0.3796  0.4074
 9483SOL    HW139911   3.307   2.032  16.673  1.5635 -1.0651 -2.9514
 9483SOL    HW239912   3.203   1.955  16.743 -2.2367 -0.8361 -0.4528
 9484SOL     OW39913   2.706   1.483   9.478 -0.1200  0.0747 -0.3735
 9484SOL    HW139914   2.650   1.411   9.504 -1.0996  0.9683 -0.0140
 9484SOL    HW239915   2.717   1.459   9.386 -0.3293 -0.8189 -0.1660
 9485SOL     OW39916   1.640   0.529   1.015 -0.2718  0.2670 -0.2153
 9485SOL    HW139917   1.656   0.440   0.985  2.3131  1.2781 -1.7995
 9485SOL    HW239918   1.604   0.496   1.098  0.7805  0.8710  0.4878
 9486SOL     OW39919   2.558   3.190   6.451  0.4180  0.1175 -0.4863
 9486SOL    HW139920   2.516   3.176   6.536  0.2699 -2.5816 -1.0138
 9486SOL    HW239921   2.546   3.285   6.450 -1.0302 -0.0555  1.4494
 9487SOL     OW39922   3.738   1.407   6.118 -0.5012  0.6185 -0.3742
 9487SOL    HW139923   3.652   1.429   6.152 -0.6501  0.2639 -0.5161
 9487SOL    HW239924   3.755   1.335   6.178 -1.6400  1.4701  0.9677
 9488SOL     OW39925   2.594   4.591  14.720 -0.1689 -0.5856  0.0782
 9488SOL    HW139926   2.585   4.611  14.627 -0.1855  1.4845  0.5286
 9488SOL    HW239927   2.682   4.627  14.730  0.3877 -1.4491 -1.6553
 9489SOL     OW39928   2.632   0.770   6.694 -0.6328  0.1409  0.2228
 9489SOL    HW139929   2.700   0.831   6.666 -1.1063 -0.2839 -1.8770
 9489SOL    HW239930   2.679   0.687   6.689  0.1290  0.6149 -0.6643
 9490SOL     OW39931   4.159   0.156  17.175  0.3563  0.0945 -0.2571
 9490SOL    HW139932   4.112   0.172  17.256 -1.0078 -0.9186 -0.8405
 9490SOL    HW239933   4.251   0.173  17.192  0.0842  1.9533 -0.6793
 9491SOL     OW39934   0.841   0.730   0.050  0.0203 -0.1743  0.2290
 9491SOL    HW139935   0.859   0.801   0.112 -1.4294 -0.4079  0.9420
 9491SOL    HW239936   0.792   0.677   0.114  1.4257 -1.9188 -0.1340
 9492SOL     OW39937   4.701   0.999   6.796 -0.3149 -0.1337  0.0105
 9492SOL    HW139938   4.629   0.960   6.844  0.0929  0.5550  1.1847
 9492SOL    HW239939   0.046   0.939   6.807 -2.2992 -2.4351  0.4243
 9493SOL     OW39940   2.547   3.194   4.767 -0.1198 -0.2368 -0.2425
 9493SOL    HW139941   2.588   3.278   4.784 -3.3178  1.3917 -0.6124
 9493SOL    HW239942   2.458   3.219   4.793  0.1145  0.3284  0.0047
 9494SOL     OW39943   4.687   0.282   3.155 -0.4114  0.0349 -0.4115
 9494SOL    HW139944   4.641   0.243   3.081 -1.1173  1.0681 -0.5024
 9494SOL    HW239945   4.666   0.218   3.224 -0.6753  1.2550  0.6419
 9495SOL     OW39946   0.736   1.531  16.572  0.3854 -0.0179 -0.0830
 9495SOL    HW139947   0.735   1.436  16.566 -1.4211 -0.2762  4.0401
 9495SOL    HW239948   0.820   1.546  16.529  0.4805 -1.3401 -0.3662
 9496SOL     OW39949   2.970   0.727   2.330 -0.2328 -0.3395 -0.1850
 9496SOL    HW139950   2.970   0.795   2.397  0.9047  0.5194 -1.0659
 9496SOL    HW239951   2.912   0.771   2.267 -0.2483  0.4163  0.3529
 9497SOL     OW39952   1.788   1.469   4.634 -0.1991 -0.7236  0.0950
 9497SOL    HW139953   1.727   1.457   4.561  1.1722 -2.0470 -0.8525
 9497SOL    HW239954   1.767   1.390   4.684 -2.8195 -0.6427 -0.8960
 9498SOL     OW39955   0.897   1.686   1.262 -0.6027  0.2345  0.0840
 9498SOL    HW139956   0.841   1.746   1.214  1.3790  1.3289 -0.8451
 9498SOL    HW239957   0.883   1.718   1.351  0.6510  1.0878 -0.0187
 9499SOL     OW39958   4.280   0.779  11.447 -0.1207 -0.0015 -0.4791
 9499SOL    HW139959   4.211   0.833  11.409  0.5750  1.1301 -0.1457
 9499SOL    HW239960   4.314   0.836  11.515  0.8860 -1.0685 -0.0877
 9500SOL     OW39961   0.932   1.729   7.890 -0.3014  0.3911  0.4104
 9500SOL    HW139962   0.920   1.823   7.900  0.0409  0.6929 -1.8855
 9500SOL    HW239963   0.843   1.699   7.875  0.2198 -0.7275 -0.4819
 9501SOL     OW39964   0.503   2.253   6.102 -0.3333 -0.2946  0.1859
 9501SOL    HW139965   0.508   2.162   6.072 -0.3382 -0.8736  1.9056
 9501SOL    HW239966   0.415   2.275   6.070 -0.1049  0.1063 -0.1659
 9502SOL     OW39967   1.731   4.008  12.338  0.0107  0.5409  0.3242
 9502SOL    HW139968   1.772   3.927  12.367  1.4027  1.5743  1.2818
 9502SOL    HW239969   1.665   4.026  12.405  0.6443  1.1579  0.7887
 9503SOL     OW39970   2.432   2.507  16.041  0.1688  0.7866  0.0759
 9503SOL    HW139971   2.355   2.560  16.021 -2.2833 -3.0425 -0.5726
 9503SOL    HW239972   2.457   2.467  15.958 -0.0654  0.6004  0.0970
 9504SOL     OW39973   0.782   3.680   3.943 -0.5532 -0.1438  0.4029
 9504SOL    HW139974   0.718   3.611   3.923 -0.6446  0.3859 -1.1352
 9504SOL    HW239975   0.776   3.739   3.867  1.8463 -1.0879 -0.5139
 9505SOL     OW39976   2.361   3.752   1.633  0.5008  0.3452 -0.4543
 9505SOL    HW139977   2.388   3.661   1.620  0.3189  0.0830  1.0027
 9505SOL    HW239978   2.296   3.745   1.703  2.2278 -3.7905  0.7425
 9506SOL     OW39979   2.308   1.354   5.846  0.5787 -0.8862 -0.1218
 9506SOL    HW139980   2.259   1.280   5.811 -0.1640 -0.0311 -0.8813
 9506SOL    HW239981   2.394   1.348   5.805 -0.2741  0.7332 -2.1249
 9507SOL     OW39982   3.686   2.449  13.662 -0.0728  0.4319  0.7310
 9507SOL    HW139983   3.744   2.484  13.729 -0.7583  1.8861  0.5811
 9507SOL    HW239984   3.716   2.481  13.577 -1.3884  0.9153  0.4392
 9508SOL     OW39985   4.298   2.244   7.514 -0.0368 -0.2979 -0.0289
 9508SOL    HW139986   4.334   2.162   7.482 -0.9752 -0.6354 -0.2339
 9508SOL    HW239987   4.346   2.311   7.465  0.6936 -0.6662  0.1856
 9509SOL     OW39988   3.845   2.053   9.178 -0.2945 -0.2741  0.1163
 9509SOL    HW139989   3.817   2.033   9.089 -1.2551  0.3738  0.2757
 9509SOL    HW239990   3.940   2.066   9.170  0.0689 -2.8861 -0.0775
 9510SOL     OW39991   3.695   0.110  10.057  0.3903  0.5007  0.0647
 9510SOL    HW139992   3.715   0.203  10.046 -0.7021  0.8306  0.8549
 9510SOL    HW239993   3.750   0.066   9.992 -0.3263  0.2467 -0.3682
 9511SOL     OW39994   2.233   1.262  17.670 -0.0148  0.3795 -0.3584
 9511SOL    HW139995   2.166   1.217   0.007 -0.7459  0.9585 -0.8165
 9511SOL    HW239996   2.295   1.288   0.025 -0.6770 -0.4662  0.5675
 9512SOL     OW39997   1.965   0.874   6.843  0.0111  0.2589 -0.3268
 9512SOL    HW139998   2.058   0.854   6.855  0.0619 -0.2452 -1.5079
 9512SOL    HW239999   1.978   0.962   6.807 -0.3895 -0.7523 -2.9959
 9513SOL     OW40000   0.415   0.527   2.815  0.1921  0.4496  0.3736
 9513SOL    HW140001   0.365   0.449   2.839 -0.2811 -0.0298 -2.1605
 9513SOL    HW240002   0.347   0.593   2.826 -1.6191 -1.5858  1.5312
 9514SOL     OW40003   0.817   0.505   7.525 -0.4764  0.7080  0.1161
 9514SOL    HW140004   0.722   0.510   7.517 -0.7934  0.1527  3.5862
 9514SOL    HW240005   0.849   0.466   7.445  0.8803 -0.3606  1.1854
 9515SOL     OW40006   1.136   0.721  11.781  0.4679 -0.1533  0.2402
 9515SOL    HW140007   1.167   0.745  11.869 -0.3339 -1.0542  0.7654
 9515SOL    HW240008   1.196   0.648  11.766 -0.3184 -0.6780 -0.3614
 9516SOL     OW40009   3.091   3.207   9.062  0.2436  0.4255 -0.4262
 9516SOL    HW140010   3.184   3.185   9.060  0.3700  1.0193 -1.1068
 9516SOL    HW240011   3.098   3.302   9.071 -0.9547  0.3892  0.8648
 9517SOL     OW40012   0.400   2.026   6.837  0.4864  0.2949  0.5703
 9517SOL    HW140013   0.484   2.067   6.814 -0.1938  0.6101 -1.3512
 9517SOL    HW240014   0.425   1.935   6.851  0.1869  0.3277  1.2966
 9518SOL     OW40015   2.795   4.140   7.116 -0.9006 -0.3901 -0.2015
 9518SOL    HW140016   2.796   4.086   7.195  0.1226 -0.3235 -0.1659
 9518SOL    HW240017   2.799   4.082   7.040 -0.8355  0.4284 -0.8284
 9519SOL     OW40018   3.800   1.037  16.697 -0.2774  0.1919 -0.0716
 9519SOL    HW140019   3.744   0.971  16.740 -0.3028 -1.2523 -2.3622
 9519SOL    HW240020   3.751   1.035  16.615  0.6738 -0.4441 -0.6202
 9520SOL     OW40021   0.009   3.544   6.329  0.1148 -0.1726 -0.2764
 9520SOL    HW140022   4.677   3.558   6.255  0.2047 -3.0317 -0.8841
 9520SOL    HW240023   0.014   3.629   6.373 -0.3163  0.0242 -0.5930
 9521SOL     OW40024   1.810   4.530  10.991 -0.0074 -0.1965  0.3093
 9521SOL    HW140025   1.754   4.608  10.995 -1.3800 -1.2340  1.0196
 9521SOL    HW240026   1.777   4.474  11.061 -2.5081  2.7305  1.5001
 9522SOL     OW40027   3.403   3.818   7.327 -0.2085 -0.1253  0.2893
 9522SOL    HW140028   3.409   3.746   7.390  0.0435 -1.0926 -0.8391
 9522SOL    HW240029   3.349   3.876   7.381 -2.7558 -3.2819  1.1567
 9523SOL     OW40030   1.777   2.274   4.170  0.1610 -0.5884  0.4224
 9523SOL    HW140031   1.746   2.236   4.251 -0.0461 -0.7986  0.2422
 9523SOL    HW240032   1.693   2.287   4.127 -0.6285 -0.3046  2.0929
 9524SOL     OW40033   1.048   0.705   6.649 -0.3003 -0.5260  0.3017
 9524SOL    HW140034   1.021   0.625   6.605 -0.9574 -1.4489  2.3851
 9524SOL    HW240035   1.003   0.704   6.733  0.1353 -0.5908  0.5350
 9525SOL     OW40036   1.510   2.299   4.129  0.1323  0.4133  0.2947
 9525SOL    HW140037   1.418   2.324   4.131  0.2101  0.8268 -1.0718
 9525SOL    HW240038   1.511   2.204   4.111  2.2225  0.6391 -0.8614
 9526SOL     OW40039   0.741   2.702   5.131 -0.0194 -0.2227  0.0014
 9526SOL    HW140040   0.773   2.720   5.043 -2.9946  2.2383 -0.5917
 9526SOL    HW240041   0.647   2.694   5.117  0.3029 -1.9313 -1.1825
 9527SOL     OW40042   3.488   4.224   5.873 -0.3493  0.2315 -0.0996
 9527SOL    HW140043   3.437   4.153   5.911 -0.3165 -0.7225 -1.8519
 9527SOL    HW240044   3.425   4.279   5.825 -1.4162 -0.5889  0.3557
 9528SOL     OW40045   3.404   3.551   5.180  0.5012 -0.0633 -0.0380
 9528SOL    HW140046   3.330   3.590   5.134  0.7621 -2.2402 -2.3040
 9528SOL    HW240047   3.440   3.496   5.110 -0.7971 -1.0865  0.0886
 9529SOL     OW40048   1.760   1.764   5.236 -0.0389 -0.3137  0.4302
 9529SOL    HW140049   1.766   1.765   5.141 -2.2199  3.2441  0.3423
 9529SOL    HW240050   1.831   1.816   5.274  0.5957 -0.7893 -0.0907
 9530SOL     OW40051   0.369   0.094   8.287 -0.2706 -0.2685 -0.1659
 9530SOL    HW140052   0.316   0.024   8.248  0.2229 -0.7399  0.0121
 9530SOL    HW240053   0.309   0.168   8.280  1.4228  0.8899 -2.3166
 9531SOL     OW40054   2.465   3.110   6.690  0.1236 -0.0574 -0.3924
 9531SOL    HW140055   2.379   3.070   6.702 -0.4635  1.1149 -0.7239
 9531SOL    HW240056   2.488   3.126   6.782 -0.1274 -1.3372 -0.1093
 9532SOL     OW40057   2.563   1.945   4.056  0.3718  0.7129  0.1129
 9532SOL    HW140058   2.483   1.977   4.016  0.1702  0.5400  0.3785
 9532SOL    HW240059   2.566   1.880   3.987  3.8303  0.5841  0.3944
 9533SOL     OW40060   3.452   4.693   1.864 -0.1730 -0.4788  0.5802
 9533SOL    HW140061   3.361   4.711   1.886 -0.7311 -2.1250 -0.4430
 9533SOL    HW240062   3.488   0.052   1.847 -0.1793 -0.4240  0.8490
 9534SOL     OW40063   2.560   1.157   4.605 -0.0914 -0.3852 -0.7066
 9534SOL    HW140064   2.620   1.108   4.661 -1.4344 -1.5093 -0.2524
 9534SOL    HW240065   2.606   1.137   4.524 -1.2588  1.0514 -1.7278
 9535SOL     OW40066   1.917   1.560   2.879  0.1260 -0.5426  0.1260
 9535SOL    HW140067   1.859   1.607   2.820  0.6048 -0.2203 -0.0877
 9535SOL    HW240068   1.958   1.636   2.921 -2.9403  1.7011 -0.9300
 9536SOL     OW40069   0.970   2.561   3.869 -0.3799 -0.2845  0.4273
 9536SOL    HW140070   0.926   2.573   3.785 -1.0588 -2.2205  0.4941
 9536SOL    HW240071   0.981   2.466   3.874 -0.9290 -0.5020 -2.2583
 9537SOL     OW40072   0.406   2.213  13.615  0.1556 -0.3309 -0.3125
 9537SOL    HW140073   0.477   2.162  13.656  0.9075 -0.3047 -1.6048
 9537SOL    HW240074   0.446   2.219  13.528  1.7546  0.0525  0.4387
 9538SOL     OW40075   1.929   4.511  16.058  0.4986  0.1846 -0.0722
 9538SOL    HW140076   1.901   4.520  16.149  0.7448 -2.4820  0.2508
 9538SOL    HW240077   1.851   4.547  16.015  1.2247 -0.5115 -1.9435
 9539SOL     OW40078   2.632   0.386   5.154 -0.3637  0.0107  0.7152
 9539SOL    HW140079   2.624   0.388   5.059 -2.1891  0.3916  0.8856
 9539SOL    HW240080   2.572   0.459   5.169  0.4973  1.1125 -1.2563
 9540SOL     OW40081   1.981   0.083   5.193  0.5993  0.3278  0.4232
 9540SOL    HW140082   1.903   0.129   5.227 -0.2461 -0.4431 -0.4895
 9540SOL    HW240083   2.006   0.042   5.276 -0.4043 -2.7238 -0.7959
 9541SOL     OW40084   4.119   4.143  13.397 -0.5584  0.0087  0.5817
 9541SOL    HW140085   4.147   4.090  13.323 -2.0646 -2.1586  1.5454
 9541SOL    HW240086   4.069   4.072  13.439 -1.1188 -0.1570 -0.3853
 9542SOL     OW40087   3.690   4.716   1.716  0.5359 -0.1854 -0.1699
 9542SOL    HW140088   3.758   4.651   1.738  2.0060  1.5758  0.5412
 9542SOL    HW240089   3.613   4.690   1.767  1.0349 -1.7684 -0.2212
 9543SOL     OW40090   0.327   0.167   3.588  0.1991 -0.4939  0.7428
 9543SOL    HW140091   0.281   0.096   3.543  1.3680  0.2908 -1.7246
 9543SOL    HW240092   0.259   0.179   3.654  0.5830 -2.5535  1.4949
 9544SOL     OW40093   2.836   1.293   7.918  0.0724  0.0478 -0.6409
 9544SOL    HW140094   2.791   1.346   7.984  0.1298 -0.0010 -0.5609
 9544SOL    HW240095   2.837   1.336   7.833 -0.1009 -0.4037 -0.8670
 9545SOL     OW40096   3.396   0.551   5.819 -0.0204  0.2725  0.3203
 9545SOL    HW140097   3.408   0.499   5.739 -1.6846 -2.0324  1.5750
 9545SOL    HW240098   3.356   0.485   5.876  1.4093  1.1463  2.3452
 9546SOL     OW40099   2.388   2.124  13.862  1.0296 -0.5969 -0.6654
 9546SOL    HW140100   2.364   2.215  13.844  0.5579 -0.4798  0.5744
 9546SOL    HW240101   2.436   2.141  13.943 -0.6933 -1.9570  0.6398
 9547SOL     OW40102   1.419   4.162   3.484  0.0095  0.2396 -0.6575
 9547SOL    HW140103   1.333   4.126   3.466  1.0140 -2.2944 -0.4175
 9547SOL    HW240104   1.438   4.110   3.562 -4.8384 -0.3679  0.1084
 9548SOL     OW40105   0.294   0.167  15.457 -0.1910 -0.2289  0.4178
 9548SOL    HW140106   0.282   0.093  15.397 -0.9708  0.0632  0.2144
 9548SOL    HW240107   0.335   0.229  15.397 -1.7082 -1.9274 -2.3734
 9549SOL     OW40108   1.374   4.670   2.727  0.2774 -1.0095  0.4380
 9549SOL    HW140109   1.303   0.004   2.713  1.1860  0.2444  1.4002
 9549SOL    HW240110   1.356   4.593   2.673 -1.0894  1.0400 -1.9649
 9550SOL     OW40111   3.034   2.307   6.372 -0.0108 -0.0998  0.4000
 9550SOL    HW140112   3.016   2.391   6.413 -0.6050  0.4695 -1.0359
 9550SOL    HW240113   3.119   2.279   6.405 -0.4786 -1.0406  0.8343
 9551SOL     OW40114   1.027   2.211   3.570  0.2751 -0.0063  0.0775
 9551SOL    HW140115   1.120   2.231   3.557 -0.3297  1.1948 -2.4290
 9551SOL    HW240116   1.022   2.227   3.664  2.3523  0.1686  0.1533
 9552SOL     OW40117   0.071   2.181   2.062  0.2257 -0.4364 -0.0117
 9552SOL    HW140118   4.716   2.164   2.107  0.4319 -1.3049  0.0496
 9552SOL    HW240119   0.131   2.129   2.116 -2.0847 -1.8762  1.1751
 9553SOL     OW40120   4.479   2.820  16.393 -0.5423  0.4202  0.0450
 9553SOL    HW140121   4.504   2.854  16.479 -1.8385  0.0207  0.5643
 9553SOL    HW240122   4.552   2.759  16.384 -0.3972  0.8006 -1.4442
 9554SOL     OW40123   0.592   1.281   8.089  0.2132 -0.0667 -0.0562
 9554SOL    HW140124   0.561   1.350   8.148  0.0375  0.5072 -0.8110
 9554SOL    HW240125   0.673   1.246   8.126  0.2318  0.9235  0.8624
 9555SOL     OW40126   1.336   3.486   6.459  0.6157 -0.7694  0.1932
 9555SOL    HW140127   1.409   3.501   6.399 -2.6602  1.4922 -3.2734
 9555SOL    HW240128   1.378   3.505   6.543 -2.6021  0.6861  1.4956
 9556SOL     OW40129   4.688   3.500   8.120 -0.3088  0.1856 -0.1561
 9556SOL    HW140130   0.053   3.517   8.111 -0.2241  0.2876  1.0417
 9556SOL    HW240131   4.689   3.421   8.174 -0.0370  1.1509  1.2312
 9557SOL     OW40132   4.355   2.516   2.652  0.3463 -0.0001 -0.5009
 9557SOL    HW140133   4.349   2.611   2.658  1.3728 -0.0009  0.5527
 9557SOL    HW240134   4.384   2.499   2.563  0.3124 -0.0253 -0.5073
 9558SOL     OW40135   0.695   1.628   7.997 -0.1091 -0.1728 -0.1878
 9558SOL    HW140136   0.749   1.552   8.020 -1.5628 -1.3129 -0.5373
 9558SOL    HW240137   0.711   1.681   8.075 -3.4787 -1.1223  1.1659
 9559SOL     OW40138   2.761   2.413   8.146  0.4830 -0.0321 -0.3380
 9559SOL    HW140139   2.701   2.485   8.130  0.8148  0.4620  0.6414
 9559SOL    HW240140   2.743   2.368   8.063  1.2213 -0.9123 -0.0289
 9560SOL     OW40141   4.539   3.041   3.226 -0.9765  0.1162  0.6994
 9560SOL    HW140142   4.534   2.981   3.152 -1.0896  0.8142  0.1439
 9560SOL    HW240143   4.629   3.030   3.255 -0.8123 -2.2059 -0.6524
 9561SOL     OW40144   3.776   0.407   3.587 -0.2654  0.7188  0.5198
 9561SOL    HW140145   3.837   0.333   3.585  0.0307  0.9666  0.1647
 9561SOL    HW240146   3.694   0.374   3.551 -0.2271 -0.1447  1.2358
 9562SOL     OW40147   1.793   4.193   7.100 -0.3963  0.2917 -0.3552
 9562SOL    HW140148   1.717   4.245   7.126 -0.2171  0.3259  0.1069
 9562SOL    HW240149   1.804   4.220   7.009  1.5748  1.4441  0.2209
 9563SOL     OW40150   3.469   2.912   9.557  0.3482 -0.2580  0.3595
 9563SOL    HW140151   3.378   2.883   9.570  1.0715 -1.6024  2.5204
 9563SOL    HW240152   3.456   3.003   9.583 -2.3459 -0.7357  0.7298
 9564SOL     OW40153   0.522   3.705   3.653 -0.4120 -0.5926  0.4409
 9564SOL    HW140154   0.538   3.750   3.570  0.0398 -1.5211  0.0159
 9564SOL    HW240155   0.600   3.650   3.662  0.8486  1.3881  1.6386
 9565SOL     OW40156   4.680   3.703   1.944 -0.4499  0.2359 -0.7048
 9565SOL    HW140157   4.635   3.722   1.861 -1.4920 -0.7774 -0.3765
 9565SOL    HW240158   0.040   3.690   1.911 -0.9817 -1.6851 -1.3927
 9566SOL     OW40159   0.590   4.402   9.169 -0.5973  0.0518 -0.0158
 9566SOL    HW140160   0.554   4.491   9.166 -0.1067  0.2750  0.8867
 9566SOL    HW240161   0.551   4.366   9.090 -0.6416  1.8820 -0.8377
 9567SOL     OW40162   3.642   3.598   7.942 -0.1018  0.3057  0.3142
 9567SOL    HW140163   3.636   3.566   7.852 -1.0866 -2.3464  1.3064
 9567SOL    HW240164   3.553   3.628   7.962 -0.3745 -0.8784  0.9044
 9568SOL     OW40165   1.670   0.865   2.490  0.1061  0.1663  0.1531
 9568SOL    HW140166   1.645   0.879   2.581  0.4089 -0.0394  0.2708
 9568SOL    HW240167   1.759   0.831   2.501  0.7585  1.9036  0.2109
   4.72821   4.72821  17.71344
