Membrane in water
40167
    1TCq1    O1    1   3.231   2.084  11.297 -0.3960  0.2342 -0.0637
    1TCq1    C1    2   3.185   1.978  11.354  0.2029 -0.1563  0.1899
    1TCq1    O2    3   3.088   1.974  11.426  0.1087  0.5433 -0.0417
    1TCq1    C2    4   3.271   1.863  11.327 -0.1131  0.3410  0.4060
    1TCq1    C3    5   3.304   1.840  11.197  0.0880 -0.0632 -0.4580
    1TCq1    C4    6   3.333   1.701  11.168 -1.5209  0.2068  0.3193
    1TCq1    C5    7   3.333   1.602  11.257 -0.2740 -0.5339 -0.1595
    1TCq1    C6    8   3.286   1.634  11.382 -0.8981 -0.2852  0.1172
    1TCq1    C7    9   3.259   1.761  11.416  0.0481  0.6259  0.3111
    1TCq1    C8   10   3.296   1.537  11.492 -0.4267 -0.2326 -0.0192
    1TCq1    O4   11   3.274   1.581  11.605  0.1134 -0.1825  0.0541
    1TCq1    C9   12   3.363   1.674  11.033  0.1217 -0.0727 -0.0655
    1TCq1    O5   13   3.359   1.556  10.985  0.2238  0.4125 -0.2886
    1TCq1    O6   14   3.388   1.776  10.969 -0.0386  0.2896 -1.2779
    1TCq1    H1   15   3.324   2.092  11.265 -0.6826 -3.8853 -1.9297
    1TCq1    H2   16   3.310   1.919  11.123 -1.0919  0.5045  0.0636
    1TCq1    H3   17   3.369   1.505  11.224 -0.0260 -0.5140  0.0505
    1TCq1    H4   18   3.215   1.782  11.513 -1.5213  3.6183 -1.0257
    2MPD2     C   19   3.410   1.093  11.689  0.0257  0.7618 -0.5095
    2MPD2    C1   20   3.333   1.198  11.740 -0.4627  1.4343  0.2268
    2MPD2    C2   21   3.317   1.303  11.656 -0.0029  0.5933 -0.3758
    2MPD2    C3   22   3.362   1.298  11.528 -0.3340 -0.5019  0.4445
    2MPD2    C4   23   3.434   1.189  11.479 -0.9361 -0.1415 -0.1034
    2MPD2    C5   24   3.463   1.094  11.562  0.0672 -0.0728 -0.3271
    2MPD2     H   25   3.258   1.388  11.686 -0.7633  1.2171 -3.6359
    2MPD2    H1   26   3.471   1.190  11.377  0.2412  0.8463  0.3454
    2MPD2    H2   27   3.418   0.999  11.743 -0.7597  2.0851  1.9212
    2MPD2    H3   28   3.524   1.008  11.535 -0.9563  0.0060 -2.9087
    2MPD2     N   29   3.338   1.411  11.443 -0.1552  0.4464 -0.4930
    2MPD2    H5   30   3.355   1.403  11.344  1.6123 -2.1876  0.0176
    2MPD2    N1   31   3.253   1.188  11.850 -0.8520 -0.0608 -0.0491
    2MPD2    H7   32   3.201   1.273  11.867 -1.4228 -0.5176  0.5138
    3TCq1    O1   33   2.346   2.259  10.843 -0.4700  0.2132 -0.0556
    3TCq1    C1   34   2.248   2.301  10.922 -0.8438  0.0782 -0.1046
    3TCq1    O2   35   2.162   2.234  10.976 -0.0148  0.3698  0.3339
    3TCq1    C2   36   2.276   2.435  10.976  0.0777  0.7127  0.2284
    3TCq1    C3   37   2.314   2.528  10.881  0.5619  0.3267 -1.1792
    3TCq1    C4   38   2.311   2.657  10.918 -0.6061 -0.1481 -0.0647
    3TCq1    C5   39   2.272   2.692  11.046  0.3435 -0.0380 -1.0021
    3TCq1    C6   40   2.215   2.593  11.133 -0.6487 -0.7777  0.3057
    3TCq1    C7   41   2.216   2.462  11.095  0.4482  0.5398 -0.2553
    3TCq1    C8   42   2.130   2.639  11.245  0.0502  0.4509 -0.2476
    3TCq1    O4   43   2.040   2.561  11.275 -0.2032 -0.1888 -0.2741
    3TCq1    C9   44   2.337   2.753  10.819 -0.2071  0.1401  0.8522
    3TCq1    O5   45   2.326   2.730  10.701  0.4091 -0.4309 -0.1960
    3TCq1    O6   46   2.323   2.872  10.865 -0.1136  0.0891  0.3994
    3TCq1    H1   47   2.409   2.332  10.827 -0.6257  0.3088 -0.2305
    3TCq1    H2   48   2.343   2.501  10.781 -0.4267 -2.4912 -0.6924
    3TCq1    H3   49   2.251   2.795  11.071  1.4072  0.1834 -1.0371
    3TCq1    H4   50   2.181   2.386  11.164 -2.3892 -0.3101 -2.6157
    4MPD2     C   51   1.900   2.971  11.550 -0.1171  0.1591 -0.0411
    4MPD2    C1   52   2.012   3.035  11.490  0.3344  0.4798 -0.0351
    4MPD2    C2   53   2.099   2.961  11.412 -0.5453 -0.3330  0.1552
    4MPD2    C3   54   2.079   2.826  11.393  0.1250 -0.0273 -1.1926
    4MPD2    C4   55   1.975   2.762  11.461 -0.0420  0.2813  0.2361
    4MPD2    C5   56   1.888   2.834  11.544 -0.3856  0.4028 -0.6948
    4MPD2     H   57   2.173   3.008  11.349 -2.7147  1.8892 -0.6823
    4MPD2    H1   58   1.936   2.661  11.457  2.0220 -0.4749 -0.7529
    4MPD2    H2   59   1.817   3.019  11.600  0.3336  2.8941 -1.9359
    4MPD2    H3   60   1.800   2.786  11.585 -0.2695 -1.0145 -2.1098
    4MPD2     N   61   2.157   2.760  11.297  0.1405  0.0636  0.1141
    4MPD2    H5   62   2.222   2.821  11.249  0.3848  0.3302  0.7772
    4MPD2    N1   63   2.019   3.178  11.481  0.2444  0.6820 -0.3017
    4MPD2    H7   64   2.084   3.217  11.414  2.2963 -1.3003  0.5651
    5TCq1    O1   65   2.079   3.860  11.072 -0.1915 -0.9212  0.1676
    5TCq1    C1   66   2.044   3.964  11.155  0.2008 -1.0373  0.0235
    5TCq1    O2   67   1.956   4.053  11.135  0.0063  0.4912 -0.2614
    5TCq1    C2   68   2.150   3.982  11.251  0.3028 -0.2356  0.0609
    5TCq1    C3   69   2.116   4.043  11.368 -0.0229 -1.2122  0.4004
    5TCq1    C4   70   2.205   4.024  11.468  0.5745  0.6504 -0.6765
    5TCq1    C5   71   2.333   3.983  11.454 -0.5354  0.1248 -0.5074
    5TCq1    C6   72   2.365   3.938  11.328  0.6040  0.0081 -0.4006
    5TCq1    C7   73   2.274   3.932  11.225 -0.1667 -0.4513  0.3570
    5TCq1    C8   74   2.494   3.873  11.299  0.5535  0.2692  0.5485
    5TCq1    O4   75   2.527   3.867  11.185 -0.1409  0.1015 -0.2609
    5TCq1    C9   76   2.163   4.086  11.592 -0.0440  0.4020 -0.1402
    5TCq1    O5   77   2.255   4.132  11.665  0.0313 -0.2906  0.6862
    5TCq1    O6   78   2.040   4.109  11.602  0.7095  0.5515  0.0395
    5TCq1    H1   79   2.127   3.792  11.123  1.8549 -0.7471 -1.5447
    5TCq1    H2   80   2.015   4.076  11.387  0.0992 -0.2927 -0.5557
    5TCq1    H3   81   2.398   3.990  11.541  0.3067  1.1097 -1.2256
    5TCq1    H4   82   2.300   3.874  11.137  2.4522 -0.1291  0.9032
    6MPD2     C   83   2.733   3.713  11.531  0.3694 -0.1948  0.5099
    6MPD2    C1   84   2.689   3.774  11.420 -0.2248  0.2199  0.6003
    6MPD2    C2   85   2.779   3.805  11.317 -0.1553 -0.4284 -0.1103
    6MPD2    C3   86   2.910   3.757  11.323 -0.4201 -0.4683 -0.7018
    6MPD2    C4   87   2.953   3.691  11.435 -0.3530  0.0627  0.3690
    6MPD2    C5   88   2.862   3.677  11.538 -0.5666  0.5863  0.8165
    6MPD2     H   89   2.763   3.880  11.241  0.1066 -1.4321 -1.1649
    6MPD2    H1   90   3.052   3.651  11.452 -0.9554 -1.7542 -0.2757
    6MPD2    H2   91   2.669   3.685  11.614 -0.5371  0.7314  0.1318
    6MPD2    H3   92   2.900   3.618  11.621  0.9052  0.8656  0.3367
    6MPD2     N   93   2.986   3.778  11.208 -0.6308 -0.6067 -0.7308
    6MPD2    H5   94   2.938   3.831  11.137 -1.7047 -0.3855  0.1703
    6MPD2    N1   95   2.552   3.821  11.414  0.6221  0.6237 -0.2423
    6MPD2    H7   96   2.499   3.821  11.500  0.5122  0.0145 -0.3085
    7TCq1    O1   97   4.388   3.227  14.142  0.1874 -1.1805  0.4096
    7TCq1    C1   98   4.422   3.186  14.017  0.5005 -0.1088 -0.0768
    7TCq1    O2   99   4.394   3.076  13.968 -0.1044 -0.3334  0.4561
    7TCq1    C2  100   4.550   3.244  13.977  0.2693 -0.6224 -0.9528
    7TCq1    C3  101   4.594   3.369  14.019 -0.7189 -0.0170  0.0369
    7TCq1    C4  102   4.708   3.425  13.971 -0.0141  0.1052  0.5629
    7TCq1    C5  103   0.068   3.348  13.893 -0.5083 -0.1883  0.6289
    7TCq1    C6  104   0.033   3.216  13.860 -0.2608 -0.0949 -0.0772
    7TCq1    C7  105   4.635   3.164  13.908  0.3258 -0.6090 -0.0547
    7TCq1    C8  106   0.100   3.143  13.756  0.4937  0.3175  0.0839
    7TCq1    O4  107   0.080   3.023  13.746  0.2155 -0.3833  0.1032
    7TCq1    C9  108   0.016   3.557  14.017  0.1911  0.1989  0.3311
    7TCq1    O5  109   0.142   3.590  14.029 -0.1203 -0.6405  0.1026
    7TCq1    O6  110   4.653   3.637  14.063 -0.3770  0.1234  0.4132
    7TCq1    H1  111   4.450   3.291  14.183  0.9199 -0.8863 -1.1845
    7TCq1    H2  112   4.516   3.426  14.068 -0.0164  0.0797  1.0479
    7TCq1    H3  113   0.160   3.397  13.863 -0.0599 -1.1439  0.4483
    7TCq1    H4  114   4.604   3.070  13.863 -0.5910 -1.0489  1.4947
    8MPD2     C  115   0.465   3.139  13.380 -1.0192 -0.4308  0.3689
    8MPD2    C1  116   0.371   3.041  13.406  0.0410 -0.2495 -0.4548
    8MPD2    C2  117   0.275   3.069  13.502 -0.3751  0.6880 -0.2947
    8MPD2    C3  118   0.280   3.180  13.589  0.2447 -0.0951 -0.4590
    8MPD2    C4  119   0.372   3.274  13.552 -0.1827 -0.3523 -0.5106
    8MPD2    C5  120   0.470   3.251  13.458 -0.3479 -0.6348 -0.4722
    8MPD2     H  121   0.195   2.996  13.509  0.4605 -0.3393 -1.4496
    8MPD2    H1  122   0.374   3.371  13.601 -1.2734 -0.4422 -0.2748
    8MPD2    H2  123   0.547   3.130  13.309 -0.2736  2.1942  0.8666
    8MPD2    H3  124   0.539   3.331  13.436  0.5558 -1.2970 -0.0232
    8MPD2     N  125   0.190   3.219  13.690 -0.7797 -0.2912 -0.5366
    8MPD2    H5  126   0.199   3.318  13.711 -0.6638 -0.2976 -0.5580
    8MPD2    N1  127   0.376   2.927  13.323 -0.3902 -0.1132  0.0176
    8MPD2    H7  128   0.460   2.916  13.269 -1.3667  0.6047 -1.6410
    9TCq1    O1  129   2.392   1.641  10.500 -0.1423 -0.0029  0.4704
    9TCq1    C1  130   2.423   1.723  10.601  0.0634  0.7009 -0.4164
    9TCq1    O2  131   2.360   1.724  10.703  0.1830 -0.0632 -0.2091
    9TCq1    C2  132   2.482   1.840  10.534 -0.2365  0.3860  0.0940
    9TCq1    C3  133   2.463   1.859  10.402  0.0959 -0.2940 -0.3217
    9TCq1    C4  134   2.550   1.928  10.325 -0.8046 -0.2361 -0.5812
    9TCq1    C5  135   2.654   1.993  10.383 -0.0227  0.3242 -0.4714
    9TCq1    C6  136   2.682   1.965  10.511 -0.8301  0.8488  0.0358
    9TCq1    C7  137   2.598   1.879  10.588 -0.0383 -0.8274  0.1497
    9TCq1    C8  138   2.777   2.042  10.584  0.0265  0.3194 -0.4738
    9TCq1    O4  139   2.855   2.107  10.516 -0.4214 -0.4793  0.4981
    9TCq1    C9  140   2.545   1.927  10.185  0.3514  0.2268 -0.4624
    9TCq1    O5  141   2.631   1.995  10.123  0.3752 -0.1767  0.4150
    9TCq1    O6  142   2.500   1.816  10.131  0.3090  0.2017 -0.7473
    9TCq1    H1  143   2.442   1.670  10.420 -0.1857  2.0200  1.1869
    9TCq1    H2  144   2.378   1.825  10.343 -1.2098  0.7654  0.9425
    9TCq1    H3  145   2.739   2.029  10.326  2.3035 -3.4456  0.5816
    9TCq1    H4  146   2.630   1.848  10.687 -2.8370 -2.8872  0.4212
   10MPD2     C  147   2.994   2.108  10.779 -0.3818 -0.5446  0.6152
   10MPD2    C1  148   2.862   2.080  10.809  0.3187  0.0367  0.1220
   10MPD2    C2  149   2.825   2.089  10.941  0.7979  0.5412 -0.7665
   10MPD2    C3  150   2.916   2.135  11.045  0.5501 -0.1747 -0.6665
   10MPD2    C4  151   3.043   2.168  11.004  0.1933  0.4076  0.4946
   10MPD2    C5  152   3.080   2.167  10.870  0.2424 -0.2172 -0.4121
   10MPD2     H  153   2.722   2.075  10.972  0.8453 -0.7374 -1.1883
   10MPD2    H1  154   3.116   2.202  11.077 -0.6693  0.1633  1.4642
   10MPD2    H2  155   3.033   2.094  10.678  1.8077 -0.3715  1.4213
   10MPD2    H3  156   3.179   2.205  10.847 -0.8391  3.9831  1.8347
   10MPD2     N  157   2.893   2.137  11.182 -0.4431  0.0816  0.7401
   10MPD2    H5  158   2.966   2.164  11.247  1.5620 -1.4678 -0.8749
   10MPD2    N1  159   2.762   2.036  10.716 -0.6056 -0.9045 -0.4669
   10MPD2    H7  160   2.676   2.002  10.757  0.7081 -0.3355  2.7779
   11TCq1    O1  161   4.484   1.457  14.053  0.3227  0.2217 -0.0149
   11TCq1    C1  162   4.515   1.517  14.174 -0.8044 -0.3530  0.1354
   11TCq1    O2  163   4.603   1.481  14.255 -0.8456 -0.0070  0.2534
   11TCq1    C2  164   4.451   1.648  14.184  0.4338 -0.3710 -0.4430
   11TCq1    C3  165   4.527   1.747  14.228  0.6278 -0.2400 -0.0535
   11TCq1    C4  166   4.476   1.859  14.272 -0.7416  0.6364 -0.1156
   11TCq1    C5  167   4.343   1.876  14.271 -0.2472 -0.6176 -0.4097
   11TCq1    C6  168   4.263   1.770  14.235  0.0096 -0.6139  0.0990
   11TCq1    C7  169   4.317   1.656  14.186 -0.7379  0.0181  0.2501
   11TCq1    C8  170   4.118   1.781  14.270 -0.5508 -0.1972  0.0057
   11TCq1    O4  171   4.088   1.868  14.352  0.9710 -0.4672 -0.4037
   11TCq1    C9  172   4.567   1.954  14.325 -0.0827  0.6980  0.0502
   11TCq1    O5  173   4.685   1.914  14.349 -0.4890  0.1370  0.2018
   11TCq1    O6  174   4.516   2.067  14.361 -0.5737  0.6973  0.1526
   11TCq1    H1  175   4.422   1.499  13.990  1.8843  0.3083 -1.5018
   11TCq1    H2  176   4.633   1.727  14.241  1.0308  1.8647 -0.2010
   11TCq1    H3  177   4.299   1.967  14.309 -0.6367 -1.6066  1.5155
   11TCq1    H4  178   4.272   1.558  14.172  0.3513 -0.3758 -0.5165
   12MPD2     C  179   3.829   1.733  14.321 -0.5556  0.4389  0.4982
   12MPD2    C1  180   3.912   1.652  14.245 -0.1187 -0.2421 -0.2688
   12MPD2    C2  181   3.869   1.536  14.188  0.7063 -0.1853  0.1929
   12MPD2    C3  182   3.741   1.488  14.210  0.3143 -0.1778  0.1898
   12MPD2    C4  183   3.657   1.563  14.294  0.6497  0.3573 -0.0428
   12MPD2    C5  184   3.702   1.683  14.340 -0.0020  0.0990 -0.2609
   12MPD2     H  185   3.945   1.483  14.133 -2.1997 -1.0890 -2.9805
   12MPD2    H1  186   3.551   1.546  14.309  0.4038  1.2360 -0.8122
   12MPD2    H2  187   3.859   1.829  14.360  2.3312 -0.3492  0.2463
   12MPD2    H3  188   3.630   1.735  14.402 -0.7540 -0.8813 -0.3156
   12MPD2     N  189   3.707   1.366  14.148 -0.4600 -0.6643 -0.0467
   12MPD2    H5  190   3.766   1.330  14.074  1.1583  1.4834  0.2309
   12MPD2    N1  191   4.047   1.678  14.219 -0.0530 -0.6816 -0.3595
   12MPD2    H7  192   4.092   1.612  14.157  0.1620 -1.3578  0.5206
   13TCq1    O1  193   3.390   2.001  10.838 -0.1079 -0.1087  0.0190
   13TCq1    C1  194   3.351   2.008  10.708 -0.0418 -0.3709  0.2079
   13TCq1    O2  195   3.385   2.094  10.626  0.0036 -0.3663  0.5856
   13TCq1    C2  196   3.271   1.895  10.681  0.4480 -0.0769 -0.0487
   13TCq1    C3  197   3.239   1.883  10.545  0.6791 -0.1001  0.1913
   13TCq1    C4  198   3.121   1.826  10.503  0.2140  0.1913  0.0016
   13TCq1    C5  199   3.033   1.771  10.593 -0.2921  0.4737 -0.0223
   13TCq1    C6  200   3.069   1.784  10.726 -0.3319 -0.4768 -0.3270
   13TCq1    C7  201   3.175   1.854  10.772 -0.5734 -0.0885  0.2846
   13TCq1    C8  202   2.976   1.737  10.829  0.3377  0.2629 -0.1639
   13TCq1    O4  203   3.002   1.779  10.938 -0.1991  0.1796  0.8189
   13TCq1    C9  204   3.102   1.798  10.362 -0.5602  0.2691  0.0191
   13TCq1    O5  205   3.195   1.836  10.288  0.1052 -0.3280  0.0479
   13TCq1    O6  206   3.020   1.711  10.333 -0.2785 -0.6155 -0.1218
   13TCq1    H1  207   3.384   1.909  10.872  1.7722 -0.5221 -0.7365
   13TCq1    H2  208   3.314   1.917  10.475  1.2277 -1.9362 -0.1051
   13TCq1    H3  209   2.939   1.734  10.553 -0.5240 -0.0003  0.9709
   13TCq1    H4  210   3.187   1.863  10.879  0.7260  1.5258  0.0039
   14MPD2     C  211   2.691   1.522  10.779  0.7459  0.3811  0.4627
   14MPD2    C1  212   2.757   1.623  10.845  0.1600  0.0919  0.6813
   14MPD2    C2  213   2.707   1.691  10.951  0.2645 -0.0719 -0.1969
   14MPD2    C3  214   2.594   1.648  11.010 -0.2381 -0.1685  0.0473
   14MPD2    C4  215   2.533   1.537  10.957 -0.5041  0.1214  0.4297
   14MPD2    C5  216   2.579   1.477  10.844 -0.3611  0.3893  0.2811
   14MPD2     H  217   2.763   1.773  10.995  1.3116 -1.3958  0.9521
   14MPD2    H1  218   2.433   1.506  10.984 -0.6201  0.8146  0.8091
   14MPD2    H2  219   2.729   1.479  10.686  2.3480  4.7735 -0.9043
   14MPD2    H3  220   2.521   1.398  10.798 -1.3156  0.7137  0.9163
   14MPD2     N  221   2.550   1.720  11.122 -0.1184  0.5234 -0.3154
   14MPD2    H5  222   2.596   1.809  11.139  1.2297 -0.3934  0.8925
   14MPD2    N1  223   2.883   1.647  10.788 -0.1407  0.4810  0.2357
   14MPD2    H7  224   2.908   1.587  10.709  1.9720  1.4384  0.1860
   15TCq1    O1  225   0.150   1.133   1.722  0.0940  0.0939 -0.0579
   15TCq1    C1  226   0.232   1.235   1.745  0.4295 -0.9099 -0.0238
   15TCq1    O2  227   0.222   1.314   1.834  0.5961  0.6737 -0.0540
   15TCq1    C2  228   0.362   1.188   1.708  0.6054 -0.0747 -0.3235
   15TCq1    C3  229   0.468   1.214   1.797 -0.8926  0.2873  0.5033
   15TCq1    C4  230   0.591   1.152   1.771 -0.0942  0.3526  0.2526
   15TCq1    C5  231   0.607   1.083   1.651  0.0653  0.0993  0.6858
   15TCq1    C6  232   0.504   1.069   1.561 -0.3243  0.7243  1.0609
   15TCq1    C7  233   0.375   1.109   1.596  0.1245 -0.4788  1.0282
   15TCq1    C8  234   0.528   0.965   1.459 -0.1607  0.3701  0.2608
   15TCq1    O4  235   0.601   0.873   1.492  0.7802 -0.1206 -0.8223
   15TCq1    C9  236   0.700   1.180   1.868 -0.6357  0.2735  0.8174
   15TCq1    O5  237   0.808   1.116   1.850 -0.1202 -0.4958 -0.5288
   15TCq1    O6  238   0.662   1.247   1.969 -0.3059 -0.1046 -0.1373
   15TCq1    H1  239   0.190   1.063   1.666 -0.3128  0.2204 -0.5103
   15TCq1    H2  240   0.449   1.261   1.893  0.1322 -0.1762  0.9262
   15TCq1    H3  241   0.706   1.042   1.635  0.2684  0.2299  1.6109
   15TCq1    H4  242   0.288   1.090   1.534 -1.4504  0.9456  2.8239
   16MPD2     C  243   0.382   0.933   1.126 -0.0687  0.4383  0.1528
   16MPD2    C1  244   0.450   0.886   1.238 -0.1342  0.2410  0.1152
   16MPD2    C2  245   0.509   0.756   1.235 -0.7077 -0.1829  0.0964
   16MPD2    C3  246   0.483   0.666   1.132 -0.6577 -0.2435  0.4327
   16MPD2    C4  247   0.419   0.718   1.018 -0.2778  0.2426 -0.2744
   16MPD2    C5  248   0.375   0.855   1.016  0.5443  0.1806  0.7540
   16MPD2     H  249   0.580   0.730   1.313 -0.4784  0.2156  0.0215
   16MPD2    H1  250   0.392   0.656   0.934 -0.1416 -0.1519 -0.0241
   16MPD2    H2  251   0.346   1.035   1.114 -2.4399 -0.6141 -1.8295
   16MPD2    H3  252   0.327   0.901   0.931  0.3410  0.0792  0.8142
   16MPD2     N  253   0.536   0.537   1.138 -0.2351 -0.0437 -0.8013
   16MPD2    H5  254   0.597   0.515   1.216  0.9691  1.9565 -1.1706
   16MPD2    N1  255   0.458   0.980   1.343  0.2591 -0.2503 -0.0833
   16MPD2    H7  256   0.395   1.058   1.326  0.7607  0.3139  0.6267
   17TCq1    O1  257   3.105   1.201  11.307  0.3228  0.0213  0.0582
   17TCq1    C1  258   3.189   1.191  11.204 -0.4748 -0.2003 -0.5076
   17TCq1    O2  259   3.262   1.282  11.171  0.2791  0.5622 -0.3336
   17TCq1    C2  260   3.145   1.078  11.130  0.5484  0.2010 -0.0188
   17TCq1    C3  261   3.108   0.965  11.191 -0.4710  0.1621 -0.2871
   17TCq1    C4  262   3.098   0.850  11.121  0.3840 -0.2017 -0.0656
   17TCq1    C5  263   3.114   0.853  10.987  0.9046 -0.4899 -0.4240
   17TCq1    C6  264   3.153   0.967  10.916  0.2697 -0.0771  0.0861
   17TCq1    C7  265   3.163   1.086  10.990  0.0805 -0.0800  0.3106
   17TCq1    C8  266   3.189   0.961  10.775 -0.3591 -0.3437  0.0560
   17TCq1    O4  267   3.153   0.859  10.717  0.4976 -0.2611  0.6186
   17TCq1    C9  268   3.068   0.726  11.189  0.0255 -0.1377  0.0132
   17TCq1    O5  269   3.076   0.713  11.313 -0.0794  0.2792 -0.4771
   17TCq1    O6  270   3.039   0.629  11.117 -0.2845 -0.5669 -0.0304
   17TCq1    H1  271   3.036   1.132  11.311  0.6233 -0.3565 -1.4648
   17TCq1    H2  272   3.106   0.964  11.299  0.2785 -0.4658 -0.2747
   17TCq1    H3  273   3.100   0.758  10.937 -0.2917 -1.4267  1.7019
   17TCq1    H4  274   3.200   1.178  10.947 -1.3465  0.3790  0.0941
   18MPD2     C  275   3.329   0.996  10.508  0.6345 -0.0837 -0.1851
   18MPD2    C1  276   3.331   1.091  10.613  0.2837  0.3754 -0.4918
   18MPD2    C2  277   3.395   1.212  10.583  0.1926 -0.1384  0.0821
   18MPD2    C3  278   3.448   1.233  10.456  0.2822  0.1529  0.0028
   18MPD2    C4  279   3.447   1.135  10.353  0.1980 -0.3047 -0.4059
   18MPD2    C5  280   3.386   1.020  10.387 -0.5376  0.3429  0.4960
   18MPD2     H  281   3.412   1.290  10.657  0.3588 -1.3522  1.3305
   18MPD2    H1  282   3.491   1.140  10.255  0.1092  0.9272 -0.3817
   18MPD2    H2  283   3.288   0.896  10.520  1.4990 -0.3408  0.5840
   18MPD2    H3  284   3.378   0.948  10.306 -0.1619  0.1608  0.6207
   18MPD2     N  285   3.518   1.355  10.423  0.5127 -0.3688  0.1026
   18MPD2    H5  286   3.566   1.351  10.334  1.0636  1.3355  0.3232
   18MPD2    N1  287   3.265   1.070  10.736 -0.1936  0.1209 -0.2438
   18MPD2    H7  288   3.283   1.143  10.804  0.0725 -0.2369  0.0711
   19TMC2    C1  289   0.062   1.746  13.949  0.4659 -0.1167 -0.0991
   19TMC2    C2  290   4.695   1.850  13.951 -0.0286 -0.1448 -0.0296
   19TMC2    C3  291   4.606   1.838  13.850 -1.2001  0.6569 -0.1145
   19TMC2    C4  292   0.067   1.638  13.857 -0.4649 -0.0011  0.4219
   19TMC2    C5  293   4.690   1.634  13.767  0.6054  0.0145 -0.5846
   19TMC2    C6  294   4.601   1.733  13.761 -0.3786  0.3386  0.3418
   19TMC2     C  295   0.162   1.768  14.050  0.0677 -0.6702  0.0284
   19TMC2     O  296   0.158   1.872  14.111 -0.3784 -0.0954 -0.1325
   19TMC2     H  297   4.688   1.938  14.014 -0.0812  1.7243 -2.6332
   19TMC2    H1  298   0.144   1.561  13.855  0.9470  1.4596 -1.6421
   19TMC2    H2  299   4.529   1.715  13.682 -3.3500  2.5498  2.5629
   19TMC2    C7  300   4.654   1.502  13.705  0.2119 -0.2458 -0.5650
   19TMC2    C8  301   4.504   1.936  13.850 -0.0154 -0.1929  0.0681
   19TMC2    O1  302   4.590   1.506  13.600  0.3364 -0.1172  0.2810
   19TMC2    O2  303   4.453   1.979  13.951 -0.3705  0.3273 -0.2812
   19TMC2    O5  304   4.459   1.953  13.724  0.1743 -0.2683 -0.2943
   19TMC2    H5  305   4.507   1.911  13.650 -0.8243  0.1567 -1.1935
   20MPD2     C  306   0.418   1.759  14.188 -0.1814 -0.1017 -0.3863
   20MPD2    C1  307   0.341   1.643  14.169  0.0893 -0.1998  0.3935
   20MPD2    C2  308   0.394   1.518  14.208  0.3273 -0.4227  0.7565
   20MPD2    C3  309   0.518   1.515  14.279  0.4927  0.0631  0.4185
   20MPD2    C4  310   0.570   1.633  14.318  0.1721  1.0047 -0.1607
   20MPD2    C5  311   0.523   1.752  14.276  0.2758 -0.3777  0.9371
   20MPD2     H  312   0.336   1.430  14.181 -1.7537  0.3648  2.6688
   20MPD2    H1  313   0.644   1.642  14.397 -0.6448  1.1571  0.5862
   20MPD2    H2  314   0.383   1.858  14.159  0.2928  0.3024  0.4228
   20MPD2    H3  315   0.575   1.845  14.301 -0.5750  0.4843 -0.5093
   20MPD2     N  316   0.567   1.399  14.344 -0.7435 -1.3230 -0.1183
   20MPD2    H5  317   0.648   1.409  14.404 -0.1082 -1.8700 -0.8757
   20MPD2    N1  318   0.226   1.653  14.086 -0.4390  0.6175 -0.2046
   20MPD2    H7  319   0.188   1.567  14.048 -1.9573  1.4653 -0.6230
   21MPD2     C  320   2.699   2.155  14.428  0.0952  0.3161  0.4290
   21MPD2    C1  321   2.731   2.034  14.368 -0.0650  0.1505  0.0112
   21MPD2    C2  322   2.630   1.947  14.326 -0.0396  0.4291 -0.2701
   21MPD2    C3  323   2.493   1.970  14.350  0.4673  0.3625  0.1462
   21MPD2    C4  324   2.468   2.089  14.408 -0.6713 -0.0507 -0.2578
   21MPD2    C5  325   2.565   2.179  14.447 -0.3768  0.4059 -0.1916
   21MPD2     H  326   2.670   1.855  14.284  0.3799  0.7961 -0.6814
   21MPD2    H1  327   2.366   2.111  14.436  0.4618  1.4923  2.6473
   21MPD2    H2  328   2.775   2.231  14.443  2.1729 -1.2325 -2.1602
   21MPD2    H3  329   2.528   2.269  14.494  0.7255  1.0147 -0.4764
   21MPD2     N  330   2.387   1.883  14.322  0.2247  0.0469 -0.3075
   21MPD2    H5  331   2.298   1.929  14.337 -0.8137 -2.3958  0.9986
   21MPD2    N1  332   2.868   1.992  14.359 -0.7564  0.1068 -0.2186
   21MPD2    H7  333   2.883   1.910  14.300 -1.2411  0.5558 -0.9731
   22TCq2    C1  334   2.397   1.763  14.258  0.4959  0.2181 -0.0619
   22TCq2    O2  335   2.507   1.715  14.217  0.8278  0.2959  0.0781
   22TCq2    C2  336   2.265   1.714  14.213 -0.3455  0.5727  0.3405
   22TCq2    C3  337   2.257   1.599  14.135  0.3085 -0.3843 -0.0144
   22TCq2    C4  338   2.146   1.579  14.058 -0.5894  0.2571 -0.7315
   22TCq2    C5  339   2.045   1.670  14.058 -0.0924 -0.2323  0.0261
   22TCq2    C6  340   2.048   1.774  14.144  0.3437  0.4231 -0.3377
   22TCq2    C7  341   2.156   1.799  14.218 -0.7460  0.4086  0.2314
   22TCq2    C8  342   1.926   1.859  14.153 -0.1113  0.4851 -0.3315
   22TCq2    O4  343   1.850   1.875  14.057 -0.2413 -0.0528  0.0588
   22TCq2    C9  344   2.136   1.461  13.977 -0.0030 -0.3366  0.2960
   22TCq2    O5  345   2.033   1.452  13.902 -0.1496  0.1972  0.0101
   22TCq2    O6  346   2.240   1.389  13.980 -0.3134  0.4285  0.3273
   22TCq2    H2  347   2.344   1.537  14.123 -0.5833 -1.9197  1.5149
   22TCq2    H3  348   1.951   1.650  14.007  2.2103 -1.4396 -3.7309
   22TCq2    H4  349   2.161   1.896  14.267 -1.1226  0.5652 -0.0438
   23MPD2     C  350   4.319   2.593  14.222 -0.1038  0.0876  0.4778
   23MPD2    C1  351   4.257   2.672  14.312 -0.8182  0.1300 -0.2990
   23MPD2    C2  352   4.178   2.779  14.279  0.4753  0.6443  0.1761
   23MPD2    C3  353   4.161   2.802  14.143  0.0878 -0.8434 -0.6704
   23MPD2    C4  354   4.224   2.724  14.052 -0.1312  0.3742  0.2559
   23MPD2    C5  355   4.311   2.625  14.096  0.6638 -0.2198 -0.0616
   23MPD2     H  356   4.125   2.843  14.349  1.8975  1.0517  0.8677
   23MPD2    H1  357   4.219   2.749  13.947  2.0151 -1.9945 -0.4026
   23MPD2    H2  358   4.379   2.506  14.247  1.5536  0.8027 -0.9845
   23MPD2    H3  359   4.384   2.585  14.026  0.4412 -1.8831  0.6538
   23MPD2     N  360   4.065   2.901  14.098  0.1644  0.2448  0.6491
   23MPD2    H5  361   4.056   2.911  13.997 -1.1801 -0.1388  0.7357
   23MPD2    N1  362   4.263   2.652  14.453  0.3819 -0.5179  0.6514
   23MPD2    H7  363   4.212   2.719  14.510 -0.6174  0.0286 -0.8963
   24TCq2    C1  364   3.989   2.983  14.180 -0.6225 -0.7131  0.3744
   24TCq2    O2  365   3.989   3.002  14.304  0.8088 -0.1622 -0.4810
   24TCq2    C2  366   3.900   3.072  14.104 -0.9310 -0.0016  0.1650
   24TCq2    C3  367   3.839   3.021  13.995 -0.0915  0.1459 -0.5345
   24TCq2    C4  368   3.739   3.083  13.933 -0.0589  0.1068 -0.0439
   24TCq2    C5  369   3.685   3.199  13.987  0.2395  0.5104 -0.2808
   24TCq2    C6  370   3.749   3.248  14.098 -0.7106  0.2725 -0.0477
   24TCq2    C7  371   3.861   3.189  14.158  0.1858 -0.1842  0.1349
   24TCq2    C8  372   3.719   3.383  14.141  0.1005 -0.4954 -0.9095
   24TCq2    O4  373   3.805   3.475  14.160 -0.1499 -0.3032  0.2071
   24TCq2    C9  374   3.683   3.029  13.813  0.7650  0.2932 -0.3853
   24TCq2    O5  375   3.757   2.963  13.736 -0.1369  0.5926 -0.0002
   24TCq2    O6  376   3.568   3.077  13.783 -0.1686 -0.1260  0.2799
   24TCq2    H2  377   3.875   2.931  13.945  0.1778 -1.2087  2.1207
   24TCq2    H3  378   3.603   3.254  13.943  0.3658  1.4791  0.6890
   24TCq2    H4  379   3.910   3.222  14.249  1.3598  1.1907 -1.0179
   25TMC2    C1  380   2.762   0.635  11.476  0.0703  0.2242  0.3641
   25TMC2    C2  381   2.886   0.680  11.524 -0.4458  0.1845  0.3082
   25TMC2    C3  382   2.893   0.813  11.560  0.4458 -0.5732 -0.1480
   25TMC2    C4  383   2.644   0.705  11.479  0.7042 -0.0252  0.8189
   25TMC2    C5  384   2.665   0.829  11.531 -0.2258  0.3536 -0.4709
   25TMC2    C6  385   2.782   0.884  11.575 -1.0339  0.2756 -0.0565
   25TMC2     C  386   2.762   0.525  11.385  0.0071  0.3108 -0.4481
   25TMC2     O  387   2.870   0.501  11.334  0.1785 -0.3724  0.0813
   25TMC2     H  388   2.968   0.610  11.534  1.0509  2.2504  2.4102
   25TMC2    H1  389   2.547   0.672  11.446  0.3240  1.4435  0.4627
   25TMC2    H2  390   2.789   0.983  11.620 -2.5715  0.2654  0.1836
   25TMC2    C7  391   2.560   0.878  11.617 -0.3523  0.2368 -0.1559
   25TMC2    C8  392   3.019   0.872  11.604 -0.1209  0.2918  0.5262
   25TMC2    O1  393   2.500   0.795  11.686  0.5186  0.3827  0.1798
   25TMC2    O2  394   3.022   0.973  11.677 -0.2352 -0.1626  0.3469
   25TMC2    O5  395   3.131   0.824  11.539  0.8422 -0.1959  0.3656
   25TMC2    H5  396   3.113   0.770  11.459 -0.5101  0.4893  0.2000
   26MPD2     C  397   2.551   0.191  11.063  0.1732  0.1824  0.0589
   26MPD2    C1  398   2.469   0.205  11.168  0.4697  0.6392 -0.4752
   26MPD2    C2  399   2.500   0.294  11.269  0.5118  0.1561  0.3483
   26MPD2    C3  400   2.613   0.372  11.263  0.3454  0.2792 -0.1675
   26MPD2    C4  401   2.686   0.371  11.149 -0.4466 -0.2815 -0.3754
   26MPD2    C5  402   2.660   0.273  11.061 -0.1473 -0.4341  0.4631
   26MPD2     H  403   2.447   0.314  11.362 -0.3962  0.7785 -0.3032
   26MPD2    H1  404   2.776   0.429  11.135  0.0716 -1.0155 -0.0565
   26MPD2    H2  405   2.538   0.111  10.991 -0.0458 -1.4557  1.9163
   26MPD2    H3  406   2.730   0.278  10.979  0.2040 -1.0288  0.7284
   26MPD2     N  407   2.643   0.461  11.370  0.6153 -0.4546 -0.0147
   26MPD2    H5  408   2.573   0.460  11.443 -0.7952 -1.9529 -1.3874
   26MPD2    N1  409   2.348   0.127  11.173  0.3443 -0.5247  0.9035
   26MPD2    H7  410   2.334   0.064  11.095 -1.1883  0.9549 -0.0123
   27TMC2    C1  411   1.032   2.630  11.844 -0.6948  0.3502  0.2903
   27TMC2    C2  412   0.995   2.659  11.713  0.4447 -0.2766  0.0110
   27TMC2    C3  413   1.013   2.783  11.661 -0.2887 -0.7497 -0.4010
   27TMC2    C4  414   1.115   2.718  11.910 -0.2806  0.6260  0.1338
   27TMC2    C5  415   1.137   2.837  11.852 -0.3159  0.5598 -0.0864
   27TMC2    C6  416   1.080   2.875  11.733 -0.0315  0.3217 -0.1956
   27TMC2     C  417   1.011   2.503  11.902  0.4728  0.0855 -0.0706
   27TMC2     O  418   1.016   2.403  11.827 -0.2884  0.1255 -0.5352
   27TMC2     H  419   0.941   2.586  11.653  0.1688 -0.0538 -0.0146
   27TMC2    H1  420   1.126   2.714  12.018  2.5547  1.2531 -0.1338
   27TMC2    H2  421   1.102   2.971  11.688  1.9896 -0.5496 -1.0762
   27TMC2    C7  422   1.221   2.933  11.923  0.3891  0.1075 -0.0696
   27TMC2    C8  423   0.970   2.812  11.528 -0.7616  0.3140 -0.2836
   27TMC2    O1  424   1.294   2.879  12.009  0.5194  0.6310 -0.5721
   27TMC2    O2  425   0.952   2.726  11.443 -0.1423 -0.2748 -0.4165
   27TMC2    O5  426   0.893   2.920  11.543 -0.4176 -0.1018 -0.5025
   27TMC2    H5  427   0.882   2.961  11.632 -0.2184 -0.5787 -0.2618
   28MPD2     C  428   0.936   2.219  12.298  0.1082  0.7336  0.9109
   28MPD2    C1  429   0.878   2.338  12.320  0.4473  0.2931 -0.8923
   28MPD2    C2  430   0.891   2.431  12.230 -0.2543 -0.8907  0.1013
   28MPD2    C3  431   0.974   2.411  12.118  0.8103  0.0738 -0.9741
   28MPD2    C4  432   1.026   2.289  12.099  0.6301 -0.5228  0.5102
   28MPD2    C5  433   1.018   2.192  12.195  0.8265  0.5355 -0.5908
   28MPD2     H  434   0.837   2.524  12.238  0.6102 -0.1427 -2.8042
   28MPD2    H1  435   1.090   2.257  12.018  0.2490 -2.2751  0.9032
   28MPD2    H2  436   0.917   2.136  12.365  0.6697 -0.5370 -0.4922
   28MPD2    H3  437   1.080   2.103  12.187 -0.5736 -0.5318  0.2225
   28MPD2     N  438   0.976   2.519  12.032 -0.1917 -0.1074  0.0298
   28MPD2    H5  439   0.944   2.610  12.064  1.7334  0.8447 -0.7217
   28MPD2    N1  440   0.803   2.345  12.437 -0.0585 -0.0342  0.1554
   28MPD2    H7  441   0.809   2.266  12.500  2.0038  1.0000  1.2367
   29MPD2     C  442   0.620   4.292  14.141  0.2053 -0.1220 -0.7379
   29MPD2    C1  443   0.741   4.324  14.190 -0.5426 -0.3468  0.9744
   29MPD2    C2  444   0.755   4.439  14.272 -0.3126 -0.1852  0.5878
   29MPD2    C3  445   0.651   4.536  14.270  0.1449 -0.4778 -0.4911
   29MPD2    C4  446   0.533   4.497  14.215 -0.2437 -0.1093 -0.2402
   29MPD2    C5  447   0.517   4.375  14.147 -0.4507  0.0644 -0.0917
   29MPD2     H  448   0.847   4.476  14.315 -0.1944  1.1215 -0.7587
   29MPD2    H1  449   0.442   4.556  14.218 -0.5469 -0.5350 -1.0886
   29MPD2    H2  450   0.590   4.195  14.105 -0.8841 -0.8431  2.1161
   29MPD2    H3  451   0.420   4.353  14.105 -0.1538 -0.6827 -0.3908
   29MPD2     N  452   0.673   4.667  14.323 -0.3443  0.2903 -1.1469
   29MPD2    H5  453   0.765   4.686  14.360  0.3815 -2.6777 -1.4459
   29MPD2    N1  454   0.858   4.244  14.175 -0.1824  0.0529  0.3075
   29MPD2    H7  455   0.947   4.278  14.211  0.4359  0.4178 -1.5724
   30TCq2    C1  456   0.591   0.052  14.308  0.1656 -0.3681  0.0614
   30TCq2    O2  457   0.472   0.058  14.282  0.4563 -0.3985 -0.2202
   30TCq2    C2  458   0.641   0.170  14.373  0.6433 -0.3263 -0.3063
   30TCq2    C3  459   0.626   0.169  14.512 -0.0070 -1.4216  0.1366
   30TCq2    C4  460   0.637   0.289  14.578  0.4703 -0.3568 -0.6017
   30TCq2    C5  461   0.641   0.414  14.510  1.4695 -0.6974 -0.6765
   30TCq2    C6  462   0.633   0.407  14.374  0.3525  0.3354 -0.6000
   30TCq2    C7  463   0.623   0.288  14.304  0.5382  0.7917  0.2918
   30TCq2    C8  464   0.618   0.522  14.290 -0.4904  0.6995  0.5696
   30TCq2    O4  465   0.526   0.517  14.211 -0.1823 -0.2325  0.3343
   30TCq2    C9  466   0.621   0.291  14.723 -0.0961  0.3988 -0.6593
   30TCq2    O5  467   0.624   0.177  14.780  0.0894  0.0689 -0.4451
   30TCq2    O6  468   0.626   0.403  14.774  0.3600 -0.0557 -0.2204
   30TCq2    H2  469   0.616   0.077  14.570  0.9627 -1.3368  0.4283
   30TCq2    H3  470   0.637   0.512  14.555  0.6754 -1.1640  0.2587
   30TCq2    H4  471   0.608   0.293  14.197  1.3576  2.5711  0.2573
   31MPD2     C  472   3.885   4.222  14.827  0.3293 -0.0946 -0.2461
   31MPD2    C1  473   3.749   4.204  14.796  0.3092 -0.4832 -0.0996
   31MPD2    C2  474   3.671   4.141  14.887  0.7217 -0.4462  0.2759
   31MPD2    C3  475   3.731   4.076  14.997  0.4101  0.4060 -0.7771
   31MPD2    C4  476   3.866   4.089  15.023 -0.3637 -0.1651 -0.0223
   31MPD2    C5  477   3.938   4.169  14.940  0.9928  1.2914  0.0701
   31MPD2     H  478   3.565   4.122  14.870  0.0272  2.8906  0.8544
   31MPD2    H1  479   3.917   4.033  15.101 -1.7548 -1.9354 -0.4016
   31MPD2    H2  480   3.943   4.277  14.754  1.3172 -1.1797 -0.2720
   31MPD2    H3  481   4.043   4.181  14.963  1.3275 -0.8888 -0.3222
   31MPD2     N  482   3.655   4.005  15.093  0.5484  0.6416 -0.3312
   31MPD2    H5  483   3.707   3.952  15.163  0.0053  0.3989 -0.1133
   31MPD2    N1  484   3.698   4.270  14.674 -0.1095  0.4367  0.7727
   31MPD2    H7  485   3.765   4.308  14.609 -0.2939 -1.5674 -0.6033
   32TCq2    C1  486   3.523   3.998  15.097 -0.1397 -0.1801  0.4053
   32TCq2    O2  487   3.434   4.051  15.039 -0.6444 -0.2808 -0.1878
   32TCq2    C2  488   3.487   3.913  15.203 -0.7142  0.1767 -0.3180
   32TCq2    C3  489   3.359   3.921  15.240 -0.9322  1.0213  0.2971
   32TCq2    C4  490   3.314   3.858  15.356  0.1749 -0.2291  0.4132
   32TCq2    C5  491   3.395   3.777  15.423  0.0600 -0.0432 -0.6063
   32TCq2    C6  492   3.526   3.766  15.381 -0.6340 -0.5573 -0.5241
   32TCq2    C7  493   3.576   3.839  15.275  0.2410  0.3162 -0.2830
   32TCq2    C8  494   3.623   3.697  15.462  0.1274  0.1373  0.7406
   32TCq2    O4  495   3.740   3.689  15.424 -0.2544  0.2797 -0.1183
   32TCq2    C9  496   3.178   3.869  15.400  0.0171  0.1168  0.2656
   32TCq2    O5  497   3.100   3.936  15.328 -0.5094 -0.9914  0.7694
   32TCq2    O6  498   3.156   3.838  15.520 -0.6006 -0.2133 -0.1828
   32TCq2    H2  499   3.286   3.975  15.180 -1.4491  0.1400  0.1198
   32TCq2    H3  500   3.351   3.714  15.500  1.9989 -1.5821 -0.7534
   32TCq2    H4  501   3.684   3.840  15.269  0.2361  0.9416 -0.2660
   33MPD2     C  502   3.852   2.200  10.469 -0.1100  1.1970  0.2798
   33MPD2    C1  503   3.765   2.122  10.402 -0.5108  1.4844  0.2284
   33MPD2    C2  504   3.731   2.164  10.277  0.3672 -0.4533  0.3862
   33MPD2    C3  505   3.764   2.292  10.227  0.7399 -0.2100  0.4505
   33MPD2    C4  506   3.855   2.368  10.296 -0.0499 -0.2220 -0.3122
   33MPD2    C5  507   3.896   2.322  10.421  0.0548 -0.1524  0.2873
   33MPD2     H  508   3.687   2.091  10.210 -0.9002  0.5803  0.0776
   33MPD2    H1  509   3.898   2.452  10.243 -1.1893 -0.8833 -2.2656
   33MPD2    H2  510   3.883   2.179  10.571 -0.5889  1.3689  0.4571
   33MPD2    H3  511   3.970   2.380  10.474  0.0064  0.3191 -0.1651
   33MPD2     N  512   3.717   2.339  10.103  0.4630  0.3909 -0.1403
   33MPD2    H5  513   3.771   2.414  10.061 -1.0058 -0.3737 -3.3807
   33MPD2    N1  514   3.733   1.997  10.460 -0.0638  0.8035 -0.2494
   33MPD2    H7  515   3.761   1.976  10.555 -0.2991  0.7694 -0.1859
   34TCq2    C1  516   3.623   2.279  10.027  0.1340 -0.2469  0.2351
   34TCq2    O2  517   3.532   2.208  10.064  0.4141 -0.7530 -0.3692
   34TCq2    C2  518   3.629   2.323   9.893  0.2094  0.2521 -0.3411
   34TCq2    C3  519   3.527   2.296   9.811 -0.2020  0.5004 -0.8118
   34TCq2    C4  520   3.536   2.342   9.687 -0.7525 -0.6680  0.1918
   34TCq2    C5  521   3.657   2.386   9.633 -0.2450  0.4592 -0.4700
   34TCq2    C6  522   3.762   2.391   9.718  0.5853 -0.0151 -0.6746
   34TCq2    C7  523   3.753   2.364   9.848 -0.0985  0.4056 -0.0920
   34TCq2    C8  524   3.888   2.427   9.661 -0.0144  0.2218  0.2126
   34TCq2    O4  525   3.969   2.475   9.739  0.7242 -0.8803  0.3989
   34TCq2    C9  526   3.422   2.346   9.612  0.5844 -0.3125  0.0054
   34TCq2    O5  527   3.320   2.281   9.649  0.4471  0.4442 -0.1641
   34TCq2    O6  528   3.423   2.415   9.509  0.0229  0.4492  0.2745
   34TCq2    H2  529   3.433   2.254   9.846  1.0317 -0.8442  0.8162
   34TCq2    H3  530   3.663   2.428   9.533  0.6605 -0.5979 -0.8612
   34TCq2    H4  531   3.852   2.342   9.888 -0.7312 -3.3584 -0.5650
   35MPD2     C  532   0.478   3.398  11.920  0.1529 -1.1145 -0.0900
   35MPD2    C1  533   0.519   3.270  11.899 -0.0747  0.2461  0.3632
   35MPD2    C2  534   0.525   3.240  11.763  0.6815 -0.0643 -0.1799
   35MPD2    C3  535   0.505   3.330  11.658  0.0528 -0.1391 -0.6506
   35MPD2    C4  536   0.452   3.452  11.693 -0.7807  0.2015 -0.4997
   35MPD2    C5  537   0.449   3.487  11.821 -0.0169 -0.4364 -0.2248
   35MPD2     H  538   0.552   3.141  11.728 -1.6793 -1.3298  1.6168
   35MPD2    H1  539   0.422   3.528  11.621  1.6647  0.5552 -1.1434
   35MPD2    H2  540   0.449   3.435  12.018 -1.4599  1.2794 -1.4517
   35MPD2    H3  541   0.419   3.590  11.838  0.2481 -0.4862  0.5444
   35MPD2     N  542   0.525   3.295  11.523  0.2862 -0.6456 -0.0473
   35MPD2    H5  543   0.537   3.197  11.498  0.2805 -0.5727 -0.3302
   35MPD2    N1  544   0.520   3.182  12.002  0.0749  0.1458 -0.0574
   35MPD2    H7  545   0.499   3.219  12.094  1.9131  1.4599 -0.1569
   36TCq2    C1  546   0.519   3.388  11.421  0.3898 -0.0226 -0.3296
   36TCq2    O2  547   0.547   3.505  11.424  0.1108  0.4290 -0.1323
   36TCq2    C2  548   0.499   3.325  11.294  0.1113  0.0558  0.1208
   36TCq2    C3  549   0.520   3.404  11.184 -0.8585 -0.1230 -0.4526
   36TCq2    C4  550   0.483   3.361  11.065  0.4095  0.2307  0.6789
   36TCq2    C5  551   0.410   3.243  11.050  0.4083 -0.4221  0.2220
   36TCq2    C6  552   0.382   3.174  11.167 -0.3930  0.0073  0.0785
   36TCq2    C7  553   0.431   3.213  11.287  0.7011 -0.4397  0.7498
   36TCq2    C8  554   0.294   3.062  11.163 -0.1802  0.0852 -0.1133
   36TCq2    O4  555   0.295   2.968  11.243 -0.9890 -0.2318 -1.0285
   36TCq2    C9  556   0.523   3.440  10.949  0.9714  0.1135 -0.1645
   36TCq2    O5  557   0.488   3.399  10.836 -0.0700 -0.4268  0.0709
   36TCq2    O6  558   0.566   3.554  10.973  0.6624 -0.0561 -0.0904
   36TCq2    H2  559   0.577   3.495  11.193 -0.4642 -0.5204  1.0005
   36TCq2    H3  560   0.395   3.194  10.955  1.2816  0.9679 -0.6366
   36TCq2    H4  561   0.394   3.161  11.374  0.2239 -1.4424 -0.0446
   37TMC2    C1  562   2.110   2.633  11.938  0.2552  0.0483  0.1042
   37TMC2    C2  563   2.090   2.512  11.874 -0.0472  0.1479  0.1274
   37TMC2    C3  564   2.114   2.500  11.742 -0.2478  0.4754 -0.6929
   37TMC2    C4  565   2.169   2.737  11.869 -0.5128 -0.0276  0.8419
   37TMC2    C5  566   2.205   2.715  11.740  0.6172 -0.8457  0.0724
   37TMC2    C6  567   2.167   2.606  11.674  0.3536  0.0148 -0.4150
   37TMC2     C  568   2.122   2.640  12.080  0.2920  0.0870 -0.6360
   37TMC2     O  569   2.216   2.696  12.130  0.1152  0.2824 -0.2241
   37TMC2     H  570   2.068   2.427  11.938 -2.1637 -0.4724 -1.4256
   37TMC2    H1  571   2.204   2.821  11.929 -0.0095  1.2736 -1.2873
   37TMC2    H2  572   2.174   2.600  11.565 -0.4028 -3.2394 -0.3094
   37TMC2    C7  573   2.308   2.805  11.689 -0.5103  0.0826 -0.3220
   37TMC2    C8  574   2.042   2.389  11.677  0.3054 -0.2227 -0.0996
   37TMC2    O1  575   2.328   2.903  11.756 -0.2505  0.7099  0.4416
   37TMC2    O2  576   1.936   2.338  11.719 -0.2254  0.2581 -0.5698
   37TMC2    O5  577   2.106   2.360  11.559  0.0545 -0.2180 -0.2075
   37TMC2    H5  578   2.192   2.404  11.538 -0.1317 -0.0144 -0.5392
   38MPD2     C  579   1.844   2.762  12.514  0.1307 -0.1854 -0.6756
   38MPD2    C1  580   1.959   2.810  12.456 -0.2674  0.0175  0.0403
   38MPD2    C2  581   2.008   2.762  12.339 -0.1384 -0.5324 -0.0034
   38MPD2    C3  582   1.940   2.674  12.262 -0.5521 -0.1750  0.0853
   38MPD2    C4  583   1.824   2.626  12.316 -0.6566  0.1013 -0.0441
   38MPD2    C5  584   1.784   2.669  12.443  0.5008 -0.6402  0.1446
   38MPD2     H  585   2.109   2.789  12.310 -0.2157 -1.7528 -1.4269
   38MPD2    H1  586   1.762   2.561  12.256 -1.9125  1.4970 -0.2530
   38MPD2    H2  587   1.805   2.800  12.607  0.9406  0.1467 -0.4734
   38MPD2    H3  588   1.698   2.621  12.488  0.5900 -0.7923  0.1528
   38MPD2     N  589   1.991   2.623  12.140 -0.1104 -0.0556  0.1427
   38MPD2    H5  590   1.923   2.568  12.088  0.8591  0.3286 -1.5509
   38MPD2    N1  591   2.028   2.922  12.515 -0.7599  0.2664 -0.2525
   38MPD2    H7  592   2.121   2.934  12.476 -1.3691  0.3856 -1.6878
   39MPD2     C  593   1.127   4.308   1.176 -0.1875 -0.3700 -0.4304
   39MPD2    C1  594   1.039   4.350   1.281 -0.2291  0.7479  0.1429
   39MPD2    C2  595   0.930   4.430   1.260 -0.7051  0.3163  0.6673
   39MPD2    C3  596   0.890   4.452   1.132  0.9952  0.1940 -0.1468
   39MPD2    C4  597   0.963   4.396   1.025 -0.6162 -0.1691  0.0059
   39MPD2    C5  598   1.088   4.333   1.051 -0.7147 -0.1557  0.3444
   39MPD2     H  599   0.870   4.473   1.340 -0.4490  2.1038 -0.1222
   39MPD2    H1  600   0.929   4.410   0.923  0.8516 -1.3271 -0.6378
   39MPD2    H2  601   1.216   4.248   1.194  0.8256  1.5101  0.9258
   39MPD2    H3  602   1.145   4.289   0.970 -0.9345 -1.7017  1.0310
   39MPD2     N  603   0.767   4.520   1.101 -0.2932  0.3826  0.2100
   39MPD2    H5  604   0.741   4.525   1.003 -2.9070  0.5326  0.9180
   39MPD2    N1  605   1.082   4.319   1.413 -0.1848  0.5302  0.2338
   39MPD2    H7  606   1.172   4.274   1.425 -0.6816 -0.9115 -1.5114
   40TCq2    C1  607   1.018   4.354   1.526  0.0045  0.5138  0.0285
   40TCq2    O2  608   0.900   4.380   1.547  0.0851 -0.1760 -0.2687
   40TCq2    C2  609   1.091   4.317   1.653  0.3513 -0.6236 -0.0528
   40TCq2    C3  610   1.015   4.308   1.767  0.3287 -0.2653  1.0440
   40TCq2    C4  611   1.073   4.266   1.882 -0.4852  0.7722 -0.2861
   40TCq2    C5  612   1.206   4.235   1.876 -0.8982 -0.3176  0.6779
   40TCq2    C6  613   1.280   4.255   1.768  0.2061 -0.0676 -0.2180
   40TCq2    C7  614   1.226   4.290   1.643  0.1018  0.2294 -0.1041
   40TCq2    C8  615   1.416   4.202   1.772 -0.2205  0.2863 -0.0305
   40TCq2    O4  616   1.441   4.123   1.862 -0.3223 -0.2762  0.8868
   40TCq2    C9  617   0.998   4.278   2.010  0.0726  0.1221  0.1135
   40TCq2    O5  618   0.893   4.345   2.006 -0.2768  0.0971  0.4567
   40TCq2    O6  619   1.062   4.255   2.118  0.6312  0.6002 -0.0284
   40TCq2    H2  620   0.911   4.340   1.770  1.1295  2.4984 -1.1242
   40TCq2    H3  621   1.257   4.221   1.971  0.9654  0.8206 -0.1477
   40TCq2    H4  622   1.280   4.326   1.556  1.6178  1.7148  1.4766
   41TMC2    C1  623   4.419   2.945  13.614  0.1510  0.0670 -1.3871
   41TMC2    C2  624   4.303   2.923  13.688  0.6003  0.0061  0.8886
   41TMC2    C3  625   4.204   3.020  13.665 -0.3989 -0.0638  0.1243
   41TMC2    C4  626   4.435   3.025  13.506 -1.1200 -0.3240 -0.1169
   41TMC2    C5  627   4.330   3.108  13.494  0.2568  0.5246  0.2338
   41TMC2    C6  628   4.215   3.107  13.565 -0.0159  0.5609 -0.3604
   41TMC2     C  629   4.522   2.852  13.643  0.7102  0.0743  0.7159
   41TMC2     O  630   4.577   2.811  13.542 -0.1699  0.4003  0.0279
   41TMC2     H  631   4.282   2.843  13.757 -2.5481 -0.1480 -0.2638
   41TMC2    H1  632   4.522   3.041  13.444 -1.4155 -0.8240 -0.6614
   41TMC2    H2  633   4.141   3.185  13.552  1.0702  1.7183  0.3397
   41TMC2    C7  634   4.339   3.208  13.383  0.6826  0.2998 -0.4394
   41TMC2    C8  635   4.075   3.008  13.735  0.3105 -0.3634  0.0572
   41TMC2    O1  636   4.286   3.317  13.395 -0.3350 -0.2138 -0.0962
   41TMC2    O2  637   4.081   2.940  13.832  0.0809 -0.2094  0.2425
   41TMC2    O5  638   3.978   3.020  13.641 -0.1842 -0.4163  0.2709
   41TMC2    H5  639   3.893   2.981  13.669 -0.0965 -1.8811 -1.5079
   42MPD2     C  640   4.697   2.652  13.767 -0.3381 -0.3681  0.3173
   42MPD2    C1  641   4.615   2.735  13.843 -0.5863 -0.7067 -0.4586
   42MPD2    C2  642   4.625   2.735  13.977  0.2647  0.3450  0.5781
   42MPD2    C3  643   4.696   2.647  14.051 -0.2475 -0.5850  0.1082
   42MPD2    C4  644   0.051   2.558  13.977 -0.7381  0.7779  1.4645
   42MPD2    C5  645   0.059   2.567  13.840  0.3376  0.1595 -0.3158
   42MPD2     H  646   4.564   2.810  14.027  0.3972 -0.4890  1.9791
   42MPD2    H1  647   0.110   2.491  14.039  0.1905 -0.1515 -0.4003
   42MPD2    H2  648   4.701   2.643  13.659  1.5573  1.0629  0.2682
   42MPD2    H3  649   0.125   2.493  13.796  0.3033 -0.0234 -0.0533
   42MPD2     N  650   4.707   2.636  14.188  0.3677 -0.3956  0.1221
   42MPD2    H5  651   0.043   2.565  14.226  1.7423  1.9466  2.1804
   42MPD2    N1  652   4.529   2.826  13.778  0.0866 -0.3510  0.2039
   42MPD2    H7  653   4.482   2.894  13.838  1.2636  1.0144 -0.4301
   43MPD2     C  654   1.153   0.636   0.685 -0.9687  0.4122  0.3364
   43MPD2    C1  655   1.247   0.551   0.745 -0.0847 -0.4054  0.2392
   43MPD2    C2  656   1.277   0.563   0.876 -1.0507 -0.3148 -0.6990
   43MPD2    C3  657   1.207   0.661   0.950  0.7530  0.0875 -0.4589
   43MPD2    C4  658   1.107   0.732   0.894 -0.4490 -0.2483  0.2941
   43MPD2    C5  659   1.085   0.723   0.759  0.2528  0.5483  0.2965
   43MPD2     H  660   1.356   0.504   0.921 -0.4553 -0.3071 -1.7359
   43MPD2    H1  661   1.047   0.806   0.945 -0.6534  0.8372 -1.5032
   43MPD2    H2  662   1.134   0.641   0.578  0.2533 -1.5974  0.0107
   43MPD2    H3  663   1.014   0.793   0.717 -0.4821 -0.4024 -0.0575
   43MPD2     N  664   1.250   0.701   1.082 -0.5892  0.3015  0.2003
   43MPD2    H5  665   1.210   0.791   1.107 -0.0979  0.0882  1.7952
   43MPD2    N1  666   1.305   0.452   0.665  0.1387 -0.2341 -0.0292
   43MPD2    H7  667   1.344   0.372   0.714 -0.3728 -1.1808 -1.1682
   44TCq2    C1  668   1.542   1.044   1.272 -0.8037 -0.7969  0.2056
   44TCq2    O2  669   1.573   1.031   1.155 -0.3747 -0.0846  0.5798
   44TCq2    C2  670   1.464   0.933   1.320  0.3861 -0.3852 -0.4555
   44TCq2    C3  671   1.471   0.900   1.451  0.0599  0.0560  0.2040
   44TCq2    C4  672   1.442   0.774   1.481 -0.7730 -0.7790  0.3894
   44TCq2    C5  673   1.396   0.677   1.395  0.2824  0.7479  0.1047
   44TCq2    C6  674   1.385   0.718   1.264 -0.6121 -0.5327 -0.0475
   44TCq2    C7  675   1.421   0.841   1.228 -0.0379  0.1477 -0.0645
   44TCq2    C8  676   1.333   0.628   1.162 -0.1268 -0.4275 -0.8139
   44TCq2    O4  677   1.372   0.513   1.166 -0.1844  0.3193  0.2571
   44TCq2    C9  678   1.470   0.733   1.620 -0.0629  0.4840  0.1478
   44TCq2    O5  679   1.463   0.821   1.714  0.2998  0.4288  0.2392
   44TCq2    O6  680   1.499   0.610   1.636 -0.3710 -0.3223 -0.8203
   44TCq2    H2  681   1.517   0.961   1.528 -0.8442  1.4341 -0.3377
   44TCq2    H3  682   1.364   0.581   1.432  0.0891  1.2666  1.2959
   44TCq2    H4  683   1.407   0.873   1.126 -1.3750  0.5405  0.2351
   45TMC2    C1  684   2.574   2.928   9.807 -0.6334  0.0648 -0.6362
   45TMC2    C2  685   2.704   2.893   9.773 -0.1321  0.2204 -0.3769
   45TMC2    C3  686   2.787   2.996   9.764 -0.0830  1.1090 -0.4603
   45TMC2    C4  687   2.535   3.058   9.821 -0.3162  0.1443 -0.1532
   45TMC2    C5  688   2.625   3.155   9.804 -0.5910 -0.3878  0.5323
   45TMC2    C6  689   2.752   3.126   9.769 -0.9657  0.3161  0.9711
   45TMC2     C  690   2.477   2.820   9.785 -0.3902 -0.2294  0.3645
   45TMC2     O  691   2.510   2.704   9.785  1.0115  0.0716  0.7523
   45TMC2     H  692   2.736   2.794   9.745  1.1447 -0.6838  4.2284
   45TMC2    H1  693   2.431   3.085   9.840 -0.3277  0.8168 -1.1980
   45TMC2    H2  694   2.831   3.200   9.774 -0.2930 -0.1521 -3.1703
   45TMC2    C7  695   2.596   3.280   9.880 -0.4880 -1.0269 -0.3703
   45TMC2    C8  696   2.899   2.981   9.677 -0.0832  0.1674  0.1801
   45TMC2    O1  697   2.524   3.262   9.978 -0.1151  0.1495 -0.1555
   45TMC2    O2  698   2.992   3.061   9.673 -0.0073  0.4640 -0.1222
   45TMC2    O5  699   2.871   2.890   9.584  0.1515  0.7410 -0.0114
   45TMC2    H5  700   2.780   2.854   9.583  0.3775  0.1560  0.1950
   46MPD2     C  701   2.223   2.661   9.721 -0.0696  0.0684  0.7518
   46MPD2    C1  702   2.243   2.794   9.692  0.2113  0.1028 -0.5160
   46MPD2    C2  703   2.147   2.865   9.619 -0.2935  0.1664 -0.0030
   46MPD2    C3  704   2.039   2.803   9.566  0.4363 -0.1097 -0.4784
   46MPD2    C4  705   2.018   2.671   9.589  0.5354 -0.1121  0.4254
   46MPD2    C5  706   2.106   2.603   9.670  0.0358  0.4174 -0.2453
   46MPD2     H  707   2.162   2.968   9.591  1.6870 -0.2388 -0.4024
   46MPD2    H1  708   1.930   2.625   9.547 -0.2397  2.0131 -0.2819
   46MPD2    H2  709   2.295   2.607   9.781  1.8813  0.2251 -1.4596
   46MPD2    H3  710   2.084   2.497   9.673  0.0223  0.4701  1.6382
   46MPD2     N  711   1.949   2.871   9.479 -0.4535  0.0268 -0.4068
   46MPD2    H5  712   1.962   2.971   9.474 -0.8900  0.0926 -0.2622
   46MPD2    N1  713   2.360   2.866   9.732 -0.3028  0.1025 -0.6106
   46MPD2    H7  714   2.347   2.967   9.729 -0.7141  0.0737  0.0815
   47TMC2    C1  715   4.303   3.612   9.398  0.0189  0.4978  0.3595
   47TMC2    C2  716   4.344   3.587   9.269 -0.2734 -0.2862  0.1384
   47TMC2    C3  717   4.246   3.553   9.189 -0.0888 -0.1131  0.3405
   47TMC2    C4  718   4.174   3.584   9.446  0.5611  0.0030 -1.1927
   47TMC2    C5  719   4.074   3.562   9.355  0.0434 -0.0732 -0.9162
   47TMC2    C6  720   4.112   3.549   9.225 -0.4252  1.0191  0.0759
   47TMC2     C  721   4.398   3.630   9.500 -0.1283  0.2187 -0.1786
   47TMC2     O  722   4.359   3.653   9.613  0.1089 -0.1253  0.2402
   47TMC2     H  723   4.441   3.612   9.227  0.3975 -0.2177  1.7038
   47TMC2    H1  724   4.150   3.585   9.552 -1.5834  1.6035 -1.6906
   47TMC2    H2  725   4.029   3.541   9.156  1.8842  0.0322 -2.6114
   47TMC2    C7  726   3.930   3.551   9.388 -0.1695 -0.2561 -0.2019
   47TMC2    C8  727   4.281   3.572   9.050  0.5678 -0.7199 -0.2165
   47TMC2    O1  728   3.847   3.543   9.297 -0.7139 -0.6301 -0.3104
   47TMC2    O2  729   4.204   3.601   8.956  0.2576  0.0635 -0.0019
   47TMC2    O5  730   4.393   3.495   9.028 -0.3144  0.1842 -0.3991
   47TMC2    H5  731   4.431   3.455   9.110  1.1298  0.4009 -0.9640
   48MPD2     C  732   4.646   3.700   9.662  0.5242 -0.0673 -0.8708
   48MPD2    C1  733   4.650   3.646   9.538 -0.0876  0.5828 -0.4288
   48MPD2    C2  734   0.049   3.615   9.486 -0.2806  0.0870  0.1080
   48MPD2    C3  735   0.170   3.634   9.552  0.3731 -0.2625  0.1299
   48MPD2    C4  736   0.166   3.682   9.684  0.4474 -0.3325 -0.7500
   48MPD2    C5  737   0.039   3.719   9.727  0.0258 -0.2460  0.4254
   48MPD2     H  738   0.048   3.576   9.385  1.7903 -2.4059  1.0312
   48MPD2    H1  739   0.250   3.695   9.752  0.4950  1.7516 -1.2094
   48MPD2    H2  740   4.549   3.718   9.708  1.5969  1.6392  0.7598
   48MPD2    H3  741   0.026   3.767   9.823 -0.3755 -0.7764  0.6398
   48MPD2     N  742   0.285   3.583   9.487  0.1964 -0.1893 -0.8472
   48MPD2    H5  743   0.270   3.524   9.407  0.4689 -3.1616  1.3021
   48MPD2    N1  744   4.534   3.617   9.461  0.0950 -0.7092 -0.0093
   48MPD2    H7  745   4.554   3.587   9.366  0.1095  0.0033 -0.2372
   49MPD2     C  746   3.026   1.066  10.169 -0.4571  0.8651 -0.1980
   49MPD2    C1  747   2.918   1.006  10.105 -0.1965 -0.3622  0.4362
   49MPD2    C2  748   2.830   0.952  10.190  0.6704  0.3603 -0.2345
   49MPD2    C3  749   2.846   0.950  10.330  0.2150  0.2612  0.0823
   49MPD2    C4  750   2.950   1.023  10.382 -0.3859  0.1486 -0.3937
   49MPD2    C5  751   3.041   1.080  10.305 -0.1846 -0.4904  0.1431
   49MPD2     H  752   2.745   0.902  10.144  0.0688  0.7401  0.4607
   49MPD2    H1  753   2.961   1.026  10.490  1.6000 -2.6336 -0.5356
   49MPD2    H2  754   3.114   1.109  10.124  0.5636  0.7989  1.7516
   49MPD2    H3  755   3.124   1.140  10.338  1.0350 -1.4643 -1.1833
   49MPD2     N  756   2.754   0.887  10.425 -0.0509  0.3256  0.0936
   49MPD2    H5  757   2.782   0.894  10.523  3.5111  2.4259 -1.0846
   49MPD2    N1  758   2.906   0.994   9.965  0.8279  0.0920 -0.1405
   49MPD2    H7  759   2.835   0.928   9.934 -0.4657  1.0302  0.8393
   50TCq2    C1  760   2.983   1.061   9.872  0.1751 -0.1809  0.4360
   50TCq2    O2  761   3.093   1.119   9.881 -0.0553 -0.0885  0.5344
   50TCq2    C2  762   2.934   1.034   9.744  0.1078 -0.1773  0.4982
   50TCq2    C3  763   3.022   1.018   9.643 -0.1569  0.1183 -0.1037
   50TCq2    C4  764   2.983   0.974   9.517 -0.7694 -0.0139 -0.7422
   50TCq2    C5  765   2.854   0.935   9.500 -1.0749 -0.5982 -0.1259
   50TCq2    C6  766   2.768   0.960   9.600  0.0202 -0.0921 -0.5687
   50TCq2    C7  767   2.799   1.012   9.721  0.1249  0.5391 -0.0292
   50TCq2    C8  768   2.624   0.931   9.568 -0.5277  0.4084  0.2057
   50TCq2    O4  769   2.603   0.843   9.488  0.4632  0.5549  0.3584
   50TCq2    C9  770   3.080   0.966   9.410 -0.3328  0.3987  0.3473
   50TCq2    O5  771   3.196   0.986   9.436  0.7303 -0.1173  0.2107
   50TCq2    O6  772   3.052   0.912   9.299  0.4457  0.1669 -0.6194
   50TCq2    H2  773   3.126   1.043   9.656 -0.1587 -0.6038  1.2950
   50TCq2    H3  774   2.817   0.906   9.402  0.7962  0.0245 -1.0265
   50TCq2    H4  775   2.730   1.037   9.802  0.8013  1.4025  0.2816
   51MPD2     C  776   4.708   3.217   1.224 -0.5309 -0.6258  0.2951
   51MPD2    C1  777   4.666   3.330   1.159  0.3604  0.8453  0.1268
   51MPD2    C2  778   4.652   3.451   1.232 -0.1356  0.3225  0.1789
   51MPD2    C3  779   4.683   3.454   1.364  0.3543  1.1085 -0.6461
   51MPD2    C4  780   0.006   3.334   1.425 -0.4187 -0.2097  0.3738
   51MPD2    C5  781   0.006   3.211   1.361 -0.0604 -0.4232  0.5758
   51MPD2     H  782   4.633   3.545   1.182 -1.7553 -0.4543 -0.6538
   51MPD2    H1  783   0.022   3.338   1.532  0.0495 -1.8783  0.3630
   51MPD2    H2  784   4.713   3.121   1.175 -1.7350  0.2962 -1.6643
   51MPD2    H3  785   0.040   3.120   1.407  0.4312  1.0091  3.0466
   51MPD2     N  786   4.686   3.575   1.442  0.0763  0.4627 -0.1347
   51MPD2    H5  787   4.705   3.568   1.542 -0.0681  0.2852 -0.1194
   51MPD2    N1  788   4.649   3.334   1.022  0.1698  0.3596  0.1014
   51MPD2    H7  789   4.621   3.422   0.980 -1.4968 -0.5946 -0.7953
   52TCq2    C1  790   4.656   3.706   1.401  0.8859 -0.6544  0.3258
   52TCq2    O2  791   4.637   3.745   1.282  0.0171 -0.1081  0.2942
   52TCq2    C2  792   4.703   3.809   1.496 -0.3957  0.1939 -0.6588
   52TCq2    C3  793   0.085   3.792   1.570  1.2224  0.1880 -0.0630
   52TCq2    C4  794   0.130   3.900   1.634 -0.6477  0.1427  0.2773
   52TCq2    C5  795   0.077   4.027   1.624 -0.0235  0.0712  0.3766
   52TCq2    C6  796   4.697   4.034   1.541 -0.9115 -0.0664  0.0229
   52TCq2    C7  797   4.646   3.926   1.482 -0.6146 -1.0980  1.1939
   52TCq2    C8  798   4.633   4.164   1.518 -0.1914  0.3535 -0.4450
   52TCq2    O4  799   4.545   4.155   1.433  0.5541 -0.4033 -0.1555
   52TCq2    C9  800   0.247   3.886   1.714 -0.0600 -0.3998  0.0093
   52TCq2    O5  801   0.299   3.770   1.719  1.0856  0.1692 -0.3871
   52TCq2    O6  802   0.279   3.982   1.781  0.2543 -0.5375 -0.0711
   52TCq2    H2  803   0.138   3.699   1.584 -0.2356 -0.4671  1.1351
   52TCq2    H3  804   0.107   4.107   1.691  0.5112  0.1995 -0.0094
   52TCq2    H4  805   4.548   3.925   1.437 -0.4418  0.5324  0.7684
   53TMC2    C1  806   2.904   3.221  11.538 -0.2579 -0.8238  0.2708
   53TMC2    C2  807   3.036   3.205  11.559  0.1185 -0.1710  0.6351
   53TMC2    C3  808   3.092   3.264  11.664 -0.6345  0.2908 -0.3368
   53TMC2    C4  809   2.833   3.307  11.612  0.1004  0.3684  0.3747
   53TMC2    C5  810   2.888   3.364  11.720  0.3739 -0.2893 -0.8975
   53TMC2    C6  811   3.020   3.355  11.742  0.1835 -1.5756 -0.0509
   53TMC2     C  812   2.845   3.116  11.461  0.3567  0.4836  0.0653
   53TMC2     O  813   2.910   3.092  11.366 -0.3250  0.1195 -0.0781
   53TMC2     H  814   3.091   3.130  11.502  0.9125 -0.9403  2.4053
   53TMC2    H1  815   2.727   3.320  11.589 -0.3346 -2.0091  0.9940
   53TMC2    H2  816   3.076   3.398  11.824 -0.2217 -0.9890 -0.0884
   53TMC2    C7  817   2.796   3.387  11.837  0.8585  0.1052 -0.1995
   53TMC2    C8  818   3.202   3.194  11.724  0.7131 -0.0753 -0.1406
   53TMC2    O1  819   2.684   3.445  11.832  0.0489 -0.4302  0.7388
   53TMC2    O2  820   3.245   3.253  11.817 -0.4284 -0.0969 -0.1442
   53TMC2    O5  821   3.150   3.070  11.741  0.5217  0.2314 -0.2330
   53TMC2    H5  822   3.132   3.023  11.657 -3.3234 -0.3041  0.8730
   54MPD2     C  823   2.681   2.891  11.358  0.3213 -0.0654  0.1379
   54MPD2    C1  824   2.650   2.963  11.468 -0.4209 -0.3649 -0.6424
   54MPD2    C2  825   2.541   2.922  11.543 -0.0372  0.3387  0.1547
   54MPD2    C3  826   2.477   2.809  11.501 -0.7339 -0.3364  0.0146
   54MPD2    C4  827   2.515   2.745  11.389 -0.5825  0.0131  0.2115
   54MPD2    C5  828   2.616   2.786  11.310  0.0580  1.3420 -0.8604
   54MPD2     H  829   2.514   2.968  11.637  1.2583  1.3621  0.0273
   54MPD2    H1  830   2.474   2.650  11.356  1.6400 -0.4790 -1.1668
   54MPD2    H2  831   2.762   2.923  11.294 -0.9611  1.2966 -0.8029
   54MPD2    H3  832   2.643   2.745  11.214 -2.8364  0.0164 -1.0992
   54MPD2     N  833   2.371   2.748  11.577  0.4947  0.3800 -0.6523
   54MPD2    H5  834   2.338   2.656  11.550 -0.2856  0.7942 -1.1352
   54MPD2    N1  835   2.724   3.075  11.519  0.3854  0.1940 -0.3814
   54MPD2    H7  836   2.682   3.118  11.600 -0.4454 -2.3770  0.5768
   55MPD2     C  837   3.741   0.293   0.780 -0.1796 -0.0836  0.0445
   55MPD2    C1  838   3.791   0.418   0.775 -0.0636  0.8420 -0.0433
   55MPD2    C2  839   3.788   0.491   0.657  0.4442 -0.2657  0.3054
   55MPD2    C3  840   3.738   0.428   0.544  0.4272 -0.5257  0.1374
   55MPD2    C4  841   3.702   0.291   0.552  0.3121  0.5766 -0.5852
   55MPD2    C5  842   3.703   0.222   0.673 -0.0234 -0.4656 -0.2734
   55MPD2     H  843   3.827   0.593   0.658 -2.0026  0.6789 -0.3151
   55MPD2    H1  844   3.690   0.230   0.463 -1.0682  0.5673 -0.3907
   55MPD2    H2  845   3.745   0.244   0.876  0.6789  0.1272  0.1201
   55MPD2    H3  846   3.667   0.120   0.678 -1.6064  0.0995 -0.3830
   55MPD2     N  847   3.735   0.508   0.423  0.4294 -0.4505 -0.3482
   55MPD2    H5  848   3.770   0.602   0.435  2.4322 -1.1175 -0.9087
   55MPD2    N1  849   3.852   0.466   0.893  0.0406  0.3706  0.3501
   55MPD2    H7  850   3.850   0.403   0.973 -0.7659  1.2628  1.0376
   56TCq2    C1  851   3.915   0.582   0.922  1.1702  0.6414 -0.0197
   56TCq2    O2  852   3.928   0.683   0.854 -0.0043 -0.1530 -0.1591
   56TCq2    C2  853   3.946   0.599   1.068 -1.0100  0.4173 -0.2813
   56TCq2    C3  854   3.919   0.499   1.159  0.3575  0.1733  0.6063
   56TCq2    C4  855   3.931   0.523   1.292 -0.3802  0.7530  0.4615
   56TCq2    C5  856   3.982   0.642   1.329 -0.1307 -0.5735  0.2101
   56TCq2    C6  857   3.995   0.742   1.239 -0.5521 -0.2511  0.1003
   56TCq2    C7  858   3.964   0.723   1.107 -0.1212 -0.3745 -0.2897
   56TCq2    C8  859   4.031   0.869   1.294 -0.0226 -0.0523  0.2379
   56TCq2    O4  860   4.089   0.871   1.402 -0.1187  0.1624 -0.1575
   56TCq2    C9  861   3.902   0.418   1.382 -0.1342  0.3225 -0.3887
   56TCq2    O5  862   3.872   0.309   1.325 -0.5011  0.0431 -0.5429
   56TCq2    O6  863   3.975   0.427   1.482 -0.3550  0.4746 -0.2786
   56TCq2    H2  864   3.869   0.407   1.131 -0.0013  0.9078 -1.1352
   56TCq2    H3  865   4.001   0.654   1.435 -1.6041  3.2531  0.0343
   56TCq2    H4  866   4.011   0.789   1.034  0.1780 -3.3321 -2.7744
   57TMC2    C1  867   3.183   1.631  13.783 -0.8115 -0.0063 -0.1642
   57TMC2    C2  868   3.229   1.658  13.914  0.1377  0.4757  0.4765
   57TMC2    C3  869   3.329   1.582  13.964  0.4578  0.5071 -0.3484
   57TMC2    C4  870   3.249   1.541  13.702  0.4280  0.4022 -0.3847
   57TMC2    C5  871   3.339   1.460  13.766  0.0720 -0.0985  0.1864
   57TMC2    C6  872   3.382   1.481  13.894  0.0446  0.1893 -0.0125
   57TMC2     C  873   3.049   1.673  13.752  0.6257 -0.3700 -0.1935
   57TMC2     O  874   2.991   1.746  13.836  0.0388 -0.3794 -0.1303
   57TMC2     H  875   3.196   1.741  13.975  2.0854  0.2542  1.8142
   57TMC2    H1  876   3.217   1.527  13.600 -0.3035  0.5022 -0.1720
   57TMC2    H2  877   3.464   1.426  13.938 -0.5159  0.1052  0.9442
   57TMC2    C7  878   3.406   1.358  13.690  0.4773  0.6648 -1.3047
   57TMC2    C8  879   3.371   1.588  14.093  1.1870 -0.4165 -0.4467
   57TMC2    O1  880   3.504   1.314  13.750 -0.1593  0.4620  0.1723
   57TMC2    O2  881   3.389   1.694  14.157 -0.2113 -0.5476  0.4057
   57TMC2    O5  882   3.328   1.471  14.146 -0.5812 -0.3259 -0.2754
   57TMC2    H5  883   3.295   1.409  14.078 -1.2172  0.4854 -0.6904
   58MPD2     C  884   2.608   1.664  13.484 -0.5760  0.2891 -0.4582
   58MPD2    C1  885   2.630   1.671  13.620 -0.4063  0.6926 -0.4203
   58MPD2    C2  886   2.759   1.666  13.665 -0.2598  0.2942  0.0183
   58MPD2    C3  887   2.866   1.644  13.577 -0.0497  0.2992 -0.1727
   58MPD2    C4  888   2.837   1.634  13.443  0.1980  0.5067  0.5132
   58MPD2    C5  889   2.713   1.644  13.396 -0.0069 -0.0250  0.4552
   58MPD2     H  890   2.778   1.668  13.772  1.8785  3.0950 -0.4088
   58MPD2    H1  891   2.907   1.614  13.362  0.8771  1.0356  0.9654
   58MPD2    H2  892   2.511   1.679  13.439 -0.7794  0.0557 -0.1014
   58MPD2    H3  893   2.694   1.645  13.289 -0.5901 -3.7965  0.5383
   58MPD2     N  894   2.999   1.631  13.630 -0.3076  0.2701 -0.0415
   58MPD2    H5  895   3.063   1.593  13.562  1.2652  1.2197  0.9220
   58MPD2    N1  896   2.529   1.700  13.710 -0.4945 -1.2694 -0.8547
   58MPD2    H7  897   2.553   1.719  13.806  1.5236 -2.1646 -1.1819
   59MPD2     C  898   0.245   1.986  12.927 -0.2358 -0.2297  0.9062
   59MPD2    C1  899   0.354   1.992  12.845 -0.2538  0.0812 -0.1409
   59MPD2    C2  900   0.470   2.049  12.891 -0.5806  0.2068 -0.1083
   59MPD2    C3  901   0.473   2.103  13.022  0.0179 -0.4166 -0.5555
   59MPD2    C4  902   0.365   2.091  13.104 -0.3644 -0.2472  1.2754
   59MPD2    C5  903   0.250   2.027  13.058 -0.1110 -0.0038 -0.3091
   59MPD2     H  904   0.557   2.062  12.828  0.2176 -3.3194  0.2704
   59MPD2    H1  905   0.370   2.130  13.206  0.7042 -0.0962  1.1645
   59MPD2    H2  906   0.154   1.935  12.897  0.1058 -0.1781 -0.1886
   59MPD2    H3  907   0.166   2.007  13.124  1.6116  0.8373  2.1467
   59MPD2     N  908   0.592   2.156  13.079 -0.0641  0.0329 -0.6991
   59MPD2    H5  909   0.583   2.190  13.175  1.0203  0.4397 -0.7342
   59MPD2    N1  910   0.351   1.946  12.708 -0.0051  0.1166 -0.4943
   59MPD2    H7  911   0.436   1.958  12.654  0.7402 -1.1427  0.4224
   60TCq2    C1  912   0.245   1.886  12.648 -0.5099  0.0438 -0.1633
   60TCq2    O2  913   0.148   1.833  12.693 -0.0818  0.2495  0.5056
   60TCq2    C2  914   0.261   1.871  12.502  0.4602 -0.1242  0.5129
   60TCq2    C3  915   0.169   1.798  12.428  0.2145 -0.7179  0.4434
   60TCq2    C4  916   0.182   1.783  12.296 -0.0414 -1.1231 -0.4343
   60TCq2    C5  917   0.291   1.835  12.232 -0.2488  0.0688 -0.4633
   60TCq2    C6  918   0.374   1.915  12.303 -0.0617 -0.6311 -0.7503
   60TCq2    C7  919   0.363   1.935  12.435  0.5737 -0.1415  0.2177
   60TCq2    C8  920   0.479   1.984  12.228  1.0677 -0.6353  0.4663
   60TCq2    O4  921   0.536   1.927  12.133  0.4505 -0.0962 -0.7885
   60TCq2    C9  922   0.083   1.708  12.222  0.3609  1.1445  0.1403
   60TCq2    O5  923   4.724   1.644  12.293 -0.2738  0.5938 -0.0269
   60TCq2    O6  924   0.108   1.686  12.100  0.1646  0.1494  0.0342
   60TCq2    H2  925   0.086   1.749  12.478 -0.7642 -0.2769 -0.7647
   60TCq2    H3  926   0.315   1.828  12.127 -2.3347  0.1385 -0.9456
   60TCq2    H4  927   0.436   1.997  12.485 -1.9152  1.5622  1.6956
   61MPD2     C  928   0.175   3.016  14.396 -1.4738  0.4664 -0.3365
   61MPD2    C1  929   0.197   3.093  14.509 -0.1840  0.5770 -0.1032
   61MPD2    C2  930   0.150   3.218  14.514 -0.2804  0.3672  0.1062
   61MPD2    C3  931   0.077   3.269  14.407 -0.2874 -0.0863  0.3310
   61MPD2    C4  932   0.047   3.193  14.297 -0.0107  0.1792  0.0823
   61MPD2    C5  933   0.101   3.065  14.293  0.0614 -0.4912  0.1840
   61MPD2     H  934   0.174   3.281  14.599  2.3545  0.1574 -0.4755
   61MPD2    H1  935   4.712   3.222  14.212 -0.1758  0.7828  0.4054
   61MPD2    H2  936   0.208   2.913  14.392 -0.0398  0.8407  1.3391
   61MPD2    H3  937   0.080   2.997  14.211  2.4654 -0.6104 -0.3375
   61MPD2     N  938   0.029   3.392  14.427  0.5514  0.1426  0.5716
   61MPD2    H5  939   0.059   3.446  14.508  0.0723 -0.3738  1.0956
   61MPD2    N1  940   0.251   3.053  14.635  0.2376  0.5443  0.2240
   61MPD2    H7  941   0.275   3.121  14.707  0.7662 -0.0643  0.6184
   62TCq2    C1  942   0.258   2.922  14.669  0.1015 -0.1339 -0.1084
   62TCq2    O2  943   0.266   2.825  14.598  0.1904 -0.5807 -0.1028
   62TCq2    C2  944   0.304   2.913  14.809 -0.0544 -0.3469  0.2217
   62TCq2    C3  945   0.437   2.874  14.833 -0.7388 -1.2201 -0.0176
   62TCq2    C4  946   0.511   2.945  14.923 -0.6392  0.3489 -0.3407
   62TCq2    C5  947   0.460   3.053  14.988 -0.2179 -0.0330 -0.0152
   62TCq2    C6  948   0.327   3.086  14.969  0.7388 -0.1113  0.1339
   62TCq2    C7  949   0.245   3.014  14.887  0.6022 -0.4252  0.4982
   62TCq2    C8  950   0.278   3.210  15.030  0.1772  0.7610  0.0821
   62TCq2    O4  951   0.357   3.303  15.040  0.0054 -0.2541 -0.2217
   62TCq2    C9  952   0.658   2.918  14.923 -0.1458 -0.1510 -1.1512
   62TCq2    O5  953   0.728   3.003  14.988  0.3097  0.0308 -0.3712
   62TCq2    O6  954   0.703   2.811  14.879 -0.0031 -0.3513  0.5446
   62TCq2    H2  955   0.483   2.792  14.780 -0.3319  0.4116 -2.2051
   62TCq2    H3  956   0.523   3.104  15.059 -2.0414 -0.1499  1.6947
   62TCq2    H4  957   0.137   3.025  14.884  0.7708  1.2172  0.2728
   63TMC2    C1  958   4.494   3.724  10.754  0.2033  0.3948  0.5859
   63TMC2    C2  959   4.603   3.666  10.819 -0.0719 -0.2653  0.3051
   63TMC2    C3  960   4.719   3.660  10.748 -0.2460  0.0917 -0.4226
   63TMC2    C4  961   4.502   3.763  10.620  0.2687  0.4221  0.1577
   63TMC2    C5  962   4.625   3.789  10.564 -0.3031 -0.2941 -0.0769
   63TMC2    C6  963   0.004   3.722  10.622 -0.0558  0.2797  0.0680
   63TMC2     C  964   4.369   3.679  10.808 -0.3289  0.4309  0.1250
   63TMC2     O  965   4.340   3.702  10.925 -0.4100 -0.4197  0.2736
   63TMC2     H  966   4.592   3.619  10.916  2.0621 -1.2238  0.0838
   63TMC2    H1  967   4.413   3.800  10.570  1.6081  0.6422 -2.0689
   63TMC2    H2  968   0.096   3.709  10.567  0.4712  0.2335  0.9651
   63TMC2    C7  969   4.631   3.883  10.444 -0.0494  0.1402  0.1911
   63TMC2    C8  970   0.114   3.611  10.820 -0.4855  0.6727  0.5497
   63TMC2    O1  971   4.546   3.971  10.434  0.1820  0.2614 -0.6417
   63TMC2    O2  972   0.205   3.549  10.767  0.1273 -0.0418  0.4845
   63TMC2    O5  973   0.113   3.677  10.937 -0.1717  0.3605 -0.5854
   63TMC2    H5  974   0.044   3.743  10.958 -1.1364 -1.4900  2.0360
   64MPD2     C  975   3.915   3.436  10.782 -0.0980 -0.5909 -0.2678
   64MPD2    C1  976   4.001   3.391  10.684 -0.2065  0.6047 -0.0204
   64MPD2    C2  977   4.116   3.471  10.665  0.4434 -0.2277  0.8857
   64MPD2    C3  978   4.157   3.570  10.749 -0.3044 -0.1070 -0.0874
   64MPD2    C4  979   4.076   3.599  10.854 -0.7231  0.8664 -0.0193
   64MPD2    C5  980   3.957   3.540  10.861 -0.4586  0.0454  1.1292
   64MPD2     H  981   4.178   3.458  10.578 -0.0032  0.7219  0.4189
   64MPD2    H1  982   4.103   3.686  10.913  0.6600  1.6470 -1.8199
   64MPD2    H2  983   3.818   3.393  10.806 -0.0291 -0.0117  1.0611
   64MPD2    H3  984   3.887   3.583  10.932 -0.9675  0.3944  0.4167
   64MPD2     N  985   4.289   3.622  10.721 -0.0242 -0.3566 -0.1118
   64MPD2    H5  986   4.325   3.608  10.627  1.5795  1.3337  0.2435
   64MPD2    N1  987   3.973   3.283  10.596 -0.3684  0.0817 -0.2649
   64MPD2    H7  988   4.050   3.267  10.532  0.8296 -1.4005  1.5489
   65MPD2     C  989   1.032   2.744  15.635  0.1910  0.3818  0.3336
   65MPD2    C1  990   0.985   2.768  15.507  0.6457 -0.3937 -0.1414
   65MPD2    C2  991   0.905   2.672  15.456  0.0007  0.3845  0.0621
   65MPD2    C3  992   0.867   2.558  15.524 -0.3244  0.2190  0.5300
   65MPD2    C4  993   0.893   2.558  15.659 -0.0580  0.1985  0.4464
   65MPD2    C5  994   0.981   2.645  15.711  0.2151 -0.2463 -0.5306
   65MPD2     H  995   0.849   2.682  15.363 -2.3695 -1.6147  1.2702
   65MPD2    H1  996   0.857   2.473  15.715  0.9570  0.0258  0.8353
   65MPD2    H2  997   1.104   2.806  15.687  0.8697  0.4433 -0.6799
   65MPD2    H3  998   1.019   2.629  15.811  1.9321  0.0038 -1.1467
   65MPD2     N  999   0.786   2.457  15.477  0.2000 -0.0205 -0.0306
   65MPD2    H5 1000   0.765   2.386  15.546  0.7064 -0.9717 -0.8365
   65MPD2    N1 1001   1.018   2.878  15.424 -0.0988  0.3200 -0.5574
   65MPD2    H7 1002   0.986   2.871  15.327 -3.4557 -0.4224  0.6089
   66TCq2    C1 1003   1.097   2.986  15.452 -0.4310 -0.1349 -0.4763
   66TCq2    O2 1004   1.144   3.006  15.569 -1.1544 -0.3608 -0.2591
   66TCq2    C2 1005   1.113   3.085  15.351  0.1489  1.0085 -0.1988
   66TCq2    C3 1006   1.079   3.051  15.217  0.7579  0.7227  0.2821
   66TCq2    C4 1007   1.061   3.156  15.129 -0.3172  0.0526  0.0042
   66TCq2    C5 1008   1.080   3.287  15.165 -0.9606 -0.5965  0.0951
   66TCq2    C6 1009   1.114   3.312  15.294  0.4089  0.3132  0.8404
   66TCq2    C7 1010   1.124   3.214  15.388  0.1900 -0.0248 -0.5151
   66TCq2    C8 1011   1.147   3.447  15.330  0.3724 -0.2749  0.9629
   66TCq2    O4 1012   1.216   3.509  15.250 -0.2903 -0.1885  0.0264
   66TCq2    C9 1013   1.027   3.122  14.996 -0.0490 -0.0543 -0.2199
   66TCq2    O5 1014   1.043   3.001  14.966  0.7950  0.0709  0.1550
   66TCq2    O6 1015   0.988   3.218  14.924  0.0035  0.1948  0.0378
   66TCq2    H2 1016   1.079   2.950  15.179  1.3414  0.6462  0.4862
   66TCq2    H3 1017   1.060   3.368  15.097 -0.4702  0.3889  1.1191
   66TCq2    H4 1018   1.145   3.238  15.492 -0.0844 -1.0744 -0.2156
   67MPD2     C 1019   0.384   2.038  13.732 -0.1999 -0.5230 -0.2030
   67MPD2    C1 1020   0.332   2.081  13.847 -0.2463  0.0856  0.4078
   67MPD2    C2 1021   0.208   2.145  13.837  0.2426 -0.4070  0.3751
   67MPD2    C3 1022   0.134   2.151  13.722 -0.6488 -0.1383 -0.2327
   67MPD2    C4 1023   0.196   2.102  13.606  0.0416 -0.1984 -0.9422
   67MPD2    C5 1024   0.319   2.043  13.615  0.0890 -0.4127 -0.0312
   67MPD2     H 1025   0.182   2.198  13.928  0.5745  0.0687  0.1898
   67MPD2    H1 1026   0.156   2.107  13.505 -1.7791 -1.8876 -0.3046
   67MPD2    H2 1027   0.478   1.983  13.729  0.3993  0.4560  0.7665
   67MPD2    H3 1028   0.359   2.010  13.520 -0.4594 -0.5011 -0.2343
   67MPD2     N 1029   0.009   2.222  13.714 -0.1738 -0.2548  0.8658
   67MPD2    H5 1030   4.683   2.234  13.628  1.0114 -2.5732 -0.1504
   67MPD2    N1 1031   0.395   2.076  13.975  0.5810  0.7916 -0.0230
   67MPD2    H7 1032   0.349   2.129  14.048 -0.6548  1.1754 -1.0669
   68TCq2    C1 1033   0.527   2.051  13.997 -0.2438  0.2182 -0.0309
   68TCq2    O2 1034   0.610   1.985  13.940  0.0228 -0.7393  0.7785
   68TCq2    C2 1035   0.568   2.083  14.135  0.3641  0.0240  0.0364
   68TCq2    C3 1036   0.475   2.116  14.228  0.1615  0.8040 -0.8637
   68TCq2    C4 1037   0.509   2.116  14.358  0.3057 -0.0897 -0.3875
   68TCq2    C5 1038   0.639   2.096  14.395 -0.1267 -1.1495 -0.5185
   68TCq2    C6 1039   0.735   2.071  14.299 -0.3696  0.1065  0.0257
   68TCq2    C7 1040   0.700   2.064  14.167  0.4588 -0.2074 -0.1582
   68TCq2    C8 1041   0.875   2.074  14.336  0.1619  0.3797 -0.0275
   68TCq2    O4 1042   0.962   2.048  14.253 -0.2296 -0.0468  0.4760
   68TCq2    C9 1043   0.404   2.122  14.463 -0.0941 -0.4064  0.0985
   68TCq2    O5 1044   0.442   2.134  14.580  0.2437  0.6460 -0.1981
   68TCq2    O6 1045   0.288   2.130  14.418  0.4290 -0.4493 -0.2367
   68TCq2    H2 1046   0.371   2.134  14.204 -0.1873 -0.2783 -0.2036
   68TCq2    H3 1047   0.659   2.079  14.500 -0.6791 -1.1108 -0.4066
   68TCq2    H4 1048   0.775   2.026  14.099  0.2841 -0.7937 -0.0221
   69TMC2    C1 1049   2.828   3.351  12.633  0.7762 -0.2784  0.7533
   69TMC2    C2 1050   2.704   3.416  12.651  1.0412  0.0832 -0.2766
   69TMC2    C3 1051   2.686   3.534  12.586 -0.5114 -0.0229 -0.0967
   69TMC2    C4 1052   2.930   3.406  12.563  0.4877 -0.3721  0.2434
   69TMC2    C5 1053   2.896   3.517  12.491 -0.5838 -0.8734 -0.2946
   69TMC2    C6 1054   2.779   3.581  12.500  0.4946 -0.1397 -0.1224
   69TMC2     C 1055   2.849   3.224  12.697 -0.3576  0.5679  0.4865
   69TMC2     O 1056   2.754   3.181  12.762  0.8093  0.3514  0.2138
   69TMC2     H 1057   2.630   3.374  12.717  0.2629  2.0660  0.0973
   69TMC2    H1 1058   3.026   3.360  12.546  1.0055  1.0883 -0.8566
   69TMC2    H2 1059   2.781   3.685  12.473  0.7112 -0.3125 -0.7770
   69TMC2    C7 1060   2.970   3.537  12.367 -0.1298  0.0574  0.0733
   69TMC2    C8 1061   2.560   3.595  12.602 -0.0597  0.0345 -0.5423
   69TMC2    O1 1062   3.080   3.484  12.365 -0.2314 -0.5733  0.1898
   69TMC2    O2 1063   2.483   3.555  12.691 -0.3997  0.3679  1.0052
   69TMC2    O5 1064   2.524   3.640  12.480 -0.1068  0.0702 -1.1198
   69TMC2    H5 1065   2.598   3.668  12.423  1.0996  1.7664  1.2561
   70MPD2     C 1066   3.153   3.017  12.698  0.5076 -0.4400  0.0100
   70MPD2    C1 1067   3.027   3.052  12.744  0.0373 -0.0491 -0.2748
   70MPD2    C2 1068   2.961   2.976  12.843  0.8212  0.8604  0.1354
   70MPD2    C3 1069   3.034   2.868  12.903 -0.0761  0.1854 -0.3628
   70MPD2    C4 1070   3.157   2.834  12.854 -0.1351  0.1257 -0.6228
   70MPD2    C5 1071   3.214   2.905  12.750 -0.3405 -0.0868 -0.2745
   70MPD2     H 1072   2.869   3.000  12.895  0.0461 -0.1465 -0.7693
   70MPD2    H1 1073   3.215   2.751  12.892 -2.0791 -0.1034  1.8670
   70MPD2    H2 1074   3.203   3.061  12.612  1.5102 -0.2490  0.6862
   70MPD2    H3 1075   3.303   2.868  12.702 -0.6248 -0.6787 -0.3423
   70MPD2     N 1076   2.993   2.794  13.014  0.6207  0.1585 -0.2611
   70MPD2    H5 1077   3.044   2.708  13.025 -1.0043 -0.7823 -0.1264
   70MPD2    N1 1078   2.970   3.167  12.677 -0.5940  0.4762 -0.3586
   70MPD2    H7 1079   3.033   3.211  12.610  0.3649 -2.6082 -1.4695
   71TMC2    C1 1080   1.428   3.646   1.214 -0.0530 -0.4396 -0.0268
   71TMC2    C2 1081   1.545   3.581   1.250 -0.1035 -0.0471  0.0340
   71TMC2    C3 1082   1.547   3.471   1.332  0.1935 -0.0232 -0.3040
   71TMC2    C4 1083   1.309   3.593   1.267 -0.3634 -0.7212  0.2016
   71TMC2    C5 1084   1.315   3.466   1.334 -0.3274 -0.3553 -0.4235
   71TMC2    C6 1085   1.430   3.407   1.370  0.3640 -0.1517 -0.1683
   71TMC2     C 1086   1.415   3.730   1.090 -0.2657 -0.1708 -0.3694
   71TMC2     O 1087   1.301   3.751   1.050  0.6036 -0.2951  0.0018
   71TMC2     H 1088   1.637   3.604   1.196  0.7426  1.0542  1.9700
   71TMC2    H1 1089   1.221   3.655   1.258  0.3771  0.4691  1.2580
   71TMC2    H2 1090   1.430   3.307   1.409  0.3182 -0.1866 -0.2571
   71TMC2    C7 1091   1.189   3.398   1.378  0.3695 -0.4859  0.6167
   71TMC2    C8 1092   1.646   3.373   1.301 -0.0107  0.1237 -0.1384
   71TMC2    O1 1093   1.194   3.319   1.470  0.7170 -0.2025  0.1301
   71TMC2    O2 1094   1.736   3.398   1.226 -0.3730  0.0694  0.1498
   71TMC2    O5 1095   1.668   3.309   1.414  0.3223 -0.3171  0.1028
   71TMC2    H5 1096   1.602   3.307   1.487 -0.8009  1.8669 -0.8223
   72MPD2     C 1097   1.535   4.077   0.732 -0.7445  0.6415 -0.0432
   72MPD2    C1 1098   1.414   4.028   0.774 -0.6075 -0.1043 -0.3194
   72MPD2    C2 1099   1.406   3.927   0.869  0.1238 -0.7165  0.2943
   72MPD2    C3 1100   1.527   3.885   0.938 -0.0913 -0.4534 -0.4078
   72MPD2    C4 1101   1.645   3.937   0.893 -0.5405  0.5062 -0.7179
   72MPD2    C5 1102   1.655   4.032   0.796  0.0497  0.3126 -0.0091
   72MPD2     H 1103   1.309   3.881   0.886  0.8212 -2.0815  0.5612
   72MPD2    H1 1104   1.732   3.906   0.949  0.2319 -0.3776 -2.4470
   72MPD2    H2 1105   1.544   4.156   0.659  1.9218  0.6958  0.3508
   72MPD2    H3 1106   1.753   4.067   0.764  0.0741 -1.4871 -1.8936
   72MPD2     N 1107   1.532   3.787   1.038 -0.5570 -0.5674  0.0933
   72MPD2    H5 1108   1.619   3.765   1.086 -0.8434 -0.3758  0.6945
   72MPD2    N1 1109   1.294   4.058   0.713  0.0224  0.3261 -0.7937
   72MPD2    H7 1110   1.216   4.017   0.763  0.2955  0.0009 -0.6408
   73TMC2    C1 1111   0.180   0.828  13.364 -0.6952 -0.2200 -0.1095
   73TMC2    C2 1112   0.296   0.764  13.320 -0.0904  0.6970  0.2604
   73TMC2    C3 1113   0.367   0.699  13.413 -0.2128 -0.4723 -0.3136
   73TMC2    C4 1114   0.141   0.823  13.492 -0.7127 -0.8161 -0.2866
   73TMC2    C5 1115   0.233   0.784  13.589  0.1449 -0.4728 -0.5905
   73TMC2    C6 1116   0.338   0.714  13.548  0.2028 -0.0306 -0.1241
   73TMC2     C 1117   0.124   0.940  13.285  0.2858  0.2771  0.2567
   73TMC2     O 1118   0.066   1.024  13.358  0.5102  0.2950 -0.0394
   73TMC2     H 1119   0.327   0.781  13.217  0.4442  0.1071  0.3277
   73TMC2    H1 1120   0.051   0.869  13.532 -2.0122 -3.4080 -0.2258
   73TMC2    H2 1121   0.384   0.664  13.632 -0.0637 -0.9100 -0.5049
   73TMC2    C7 1122   0.265   0.881  13.686 -0.1903  0.3603  0.3773
   73TMC2    C8 1123   0.507   0.656  13.387  1.1335  0.3023 -0.0969
   73TMC2    O1 1124   0.315   0.848  13.792  0.2067 -0.7630  0.6590
   73TMC2    O2 1125   0.561   0.555  13.429 -0.4808 -0.0255 -0.3786
   73TMC2    O5 1126   0.567   0.775  13.367  0.4100 -0.2895 -0.1076
   73TMC2    H5 1127   0.504   0.848  13.350 -0.1394 -0.6837  0.2272
   74MPD2     C 1128   0.134   1.273  12.904  0.0824  0.1977 -0.5327
   74MPD2    C1 1129   0.141   1.299  13.047 -0.6772 -0.6158 -0.2231
   74MPD2    C2 1130   0.153   1.186  13.126 -0.7147  0.2277 -0.1625
   74MPD2    C3 1131   0.145   1.056  13.075 -0.3082  0.0760 -0.4442
   74MPD2    C4 1132   0.128   1.041  12.934 -0.3731 -0.3772 -0.2646
   74MPD2    C5 1133   0.134   1.149  12.849 -0.0411 -0.3952 -0.4877
   74MPD2     H 1134   0.174   1.200  13.231  0.6442  2.4148 -0.7207
   74MPD2    H1 1135   0.110   0.941  12.898  4.1760 -1.1651 -0.3700
   74MPD2    H2 1136   0.126   1.357  12.836  0.2943  0.7655  0.1438
   74MPD2    H3 1137   0.130   1.148  12.741  1.4097  1.2780 -0.5500
   74MPD2     N 1138   0.158   0.943  13.152  0.3774 -0.2319  0.2466
   74MPD2    H5 1139   0.164   0.854  13.105 -1.5704  0.6990 -1.7478
   74MPD2    N1 1140   0.150   1.429  13.097 -0.0507 -0.2634  0.0649
   74MPD2    H7 1141   0.166   1.504  13.030 -0.6193 -0.0309  0.1841
   75TCq2    C1 1142   4.664   2.266  13.828  0.1576  0.2365 -0.0396
   75TCq2    O2 1143   4.696   2.259  13.948  0.0129 -0.5991 -0.1266
   75TCq2    C2 1144   4.530   2.310  13.793  0.0035  0.1228  0.8920
   75TCq2    C3 1145   4.435   2.301  13.890  0.2968 -0.2046 -0.3872
   75TCq2    C4 1146   4.313   2.364  13.879 -0.0603  0.3529  0.8152
   75TCq2    C5 1147   4.298   2.453  13.776 -0.4827  0.3628 -0.2519
   75TCq2    C6 1148   4.390   2.463  13.674 -0.5481 -0.3602 -0.3234
   75TCq2    C7 1149   4.507   2.394  13.686 -0.4318 -0.5246 -0.5121
   75TCq2    C8 1150   4.343   2.503  13.539  0.2052 -0.8399 -0.3804
   75TCq2    O4 1151   4.413   2.477  13.439  0.0587  0.7704 -0.2505
   75TCq2    C9 1152   4.199   2.337  13.969  0.5813 -0.3450  0.0187
   75TCq2    O5 1153   4.205   2.236  14.048  0.2549  0.1194  0.0914
   75TCq2    O6 1154   4.096   2.408  13.949 -0.6340 -0.2312  0.6332
   75TCq2    H2 1155   4.452   2.237  13.976 -0.4581 -0.7959 -0.6728
   75TCq2    H3 1156   4.195   2.487  13.782 -0.6378 -0.2438  0.5494
   75TCq2    H4 1157   4.581   2.407  13.608  1.0711 -0.0048  1.0016
   76MPD2     C 1158   4.115   3.353  11.988 -0.3405 -0.0273  0.5118
   76MPD2    C1 1159   4.006   3.288  11.931  0.3752 -0.0089  0.5763
   76MPD2    C2 1160   4.022   3.157  11.887 -0.6153  1.0617 -0.4001
   76MPD2    C3 1161   4.143   3.091  11.913  0.8025  0.7264 -0.0476
   76MPD2    C4 1162   4.248   3.151  11.967  1.3926 -0.2073 -0.1191
   76MPD2    C5 1163   4.236   3.285  11.993  1.1150 -0.5041  0.6699
   76MPD2     H 1164   3.943   3.112  11.827 -1.0583  3.6855 -1.7727
   76MPD2    H1 1165   4.335   3.093  11.994  1.4046 -0.4755 -0.7512
   76MPD2    H2 1166   4.106   3.460  12.006 -0.4722 -0.2103  1.5176
   76MPD2    H3 1167   4.323   3.333  12.035  1.6694  0.5692 -1.7401
   76MPD2     N 1168   4.166   2.950  11.884 -0.6435  1.4949  0.2492
   76MPD2    H5 1169   4.241   2.905  11.937  1.1964  1.5989 -2.2618
   76MPD2    N1 1170   3.885   3.345  11.901 -0.3278  0.1004 -0.2008
   76MPD2    H7 1171   3.818   3.297  11.841 -0.7844  0.2197  0.2073
   77TCq2    C1 1172   4.082   2.868  11.814  0.5395  0.4737  0.2218
   77TCq2    O2 1173   3.990   2.908  11.739  0.1749  0.2395  0.1917
   77TCq2    C2 1174   4.109   2.728  11.814  1.1392  0.0339 -0.0944
   77TCq2    C3 1175   4.010   2.653  11.756 -0.4563  0.1702 -0.0944
   77TCq2    C4 1176   4.026   2.517  11.761  0.2073 -0.0452 -0.3343
   77TCq2    C5 1177   4.138   2.458  11.817  0.7519  0.3289  0.1217
   77TCq2    C6 1178   4.236   2.536  11.860  0.6813 -0.5726  0.1791
   77TCq2    C7 1179   4.226   2.675  11.857 -0.3000  0.4208  1.0839
   77TCq2    C8 1180   4.345   2.467  11.935  0.4510  0.1629 -0.6740
   77TCq2    O4 1181   4.353   2.343  11.918  0.2050  0.5548  0.1146
   77TCq2    C9 1182   3.917   2.433  11.714 -0.1861  0.3278  0.5613
   77TCq2    O5 1183   3.927   2.308  11.732 -0.3982 -0.6275 -0.0123
   77TCq2    O6 1184   3.844   2.483  11.622  0.2035  0.0384 -0.0777
   77TCq2    H2 1185   3.916   2.683  11.710 -0.1322  1.6254  0.1951
   77TCq2    H3 1186   4.145   2.350  11.818  1.0338  0.3515  0.4374
   77TCq2    H4 1187   4.313   2.733  11.886  1.6606 -1.5409 -0.7908
   78MPD1     C 1188   4.395   1.851   1.225  0.1987  0.8387 -0.3388
   78MPD1    C1 1189   4.361   1.961   1.296  0.1831  0.0481 -0.9406
   78MPD1    C2 1190   4.278   1.941   1.401  0.3543 -0.6131 -0.1081
   78MPD1    C3 1191   4.215   1.822   1.430 -0.2795 -0.8352 -0.6162
   78MPD1    C4 1192   4.249   1.712   1.357 -0.3497 -0.3005  0.8716
   78MPD1    C5 1193   4.338   1.736   1.258 -0.4986 -0.4447  0.6133
   78MPD1     H 1194   4.252   2.032   1.454 -0.3624  0.3840 -2.1744
   78MPD1    H1 1195   4.194   1.620   1.367 -0.6334 -0.3638 -1.2635
   78MPD1    H2 1196   4.460   1.852   1.139  0.0845  1.2310 -0.4179
   78MPD1    H3 1197   4.366   1.647   1.203 -1.2545 -0.8492  0.8905
   78MPD1     N 1198   4.113   1.810   1.523  0.8417 -0.3063  0.0342
   78MPD1    H5 1199   4.076   1.718   1.539 -0.5792  0.1867 -0.4649
   78MPD1    N1 1200   4.428   2.078   1.280 -0.0759  0.6303  0.3672
   78MPD1    H6 1201   4.453   2.095   1.183 -0.4005 -2.4749 -0.2785
   78MPD1    H7 1202   4.378   2.160   1.312 -0.6615  0.1121  0.7858
   79TCq2    C1 1203   4.063   1.914   1.598  0.1657 -0.6473 -0.1003
   79TCq2    O2 1204   4.077   2.030   1.579 -0.5478 -0.2216 -0.4842
   79TCq2    C2 1205   3.962   1.876   1.691 -0.1685 -0.5936 -0.4217
   79TCq2    C3 1206   3.946   1.746   1.740  0.6346  0.0387 -0.0719
   79TCq2    C4 1207   3.825   1.709   1.787 -0.2535 -0.1074 -0.5361
   79TCq2    C5 1208   3.726   1.801   1.796  0.1711 -0.1708 -0.4309
   79TCq2    C6 1209   3.737   1.929   1.761  0.1348  0.3192 -0.9164
   79TCq2    C7 1210   3.859   1.972   1.720  0.2753 -0.5374 -0.4042
   79TCq2    C8 1211   3.628   2.021   1.793  0.3936 -0.0410 -0.0863
   79TCq2    O4 1212   3.644   2.137   1.822  0.8055 -0.0113 -0.2594
   79TCq2    C9 1213   3.807   1.576   1.830 -0.5108 -0.7449 -0.1711
   79TCq2    O5 1214   3.904   1.502   1.801  0.0791  0.1684  0.0149
   79TCq2    O6 1215   3.696   1.534   1.870  0.0860 -0.9449  0.0415
   79TCq2    H2 1216   4.023   1.671   1.725 -0.6004 -1.7563  2.5194
   79TCq2    H3 1217   3.629   1.758   1.818  0.3919 -0.3300  0.2376
   79TCq2    H4 1218   3.861   2.066   1.666 -1.0335  0.9462  2.1138
   80MPD2     C 1219   2.907   2.854  12.304 -0.2555  0.1018 -0.0385
   80MPD2    C1 1220   2.781   2.836  12.245 -0.1070 -0.8827 -0.4025
   80MPD2    C2 1221   2.667   2.851  12.321 -0.4974 -0.0411 -0.7167
   80MPD2    C3 1222   2.676   2.880  12.458  0.1825  0.1504 -0.1342
   80MPD2    C4 1223   2.801   2.902  12.512  0.0888  0.1801 -0.2559
   80MPD2    C5 1224   2.912   2.874  12.438  0.2118  0.3210  0.0269
   80MPD2     H 1225   2.566   2.848  12.281 -1.2836  2.5031  1.0929
   80MPD2    H1 1226   2.807   2.927  12.617  2.0367  0.0956 -0.3454
   80MPD2    H2 1227   2.996   2.846  12.243  0.1657 -1.8427  0.8256
   80MPD2    H3 1228   3.003   2.875  12.497 -0.8108 -2.7248  1.6428
   80MPD2     N 1229   2.564   2.912  12.550 -0.1754 -0.0251 -0.1583
   80MPD2    H5 1230   2.601   2.942  12.640 -0.6834 -0.3046  0.1441
   80MPD2    N1 1231   2.762   2.822  12.102  0.4641  0.2065 -0.2940
   80MPD2    H7 1232   2.671   2.786  12.075 -0.0726  0.6557  0.8921
   81TCq2    C1 1233   2.863   2.838  12.008  0.7287 -0.1433 -0.4066
   81TCq2    O2 1234   2.968   2.901  12.015  0.4005 -0.0391 -0.4256
   81TCq2    C2 1235   2.831   2.784  11.874 -0.3446  0.3167  0.0389
   81TCq2    C3 1236   2.931   2.811  11.776 -0.1050 -0.2969  0.6604
   81TCq2    C4 1237   2.925   2.750  11.658 -0.5376 -0.3247 -0.0431
   81TCq2    C5 1238   2.822   2.661  11.638 -0.1986  0.3074 -0.7539
   81TCq2    C6 1239   2.718   2.645  11.730 -0.4094  0.3351  0.6508
   81TCq2    C7 1240   2.729   2.693  11.858  0.2128 -0.1064 -0.1578
   81TCq2    C8 1241   2.634   2.528  11.693 -0.3654  0.4162 -0.3548
   81TCq2    O4 1242   2.628   2.497  11.577  0.0382 -0.6066 -0.5201
   81TCq2    C9 1243   3.018   2.779  11.549  0.2909 -1.1074 -0.5521
   81TCq2    O5 1244   3.024   2.687  11.464 -0.1042  0.2216  0.0230
   81TCq2    O6 1245   3.099   2.876  11.556  0.0141  0.2080  0.5194
   81TCq2    H2 1246   3.017   2.874  11.797  1.2668 -1.9827  0.0508
   81TCq2    H3 1247   2.801   2.613  11.543 -1.1274  0.5361 -0.6695
   81TCq2    H4 1248   2.649   2.664  11.925 -0.7540  1.3538 -0.6799
   82MPD2     C 1249   1.570   2.516  10.395  0.2394  0.2479  0.1138
   82MPD2    C1 1250   1.453   2.444  10.404 -0.5697  0.5876  0.5207
   82MPD2    C2 1251   1.428   2.355  10.509  0.2470 -0.1929  0.2644
   82MPD2    C3 1252   1.524   2.345  10.608 -0.4079 -0.4279 -0.9860
   82MPD2    C4 1253   1.636   2.421  10.597  0.6726 -0.0574  0.5230
   82MPD2    C5 1254   1.659   2.504  10.493  0.4367 -0.4325 -1.2639
   82MPD2     H 1255   1.334   2.303  10.523  0.1179 -0.3459 -1.2150
   82MPD2    H1 1256   1.716   2.420  10.671 -0.5922 -0.2769  1.8769
   82MPD2    H2 1257   1.584   2.578  10.307  1.8901 -1.0093 -0.4999
   82MPD2    H3 1258   1.746   2.568  10.499  0.2225 -0.3213  0.6881
   82MPD2     N 1259   1.515   2.253  10.714 -1.0951  0.0257  0.7669
   82MPD2    H5 1260   1.597   2.240  10.773 -0.5035 -0.1549 -0.0928
   82MPD2    N1 1261   1.358   2.465  10.301  0.2410  0.3308  0.6085
   82MPD2    H7 1262   1.378   2.547  10.243 -1.4931  0.3056 -0.0193
   83TCq2    C1 1263   1.407   2.163  10.735 -0.1229  0.3682  0.1874
   83TCq2    O2 1264   1.294   2.159  10.686 -0.0561 -0.0601  0.3206
   83TCq2    C2 1265   1.447   2.054  10.821  0.2593 -0.1756  0.1640
   83TCq2    C3 1266   1.555   2.056  10.906  0.6362 -0.5932  0.4916
   83TCq2    C4 1267   1.593   1.939  10.969  0.2634  0.8731  0.4529
   83TCq2    C5 1268   1.527   1.824  10.944  0.6835 -0.0717 -0.1129
   83TCq2    C6 1269   1.412   1.833  10.880  0.1360 -0.0378 -0.0332
   83TCq2    C7 1270   1.376   1.942  10.810 -0.2764  0.6742  0.8277
   83TCq2    C8 1271   1.319   1.728  10.910 -0.0179 -0.3512 -0.1964
   83TCq2    O4 1272   1.325   1.674  11.022  0.2102  0.1985  0.0740
   83TCq2    C9 1273   1.718   1.934  11.039 -0.0178  0.1167 -0.3060
   83TCq2    O5 1274   1.782   1.824  11.036  0.4013 -1.1170  0.4863
   83TCq2    O6 1275   1.755   2.040  11.097  0.3254 -0.2025 -0.3142
   83TCq2    H2 1276   1.615   2.145  10.920  2.6809 -1.6657 -1.2800
   83TCq2    H3 1277   1.572   1.734  10.985  1.2896 -0.0696 -0.7732
   83TCq2    H4 1278   1.280   1.945  10.761  0.1044  2.1871  0.1684
   84TCq2    C1 1279   2.641   0.819  10.391  0.3720  0.0263 -0.0388
   84TCq2    O2 1280   2.593   0.787  10.285 -0.0551 -0.6231 -0.5878
   84TCq2    C2 1281   2.581   0.753  10.506  0.5118 -0.2418  0.1103
   84TCq2    C3 1282   2.543   0.624  10.479  0.0479 -0.4360  0.2165
   84TCq2    C4 1283   2.501   0.544  10.583 -0.3218 -0.1787 -0.3210
   84TCq2    C5 1284   2.498   0.586  10.711  0.1218 -0.4154  0.1901
   84TCq2    C6 1285   2.516   0.726  10.730  0.2962 -0.2084  0.7852
   84TCq2    C7 1286   2.568   0.807  10.630 -0.4132  0.3445 -0.0230
   84TCq2    C8 1287   2.489   0.790  10.861  0.3001  0.3534  0.4697
   84TCq2    O4 1288   2.482   0.914  10.859  0.6765  0.2322  0.2328
   84TCq2    C9 1289   2.455   0.416  10.550 -1.0753  0.0383  0.3144
   84TCq2    O5 1290   2.370   0.412  10.461  0.1189  0.2538  0.3030
   84TCq2    O6 1291   2.470   0.321  10.633 -0.3165  0.2090  0.1409
   84TCq2    H2 1292   2.538   0.589  10.377 -0.9869  0.9472 -0.2038
   84TCq2    H3 1293   2.441   0.532  10.785 -0.4470 -0.5121 -0.3137
   84TCq2    H4 1294   2.577   0.912  10.655  1.4981 -0.1658  1.4350
   85MPD2     C 1295   3.363   3.566  16.305  0.2274  0.2442 -0.5231
   85MPD2    C1 1296   3.261   3.620  16.236  0.0274  1.0435 -0.3596
   85MPD2    C2 1297   3.287   3.725  16.150 -0.9414  0.2261 -0.1123
   85MPD2    C3 1298   3.411   3.786  16.137  0.6895 -0.5272  0.0343
   85MPD2    C4 1299   3.511   3.729  16.221  0.0877 -0.0307  0.0734
   85MPD2    C5 1300   3.490   3.612  16.299  0.0953 -0.0615  0.1171
   85MPD2     H 1301   3.200   3.765  16.098  0.6304  2.5914 -0.9504
   85MPD2    H1 1302   3.613   3.763  16.225 -1.0179  3.1126  1.0965
   85MPD2    H2 1303   3.346   3.475  16.361 -0.3241  0.1652 -0.8193
   85MPD2    H3 1304   3.569   3.567  16.359  1.2394  0.2723 -1.1303
   85MPD2     N 1305   3.441   3.904  16.073  0.0683  0.3734  0.1290
   85MPD2    H5 1306   3.372   3.944  16.010 -1.0313 -0.9615  0.4975
   85MPD2    N1 1307   3.131   3.568  16.252  0.0339  0.1700 -0.1049
   85MPD2    H7 1308   3.062   3.605  16.187 -0.3847 -2.1695 -1.0262
   86TCq2    C1 1309   3.553   3.982  16.093  0.9932 -0.5489 -0.3828
   86TCq2    O2 1310   3.657   3.960  16.153 -0.4936  0.2551 -0.4463
   86TCq2    C2 1311   3.549   4.109  16.025  0.3684 -1.0212 -0.5981
   86TCq2    C3 1312   3.431   4.178  16.005 -0.4750 -0.1580  0.0344
   86TCq2    C4 1313   3.436   4.291  15.926  0.2316 -0.1536  0.1309
   86TCq2    C5 1314   3.546   4.339  15.864  0.1644  0.6849  0.1429
   86TCq2    C6 1315   3.664   4.273  15.893  0.1682  0.1411  0.3630
   86TCq2    C7 1316   3.665   4.153  15.970  0.4150  0.2612  0.3484
   86TCq2    C8 1317   3.778   4.297  15.810  0.4400 -0.6968 -0.0244
   86TCq2    O4 1318   3.869   4.222  15.841  0.6325 -0.3630 -0.2472
   86TCq2    C9 1319   3.314   4.357  15.904 -0.4614 -0.4415 -0.0362
   86TCq2    O5 1320   3.316   4.424  15.800 -0.1749  0.5188 -0.3067
   86TCq2    O6 1321   3.209   4.315  15.952  0.0280 -0.1180  0.1695
   86TCq2    H2 1322   3.339   4.153  16.057  0.1902 -0.2976  1.1487
   86TCq2    H3 1323   3.541   4.434  15.813 -0.6384 -0.3164 -1.6325
   86TCq2    H4 1324   3.756   4.098  15.991  0.3695  0.6860  1.6559
   87MPD2     C 1325   1.110   2.618   1.769 -0.6129  0.8901 -0.4557
   87MPD2    C1 1326   1.177   2.640   1.647 -0.0098  0.4875 -0.3807
   87MPD2    C2 1327   1.110   2.693   1.542  0.6253  1.1145 -0.1319
   87MPD2    C3 1328   0.980   2.740   1.563 -0.3555 -0.3208  0.1769
   87MPD2    C4 1329   0.918   2.719   1.685  0.1125  0.6001 -0.8456
   87MPD2    C5 1330   0.989   2.658   1.789 -0.6954 -0.0926  0.4678
   87MPD2     H 1331   1.155   2.700   1.444 -0.4300  1.4688 -0.5913
   87MPD2    H1 1332   0.820   2.760   1.708  0.6775  1.3758  0.1829
   87MPD2    H2 1333   1.161   2.565   1.850  1.5945  1.0601 -1.7266
   87MPD2    H3 1334   0.932   2.641   1.879  2.0205  1.3501  2.4639
   87MPD2     N 1335   0.908   2.802   1.463  0.0708 -0.1005 -0.0458
   87MPD2    H5 1336   0.813   2.829   1.489  1.0593  3.3314 -0.0178
   87MPD2    N1 1337   1.304   2.588   1.641  0.1688 -0.5239 -0.9015
   87MPD2    H7 1338   1.344   2.559   1.730  2.2834 -0.9104 -1.9784
   88TCq2    C1 1339   1.387   2.579   1.535 -0.7286  0.2730 -0.2955
   88TCq2    O2 1340   1.367   2.614   1.417  0.2519 -0.7051  0.0313
   88TCq2    C2 1341   1.514   2.523   1.566 -0.6263  0.1942 -0.1982
   88TCq2    C3 1342   1.566   2.531   1.691  0.3304  0.3727 -0.1669
   88TCq2    C4 1343   1.681   2.462   1.710 -0.6157 -0.5089 -0.3359
   88TCq2    C5 1344   1.745   2.395   1.614 -0.1435 -0.1918 -0.8620
   88TCq2    C6 1345   1.688   2.387   1.493  0.4285 -0.8310  0.7746
   88TCq2    C7 1346   1.567   2.448   1.466 -0.8172 -0.3035  0.8111
   88TCq2    C8 1347   1.775   2.347   1.379  0.0937 -0.3110  0.0777
   88TCq2    O4 1348   1.731   2.364   1.268  0.9312 -0.2704 -0.0677
   88TCq2    C9 1349   1.742   2.458   1.844  0.2031 -0.1058  0.1028
   88TCq2    O5 1350   1.691   2.530   1.931 -0.6142  0.2516  0.0147
   88TCq2    O6 1351   1.852   2.394   1.858  0.1362 -0.4808 -0.1111
   88TCq2    H2 1352   1.521   2.587   1.773 -0.0816  1.3119 -1.0282
   88TCq2    H3 1353   1.832   2.337   1.646 -1.1878 -0.9870  0.5533
   88TCq2    H4 1354   1.516   2.441   1.370  1.7839  1.5974 -0.7025
   89MPD2     C 1355   1.686   4.117   1.721  0.0796  0.1960  0.7878
   89MPD2    C1 1356   1.631   4.233   1.667 -0.4492 -0.3524 -0.1922
   89MPD2    C2 1357   1.709   4.308   1.580 -0.3406 -0.3727 -0.3316
   89MPD2    C3 1358   1.841   4.264   1.550 -0.8360 -0.3729  0.0125
   89MPD2    C4 1359   1.887   4.142   1.600  0.4453 -0.6106 -0.0766
   89MPD2    C5 1360   1.811   4.078   1.698 -0.6696  0.1806 -0.4008
   89MPD2     H 1361   1.686   4.410   1.552 -2.1333 -0.3522  1.2113
   89MPD2    H1 1362   1.982   4.104   1.564  1.2247  0.8623  0.4462
   89MPD2    H2 1363   1.635   4.036   1.773  1.7547 -2.5833 -1.9529
   89MPD2    H3 1364   1.838   3.983   1.744  0.3527 -0.7112 -2.8015
   89MPD2     N 1365   1.909   4.348   1.458  0.1940  0.0383 -0.4658
   89MPD2    H5 1366   1.854   4.426   1.423  2.0032  2.0460  1.0641
   89MPD2    N1 1367   1.500   4.266   1.685 -0.1787  0.0248 -0.0920
   89MPD2    H7 1368   1.465   4.344   1.630  0.1183  0.7707  0.7678
   90TCq2    C1 1369   2.032   4.314   1.397 -0.3227 -0.4566  0.2296
   90TCq2    O2 1370   2.122   4.241   1.439  0.0529 -0.4478  0.5860
   90TCq2    C2 1371   2.062   4.407   1.287  1.0999  0.0393 -0.0900
   90TCq2    C3 1372   2.197   4.416   1.253 -0.0118 -1.0171  0.5728
   90TCq2    C4 1373   2.233   4.508   1.159  0.0772  0.1703 -0.4318
   90TCq2    C5 1374   2.138   4.580   1.097  0.0908 -0.2849 -0.1152
   90TCq2    C6 1375   2.005   4.564   1.135 -0.5087  0.1923 -0.4207
   90TCq2    C7 1376   1.963   4.479   1.229 -0.7422  0.0522 -0.5201
   90TCq2    C8 1377   1.895   4.629   1.069 -0.2261  0.2773 -0.0563
   90TCq2    O4 1378   1.787   4.632   1.124  0.6452 -0.1921  0.2755
   90TCq2    C9 1379   2.375   4.529   1.117 -0.3986  0.6195 -0.1013
   90TCq2    O5 1380   2.394   4.608   1.018  0.7177  0.0939 -0.0505
   90TCq2    O6 1381   2.464   4.493   1.198 -0.1024  0.2381 -0.3187
   90TCq2    H2 1382   2.273   4.361   1.308  0.3195  0.7441  1.8895
   90TCq2    H3 1383   2.159   4.659   1.027  0.9844 -0.2082  0.2331
   90TCq2    H4 1384   1.861   4.443   1.238 -1.3791  1.8175 -0.5406
   91TMC2    C1 1385   3.418   0.359  16.588 -0.0565 -0.3691 -0.6271
   91TMC2    C2 1386   3.472   0.418  16.475  0.0873  0.3117 -0.1620
   91TMC2    C3 1387   3.389   0.463  16.376  0.0794 -0.5430 -0.3266
   91TMC2    C4 1388   3.281   0.340  16.586  0.2094 -0.2758 -0.3720
   91TMC2    C5 1389   3.198   0.389  16.493  0.2163  0.4723  0.2672
   91TMC2    C6 1390   3.255   0.458  16.386  0.3413 -0.7540  0.1597
   91TMC2     C 1391   3.489   0.303  16.694 -0.8408 -0.6945  0.4394
   91TMC2     O 1392   3.437   0.279  16.802  0.3265  0.4429 -0.2126
   91TMC2     H 1393   3.577   0.444  16.466  0.8128 -1.5633  2.8451
   91TMC2    H1 1394   3.237   0.286  16.669 -0.2832  0.4764 -0.1458
   91TMC2    H2 1395   3.191   0.523  16.327  0.4490 -0.8226 -0.0343
   91TMC2    C7 1396   3.055   0.386  16.509 -0.4479 -0.3686 -0.2732
   91TMC2    C8 1397   3.444   0.530  16.259 -0.0987 -0.4788  0.0493
   91TMC2    O1 1398   3.015   0.351  16.620  0.3601  0.5282 -0.5227
   91TMC2    O2 1399   3.560   0.564  16.249  0.4183  0.7699  0.5124
   91TMC2    O5 1400   3.351   0.550  16.168  0.2127  0.1468 -0.3609
   91TMC2    H5 1401   3.260   0.514  16.179 -0.1842  1.4450  0.5356
   92MPD2     C 1402   3.701   0.189  16.856  0.0026 -0.4382 -0.1074
   92MPD2    C1 1403   3.724   0.254  16.736 -0.7698 -0.6343 -0.0658
   92MPD2    C2 1404   3.855   0.267  16.683 -0.5061  0.0525  0.6243
   92MPD2    C3 1405   3.965   0.216  16.748  0.3808  0.0244 -0.0037
   92MPD2    C4 1406   3.941   0.150  16.865  0.1528 -0.8033 -0.6024
   92MPD2    C5 1407   3.811   0.134  16.916  0.4838  0.6379  0.5631
   92MPD2     H 1408   3.876   0.321  16.591 -1.5437 -0.0496  0.3229
   92MPD2    H1 1409   4.019   0.114  16.931 -0.1510  3.1470  1.9340
   92MPD2    H2 1410   3.603   0.170  16.900 -0.6785  0.7650 -1.0968
   92MPD2    H3 1411   3.792   0.083  17.010  0.6153 -1.1239 -0.3732
   92MPD2     N 1412   4.091   0.245  16.691  0.3401 -0.4558 -0.3649
   92MPD2    H5 1413   4.081   0.320  16.623  0.4247 -0.3050 -0.2091
   92MPD2    N1 1414   3.621   0.307  16.661 -0.6237 -0.4737  0.1861
   92MPD2    H7 1415   3.647   0.339  16.568 -1.0576 -1.2906 -0.2164
   93MPD2     C 1416   4.512   0.754  13.966  0.3621  0.0123 -0.7887
   93MPD2    C1 1417   4.542   0.666  13.858 -0.1676 -0.3971 -0.3372
   93MPD2    C2 1418   4.448   0.632  13.763 -0.3022  0.4776  0.0648
   93MPD2    C3 1419   4.323   0.679  13.779 -0.2547 -0.1530  0.0059
   93MPD2    C4 1420   4.288   0.745  13.893 -1.1491  0.2043  0.0849
   93MPD2    C5 1421   4.382   0.797  13.979 -0.2184 -0.4568  0.2484
   93MPD2     H 1422   4.479   0.573  13.678 -2.5578 -1.4099  0.5484
   93MPD2    H1 1423   4.182   0.758  13.914 -1.7245 -0.9450 -2.1127
   93MPD2    H2 1424   4.592   0.784  14.032 -0.0693 -1.5557  0.4519
   93MPD2    H3 1425   4.352   0.853  14.067  1.9001 -0.1801  0.7904
   93MPD2     N 1426   4.215   0.636  13.694  0.6192  0.3405 -0.5227
   93MPD2    H5 1427   4.121   0.662  13.723  0.1599 -1.1229 -0.7448
   93MPD2    N1 1428   4.670   0.612  13.834  0.2815 -0.0365 -0.2740
   93MPD2    H7 1429   4.688   0.546  13.760 -0.9187 -0.2217 -0.3919
   94TCq2    C1 1430   0.056   0.641  13.907  0.5948  0.0999 -0.1487
   94TCq2    O2 1431   0.085   0.724  13.992 -0.0522 -0.5959  0.4212
   94TCq2    C2 1432   0.169   0.554  13.869  0.0246  0.4532 -0.2038
   94TCq2    C3 1433   0.148   0.430  13.814 -0.9503 -0.4067  0.8394
   94TCq2    C4 1434   0.248   0.337  13.814 -0.5586  1.1540  0.2593
   94TCq2    C5 1435   0.376   0.363  13.867  0.3891 -0.5914  0.4052
   94TCq2    C6 1436   0.393   0.487  13.921 -0.6300  0.3765 -0.1034
   94TCq2    C7 1437   0.292   0.581  13.925  0.2619 -0.2405  0.1878
   94TCq2    C8 1438   0.524   0.538  13.924  0.0599 -0.2056 -0.1489
   94TCq2    O4 1439   0.612   0.453  13.939 -0.1075 -0.1011 -0.1272
   94TCq2    C9 1440   0.225   0.206  13.749 -0.6052  0.1267  0.1325
   94TCq2    O5 1441   0.332   0.141  13.728 -0.4037  0.2494  0.7631
   94TCq2    O6 1442   0.108   0.171  13.718  0.2047 -0.0688 -0.4850
   94TCq2    H2 1443   0.049   0.390  13.793  0.0980 -2.1367 -0.7433
   94TCq2    H3 1444   0.457   0.292  13.860  1.1656  0.0976  2.7226
   94TCq2    H4 1445   0.305   0.678  13.973  0.5825  0.5959 -1.5524
   95TMC2    C1 1446   0.094   2.042  16.108 -0.0176 -0.3858  0.3347
   95TMC2    C2 1447   0.122   1.926  16.176  0.3233 -0.2555 -0.9461
   95TMC2    C3 1448   0.047   1.899  16.290  0.6458 -0.3117 -0.1624
   95TMC2    C4 1449   0.020   2.143  16.157 -0.3603  0.1615  0.8602
   95TMC2    C5 1450   4.682   2.114  16.276  0.5145 -0.1789 -0.9965
   95TMC2    C6 1451   4.691   1.995  16.342  0.1513  0.2255  0.4210
   95TMC2     C 1452   0.145   2.058  15.982  0.4039 -0.0344  0.7568
   95TMC2     O 1453   0.193   2.172  15.957 -0.0837 -0.2201 -0.2350
   95TMC2     H 1454   0.191   1.849  16.141  0.2863 -0.1870 -1.1676
   95TMC2    H1 1455   0.002   2.233  16.101  0.0070 -0.1123  0.3027
   95TMC2    H2 1456   4.637   1.981  16.434 -0.2947 -3.2140 -0.3795
   95TMC2    C7 1457   4.643   2.231  16.357 -0.8182  0.3209  0.4301
   95TMC2    C8 1458   0.096   1.813  16.388 -0.1779  0.1759  0.3630
   95TMC2    O1 1459   4.664   2.213  16.474 -0.1020 -0.0660  0.0198
   95TMC2    O2 1460   0.099   1.827  16.508  0.3118 -0.3808 -0.1490
   95TMC2    O5 1461   0.115   1.690  16.330 -0.6238  0.1099 -0.2618
   95TMC2    H5 1462   0.099   1.683  16.234  0.4313  1.3350 -0.5174
   96MPD2     C 1463   0.267   1.816  15.529 -0.5690 -0.1285 -0.4457
   96MPD2    C1 1464   0.319   1.929  15.583  0.7663  0.7021  0.1905
   96MPD2    C2 1465   0.275   1.976  15.709  0.4407 -0.5587 -0.6179
   96MPD2    C3 1466   0.186   1.903  15.788  0.5432 -0.0638  0.0077
   96MPD2    C4 1467   0.151   1.781  15.738 -0.1735  0.3411 -0.1359
   96MPD2    C5 1468   0.191   1.738  15.613 -0.4532  0.4438  0.0233
   96MPD2     H 1469   0.312   2.073  15.742 -0.5638 -1.2543  2.5666
   96MPD2    H1 1470   0.081   1.720  15.794 -1.3415  1.6969 -0.1419
   96MPD2    H2 1471   0.288   1.789  15.426  1.5758  1.7339 -0.5093
   96MPD2    H3 1472   0.147   1.649  15.568 -0.0185  0.2760 -0.0658
   96MPD2     N 1473   0.132   1.940  15.916  0.1745 -0.4875  0.6113
   96MPD2    H5 1474   0.073   1.869  15.959 -2.3180  0.6810 -0.8826
   96MPD2    N1 1475   0.426   1.985  15.507 -0.1014 -0.4175 -0.6302
   96MPD2    H7 1476   0.442   1.946  15.415 -0.8426 -0.2903 -0.8112
   97MPD2     C 1477   2.764   3.591   1.278  0.0420 -0.2168  0.4654
   97MPD2    C1 1478   2.640   3.580   1.222  0.1262 -0.9024 -0.4680
   97MPD2    C2 1479   2.618   3.619   1.086  0.1820 -0.1905 -0.7570
   97MPD2    C3 1480   2.722   3.679   1.020 -0.1912 -0.4835 -0.1972
   97MPD2    C4 1481   2.848   3.698   1.076  0.0545 -0.0515  0.4361
   97MPD2    C5 1482   2.866   3.653   1.204  0.0551 -0.0939 -0.6369
   97MPD2     H 1483   2.519   3.605   1.042 -0.2077 -1.2431  0.4606
   97MPD2    H1 1484   2.928   3.756   1.031 -1.9051  1.9582 -0.4313
   97MPD2    H2 1485   2.792   3.550   1.374  0.7528 -2.7774 -0.8489
   97MPD2    H3 1486   2.955   3.676   1.261 -0.6552  2.4698 -0.5331
   97MPD2     N 1487   2.705   3.721   0.883  0.5020 -0.0264  0.5584
   97MPD2    H5 1488   2.784   3.774   0.847  2.7539 -3.0044  1.1257
   97MPD2    N1 1489   2.538   3.547   1.311  0.1296  0.2509 -0.9591
   97MPD2    H7 1490   2.558   3.532   1.410  1.3669  0.3891 -1.1925
   98TCq2    C1 1491   2.602   3.678   0.798 -0.2973  0.0593  1.0631
   98TCq2    O2 1492   2.508   3.599   0.810 -0.6551 -0.1125 -0.2262
   98TCq2    C2 1493   2.613   3.744   0.666 -0.0034  0.3891 -0.1368
   98TCq2    C3 1494   2.534   3.706   0.558 -0.1956 -0.3971  0.4018
   98TCq2    C4 1495   2.531   3.780   0.438 -0.0920  0.3727  0.1939
   98TCq2    C5 1496   2.624   3.883   0.430  0.0488  0.9168 -0.0888
   98TCq2    C6 1497   2.702   3.921   0.534 -0.0107 -0.1141 -0.2015
   98TCq2    C7 1498   2.690   3.861   0.663 -0.2296  0.4023  0.1035
   98TCq2    C8 1499   2.771   4.045   0.529  0.6027  0.0836  0.2580
   98TCq2    O4 1500   2.797   4.092   0.638 -0.2669 -0.0335 -0.3784
   98TCq2    C9 1501   2.471   3.735   0.315  0.4878 -0.9567 -0.0681
   98TCq2    O5 1502   2.421   3.623   0.310  0.0565  0.5215 -0.3986
   98TCq2    O6 1503   2.491   3.807   0.215 -0.0250 -0.0436  0.0648
   98TCq2    H2 1504   2.470   3.619   0.556 -1.7040  0.7053  0.4186
   98TCq2    H3 1505   2.633   3.933   0.334  0.7324 -1.0844 -1.0555
   98TCq2    H4 1506   2.741   3.901   0.750 -0.1338  0.3528  0.0708
   99MPD2     C 1507   1.817   1.469   1.359 -0.5322  0.6673 -0.3776
   99MPD2    C1 1508   1.725   1.461   1.457  0.3663 -0.0159 -0.5891
   99MPD2    C2 1509   1.644   1.347   1.458 -0.0408  0.3158  0.6194
   99MPD2    C3 1510   1.640   1.256   1.353 -0.7418 -0.1485  0.1245
   99MPD2    C4 1511   1.735   1.272   1.252  0.7400  0.1066  0.0612
   99MPD2    C5 1512   1.820   1.374   1.261  0.2386  0.2414 -0.0290
   99MPD2     H 1513   1.568   1.328   1.534 -3.3293 -1.4227 -3.1230
   99MPD2    H1 1514   1.750   1.194   1.178 -2.6845 -0.9629  0.4941
   99MPD2    H2 1515   1.888   1.551   1.357 -0.8835  1.0835  3.3243
   99MPD2    H3 1516   1.907   1.371   1.196  1.6947  2.8853  1.7478
   99MPD2     N 1517   1.562   1.143   1.368 -0.0963 -0.1920  0.2949
   99MPD2    H5 1518   1.510   1.135   1.455 -0.4720  1.3802  0.2001
   99MPD2    N1 1519   1.698   1.557   1.559  0.0184 -0.9241 -0.5412
   99MPD2    H7 1520   1.625   1.528   1.624 -1.7416 -1.6966 -2.8716
  100TCq2    C1 1521   1.786   1.658   1.595  0.7712  0.2944 -0.5172
  100TCq2    O2 1522   1.901   1.674   1.561  0.2389  0.3467 -0.0432
  100TCq2    C2 1523   1.750   1.719   1.720 -0.0213  1.3381  0.1729
  100TCq2    C3 1524   1.851   1.758   1.805 -0.3205  0.1621 -0.2437
  100TCq2    C4 1525   1.819   1.772   1.934 -0.4314 -0.1909  0.0087
  100TCq2    C5 1526   1.695   1.755   1.980 -0.0786 -0.6439  0.0140
  100TCq2    C6 1527   1.600   1.711   1.893  0.3136  0.2825  0.1114
  100TCq2    C7 1528   1.626   1.674   1.762  0.1769 -1.2556 -0.6644
  100TCq2    C8 1529   1.465   1.710   1.952 -0.5455 -0.5444 -1.0876
  100TCq2    O4 1530   1.448   1.774   2.057  0.0099 -0.3570  0.0328
  100TCq2    C9 1531   1.915   1.811   2.032  0.4840 -0.1948  0.4786
  100TCq2    O5 1532   2.032   1.813   1.987 -0.0998  0.5309  0.2145
  100TCq2    O6 1533   1.867   1.859   2.141 -0.1049 -0.5104 -0.5306
  100TCq2    H2 1534   1.949   1.793   1.773  0.1309 -0.3600  0.5661
  100TCq2    H3 1535   1.673   1.762   2.086  0.4362  2.1721 -0.0537
  100TCq2    H4 1536   1.544   1.673   1.692 -0.3408 -2.1247 -0.0523
  101MPD2     C 1537   1.431   2.776  12.822 -0.0077 -0.7567 -0.4577
  101MPD2    C1 1538   1.326   2.826  12.899 -0.5801  0.2831 -0.2866
  101MPD2    C2 1539   1.243   2.742  12.966 -0.0630  0.4845  0.2628
  101MPD2    C3 1540   1.252   2.605  12.932  0.3042 -0.2180  0.2645
  101MPD2    C4 1541   1.340   2.561  12.834 -0.1806  0.0732 -0.6048
  101MPD2    C5 1542   1.434   2.645  12.787 -0.4139 -0.0705  0.2625
  101MPD2     H 1543   1.169   2.781  13.034 -0.6575 -0.5591  0.2162
  101MPD2    H1 1544   1.354   2.457  12.807  2.5088 -0.2933  2.2931
  101MPD2    H2 1545   1.510   2.837  12.779 -1.8568  1.0076 -1.3211
  101MPD2    H3 1546   1.516   2.615  12.722  0.5467 -1.4299  2.1113
  101MPD2     N 1547   1.161   2.520  13.004  0.6033  0.7157  0.7354
  101MPD2    H5 1548   1.097   2.567  13.067  0.1884 -0.2388  1.0236
  101MPD2    N1 1549   1.330   2.969  12.925 -0.0168 -0.4398  0.0380
  101MPD2    H7 1550   1.402   3.028  12.884  0.4328 -1.7623 -1.1059
  102TCq2    C1 1551   1.566   3.412  12.927  0.0654 -0.2438 -0.0004
  102TCq2    O2 1552   1.589   3.507  12.860  0.7024  0.2644 -0.5435
  102TCq2    C2 1553   1.427   3.360  12.943  0.5830  0.5628 -0.1200
  102TCq2    C3 1554   1.318   3.447  12.926 -0.4792 -0.1815  0.2214
  102TCq2    C4 1555   1.197   3.400  12.944 -0.0363 -0.7013 -0.3375
  102TCq2    C5 1556   1.171   3.267  12.983 -0.2330  0.2720  0.4738
  102TCq2    C6 1557   1.276   3.187  12.989 -0.7964  0.2255 -0.5881
  102TCq2    C7 1558   1.407   3.226  12.968 -0.5604  0.4384 -0.0713
  102TCq2    C8 1559   1.240   3.045  12.996  0.3640 -0.8604  0.4365
  102TCq2    O4 1560   1.135   3.015  13.052 -0.4559 -0.4710  0.0427
  102TCq2    C9 1561   1.083   3.487  12.936  0.4294 -0.0969  0.2498
  102TCq2    O5 1562   0.978   3.433  12.897  0.5868 -0.5150 -0.8591
  102TCq2    O6 1563   1.116   3.608  12.923  0.0194  0.0639  0.3203
  102TCq2    H2 1564   1.333   3.549  12.895 -0.2710 -0.3830 -0.3343
  102TCq2    H3 1565   1.071   3.230  13.006 -0.0752  0.6676  1.8029
  102TCq2    H4 1566   1.487   3.157  12.991  0.1591  0.4657 -2.4791
  103TMC2    C1 1567   4.686   2.867  12.524 -0.3491  0.5318 -0.0282
  103TMC2    C2 1568   0.087   2.911  12.508  0.1025  0.5774 -0.5949
  103TMC2    C3 1569   0.135   3.014  12.582 -0.5670 -0.1368 -0.2142
  103TMC2    C4 1570   4.603   2.934  12.605 -0.2447 -0.0059 -0.2214
  103TMC2    C5 1571   4.646   3.045  12.672  0.1656 -0.1352  0.3106
  103TMC2    C6 1572   0.058   3.081  12.671  0.9466 -0.9163  0.2653
  103TMC2     C 1573   4.626   2.789  12.423 -0.2642  0.2074  0.2588
  103TMC2     O 1574   4.506   2.799  12.405 -0.1506  0.5713  0.0277
  103TMC2     H 1575   0.156   2.862  12.441 -0.6231 -1.1931 -0.0724
  103TMC2    H1 1576   4.501   2.900  12.616 -0.2038 -0.2487 -0.6030
  103TMC2    H2 1577   0.100   3.169  12.720 -0.8411  0.0950 -0.0317
  103TMC2    C7 1578   4.558   3.094  12.784  0.8230  0.2628  0.2488
  103TMC2    C8 1579   0.249   3.082  12.529 -0.2218  0.3015 -0.5865
  103TMC2    O1 1580   4.462   3.024  12.807  0.5078 -0.2857 -0.2124
  103TMC2    O2 1581   0.361   3.031  12.519 -0.1698 -0.3897  0.0666
  103TMC2    O5 1582   0.204   3.177  12.449  0.0697  0.1001  0.3524
  103TMC2    H5 1583   0.107   3.175  12.436  0.2155 -0.6950 -0.7112
  104MPD2     C 1584   0.027   2.478  12.251 -0.4824 -0.3741 -0.4017
  104MPD2    C1 1585   4.675   2.593  12.273 -0.4611  0.2445 -0.3905
  104MPD2    C2 1586   4.567   2.615  12.188  0.1854  1.0309 -0.0021
  104MPD2    C3 1587   4.527   2.519  12.097  0.1658 -0.8167 -0.1874
  104MPD2    C4 1588   4.604   2.407  12.079 -0.0040  0.4181 -0.0244
  104MPD2    C5 1589   4.717   2.391  12.147  0.3185 -0.7037 -0.0979
  104MPD2     H 1590   4.503   2.702  12.199 -2.0610 -0.7393  0.9190
  104MPD2    H1 1591   4.576   2.337  12.000  0.3373  0.2453  0.0082
  104MPD2    H2 1592   0.110   2.462  12.319 -2.3109 -1.6276  1.5206
  104MPD2    H3 1593   0.049   2.299  12.140  1.2591 -0.2707  1.9238
  104MPD2     N 1594   4.412   2.548  12.016 -0.0997 -0.1632  0.5801
  104MPD2    H5 1595   4.362   2.635  12.031 -1.3738 -0.4353 -2.1836
  104MPD2    N1 1596   4.712   2.692  12.371  0.3849 -0.0551 -0.4953
  104MPD2    H7 1597   0.076   2.680  12.415  0.1838 -0.7081 -0.2592
  105MPD2     C 1598   2.267   2.073  17.611 -0.0290 -0.1389 -0.8558
  105MPD2    C1 1599   2.129   2.058  17.637  0.1052  0.2228 -0.2719
  105MPD2    C2 1600   2.079   2.069   0.057 -0.2239 -0.3923 -0.9680
  105MPD2    C3 1601   2.163   2.086   0.165 -0.1062  0.1729  0.0042
  105MPD2    C4 1602   2.302   2.106   0.139  0.4225  0.3725  0.4974
  105MPD2    C5 1603   2.349   2.101   0.010 -0.1883 -0.1572 -0.5682
  105MPD2     H 1604   1.976   2.062   0.091  0.3590  0.7072  1.0503
  105MPD2    H1 1605   2.365   2.124   0.226  2.2385  1.8690 -1.1162
  105MPD2    H2 1606   2.315   2.083  17.514  1.8654  0.6980  0.1636
  105MPD2    H3 1607   2.452   2.133  17.706 -1.2680  2.6706 -2.5535
  105MPD2     N 1608   2.108   2.072   0.297  0.4067 -0.1440  0.0497
  105MPD2    H5 1609   2.009   2.056   0.310  0.4104 -0.6525 -0.5427
  105MPD2    N1 1610   2.035   2.043  17.534 -0.2351 -0.4227  0.1146
  105MPD2    H7 1611   1.937   2.036  17.561 -0.5536 -1.0530 -1.2112
  106TCq2    C1 1612   2.180   2.081   0.415 -0.1715 -0.2821 -0.3045
  106TCq2    O2 1613   2.294   2.116   0.439  0.4344 -0.1996  0.2666
  106TCq2    C2 1614   2.091   2.067   0.527 -0.1251 -0.0385  0.5226
  106TCq2    C3 1615   1.954   2.057   0.511  0.1483  0.2453 -0.8431
  106TCq2    C4 1616   1.869   2.079   0.618 -0.5765 -0.1036 -0.0934
  106TCq2    C5 1617   1.919   2.100   0.740 -0.8559 -0.8028 -0.0669
  106TCq2    C6 1618   2.057   2.084   0.754 -0.2724  0.8031 -0.4476
  106TCq2    C7 1619   2.149   2.078   0.654  0.4125 -0.0304 -0.0690
  106TCq2    C8 1620   2.117   2.075   0.894 -0.3601  0.1385  0.9080
  106TCq2    O4 1621   2.225   2.020   0.902  0.0509 -0.1883  0.4613
  106TCq2    C9 1622   1.728   2.075   0.598  0.2191  0.1328 -0.8144
  106TCq2    O5 1623   1.689   2.057   0.477 -0.0474  0.5346  0.0188
  106TCq2    O6 1624   1.651   2.107   0.693  0.5457  0.1937 -0.2563
  106TCq2    H2 1625   1.912   2.021   0.418  1.1680  0.3613 -1.3476
  106TCq2    H3 1626   1.861   2.092   0.831 -0.9718 -1.6260 -0.2125
  106TCq2    H4 1627   2.253   2.053   0.671  0.7962  1.0743 -0.8206
  107TMC2    C1 1628   2.065   1.418  11.381 -0.1581  0.3462 -1.0828
  107TMC2    C2 1629   2.076   1.454  11.249 -0.1532  0.6815 -0.5315
  107TMC2    C3 1630   2.105   1.355  11.158 -0.4742 -0.4344  0.4024
  107TMC2    C4 1631   2.102   1.293  11.423 -0.5126 -0.2520 -0.1828
  107TMC2    C5 1632   2.136   1.202  11.326 -0.0741  0.1355 -0.2693
  107TMC2    C6 1633   2.127   1.226  11.194 -0.5364 -0.7907 -0.1689
  107TMC2     C 1634   1.986   1.498  11.471  0.6248  0.2145 -0.0589
  107TMC2     O 1635   1.969   1.441  11.575  0.1468  0.2984  0.2301
  107TMC2     H 1636   2.071   1.557  11.216  1.5724  0.3618 -1.8430
  107TMC2    H1 1637   2.142   1.274  11.522 -0.1681 -0.5837 -0.3857
  107TMC2    H2 1638   2.136   1.144  11.123 -0.7495 -1.2791  0.3614
  107TMC2    C7 1639   2.198   1.069  11.364  0.5611 -0.3110 -0.3299
  107TMC2    C8 1640   2.118   1.383  11.019  0.1905  0.3414  0.6843
  107TMC2    O1 1641   2.181   1.031  11.480  0.6203 -0.3985  0.5528
  107TMC2    O2 1642   2.199   1.338  10.938  0.2927  0.3419  0.1250
  107TMC2    O5 1643   2.026   1.479  10.989  0.0779 -0.4528  0.5633
  107TMC2    H5 1644   1.962   1.493  11.062 -1.1112 -2.0548 -0.1749
  108MPD2     C 1645   1.803   1.790  11.381 -0.2504 -0.0415 -1.0562
  108MPD2    C1 1646   1.842   1.695  11.470  0.2538 -0.0286  0.4890
  108MPD2    C2 1647   1.794   1.685  11.599 -0.2631  1.1689 -0.4774
  108MPD2    C3 1648   1.691   1.778  11.631 -0.0686 -0.0659  0.0078
  108MPD2    C4 1649   1.650   1.870  11.538 -0.4893 -0.1384  0.6180
  108MPD2    C5 1650   1.705   1.873  11.413  0.0426  0.7261  0.4481
  108MPD2     H 1651   1.838   1.622  11.675 -1.2267  1.3493  0.2390
  108MPD2    H1 1652   1.565   1.936  11.554 -0.4319  0.5573 -1.9285
  108MPD2    H2 1653   1.836   1.802  11.278 -0.1855  0.3528 -0.9898
  108MPD2    H3 1654   1.678   1.954  11.346  0.8406  0.1219 -0.6227
  108MPD2     N 1655   1.634   1.767  11.757 -0.0141 -0.2402 -0.3735
  108MPD2    H5 1656   1.571   1.845  11.773 -0.0784 -0.5008  0.6246
  108MPD2    N1 1657   1.936   1.614  11.414  0.0509 -0.3311 -0.0184
  108MPD2    H7 1658   1.966   1.646  11.323 -0.5351  0.8968  0.2278
  109MPD2     C 1659   2.787   2.420   2.428 -0.1893 -0.1103  0.5678
  109MPD2    C1 1660   2.793   2.514   2.326  0.9727 -0.1565 -0.1274
  109MPD2    C2 1661   2.680   2.591   2.309  0.8229  0.0008 -1.0064
  109MPD2    C3 1662   2.559   2.553   2.371  0.2941  0.7023  0.3798
  109MPD2    C4 1663   2.554   2.466   2.471  0.5614 -1.0246 -0.6886
  109MPD2    C5 1664   2.669   2.401   2.502 -0.2614  0.5664  0.2175
  109MPD2     H 1665   2.677   2.668   2.232 -0.2064  0.9986  0.0271
  109MPD2    H1 1666   2.471   2.458   2.540  0.7085 -2.8247 -0.7286
  109MPD2    H2 1667   2.875   2.359   2.445  0.1263  0.0954 -0.3185
  109MPD2    H3 1668   2.658   2.330   2.583  0.3087 -2.4945 -2.3415
  109MPD2     N 1669   2.445   2.624   2.329  0.2388  0.5637  0.4587
  109MPD2    H5 1670   2.471   2.702   2.269  0.7417  2.0194  2.5641
  109MPD2    N1 1671   2.907   2.538   2.251  0.4765 -0.2431  0.0657
  109MPD2    H7 1672   2.973   2.464   2.227 -1.8352 -1.9531 -0.9838
  110TCq2    C1 1673   2.316   2.593   2.355 -0.0972 -0.1307  0.3868
  110TCq2    O2 1674   2.279   2.505   2.429 -0.0526 -0.6750  0.1650
  110TCq2    C2 1675   2.220   2.677   2.293  0.5943  0.8598 -0.0136
  110TCq2    C3 1676   2.116   2.719   2.363 -0.8283  0.0609 -0.4963
  110TCq2    C4 1677   2.054   2.836   2.340 -0.0972  0.9943  0.1910
  110TCq2    C5 1678   2.084   2.904   2.219 -0.1215  0.3377 -0.2993
  110TCq2    C6 1679   2.198   2.867   2.152 -0.2778 -0.4128 -0.2915
  110TCq2    C7 1680   2.258   2.745   2.179  0.1900 -0.4958  0.2453
  110TCq2    C8 1681   2.220   2.929   2.023  0.0217  0.2527 -0.0665
  110TCq2    O4 1682   2.162   3.035   2.010 -0.3618 -0.1627 -0.5576
  110TCq2    C9 1683   1.953   2.881   2.431  0.7501 -0.3325 -0.6157
  110TCq2    O5 1684   1.923   2.797   2.520  0.1446  0.4353 -0.3118
  110TCq2    O6 1685   1.876   2.975   2.392 -0.0625 -0.0052  0.1921
  110TCq2    H2 1686   2.078   2.674   2.454 -2.7272  0.1324 -1.2584
  110TCq2    H3 1687   2.034   2.995   2.187 -1.1731  0.9047  2.8877
  110TCq2    H4 1688   2.344   2.714   2.120  0.3592  0.5983 -0.0962
  111TMC2    C1 1689   1.394   4.018  11.721 -0.3227 -0.2826  0.1780
  111TMC2    C2 1690   1.316   4.064  11.824  0.2203  0.5670  0.6683
  111TMC2    C3 1691   1.355   4.036  11.948 -0.2360  0.1367  0.1958
  111TMC2    C4 1692   1.513   3.956  11.744 -0.1249 -0.5025  0.2349
  111TMC2    C5 1693   1.545   3.932  11.875 -0.0399 -0.6588 -0.7184
  111TMC2    C6 1694   1.470   3.964  11.972  0.0533 -0.6794  0.5502
  111TMC2     C 1695   1.360   4.046  11.588  0.2948 -0.1355 -0.0362
  111TMC2     O 1696   1.447   4.038  11.499  0.4487  0.4361  0.2251
  111TMC2     H 1697   1.224   4.120  11.814  0.2419  0.1528 -2.0745
  111TMC2    H1 1698   1.572   3.917  11.661 -1.0516 -2.8046  0.6685
  111TMC2    H2 1699   1.483   3.930  12.074 -1.7068 -0.2091  0.9329
  111TMC2    C7 1700   1.667   3.857  11.915 -0.1077  0.3405 -0.4420
  111TMC2    C8 1701   1.270   4.070  12.063  0.9567  0.3463 -0.0239
  111TMC2    O1 1702   1.678   3.827  12.034 -0.0450  0.5414  0.0619
  111TMC2    O2 1703   1.279   4.022  12.179  0.0778  0.1715  0.4564
  111TMC2    O5 1704   1.211   4.187  12.041  0.3530  0.0813 -0.5797
  111TMC2    H5 1705   1.238   4.236  11.960  1.8693  1.8336  0.9990
  112MPD2     C 1706   1.025   4.280  11.257  0.5781 -1.0351  0.6548
  112MPD2    C1 1707   1.155   4.236  11.232  0.2212 -0.0420 -0.0518
  112MPD2    C2 1708   1.220   4.171  11.342 -0.2118 -0.5644 -0.0278
  112MPD2    C3 1709   1.165   4.156  11.467  0.2326 -1.2779  0.0056
  112MPD2    C4 1710   1.032   4.190  11.478 -0.8975  0.0406 -0.2084
  112MPD2    C5 1711   0.965   4.256  11.378  0.6115  1.0212  0.5508
  112MPD2     H 1712   1.322   4.138  11.327  0.8143  1.8310  1.6849
  112MPD2    H1 1713   0.990   4.180  11.577 -0.4286  0.3489  0.0202
  112MPD2    H2 1714   0.974   4.332  11.177  1.5005  0.1847  0.8536
  112MPD2    H3 1715   0.864   4.292  11.394  0.2935 -0.0159  0.8902
  112MPD2     N 1716   1.231   4.096  11.576 -0.8591  0.2035 -0.1905
  112MPD2    H5 1717   1.165   4.095  11.652 -0.9638  1.8475 -0.2670
  112MPD2    N1 1718   1.222   4.244  11.117 -0.0000 -1.0710 -1.1204
  112MPD2    H7 1719   1.320   4.217  11.116  0.4940  0.6994 -1.5048
  113MPD2     C 1720   1.042   1.416   1.172 -0.5292  0.4614 -0.0048
  113MPD2    C1 1721   0.951   1.519   1.184 -0.0610 -0.3017  0.1013
  113MPD2    C2 1722   0.861   1.542   1.079 -0.0949 -0.5859 -0.3917
  113MPD2    C3 1723   0.884   1.484   0.956  0.4362 -0.2015 -0.5169
  113MPD2    C4 1724   0.986   1.394   0.947 -0.0887 -0.1172 -0.0062
  113MPD2    C5 1725   1.062   1.352   1.051 -0.8381 -0.0959  0.2548
  113MPD2     H 1726   0.783   1.617   1.089  2.2696  1.8477 -0.2415
  113MPD2    H1 1727   1.009   1.344   0.854  0.3294  2.4497 -1.2834
  113MPD2    H2 1728   1.108   1.396   1.256 -0.9333  1.5323  0.5737
  113MPD2    H3 1729   1.136   1.274   1.043  1.6726  2.2341  0.9574
  113MPD2     N 1730   0.803   1.503   0.848  0.6776  0.1983  0.2991
  113MPD2    H5 1731   0.827   1.464   0.757 -2.9241 -1.5773  0.1329
  113MPD2    N1 1732   0.951   1.605   1.290 -0.1101  0.1812  0.1424
  113MPD2    H7 1733   0.886   1.683   1.283  0.4104  0.5648 -0.3506
  114TCq2    C1 1734   0.684   1.574   0.839  0.0664  0.0077  0.3805
  114TCq2    O2 1735   0.610   1.600   0.933  0.0619  0.1343 -0.1525
  114TCq2    C2 1736   0.634   1.588   0.702 -0.3020 -0.1306 -0.4181
  114TCq2    C3 1737   0.730   1.626   0.608  0.5849  0.8155  0.3228
  114TCq2    C4 1738   0.678   1.657   0.489 -0.1712 -0.1938  0.0293
  114TCq2    C5 1739   0.550   1.628   0.450 -0.1664  0.8572 -0.0976
  114TCq2    C6 1740   0.466   1.574   0.542 -0.0811 -0.2003  0.2936
  114TCq2    C7 1741   0.503   1.568   0.672  0.7635  0.6327  0.2695
  114TCq2    C8 1742   0.335   1.518   0.503 -0.5558 -0.0693  0.1102
  114TCq2    O4 1743   0.301   1.514   0.388 -0.4742 -0.3797 -0.1593
  114TCq2    C9 1744   0.756   1.732   0.392  0.6729 -0.2786 -0.6859
  114TCq2    O5 1745   0.697   1.758   0.287 -0.2842  0.0103 -0.0632
  114TCq2    O6 1746   0.876   1.758   0.412  0.4359  0.0370  0.2856
  114TCq2    H2 1747   0.828   1.657   0.643 -0.2018  2.7346  0.8647
  114TCq2    H3 1748   0.513   1.642   0.350  0.0762  1.1230 -0.1513
  114TCq2    H4 1749   0.439   1.526   0.749  2.2536 -0.0358  1.1468
  115TMC2    C1 1750   0.742   3.823  17.572  0.4827  0.0636 -0.6271
  115TMC2    C2 1751   0.873   3.808  17.581  0.5207  0.1878 -0.0221
  115TMC2    C3 1752   0.954   3.916  17.593  0.3202  0.8011 -0.3771
  115TMC2    C4 1753   0.676   3.950  17.573 -0.2889 -0.0443 -0.0220
  115TMC2    C5 1754   0.764   4.053  17.587 -0.2394 -0.5565  0.0156
  115TMC2    C6 1755   0.900   4.039  17.605  0.3281 -0.3308  0.3003
  115TMC2     C 1756   0.666   3.705  17.536  0.3519 -0.2971 -0.8335
  115TMC2     O 1757   0.731   3.622  17.469 -0.3088  0.3346  0.4454
  115TMC2     H 1758   0.916   3.710  17.597  0.5903  0.1312 -0.5417
  115TMC2    H1 1759   0.570   3.962  17.550 -0.0522  0.7472 -0.6846
  115TMC2    H2 1760   0.948   4.134  17.626 -2.8306  0.9766  1.5966
  115TMC2    C7 1761   0.710   4.185  17.555  0.1643 -0.1233 -0.1404
  115TMC2    C8 1762   1.091   3.890  17.621 -0.1428  0.3477  0.4942
  115TMC2    O1 1763   0.591   4.196  17.592 -0.1066  0.6037  0.1701
  115TMC2    O2 1764   1.137   3.782  17.655  1.2667 -0.5942 -0.0692
  115TMC2    O5 1765   1.154   3.999  17.575 -0.1125 -0.3516 -0.5814
  115TMC2    H5 1766   1.098   4.057  17.518 -0.0342  1.2603  0.9873
  116MPD2     C 1767   0.229   3.455  17.472 -0.3958  0.1545 -0.1167
  116MPD2    C1 1768   0.339   3.463  17.389  0.3430  0.6930 -0.0029
  116MPD2    C2 1769   0.449   3.539  17.429 -0.1316  0.2882  0.0930
  116MPD2    C3 1770   0.437   3.611  17.542 -0.4398 -0.4061  0.0904
  116MPD2    C4 1771   0.329   3.608  17.618 -0.6744 -0.0259  0.1112
  116MPD2    C5 1772   0.223   3.522  17.587 -0.0568  0.4280 -0.3361
  116MPD2     H 1773   0.537   3.532  17.366 -0.2752  0.8742 -0.1744
  116MPD2    H1 1774   0.317   3.674  17.703  1.0690 -0.4705  0.6858
  116MPD2    H2 1775   0.145   3.391  17.448 -1.0682  0.7747  0.5847
  116MPD2    H3 1776   0.137   3.524  17.653 -0.0483 -0.8279 -0.2729
  116MPD2     N 1777   0.534   3.701  17.584  0.3066 -0.3144 -0.0786
  116MPD2    H5 1778   0.504   3.770  17.651 -0.9040  0.1524 -1.0994
  116MPD2    N1 1779   0.357   3.396  17.266 -0.0234 -0.1198  0.5824
  116MPD2    H7 1780   0.441   3.406  17.209 -0.5897 -1.2055 -0.4457
  117TMC2    C1 1781   4.199   0.884  13.284 -0.5409 -0.3829 -0.0505
  117TMC2    C2 1782   4.273   0.794  13.209 -0.1526  0.1230  0.4585
  117TMC2    C3 1783   4.412   0.810  13.218 -0.0180  0.0214  0.4958
  117TMC2    C4 1784   4.242   0.996  13.344 -0.1964  0.8797  0.5231
  117TMC2    C5 1785   4.374   1.009  13.341  0.3664  0.4496 -0.5427
  117TMC2    C6 1786   4.457   0.923  13.282  0.1341 -0.0892  0.4132
  117TMC2     C 1787   4.056   0.857  13.290  0.3490  0.1196  0.0934
  117TMC2     O 1788   4.030   0.775  13.203 -0.1144 -0.3675  0.8662
  117TMC2     H 1789   4.231   0.706  13.161 -1.3327  1.0983 -0.2919
  117TMC2    H1 1790   4.171   1.069  13.381 -0.7815  0.0146  1.1151
  117TMC2    H2 1791   4.561   0.953  13.272  1.1857 -3.2982  1.7533
  117TMC2    C7 1792   4.427   1.089  13.448  0.2943 -0.1209 -0.4160
  117TMC2    C8 1793   4.494   0.721  13.134  0.1611 -0.3985 -0.1088
  117TMC2    O1 1794   4.366   1.198  13.459 -0.1355 -0.2940 -0.0678
  117TMC2    O2 1795   4.474   0.603  13.125  0.5178  0.0793  0.3854
  117TMC2    O5 1796   4.560   0.796  13.040  0.7299 -0.3152 -0.1377
  117TMC2    H5 1797   4.554   0.894  13.042 -0.3198 -0.3179 -3.0278
  118MPD2     C 1798   4.634   0.989  13.733 -0.5298  0.7751 -0.7626
  118MPD2    C1 1799   4.577   1.073  13.642  0.2460 -0.1800 -0.1652
  118MPD2    C2 1800   4.587   1.213  13.657  0.1900  0.1390 -0.5858
  118MPD2    C3 1801   4.653   1.265  13.769  0.1160  0.0457 -0.6397
  118MPD2    C4 1802   4.701   1.181  13.863 -0.1625  0.5657  0.2071
  118MPD2    C5 1803   4.698   1.043  13.847 -0.1743  0.3816 -0.5676
  118MPD2     H 1804   4.554   1.281  13.578  0.9406  1.7103  0.4552
  118MPD2    H1 1805   0.030   1.223  13.946  0.6861  0.1335 -0.1411
  118MPD2    H2 1806   4.637   0.884  13.708  2.5809  0.6508  0.2084
  118MPD2    H3 1807   0.011   0.975  13.922  0.2846 -1.7513 -2.7575
  118MPD2     N 1808   4.676   1.401  13.797  0.7866  0.0264 -0.3398
  118MPD2    H5 1809   4.706   1.431  13.889  0.9536 -0.5281 -0.2121
  118MPD2    N1 1810   4.519   1.022  13.526 -0.2842 -0.4354 -0.6797
  118MPD2    H7 1811   4.541   0.924  13.507  1.7728  0.0506 -0.7778
  119MPD2     C 1812   2.758   1.999  13.780 -0.0426 -0.7218  0.2978
  119MPD2    C1 1813   2.627   2.016  13.812  0.3309 -0.2704 -0.4052
  119MPD2    C2 1814   2.531   2.049  13.718 -0.5077 -0.6799 -0.0615
  119MPD2    C3 1815   2.560   2.061  13.587  0.0808  0.0604  0.1751
  119MPD2    C4 1816   2.697   2.043  13.557  0.3401  0.3684 -0.3763
  119MPD2    C5 1817   2.792   2.009  13.649  0.1945 -0.5056 -0.3404
  119MPD2     H 1818   2.434   2.066  13.762 -1.2161 -2.8082 -0.7919
  119MPD2    H1 1819   2.726   2.038  13.453 -0.3185 -0.4423 -0.5163
  119MPD2    H2 1820   2.840   1.971  13.846 -0.2054  0.4039  0.9772
  119MPD2    H3 1821   2.892   1.988  13.614  0.7503  2.3039 -0.3906
  119MPD2     N 1822   2.467   2.082  13.480 -0.2957  0.3165  0.1672
  119MPD2    H5 1823   2.490   2.064  13.383 -0.8722  1.6867 -0.2337
  119MPD2    N1 1824   2.603   2.018  13.954 -0.6172  0.4156  0.2091
  119MPD2    H7 1825   2.683   2.020  14.016 -0.7448 -0.8836  0.4120
  120TCq2    C1 1826   2.338   2.106  13.503 -0.3574 -0.6374  0.5254
  120TCq2    O2 1827   2.277   2.116  13.609  0.2030  0.0480  0.7418
  120TCq2    C2 1828   2.254   2.097  13.383 -0.3125  0.2196 -0.1387
  120TCq2    C3 1829   2.313   2.142  13.266 -1.0188 -0.0127 -0.4923
  120TCq2    C4 1830   2.237   2.144  13.155  0.3059 -0.8694  0.2647
  120TCq2    C5 1831   2.103   2.118  13.165 -0.4730 -0.7605  0.6647
  120TCq2    C6 1832   2.044   2.079  13.283 -0.4137 -0.3816  0.3341
  120TCq2    C7 1833   2.124   2.059  13.396  0.2231  0.4974  0.7483
  120TCq2    C8 1834   1.905   2.040  13.286 -0.4563 -0.1050 -0.1006
  120TCq2    O4 1835   1.835   2.082  13.193 -0.6592  0.2378 -0.2492
  120TCq2    C9 1836   2.299   2.166  13.028  0.5259  0.6112 -0.1710
  120TCq2    O5 1837   2.226   2.194  12.925  0.7856  0.3255 -0.3405
  120TCq2    O6 1838   2.421   2.176  13.025 -0.2058  0.1472  0.0075
  120TCq2    H2 1839   2.417   2.168  13.253 -1.4914  0.2728 -3.8152
  120TCq2    H3 1840   2.050   2.110  13.070  1.3223  0.0825 -0.4017
  120TCq2    H4 1841   2.093   2.023  13.494 -0.6787 -1.4408 -0.2604
  121TMC2    C1 1842   3.607   4.209  13.871 -0.0374  0.2286 -0.6012
  121TMC2    C2 1843   3.644   4.150  13.992 -0.3598 -0.0255 -0.3944
  121TMC2    C3 1844   3.557   4.074  14.050 -0.4211 -0.3086  0.0149
  121TMC2    C4 1845   3.494   4.169  13.806 -0.4080 -0.1531 -0.1565
  121TMC2    C5 1846   3.412   4.074  13.871 -0.3039  0.0728 -0.3446
  121TMC2    C6 1847   3.442   4.024  13.997  0.9474  0.3406 -0.2177
  121TMC2     C 1848   3.702   4.307  13.815 -1.0095  0.3721  0.1776
  121TMC2     O 1849   3.773   4.367  13.895 -0.5305 -0.2882  0.0135
  121TMC2     H 1850   3.742   4.179  14.031  0.2745 -0.7281 -1.4602
  121TMC2    H1 1851   3.454   4.214  13.716  1.4997  1.6913 -0.0711
  121TMC2    H2 1852   3.375   3.965  14.059 -3.1066  3.6646 -1.4052
  121TMC2    C7 1853   3.278   4.104  13.850  0.1312 -0.7693 -0.1586
  121TMC2    C8 1854   3.586   4.059  14.191  0.1846  0.8425  0.3575
  121TMC2    O1 1855   3.252   4.219  13.815  0.0768  0.8774  0.3299
  121TMC2    O2 1856   3.691   4.103  14.231 -0.0264  0.5349 -0.0417
  121TMC2    O5 1857   3.474   4.032  14.266 -0.5021 -0.2147  0.1510
  121TMC2    H5 1858   3.391   4.015  14.216 -0.0240  0.3190 -0.8227
  122MPD2     C 1859   3.811   4.532  13.645 -0.0163 -1.0629  0.6038
  122MPD2    C1 1860   3.727   4.427  13.596  0.2888 -0.4617 -0.1853
  122MPD2    C2 1861   3.688   4.426  13.462 -0.0445 -0.7652  0.5499
  122MPD2    C3 1862   3.741   4.516  13.377  0.4726 -0.0271  0.3471
  122MPD2    C4 1863   3.844   4.599  13.417  0.0163 -0.0586 -0.5921
  122MPD2    C5 1864   3.880   4.602  13.551 -0.3223 -0.3097 -0.6465
  122MPD2     H 1865   3.629   4.338  13.438  1.1394 -1.5731  0.6125
  122MPD2    H1 1866   3.875   4.682  13.355 -0.1540  0.3098 -0.1814
  122MPD2    H2 1867   3.849   4.535  13.747 -2.2300 -1.5082  1.4253
  122MPD2    H3 1868   3.961   4.670  13.574  0.4723 -1.6276  0.4367
  122MPD2     N 1869   3.723   4.507  13.239 -0.0260 -0.1708 -0.1580
  122MPD2    H5 1870   3.788   4.559  13.181 -1.4558  1.2212 -0.4960
  122MPD2    N1 1871   3.676   4.324  13.680 -0.2371  0.0653 -0.0561
  122MPD2    H7 1872   3.624   4.247  13.639 -0.2254  0.2647 -0.4447
  123MPD2     C 1873   1.613   1.261   9.543 -0.1407  0.4952 -0.6538
  123MPD2    C1 1874   1.732   1.309   9.593 -0.3626  0.1883  0.0753
  123MPD2    C2 1875   1.849   1.284   9.528 -0.7001 -0.5006 -0.9643
  123MPD2    C3 1876   1.848   1.238   9.398 -0.0738 -0.1438  0.6696
  123MPD2    C4 1877   1.729   1.210   9.340  0.0324  0.1698 -0.6192
  123MPD2    C5 1878   1.613   1.216   9.411 -0.2295 -0.5276 -0.3681
  123MPD2     H 1879   1.939   1.315   9.579  0.3696 -2.7835 -1.4529
  123MPD2    H1 1880   1.725   1.164   9.242  2.3020 -2.8393  0.7107
  123MPD2    H2 1881   1.516   1.272   9.590  0.6065  1.5295  0.6369
  123MPD2    H3 1882   1.514   1.207   9.367  0.2576  1.5323 -1.8671
  123MPD2     N 1883   1.977   1.230   9.329 -0.0919 -0.7122 -0.3643
  123MPD2    H5 1884   2.060   1.274   9.368 -0.5879 -0.2417  0.1528
  123MPD2    N1 1885   1.721   1.365   9.724  0.5408 -0.3488 -0.3801
  123MPD2    H7 1886   1.628   1.384   9.759  0.6861  0.4196 -0.4103
  124TCq2    C1 1887   1.983   1.165   9.210 -0.7967  0.3719 -0.8253
  124TCq2    O2 1888   1.899   1.102   9.139  0.1932 -0.6219  0.2638
  124TCq2    C2 1889   2.117   1.128   9.172  0.7501 -0.6345  0.1383
  124TCq2    C3 1890   2.138   1.052   9.057 -0.4627  0.5226  0.0227
  124TCq2    C4 1891   2.265   1.015   9.031  0.1539 -0.0444 -0.4315
  124TCq2    C5 1892   2.377   1.043   9.104  0.2331  0.5558 -0.3730
  124TCq2    C6 1893   2.346   1.120   9.216  0.0877  0.6598  0.2164
  124TCq2    C7 1894   2.221   1.163   9.254  0.0679 -0.2479  0.5013
  124TCq2    C8 1895   2.460   1.184   9.287  0.1926 -0.0691  0.0681
  124TCq2    O4 1896   2.423   1.258   9.381  0.1736  0.1651 -0.0882
  124TCq2    C9 1897   2.285   0.940   8.904  0.1556 -0.4516 -0.0369
  124TCq2    O5 1898   2.189   0.865   8.875 -0.0383  0.0618 -0.6760
  124TCq2    O6 1899   2.403   0.931   8.863 -0.5063  1.1905 -0.3391
  124TCq2    H2 1900   2.062   1.035   8.981  1.6312  0.6618 -2.1126
  124TCq2    H3 1901   2.471   1.007   9.064 -0.7433 -0.5431 -1.6880
  124TCq2    H4 1902   2.208   1.218   9.346 -0.4515 -2.2147  1.5890
  125TMC2    C1 1903   2.995   3.329   9.418 -0.1363 -0.1894  0.5550
  125TMC2    C2 1904   3.027   3.272   9.297 -0.5082 -0.0474  0.3211
  125TMC2    C3 1905   3.161   3.255   9.286 -0.1523  0.2519  0.4678
  125TMC2    C4 1906   3.082   3.369   9.511  0.4082  0.2274 -0.2571
  125TMC2    C5 1907   3.212   3.366   9.484  0.4639 -0.3541  0.1951
  125TMC2    C6 1908   3.256   3.305   9.365 -0.4630 -0.8198  0.4836
  125TMC2     C 1909   2.864   3.300   9.473  0.0790 -0.1337  0.2347
  125TMC2     O 1910   2.827   3.369   9.566  0.1032 -0.0385 -0.1806
  125TMC2     H 1911   2.954   3.242   9.224  1.0370  0.4636 -1.4240
  125TMC2    H1 1912   3.041   3.414   9.600 -0.2619 -0.0858 -0.4072
  125TMC2    H2 1913   3.356   3.265   9.349 -0.4803 -0.5465 -0.2968
  125TMC2    C7 1914   3.295   3.446   9.568 -0.2526  0.2332 -0.0845
  125TMC2    C8 1915   3.207   3.218   9.161  0.5076  0.8022 -0.3068
  125TMC2    O1 1916   3.241   3.497   9.665  0.0957  0.1349  0.5804
  125TMC2    O2 1917   3.322   3.240   9.128  0.2342 -0.5596 -0.3773
  125TMC2    O5 1918   3.132   3.114   9.132  0.1721 -0.1614 -0.2738
  125TMC2    H5 1919   3.047   3.096   9.179 -0.5312 -0.7670 -1.7912
  126MPD1     C 1920   2.393   3.096   9.468 -0.3696 -0.5224 -0.5297
  126MPD1    C1 1921   2.489   3.003   9.433  0.4348 -1.1364  0.2117
  126MPD1    C2 1922   2.624   3.036   9.410  0.0633 -0.1504 -0.2183
  126MPD1    C3 1923   2.662   3.161   9.452 -0.6808  0.3135  0.5532
  126MPD1    C4 1924   2.572   3.249   9.508 -1.1468  0.3618  0.6150
  126MPD1    C5 1925   2.437   3.220   9.519 -0.1812  0.1095  0.2474
  126MPD1     H 1926   2.704   2.969   9.380  0.7695 -0.6061  2.6222
  126MPD1    H1 1927   2.595   3.351   9.537 -1.2288  0.6804 -0.4129
  126MPD1    H2 1928   2.286   3.081   9.467 -0.3087 -1.3522  3.9104
  126MPD1    H3 1929   2.362   3.295   9.540 -0.3399 -0.1154  0.4820
  126MPD1     N 1930   2.801   3.193   9.428 -0.2024  0.9667  0.4381
  126MPD1    H5 1931   2.852   3.123   9.375  0.5841  1.4390  0.5878
  126MPD1    N1 1932   2.445   2.881   9.388 -0.0933  0.0426 -0.7338
  126MPD1    H6 1933   2.514   2.808   9.407  1.0718  1.5016  0.6586
  126MPD1    H7 1934   2.358   2.848   9.428  0.5239  1.6778  1.9461
  127MPD2     C 1935   0.349   2.781   9.144  0.0169  0.0621 -0.6147
  127MPD2    C1 1936   0.318   2.821   9.271 -0.4676 -0.3926 -0.4855
  127MPD2    C2 1937   0.368   2.940   9.322  0.2721  0.1410 -0.4102
  127MPD2    C3 1938   0.434   3.021   9.234  0.3939 -0.2201  0.1406
  127MPD2    C4 1939   0.452   2.987   9.101 -0.1413  0.3213  0.7056
  127MPD2    C5 1940   0.421   2.865   9.063  0.1327 -0.3379 -0.0009
  127MPD2     H 1941   0.345   2.973   9.423 -0.3236  0.1091 -0.5348
  127MPD2    H1 1942   0.491   3.051   9.023 -0.2452 -1.7643 -1.0428
  127MPD2    H2 1943   0.328   2.680   9.110 -0.2355 -0.0139 -0.2422
  127MPD2    H3 1944   0.426   2.829   8.961  2.0865  0.8549 -0.3016
  127MPD2     N 1945   0.463   3.147   9.286 -0.2011 -1.3171 -1.3471
  127MPD2    H5 1946   0.417   3.171   9.373 -1.6056  0.4404 -2.5814
  127MPD2    N1 1947   0.230   2.733   9.345  0.1057  0.3388 -0.3449
  127MPD2    H7 1948   0.189   2.656   9.294  2.0885 -0.6082 -0.5043
  128TCq2    C1 1949   0.221   2.742   9.479 -0.8309  0.1328 -0.0927
  128TCq2    O2 1950   0.311   2.780   9.554  0.4201  0.3980 -0.4158
  128TCq2    C2 1951   0.113   2.658   9.530 -0.0290  0.2814  0.4287
  128TCq2    C3 1952   0.109   2.655   9.668 -0.1856 -0.4478  0.0980
  128TCq2    C4 1953   4.724   2.593   9.727 -0.0434 -0.1983  0.2398
  128TCq2    C5 1954   4.619   2.547   9.660  0.5885  0.3307  0.0753
  128TCq2    C6 1955   4.624   2.562   9.520 -0.4471 -0.2657 -0.5616
  128TCq2    C7 1956   0.004   2.623   9.454  0.6473  0.6262  0.3219
  128TCq2    C8 1957   4.510   2.518   9.442  0.1816 -0.7658  0.1087
  128TCq2    O4 1958   4.527   2.537   9.323  0.4977  0.0087  0.3376
  128TCq2    C9 1959   4.709   2.599   9.874  0.3345  0.1293  0.0090
  128TCq2    O5 1960   4.603   2.559   9.925 -0.5804 -0.3320 -0.1270
  128TCq2    O6 1961   0.083   2.647   9.938 -0.0453  0.1170  0.4335
  128TCq2    H2 1962   0.193   2.674   9.733 -0.6197  1.2371  0.1547
  128TCq2    H3 1963   4.538   2.500   9.715  0.8581  1.1225  1.1532
  128TCq2    H4 1964   0.001   2.642   9.347 -2.4770 -1.1490  0.0921
  129MPD2     C 1965   4.143   2.686   0.673  0.1180 -0.3655  0.4815
  129MPD2    C1 1966   4.132   2.798   0.756 -0.0453  0.3973 -0.5377
  129MPD2    C2 1967   4.225   2.902   0.753 -0.2301  0.4380  0.3908
  129MPD2    C3 1968   4.327   2.902   0.653  0.7194  0.3800 -0.0330
  129MPD2    C4 1969   4.342   2.786   0.570 -0.2519  0.0786  0.2707
  129MPD2    C5 1970   4.249   2.687   0.586  0.0029  0.0649  0.0985
  129MPD2     H 1971   4.231   2.984   0.824 -0.8870 -0.1424  1.1183
  129MPD2    H1 1972   4.414   2.776   0.489  0.2100 -2.1324  0.9667
  129MPD2    H2 1973   4.068   2.607   0.677 -0.2305 -0.0642 -0.1584
  129MPD2    H3 1974   4.261   2.594   0.533  1.7592 -0.5717  1.6338
  129MPD2     N 1975   4.414   3.015   0.644 -0.3811 -0.2852  0.4984
  129MPD2    H5 1976   4.391   3.090   0.708 -2.1902  0.2078 -0.7155
  129MPD2    N1 1977   4.032   2.801   0.856 -0.7144 -0.1378  0.1381
  129MPD2    H7 1978   4.011   2.887   0.904 -1.6195  1.2342 -2.6944
  130TCq2    C1 1979   3.954   2.693   0.901  0.4490  0.1736  0.2015
  130TCq2    O2 1980   3.974   2.578   0.871  0.3602 -0.4788 -0.1412
  130TCq2    C2 1981   3.844   2.729   0.993  0.4822  0.0863 -0.3940
  130TCq2    C3 1982   3.806   2.859   1.014  0.5861 -0.1582 -0.4321
  130TCq2    C4 1983   3.742   2.887   1.129 -0.4499  0.6584  0.5123
  130TCq2    C5 1984   3.717   2.791   1.225 -0.1967 -0.3581 -0.0403
  130TCq2    C6 1985   3.745   2.661   1.191  0.0663 -0.4689 -0.1711
  130TCq2    C7 1986   3.804   2.621   1.074 -0.2153  0.1585  1.1268
  130TCq2    C8 1987   3.676   2.561   1.271  0.2845 -0.3947 -0.4954
  130TCq2    O4 1988   3.569   2.588   1.323 -0.0876  0.2819 -0.0182
  130TCq2    C9 1989   3.703   3.023   1.148 -0.0798 -0.3780 -0.5184
  130TCq2    O5 1990   3.638   3.049   1.252 -0.3330  0.0403  0.0352
  130TCq2    O6 1991   3.769   3.103   1.081  0.2051 -0.0766 -0.0035
  130TCq2    H2 1992   3.821   2.935   0.938  1.1489  0.3471  0.1832
  130TCq2    H3 1993   3.678   2.828   1.319 -0.0937 -0.2121 -0.0550
  130TCq2    H4 1994   3.835   2.518   1.064 -0.6018  0.2520 -1.1465
  131MPD2     C 1995   2.193   2.040  10.446 -0.0738 -0.2639 -0.1096
  131MPD2    C1 1996   2.180   2.079  10.315  0.6676 -0.5972 -0.4394
  131MPD2    C2 1997   2.098   2.009  10.231  1.0528 -0.2372 -0.2028
  131MPD2    C3 1998   2.046   1.886  10.274  0.0287  0.3441 -0.1472
  131MPD2    C4 1999   2.060   1.848  10.408 -0.0272 -0.2508  0.6205
  131MPD2    C5 2000   2.142   1.917  10.491 -0.1882  0.0601 -0.0690
  131MPD2     H 2001   2.081   2.038  10.128 -2.6276 -0.9297  0.2093
  131MPD2    H1 2002   2.025   1.750  10.437  0.1110  0.0500  1.8184
  131MPD2    H2 2003   2.247   2.096  10.521 -0.3509 -1.4901  0.9993
  131MPD2    H3 2004   2.162   1.886  10.593  0.0952  0.0012 -0.1414
  131MPD2     N 2005   1.979   1.813  10.175 -0.1486 -0.1955 -0.6192
  131MPD2    H5 2006   1.982   1.849  10.081  1.3572  1.7429  0.1722
  131MPD2    N1 2007   2.245   2.202  10.277  0.3700 -0.3594  0.3675
  131MPD2    H7 2008   2.300   2.246  10.350  0.0008 -0.8833  0.9735
  132TCq2    C1 2009   2.678   2.431   9.962  0.2288  0.4243 -0.1430
  132TCq2    O2 2010   2.697   2.325   9.912  0.3291 -0.4732  0.4681
  132TCq2    C2 2011   2.562   2.447  10.048  0.3349  0.3934  0.1715
  132TCq2    C3 2012   2.519   2.569  10.097  0.3573 -0.0420  0.6589
  132TCq2    C4 2013   2.414   2.576  10.186 -0.4931 -0.1497 -0.7996
  132TCq2    C5 2014   2.342   2.465  10.224  0.0669  0.7614  0.4415
  132TCq2    C6 2015   2.371   2.354  10.147 -0.1866 -0.5404 -0.1646
  132TCq2    C7 2016   2.480   2.339  10.064  0.1183 -0.3878  0.4931
  132TCq2    C8 2017   2.270   2.239  10.148  0.6939  0.6688  0.0390
  132TCq2    O4 2018   2.259   2.177  10.044 -0.0785 -0.2361 -0.1553
  132TCq2    C9 2019   2.390   2.701  10.257 -0.1555  0.5400 -0.1500
  132TCq2    O5 2020   2.444   2.797  10.203  0.0054 -0.0933  0.1181
  132TCq2    O6 2021   2.313   2.708  10.357  0.4080 -0.1079  0.2314
  132TCq2    H2 2022   2.569   2.660  10.065 -2.1561  1.0432 -0.1668
  132TCq2    H3 2023   2.261   2.470  10.296 -0.0932  2.1792  0.1515
  132TCq2    H4 2024   2.501   2.254  10.001  0.7003  0.2634 -0.1844
  133MPD2     C 2025   1.988   3.755   9.577  0.8011 -0.4051 -0.5535
  133MPD2    C1 2026   2.057   3.644   9.541  0.6312  0.4545 -0.4531
  133MPD2    C2 2027   1.999   3.519   9.510  0.4444  0.0977 -0.4056
  133MPD2    C3 2028   1.861   3.516   9.517  0.4667  0.0764 -0.8258
  133MPD2    C4 2029   1.788   3.635   9.541  0.2639  0.3534 -0.6929
  133MPD2    C5 2030   1.854   3.752   9.574 -0.6156 -0.0766 -0.2827
  133MPD2     H 2031   2.066   3.434   9.497 -0.0305 -0.2732 -0.4357
  133MPD2    H1 2032   1.681   3.624   9.528  0.3988 -2.5005  0.5239
  133MPD2    H2 2033   2.034   3.850   9.604 -0.5929 -0.2777  1.3825
  133MPD2    H3 2034   1.793   3.839   9.594  1.1350  1.6244 -2.3154
  133MPD2     N 2035   1.791   3.398   9.482 -0.2131 -0.0128  0.5603
  133MPD2    H5 2036   1.690   3.399   9.482 -0.2093  0.4907  0.5443
  133MPD2    N1 2037   2.197   3.671   9.519 -0.1997  0.0836 -0.0996
  133MPD2    H7 2038   2.225   3.762   9.553  0.7704  0.4081 -1.7716
  134TCq2    C1 2039   2.291   3.586   9.461 -0.6216  0.1870 -0.2280
  134TCq2    O2 2040   2.274   3.487   9.392  0.0801  0.1702  0.3191
  134TCq2    C2 2041   2.417   3.641   9.463 -0.0596  0.1173  0.2372
  134TCq2    C3 2042   2.503   3.587   9.373  0.1902  0.8972  0.4402
  134TCq2    C4 2043   2.632   3.619   9.371  0.7291 -0.2149  1.3219
  134TCq2    C5 2044   2.685   3.700   9.469  1.1336  0.5961  0.1169
  134TCq2    C6 2045   2.601   3.760   9.562  0.0072  0.1907 -0.0688
  134TCq2    C7 2046   2.462   3.723   9.566  0.2136 -0.4251 -0.4428
  134TCq2    C8 2047   2.646   3.880   9.633  0.3851  0.0546  0.3853
  134TCq2    O4 2048   2.554   3.923   9.708  0.0902  0.0956 -0.4906
  134TCq2    C9 2049   2.715   3.564   9.267 -0.0073 -0.9598  0.3791
  134TCq2    O5 2050   2.666   3.485   9.181  0.6630  0.2514 -0.0080
  134TCq2    O6 2051   2.837   3.592   9.268 -0.2364 -0.4554 -0.6276
  134TCq2    H2 2052   2.479   3.517   9.294  0.6813  0.4097  0.7217
  134TCq2    H3 2053   2.790   3.725   9.463  1.1329  0.6458  0.3173
  134TCq2    H4 2054   2.401   3.762   9.646  0.2787  0.4432 -0.8220
  135MPD2     C 2055   4.175   3.982   9.381  0.4413 -0.1318 -0.4791
  135MPD2    C1 2056   4.233   3.970   9.503 -0.7642  0.1450  0.1717
  135MPD2    C2 2057   4.370   3.998   9.516  0.9220  0.6067 -0.0282
  135MPD2    C3 2058   4.447   4.021   9.409 -0.1173 -0.0147  0.6405
  135MPD2    C4 2059   4.386   4.031   9.287  0.3724 -0.0010  0.3742
  135MPD2    C5 2060   4.255   4.008   9.270  0.8738  0.2444  0.1242
  135MPD2     H 2061   4.416   3.986   9.614 -1.6489 -1.7684  0.8741
  135MPD2    H1 2062   4.442   4.040   9.194 -4.4893 -4.6078 -2.9509
  135MPD2    H2 2063   4.075   3.951   9.356  1.2936 -1.9973 -1.6299
  135MPD2    H3 2064   4.212   4.002   9.171 -0.6406 -3.6854  1.0256
  135MPD2     N 2065   4.590   4.032   9.416 -0.4397  0.3337 -0.6257
  135MPD2    H5 2066   4.640   4.035   9.327  1.0544  0.4870  0.2217
  135MPD2    N1 2067   4.156   3.936   9.617 -0.0774  0.3698 -0.1582
  135MPD2    H7 2068   4.201   3.908   9.704  3.3392  0.2796 -1.9352
  136TCq2    C1 2069   4.020   3.970   9.619 -0.6635 -0.2202 -0.1220
  136TCq2    O2 2070   3.959   4.031   9.527 -0.3778  0.1159 -0.2041
  136TCq2    C2 2071   3.955   3.957   9.747 -1.0636  0.2660 -0.0975
  136TCq2    C3 2072   3.986   3.863   9.844  0.2070 -0.1932 -0.8293
  136TCq2    C4 2073   3.896   3.829   9.939  0.8158 -0.5636 -0.0362
  136TCq2    C5 2074   3.780   3.894   9.953  0.5967  0.5351 -0.6211
  136TCq2    C6 2075   3.756   3.993   9.867  0.3234  0.1425  0.2650
  136TCq2    C7 2076   3.837   4.015   9.761  0.3182  0.4048  0.1505
  136TCq2    C8 2077   3.639   4.076   9.879  0.1270  0.6715  0.9519
  136TCq2    O4 2078   3.615   4.134   9.770  0.0550  0.1451  0.0746
  136TCq2    C9 2079   3.929   3.730  10.037  0.0513 -0.5074 -0.2361
  136TCq2    O5 2080   3.854   3.711  10.133 -0.4475 -0.2266 -0.3735
  136TCq2    O6 2081   4.023   3.654  10.006  0.0830  0.1696 -0.6638
  136TCq2    H2 2082   4.080   3.809   9.843 -0.7403 -1.9263  2.4587
  136TCq2    H3 2083   3.714   3.858  10.032  1.1165 -0.1059 -0.4780
  136TCq2    H4 2084   3.797   4.087   9.691  1.2841  0.1277 -0.6955
  137MPD2     C 2085   4.542   3.519   9.951 -0.4494  0.5026 -0.2554
  137MPD2    C1 2086   4.420   3.464   9.924 -0.0680  0.0065  0.4427
  137MPD2    C2 2087   4.319   3.483  10.015 -0.3066  0.1867  0.9091
  137MPD2    C3 2088   4.338   3.550  10.132 -0.8496 -0.4975 -0.1312
  137MPD2    C4 2089   4.466   3.599  10.151 -0.3012  1.1119  1.2282
  137MPD2    C5 2090   4.569   3.593  10.062  0.3061  1.1292  0.3654
  137MPD2     H 2091   4.222   3.440   9.990 -0.0953 -0.4007  1.0884
  137MPD2    H1 2092   4.488   3.650  10.244 -0.7381 -1.2152  2.5901
  137MPD2    H2 2093   4.624   3.507   9.881  0.1718  1.5163  0.2893
  137MPD2    H3 2094   4.663   3.638  10.092  0.4801  0.1114  1.3728
  137MPD2     N 2095   4.229   3.559  10.221  0.0961 -0.0417 -0.0314
  137MPD2    H5 2096   4.138   3.551  10.177 -0.2904  3.1038  0.1572
  137MPD2    N1 2097   4.412   3.387   9.807 -0.4949  0.2539 -0.3168
  137MPD2    H7 2098   4.493   3.376   9.747 -0.6157 -0.7664 -0.2929
  138TCq2    C1 2099   4.299   3.328   9.767 -0.1201  0.5765 -0.4079
  138TCq2    O2 2100   4.189   3.311   9.816  0.3113 -0.1883  0.1775
  138TCq2    C2 2101   4.309   3.270   9.635 -0.6603  0.6135 -0.8684
  138TCq2    C3 2102   4.413   3.299   9.553  0.0217 -0.1413  0.4997
  138TCq2    C4 2103   4.398   3.276   9.423 -0.2030  0.0352 -1.2491
  138TCq2    C5 2104   4.277   3.230   9.372  0.4929  0.3942  0.1262
  138TCq2    C6 2105   4.176   3.196   9.459  0.0446 -0.4707  0.5354
  138TCq2    C7 2106   4.195   3.208   9.589  0.0501  0.6331 -0.5509
  138TCq2    C8 2107   4.057   3.129   9.410  0.1279  0.3686 -0.2947
  138TCq2    O4 2108   4.071   3.080   9.301  0.0643  0.1338 -0.2102
  138TCq2    C9 2109   4.514   3.292   9.340 -0.2717  0.1816  0.0255
  138TCq2    O5 2110   4.503   3.314   9.219 -0.0487 -0.3245  0.1893
  138TCq2    O6 2111   4.629   3.301   9.398  0.3459 -0.1195 -0.1931
  138TCq2    H2 2112   4.509   3.333   9.588 -0.9957  3.4974 -0.2663
  138TCq2    H3 2113   4.260   3.248   9.266  1.5128  1.5041  0.1499
  138TCq2    H4 2114   4.122   3.155   9.649  1.9973  0.4025  1.5987
  139TMC2    C1 2115   3.510   1.478  13.205  0.5192  0.2776 -0.1816
  139TMC2    C2 2116   3.392   1.464  13.141  0.5641  0.0336  0.7210
  139TMC2    C3 2117   3.291   1.548  13.172  0.5150 -0.3166  0.4945
  139TMC2    C4 2118   3.518   1.555  13.321 -0.3488  0.5023 -0.5060
  139TMC2    C5 2119   3.406   1.625  13.359  0.3205  0.5020 -0.5385
  139TMC2    C6 2120   3.284   1.612  13.294 -0.0127  0.3854 -1.0585
  139TMC2     C 2121   3.625   1.413  13.151 -0.0574  0.0430  0.2594
  139TMC2     O 2122   3.624   1.389  13.033 -0.4405 -0.5472 -0.4219
  139TMC2     H 2123   3.385   1.388  13.064 -1.1773  1.3735 -0.4284
  139TMC2    H1 2124   3.608   1.567  13.380 -0.3620  1.1827 -0.6148
  139TMC2    H2 2125   3.200   1.677  13.312  0.7820  2.0901 -3.4627
  139TMC2    C7 2126   3.412   1.714  13.471 -0.4139  0.6768  0.0850
  139TMC2    C8 2127   3.175   1.524  13.090 -0.0658 -0.0707 -0.1956
  139TMC2    O1 2128   3.309   1.772  13.500  0.1080 -0.9353  0.2423
  139TMC2    O2 2129   3.062   1.553  13.130 -0.0577 -0.7111 -0.5173
  139TMC2    O5 2130   3.214   1.530  12.966 -0.0406  0.3219  0.0361
  139TMC2    H5 2131   3.310   1.521  12.951 -0.0050 -0.8214  0.9239
  140MPD2     C 2132   3.956   1.323  13.291  0.4879  0.7089 -0.0851
  140MPD2    C1 2133   3.862   1.335  13.192  0.2910  0.1125  0.0795
  140MPD2    C2 2134   3.894   1.301  13.066 -0.2153 -0.0333 -0.2450
  140MPD2    C3 2135   4.013   1.249  13.039  0.1176  0.5974  1.0718
  140MPD2    C4 2136   4.117   1.257  13.133 -0.5651  0.0451  0.2893
  140MPD2    C5 2137   4.080   1.285  13.265  0.3042  1.1325 -0.4145
  140MPD2     H 2138   3.831   1.310  12.979  0.0262  1.2359 -0.2838
  140MPD2    H1 2139   4.218   1.218  13.126 -0.6382 -0.3041  1.1617
  140MPD2    H2 2140   3.938   1.347  13.396 -0.0908 -1.5797  0.3419
  140MPD2    H3 2141   4.160   1.287  13.337 -2.2772  1.9282  2.4073
  140MPD2     N 2142   4.032   1.205  12.907  0.4868 -0.3752 -0.3107
  140MPD2    H5 2143   3.961   1.230  12.840 -1.0710  0.0817  1.5130
  140MPD2    N1 2144   3.737   1.391  13.238 -0.1030 -0.2100  0.2568
  140MPD2    H7 2145   3.726   1.401  13.338 -1.4748 -1.1461  0.1923
  141TCq2    C1 2146   4.639   2.726  14.280  0.2466  0.3007 -0.7166
  141TCq2    O2 2147   4.584   2.834  14.262  0.2277  0.4399  0.6228
  141TCq2    C2 2148   4.666   2.691  14.419  0.4703 -0.0740  0.2332
  141TCq2    C3 2149   4.648   2.564  14.451  0.4695  0.0167 -0.4686
  141TCq2    C4 2150   4.642   2.524  14.582  0.0449 -0.3854  0.5006
  141TCq2    C5 2151   4.639   2.616  14.684 -0.0662 -0.1571  0.0930
  141TCq2    C6 2152   4.649   2.748  14.643 -0.1026 -0.0572  0.5073
  141TCq2    C7 2153   4.659   2.788  14.510  0.3022 -0.3917 -0.2289
  141TCq2    C8 2154   4.635   2.851  14.748 -0.4622 -0.6222 -0.3484
  141TCq2    O4 2155   4.624   2.809  14.863 -0.1574 -0.5302 -0.2376
  141TCq2    C9 2156   4.644   2.379  14.608  0.3268 -0.2130  0.1828
  141TCq2    O5 2157   4.660   2.301  14.513  0.7029 -0.4645 -0.7496
  141TCq2    O6 2158   4.641   2.347  14.729  0.0265  0.0913 -0.2540
  141TCq2    H2 2159   4.658   2.481  14.382 -4.5972 -2.3155  1.5748
  141TCq2    H3 2160   4.637   2.577  14.785 -2.2369  1.4317  0.6852
  141TCq2    H4 2161   4.661   2.891  14.476 -2.7747 -1.3189 -3.1456
  142MPD2     C 2162   2.542   1.185  10.627  0.9621 -0.3454  0.5350
  142MPD2    C1 2163   2.468   1.207  10.510 -0.1175  0.3680  0.1201
  142MPD2    C2 2164   2.523   1.250  10.398 -0.1022 -0.1280  0.5577
  142MPD2    C3 2165   2.661   1.261  10.399 -0.0335 -0.3067  0.4247
  142MPD2    C4 2166   2.733   1.238  10.515  0.6062 -0.0788  0.5021
  142MPD2    C5 2167   2.676   1.200  10.633  0.3504  0.3922  0.1938
  142MPD2     H 2168   2.470   1.287  10.311 -2.9713 -3.8525  0.7330
  142MPD2    H1 2169   2.841   1.244  10.513  0.5105  1.2522 -0.1111
  142MPD2    H2 2170   2.492   1.150  10.717  0.9254 -0.9656  0.2726
  142MPD2    H3 2171   2.730   1.174  10.724  0.7826  0.5397 -0.0225
  142MPD2     N 2172   2.737   1.310  10.286 -0.0140  0.4376  0.3926
  142MPD2    H5 2173   2.823   1.364  10.297  0.5617 -0.3571 -0.1921
  142MPD2    N1 2174   2.327   1.202  10.529 -0.2325  0.0909 -0.5004
  142MPD2    H7 2175   2.288   1.154  10.610 -1.1390  0.8710 -0.4791
  143TCq2    C1 2176   2.695   1.281  10.163  0.2005  0.5382  0.0171
  143TCq2    O2 2177   2.611   1.202  10.130 -0.2339 -0.2622  0.2253
  143TCq2    C2 2178   2.777   1.346  10.057 -0.3941 -0.1223  0.3114
  143TCq2    C3 2179   2.896   1.412  10.077  0.0683  0.2219  0.5718
  143TCq2    C4 2180   2.979   1.439   9.979 -0.7754 -0.1615 -1.0504
  143TCq2    C5 2181   2.933   1.412   9.853  0.6017  0.0605 -0.0995
  143TCq2    C6 2182   2.805   1.377   9.828 -0.0165  0.1764 -0.9732
  143TCq2    C7 2183   2.730   1.323   9.930 -0.1411 -0.4249 -0.6600
  143TCq2    C8 2184   2.749   1.352   9.699 -0.3623  0.0323  0.4249
  143TCq2    O4 2185   2.646   1.283   9.699  0.0376  0.4293  0.0735
  143TCq2    C9 2186   3.113   1.479   9.997 -0.7374 -0.1790  0.3967
  143TCq2    O5 2187   3.185   1.466   9.898 -0.3764 -0.2004  0.9184
  143TCq2    O6 2188   3.137   1.553  10.096  0.3770  0.0440  0.4308
  143TCq2    H2 2189   2.937   1.422  10.177  2.1221 -1.7969 -0.0600
  143TCq2    H3 2190   3.004   1.445   9.777  0.4097 -0.2679 -0.4256
  143TCq2    H4 2191   2.631   1.281   9.918 -0.3110 -0.1290 -0.3009
  144MPD2     C 2192   0.274   0.840   0.637 -0.1251 -0.4232 -0.7262
  144MPD2    C1 2193   0.278   0.704   0.602 -0.2646  0.2252 -0.0370
  144MPD2    C2 2194   0.390   0.628   0.627 -0.5553  0.2937 -0.4737
  144MPD2    C3 2195   0.504   0.686   0.684  0.2918 -0.2163  0.2189
  144MPD2    C4 2196   0.499   0.821   0.700 -0.6979 -0.6302 -0.3987
  144MPD2    C5 2197   0.388   0.897   0.679  0.3010  0.1251  0.0301
  144MPD2     H 2198   0.383   0.524   0.598 -1.2385  0.7082 -1.7460
  144MPD2    H1 2199   0.583   0.881   0.735 -0.3311 -1.3693 -0.0206
  144MPD2    H2 2200   0.188   0.904   0.620  1.3153  2.1829  1.8172
  144MPD2    H3 2201   0.382   1.005   0.689 -1.3565 -0.0795  1.2161
  144MPD2     N 2202   0.620   0.616   0.715 -0.4867  0.3992 -0.0092
  144MPD2    H5 2203   0.693   0.666   0.765 -1.4574  3.3064 -1.4659
  144MPD2    N1 2204   0.164   0.637   0.538  0.3949  0.2474 -1.0977
  144MPD2    H7 2205   0.166   0.538   0.515 -0.9073 -0.3661  1.3282
  145TCq2    C1 2206   0.637   0.484   0.687  0.4470 -0.3477 -0.1664
  145TCq2    O2 2207   0.584   0.420   0.596  0.6612  0.3727  0.3848
  145TCq2    C2 2208   0.760   0.434   0.744 -0.3372 -0.2257 -0.9089
  145TCq2    C3 2209   0.830   0.336   0.672  0.9545  0.3918  0.2012
  145TCq2    C4 2210   0.950   0.301   0.719 -0.6070  0.1603  0.3694
  145TCq2    C5 2211   0.998   0.339   0.842  0.4578  0.3525 -0.0910
  145TCq2    C6 2212   0.921   0.429   0.908  0.5179  0.9708  0.1499
  145TCq2    C7 2213   0.807   0.487   0.859  0.3565  0.0746  0.5021
  145TCq2    C8 2214   0.974   0.457   1.043 -0.4935  0.3802  0.7039
  145TCq2    O4 2215   1.045   0.372   1.093  0.1726 -0.2229 -0.2037
  145TCq2    C9 2216   1.035   0.202   0.647  0.4311  0.5966 -0.2358
  145TCq2    O5 2217   1.002   0.169   0.530  0.2495  0.4879 -0.3956
  145TCq2    O6 2218   1.134   0.158   0.708  0.0278 -0.0818 -1.0251
  145TCq2    H2 2219   0.800   0.302   0.574  1.1704  1.2864 -0.1769
  145TCq2    H3 2220   1.089   0.300   0.885 -0.9548 -1.2910  1.3661
  145TCq2    H4 2221   0.742   0.542   0.927 -1.4088  1.0806 -1.9944
  146TMC2    C1 2222   1.628   4.328  12.516 -0.5627  0.2985 -0.3734
  146TMC2    C2 2223   1.582   4.400  12.406 -0.3832 -0.1378 -0.3329
  146TMC2    C3 2224   1.627   4.350  12.285 -0.6910 -1.1236  0.1788
  146TMC2    C4 2225   1.702   4.211  12.514  0.3313 -0.3911  0.1223
  146TMC2    C5 2226   1.716   4.157  12.388 -0.6871 -0.1213  0.4054
  146TMC2    C6 2227   1.687   4.224  12.269 -0.3608 -0.0365  0.1260
  146TMC2     C 2228   1.599   4.391  12.644 -0.4150  1.2415  0.3470
  146TMC2     O 2229   1.565   4.509  12.652 -0.1579  0.3953 -0.2847
  146TMC2     H 2230   1.519   4.488  12.410  0.1575  0.2703 -0.8403
  146TMC2    H1 2231   1.755   4.172  12.600  0.4053 -0.1114  0.2062
  146TMC2    H2 2232   1.714   4.181  12.174  0.0084 -0.6704  0.5137
  146TMC2    C7 2233   1.822   4.057  12.376  0.6166 -0.1310  0.1853
  146TMC2    C8 2234   1.591   4.431  12.163 -0.1643  0.2461  0.0068
  146TMC2    O1 2235   1.876   4.043  12.266  0.1383 -0.0374 -0.7329
  146TMC2    O2 2236   1.502   4.518  12.176  0.2426 -0.0577 -0.0055
  146TMC2    O5 2237   1.610   4.352  12.052 -0.1771  0.2414  0.0566
  146TMC2    H5 2238   1.695   4.303  12.052  0.5181  1.4376  0.2935
  147MPD2     C 2239   2.191   3.759  12.586  0.9230 -0.3958 -0.0269
  147MPD2    C1 2240   2.087   3.774  12.675  0.0464  0.4159  0.3883
  147MPD2    C2 2241   1.981   3.851  12.643  0.0792 -0.7092  0.0034
  147MPD2    C3 2242   1.965   3.904  12.517 -0.3366 -0.1014 -0.7038
  147MPD2    C4 2243   2.061   3.875  12.422  0.2390  0.1048 -0.2275
  147MPD2    C5 2244   2.177   3.811  12.459  0.0550  0.1988  0.0346
  147MPD2     H 2245   1.892   3.861  12.705 -1.1463 -2.0012 -1.5394
  147MPD2    H1 2246   2.053   3.917  12.323 -0.6020 -1.0749 -0.6589
  147MPD2    H2 2247   2.279   3.698  12.605  0.1337 -1.1516  1.2050
  147MPD2    H3 2248   2.252   3.790  12.384  0.3919  1.2019  0.0858
  147MPD2     N 2249   1.854   3.988  12.494 -0.2121  0.3350 -0.3261
  147MPD2    H5 2250   1.800   4.000  12.578 -0.4019 -1.2598 -0.2347
  147MPD2    N1 2251   2.106   3.708  12.799 -0.2767  0.2105  0.4665
  147MPD2    H7 2252   2.193   3.660  12.820 -1.5187 -2.8254 -1.3923
  148MPD2     C 2253   1.430   3.161  10.035  0.1039  0.2984  0.0785
  148MPD2    C1 2254   1.483   3.057  10.106 -0.0752 -0.1706  0.6894
  148MPD2    C2 2255   1.470   2.932  10.045 -0.2106  0.0682 -0.7979
  148MPD2    C3 2256   1.394   2.906   9.928 -0.4531  0.1712 -0.1696
  148MPD2    C4 2257   1.346   3.015   9.862 -0.0866  0.6630 -0.7822
  148MPD2    C5 2258   1.369   3.141   9.915 -0.0318 -0.4427 -0.8075
  148MPD2     H 2259   1.514   2.846  10.096 -0.7613  0.7923  0.9012
  148MPD2    H1 2260   1.293   3.007   9.768 -0.4059 -1.1137 -0.4459
  148MPD2    H2 2261   1.440   3.265  10.063 -0.3023  0.3338  0.0956
  148MPD2    H3 2262   1.339   3.222   9.850 -0.0015  1.4901  1.6083
  148MPD2     N 2263   1.370   2.776   9.876 -0.0302 -0.2015  0.0626
  148MPD2    H5 2264   1.316   2.758   9.792 -0.3511 -0.9913  0.4290
  148MPD2    N1 2265   1.550   3.070  10.233  0.0404 -0.0445  0.9488
  148MPD2    H7 2266   1.580   2.983  10.277 -0.6938 -0.8801 -0.2164
  149TCq2    C1 2267   1.581   3.187  10.297  0.5470  0.1527 -0.0986
  149TCq2    O2 2268   1.563   3.300  10.263 -0.0314 -0.5362  0.3835
  149TCq2    C2 2269   1.668   3.172  10.415  0.8861 -0.3771 -0.1153
  149TCq2    C3 2270   1.739   3.283  10.452  0.0937  0.1692 -0.1779
  149TCq2    C4 2271   1.816   3.273  10.572  0.4839 -0.4458 -0.1797
  149TCq2    C5 2272   1.835   3.147  10.636 -0.0851  0.0473  0.5551
  149TCq2    C6 2273   1.749   3.050  10.596 -0.1685 -0.2413  0.0381
  149TCq2    C7 2274   1.665   3.065  10.492 -0.0742 -0.1506 -0.1052
  149TCq2    C8 2275   1.780   2.909  10.642  0.0769 -0.5814  0.8454
  149TCq2    O4 2276   1.747   2.815  10.575 -0.1038 -0.0872  0.1829
  149TCq2    C9 2277   1.944   3.344  10.560  0.0601  0.0380 -0.0362
  149TCq2    O5 2278   1.999   3.379  10.672  0.2401  0.4444 -1.0472
  149TCq2    O6 2279   1.997   3.362  10.448  0.1543 -0.3753 -0.1099
  149TCq2    H2 2280   1.735   3.374  10.394 -1.0756 -1.8495 -3.2936
  149TCq2    H3 2281   1.911   3.137  10.713  0.3432  1.7825  0.3550
  149TCq2    H4 2282   1.597   2.984  10.468  0.2918 -0.9768  1.6128
  150MPD2     C 2283   2.881   2.368  12.021 -0.4012 -0.1889  0.6632
  150MPD2    C1 2284   2.941   2.363  11.897  0.3117 -0.5909 -0.0586
  150MPD2    C2 2285   3.047   2.447  11.867  0.1110  0.7375  0.3882
  150MPD2    C3 2286   3.100   2.531  11.964 -0.1244 -0.0927  0.3313
  150MPD2    C4 2287   3.034   2.537  12.097 -0.6034 -0.4583 -0.4060
  150MPD2    C5 2288   2.926   2.453  12.119 -0.2671 -0.0607  0.0397
  150MPD2     H 2289   3.095   2.456  11.770  2.3328  1.2868  1.5436
  150MPD2    H1 2290   3.075   2.588  12.183  0.0990 -2.1437  0.2472
  150MPD2    H2 2291   2.800   2.300  12.044  1.2474 -1.8351  1.6025
  150MPD2    H3 2292   2.878   2.452  12.216 -1.3932  1.1811 -0.5103
  150MPD2     N 2293   3.212   2.612  11.937  0.0068  0.4092  0.2966
  150MPD2    H5 2294   3.245   2.605  11.841 -0.5350  2.1592 -0.0242
  150MPD2    N1 2295   2.881   2.279  11.802 -0.0440 -0.2152  0.4229
  150MPD2    H7 2296   2.797   2.232  11.833  0.7078 -0.9745  1.3033
  151TCq2    C1 2297   3.290   2.687  12.024 -0.3191  0.1108 -0.7824
  151TCq2    O2 2298   3.276   2.699  12.146  0.1364  0.0819  0.4919
  151TCq2    C2 2299   3.395   2.757  11.959 -0.6031 -0.4857  0.3667
  151TCq2    C3 2300   3.409   2.755  11.825 -0.6232  0.0879 -0.1801
  151TCq2    C4 2301   3.523   2.791  11.755 -0.1347  0.7190 -0.6347
  151TCq2    C5 2302   3.633   2.828  11.833 -0.4996  0.0384  0.4691
  151TCq2    C6 2303   3.616   2.837  11.971 -0.5557 -0.4727  0.2477
  151TCq2    C7 2304   3.503   2.788  12.039 -0.6591 -0.3616  0.4103
  151TCq2    C8 2305   3.737   2.860  12.042 -0.1909 -0.2130 -0.0788
  151TCq2    O4 2306   3.785   2.973  12.032 -0.0359  0.0376  0.0794
  151TCq2    C9 2307   3.515   2.805  11.604  0.0116  0.1857  0.3383
  151TCq2    O5 2308   3.623   2.833  11.542 -0.0572  0.0597 -0.4312
  151TCq2    O6 2309   3.404   2.777  11.552 -0.0018 -0.7139  0.4740
  151TCq2    H2 2310   3.328   2.750  11.753 -1.0174 -0.5832  0.3041
  151TCq2    H3 2311   3.725   2.865  11.789 -0.0634 -0.8605  0.6442
  151TCq2    H4 2312   3.498   2.801  12.147  1.6984 -2.1422  0.7307
  152MPD2     C 2313   2.679   1.690  12.593  0.1735  0.1232 -1.0882
  152MPD2    C1 2314   2.705   1.824  12.553 -0.0460  0.0918  0.4067
  152MPD2    C2 2315   2.605   1.901  12.501  0.2336 -0.0275 -0.4327
  152MPD2    C3 2316   2.477   1.844  12.495 -0.0421  0.2975 -0.2455
  152MPD2    C4 2317   2.452   1.708  12.530  0.1061  0.0118 -0.1908
  152MPD2    C5 2318   2.556   1.632  12.577 -0.6991 -0.2090 -0.0792
  152MPD2     H 2319   2.626   1.998  12.457 -1.6535  0.1694 -0.8752
  152MPD2    H1 2320   2.355   1.660  12.522 -0.2723  0.6029  0.8290
  152MPD2    H2 2321   2.756   1.629  12.639  0.6684 -0.2691 -2.4349
  152MPD2    H3 2322   2.551   1.527  12.605 -0.4724 -0.1899  0.0295
  152MPD2     N 2323   2.371   1.917  12.433 -0.2382  0.6174 -0.0652
  152MPD2    H5 2324   2.403   2.003  12.390  0.0204  0.9486  0.7776
  152MPD2    N1 2325   2.840   1.872  12.578  0.1516 -0.0453  0.1556
  152MPD2    H7 2326   2.905   1.805  12.618 -0.1489  0.1819  1.0238
  153TCq2    C1 2327   2.889   1.995  12.539 -0.0109  0.0578 -0.5152
  153TCq2    O2 2328   2.836   2.077  12.465 -0.6539 -0.2345 -0.4321
  153TCq2    C2 2329   3.032   2.002  12.547 -0.1927 -0.2725  0.1312
  153TCq2    C3 2330   3.105   1.898  12.598 -0.2087 -0.0714  0.6730
  153TCq2    C4 2331   3.243   1.912  12.604  0.0476  0.6936 -0.0180
  153TCq2    C5 2332   3.302   2.028  12.565  0.3201  0.3297 -0.2349
  153TCq2    C6 2333   3.226   2.131  12.522 -0.3623 -0.4541 -0.3898
  153TCq2    C7 2334   3.092   2.122  12.510  0.7116 -0.3110 -0.5533
  153TCq2    C8 2335   3.294   2.250  12.483  0.1022 -0.5392 -0.0968
  153TCq2    O4 2336   3.225   2.329  12.418  0.5293  0.4308  0.1016
  153TCq2    C9 2337   3.325   1.802  12.646  1.2605 -0.4214  0.0875
  153TCq2    O5 2338   3.447   1.823  12.628 -1.0906 -0.5841 -0.5760
  153TCq2    O6 2339   3.270   1.688  12.663  0.1444  0.6231  0.0891
  153TCq2    H2 2340   3.059   1.800  12.608 -3.8002  1.5075 -0.3793
  153TCq2    H3 2341   3.410   2.037  12.558  0.2762  0.3568 -0.8960
  153TCq2    H4 2342   3.032   2.200  12.464  3.7777  0.7308 -2.7794
  154MPD2     C 2343   0.747   1.944   0.630 -0.5092 -0.0299  0.3867
  154MPD2    C1 2344   0.746   1.928   0.763 -1.1469  0.0284 -0.0862
  154MPD2    C2 2345   0.629   1.938   0.837 -0.2697  0.5374 -0.0661
  154MPD2    C3 2346   0.516   1.989   0.778 -0.3998 -0.0957  0.1342
  154MPD2    C4 2347   0.521   2.017   0.642 -0.3629 -0.4487  0.0025
  154MPD2    C5 2348   0.635   1.994   0.574  0.6287  0.7297  0.2612
  154MPD2     H 2349   0.639   1.925   0.945  0.3130  0.6501 -0.1037
  154MPD2    H1 2350   0.427   2.044   0.596  0.9200  1.5592 -1.4445
  154MPD2    H2 2351   0.842   1.926   0.579 -1.5047 -2.1548 -0.7456
  154MPD2    H3 2352   0.645   2.019   0.469  2.0478 -1.2364 -0.0639
  154MPD2     N 2353   0.407   2.020   0.857 -0.3185  0.3932  0.0835
  154MPD2    H5 2354   0.410   1.997   0.956  0.0743 -0.6599 -0.1758
  154MPD2    N1 2355   0.868   1.885   0.817  0.1122  0.1347  0.5130
  154MPD2    H7 2356   0.943   1.860   0.753 -1.0286 -0.2138 -0.6700
  155TCq2    C1 2357   0.904   1.910   0.947  0.1700  0.1122 -0.0243
  155TCq2    O2 2358   0.838   1.958   1.038 -0.1513 -0.1667  0.6766
  155TCq2    C2 2359   1.031   1.846   0.986  0.5785  0.5741 -0.4559
  155TCq2    C3 2360   1.081   1.890   1.104 -0.1368 -0.0826 -0.0099
  155TCq2    C4 2361   1.195   1.831   1.139  0.0316  0.2571  0.1047
  155TCq2    C5 2362   1.256   1.736   1.063 -0.2333 -0.0677 -0.1624
  155TCq2    C6 2363   1.194   1.694   0.946 -0.1779 -0.1718  0.0722
  155TCq2    C7 2364   1.076   1.745   0.903  0.3668  0.2896  0.2276
  155TCq2    C8 2365   1.245   1.571   0.882 -0.8929  0.0517 -0.2283
  155TCq2    O4 2366   1.335   1.519   0.947 -0.5119 -0.3034  0.7433
  155TCq2    C9 2367   1.267   1.877   1.256 -1.0119  0.1603 -0.3616
  155TCq2    O5 2368   1.223   1.971   1.329  0.0313  0.6976  0.6728
  155TCq2    O6 2369   1.391   1.840   1.254 -0.6394  0.0349 -0.0087
  155TCq2    H2 2370   1.024   1.951   1.172 -0.0239 -0.6309  0.5727
  155TCq2    H3 2371   1.347   1.695   1.103  0.4350  1.7102  0.1541
  155TCq2    H4 2372   1.010   1.702   0.829 -0.5657 -0.8957  1.7630
  156MPD2     C 2373   4.141   4.508  11.424 -0.6735  0.2798 -0.0773
  156MPD2    C1 2374   4.004   4.512  11.418 -0.4946  0.9067 -0.5309
  156MPD2    C2 2375   3.932   4.459  11.520  0.3259 -0.4287  0.3923
  156MPD2    C3 2376   3.999   4.415  11.634 -0.6103  0.6724  1.1916
  156MPD2    C4 2377   4.142   4.418  11.647  0.4799 -0.6549  0.0325
  156MPD2    C5 2378   4.206   4.463  11.532  0.8391  0.2648 -0.6633
  156MPD2     H 2379   3.823   4.464  11.517  0.3834  0.5052 -0.2518
  156MPD2    H1 2380   4.199   4.400  11.738  0.2987 -1.3474  0.0068
  156MPD2    H2 2381   4.206   4.543  11.345  0.5533 -1.9499 -0.0742
  156MPD2    H3 2382   4.313   4.481  11.537  0.8399  1.1011 -4.1635
  156MPD2     N 2383   3.914   4.352  11.734 -0.1017  0.0247 -0.3160
  156MPD2    H5 2384   3.817   4.334  11.709  1.4638 -2.4642 -4.6595
  156MPD2    N1 2385   3.951   4.572  11.309 -0.2027  0.2168  0.0484
  156MPD2    H7 2386   4.011   4.581  11.228 -1.9034  0.8547 -1.1380
  157TCq2    C1 2387   3.828   4.636  11.308  0.2930  0.2033  0.3094
  157TCq2    O2 2388   3.751   4.651  11.398 -0.1212  0.1502  0.5266
  157TCq2    C2 2389   3.794   4.695  11.179 -0.1364  0.8206  0.0384
  157TCq2    C3 2390   3.803   4.607  11.068  0.7437  0.2790 -0.2484
  157TCq2    C4 2391   3.732   4.635  10.960  0.3877 -0.4471  1.0751
  157TCq2    C5 2392   3.651   0.016  10.957 -0.0105 -0.7975 -0.6971
  157TCq2    C6 2393   3.648   0.102  11.060 -0.1736 -0.0329  0.0305
  157TCq2    C7 2394   3.712   0.080  11.181  0.9217  0.1898 -0.2446
  157TCq2    C8 2395   3.578   0.226  11.037  0.5570 -0.0992 -0.5338
  157TCq2    O4 2396   3.567   0.260  10.923 -0.3733  0.6550 -0.3227
  157TCq2    C9 2397   3.723   4.546  10.848 -0.3817  0.5748 -0.1807
  157TCq2    O5 2398   3.828   4.480  10.837 -0.1196 -0.0482  0.1822
  157TCq2    O6 2399   3.611   4.525  10.803 -0.6731 -0.2216 -0.0635
  157TCq2    H2 2400   3.867   4.520  11.073  1.6068  0.9081 -0.2803
  157TCq2    H3 2401   3.596   0.037  10.866  0.0191  0.9823 -0.3123
  157TCq2    H4 2402   3.710   0.144  11.268 -0.0540  0.3894 -0.4190
  158TMC2    C1 2403   3.556   2.767  13.247 -0.1565 -0.2547  0.8616
  158TMC2    C2 2404   3.569   2.851  13.137  0.0808 -0.1032  0.9871
  158TMC2    C3 2405   3.475   2.944  13.136 -0.2861 -0.3960  0.0223
  158TMC2    C4 2406   3.452   2.768  13.338 -0.8771  0.2804 -0.2028
  158TMC2    C5 2407   3.360   2.869  13.324 -1.0084  0.6444 -0.3864
  158TMC2    C6 2408   3.368   2.957  13.217  0.0630  0.1274  0.6935
  158TMC2     C 2409   3.665   2.680  13.282 -0.1918  0.4855  0.6907
  158TMC2     O 2410   3.736   2.640  13.192  0.2012 -0.0368  0.5355
  158TMC2     H 2411   3.646   2.840  13.061 -0.6192 -0.5945  0.3361
  158TMC2    H1 2412   3.452   2.683  13.405  1.9672 -2.3418 -3.5076
  158TMC2    H2 2413   3.297   3.038  13.203 -0.7232 -0.6293  0.3164
  158TMC2    C7 2414   3.232   2.856  13.391 -0.8237  0.0308 -1.2821
  158TMC2    C8 2415   3.479   3.032  13.023  0.3292  0.1986  0.4175
  158TMC2    O1 2416   3.149   2.928  13.342  0.2763  0.1420 -0.0195
  158TMC2    O2 2417   3.378   3.080  12.974 -0.0132  0.4531  0.2562
  158TMC2    O5 2418   3.604   3.085  13.017 -0.5017  0.3887  0.0632
  158TMC2    H5 2419   3.663   3.069  13.093 -3.3124  0.4083  2.2653
  159MPD2     C 2420   3.913   2.432  13.669  0.4614 -0.6166  0.6646
  159MPD2    C1 2421   3.856   2.550  13.717  0.1993 -0.1530 -0.1087
  159MPD2    C2 2422   3.788   2.627  13.627  0.7733  0.2037 -0.1022
  159MPD2    C3 2423   3.772   2.590  13.493  0.1467  0.3189 -0.2121
  159MPD2    C4 2424   3.824   2.467  13.449  0.2208 -0.4450  0.1075
  159MPD2    C5 2425   3.899   2.396  13.537 -0.2049  0.0621  0.1504
  159MPD2     H 2426   3.741   2.716  13.669 -1.2081 -0.7966 -0.1880
  159MPD2    H1 2427   3.820   2.431  13.346 -2.2377 -0.6540  0.2655
  159MPD2    H2 2428   3.978   2.371  13.730  1.4295 -1.6349 -1.3901
  159MPD2    H3 2429   3.949   2.307  13.500  1.1034  1.4543 -1.4241
  159MPD2     N 2430   3.691   2.680  13.420  0.4532  0.4174  0.7730
  159MPD2    H5 2431   3.659   2.762  13.470 -2.2929  0.3231 -0.7972
  159MPD2    N1 2432   3.853   2.567  13.854 -0.1235  0.0947  0.3813
  159MPD2    H7 2433   3.910   2.507  13.914  0.9461 -1.0147 -1.7666
  160TMC2    C1 2434   4.268   0.650   1.603 -0.3196  0.1949  0.1213
  160TMC2    C2 2435   4.254   0.510   1.611  0.0290  0.2635 -0.3094
  160TMC2    C3 2436   4.276   0.448   1.498  0.1802 -0.5997  0.3038
  160TMC2    C4 2437   4.312   0.716   1.495 -0.2562  0.0724 -0.3770
  160TMC2    C5 2438   4.353   0.648   1.389  0.2961 -0.8807  0.2406
  160TMC2    C6 2439   4.335   0.511   1.393  0.3002 -0.5191 -0.0184
  160TMC2     C 2440   4.221   0.736   1.714 -0.4038  0.8829 -0.0850
  160TMC2     O 2441   4.205   0.690   1.824 -0.2679  0.0507 -0.3415
  160TMC2     H 2442   4.211   0.464   1.700 -0.3240  2.1547  0.4953
  160TMC2    H1 2443   4.326   0.823   1.495 -1.9398  0.2855  0.0715
  160TMC2    H2 2444   4.341   0.451   1.303 -0.3779 -0.0023 -0.4195
  160TMC2    C7 2445   4.359   0.710   1.256 -0.5332  0.4241  0.3366
  160TMC2    C8 2446   4.274   0.301   1.501 -0.7028  0.2158  0.8659
  160TMC2    O1 2447   4.360   0.628   1.170 -0.4913 -0.3898 -0.1509
  160TMC2    O2 2448   4.381   0.240   1.501 -0.4432  0.2409 -0.6680
  160TMC2    O5 2449   4.157   0.251   1.540 -0.9120 -0.2513  0.3629
  160TMC2    H5 2450   4.085   0.313   1.518 -0.1740  0.4569 -0.0547
  161MPD2     C 2451   4.122   0.954   1.889 -0.3500 -0.8503 -0.5654
  161MPD2    C1 2452   4.092   0.937   1.753 -0.4924  0.0167 -0.0888
  161MPD2    C2 2453   4.009   1.025   1.688  0.3895 -1.0687 -0.0142
  161MPD2    C3 2454   3.948   1.128   1.748 -0.5650  0.2994 -0.2807
  161MPD2    C4 2455   3.994   1.155   1.872 -0.8289 -0.0918  0.0120
  161MPD2    C5 2456   4.073   1.066   1.945 -0.2742 -0.0937 -0.0500
  161MPD2     H 2457   3.998   1.021   1.580  0.3271 -0.8539 -0.0164
  161MPD2    H1 2458   3.953   1.242   1.922  0.5148  0.6232 -0.1350
  161MPD2    H2 2459   4.196   0.891   1.937  0.5917  0.4866 -0.2624
  161MPD2    H3 2460   4.091   1.089   2.050  0.1606  0.6040 -0.2797
  161MPD2     N 2461   3.845   1.201   1.682  0.1273 -0.3033  0.0646
  161MPD2    H5 2462   3.823   1.291   1.722 -1.5368 -1.0863  0.9143
  161MPD2    N1 2463   4.165   0.848   1.668  0.2689 -0.1240  0.0454
  161MPD2    H7 2464   4.148   0.846   1.568  4.7302 -1.2751 -0.6821
  162TMC2    C1 2465   2.728   3.101   1.457  0.0777 -0.0463 -0.3747
  162TMC2    C2 2466   2.693   3.232   1.492 -0.4845 -0.5462 -0.2989
  162TMC2    C3 2467   2.668   3.252   1.621  0.2905 -0.1557  0.1473
  162TMC2    C4 2468   2.747   3.003   1.549 -0.1879 -0.4887  0.6105
  162TMC2    C5 2469   2.718   3.041   1.673 -0.0801 -0.3381 -0.1410
  162TMC2    C6 2470   2.685   3.165   1.715  0.3989  0.4320 -0.3532
  162TMC2     C 2471   2.771   3.070   1.319 -0.2068  0.2960  0.5315
  162TMC2     O 2472   2.825   2.963   1.291 -0.0809  0.8042 -0.0704
  162TMC2     H 2473   2.678   3.311   1.420  1.0219  1.1889  1.2982
  162TMC2    H1 2474   2.778   2.906   1.514 -0.1524  0.2657 -1.4461
  162TMC2    H2 2475   2.708   3.188   1.818 -2.2342  1.0689  0.0775
  162TMC2    C7 2476   2.706   2.937   1.778 -0.3634 -0.0191 -0.2189
  162TMC2    C8 2477   2.635   3.395   1.658  0.5057  0.3732  0.0607
  162TMC2    O1 2478   2.666   2.973   1.888 -0.6466  0.2649 -0.2253
  162TMC2    O2 2479   2.647   3.477   1.575 -0.0402 -0.1413  0.2016
  162TMC2    O5 2480   2.544   3.396   1.761 -0.4814  0.2387  0.0825
  162TMC2    H5 2481   2.534   3.310   1.808  0.5169 -0.4189 -0.9067
  163MPD2     C 2482   2.702   3.184   0.821 -0.0523 -0.8029  0.2577
  163MPD2    C1 2483   2.718   3.058   0.884  0.6057 -0.3555  0.4041
  163MPD2    C2 2484   2.754   3.053   1.014  0.0540  0.4386 -0.5714
  163MPD2    C3 2485   2.764   3.171   1.088  0.1713  0.5820  0.0819
  163MPD2    C4 2486   2.748   3.292   1.021 -0.4507  0.0371 -0.1463
  163MPD2    C5 2487   2.717   3.297   0.891 -0.0387 -0.3071  0.1440
  163MPD2     H 2488   2.771   2.958   1.064  0.8072  0.7884 -0.1478
  163MPD2    H1 2489   2.775   3.386   1.067  0.7689 -1.1456  1.5783
  163MPD2    H2 2490   2.677   3.196   0.716  0.5171 -1.8174  0.0085
  163MPD2    H3 2491   2.699   3.392   0.841 -0.7452  0.8339  2.5419
  163MPD2     N 2492   2.755   3.182   1.229  0.0934 -0.2248  0.1224
  163MPD2    H5 2493   2.745   3.278   1.261 -0.4564 -0.4587  0.6400
  163MPD2    N1 2494   2.697   2.950   0.799 -0.3158 -0.2049  0.5256
  163MPD2    H7 2495   2.670   2.966   0.703 -0.1627 -1.1852  0.3162
  164TCq2    C1 2496   1.950   3.271  11.559 -0.3430 -0.1285 -1.4798
  164TCq2    O2 2497   1.855   3.255  11.634  0.3391  0.0663 -0.0145
  164TCq2    C2 2498   1.967   3.407  11.509 -0.0099 -0.0121  0.3641
  164TCq2    C3 2499   2.077   3.432  11.434 -0.2009 -0.1735 -0.1875
  164TCq2    C4 2500   2.072   3.532  11.343 -0.2620 -0.3529 -0.1121
  164TCq2    C5 2501   1.957   3.594  11.315 -0.2377  0.1023  0.4708
  164TCq2    C6 2502   1.845   3.569  11.395 -0.3982  0.2269 -0.3793
  164TCq2    C7 2503   1.854   3.482  11.498  0.5165 -0.3681  0.6110
  164TCq2    C8 2504   1.737   3.666  11.382 -0.1338 -0.4360  0.3143
  164TCq2    O4 2505   1.733   3.746  11.292 -0.3928  0.1970  0.6360
  164TCq2    C9 2506   2.188   3.558  11.264 -0.0992 -0.5643 -0.4581
  164TCq2    O5 2507   2.172   3.643  11.172 -0.0048  0.2579  0.0263
  164TCq2    O6 2508   2.281   3.475  11.261 -0.2480 -0.4843  0.3040
  164TCq2    H2 2509   2.173   3.388  11.458  0.6424 -0.3192 -3.7440
  164TCq2    H3 2510   1.959   3.678  11.248 -1.7164  1.3600  1.9865
  164TCq2    H4 2511   1.768   3.443  11.551 -0.5042  0.4964 -0.4098
  165MPD2     C 2512   4.659   4.486   1.692 -0.2706 -0.3811 -0.0410
  165MPD2    C1 2513   4.606   4.400   1.602  0.0426  0.0319  0.4155
  165MPD2    C2 2514   4.496   4.445   1.530  0.2743 -0.3080  0.5670
  165MPD2    C3 2515   4.447   4.570   1.541  0.4428  0.2862 -0.1059
  165MPD2    C4 2516   4.511   4.655   1.627  0.3831 -0.3275 -1.2362
  165MPD2    C5 2517   4.620   4.620   1.705  0.1710 -0.6451  0.1258
  165MPD2     H 2518   4.459   4.367   1.465 -2.7057  0.2506  1.5744
  165MPD2    H1 2519   4.471   0.029   1.632  3.0322  0.6942 -0.5587
  165MPD2    H2 2520   0.019   4.455   1.749 -0.9913 -2.6927 -0.2237
  165MPD2    H3 2521   4.669   4.694   1.767 -2.2610 -0.0392  1.2917
  165MPD2     N 2522   4.335   4.615   1.467  0.1101  0.1233 -0.2354
  165MPD2    H5 2523   4.311   4.714   1.460  0.1957  0.1957  0.5780
  165MPD2    N1 2524   4.667   4.271   1.600  0.1981  0.8537  0.1353
  165MPD2    H7 2525   0.019   4.255   1.662  0.0491  0.6722  0.2792
  166TCq2    C1 2526   4.252   4.535   1.396  0.5088  0.0700  0.2473
  166TCq2    O2 2527   4.256   4.413   1.388  0.0620  0.0143 -0.9415
  166TCq2    C2 2528   4.150   4.613   1.331 -0.9038  0.0484  0.2225
  166TCq2    C3 2529   4.043   4.547   1.284  0.5079 -0.3688 -1.2693
  166TCq2    C4 2530   3.961   4.606   1.190 -0.1758  0.3768  0.4625
  166TCq2    C5 2531   3.981   0.011   1.149 -0.1879  0.6938  0.1863
  166TCq2    C6 2532   4.083   0.081   1.207  0.3909  0.3114  0.0646
  166TCq2    C7 2533   4.164   0.024   1.301 -0.2849  0.7934 -0.7407
  166TCq2    C8 2534   4.132   0.201   1.142  0.2687 -0.3773  0.0181
  166TCq2    O4 2535   4.220   0.268   1.193 -0.0089 -0.1159 -0.5271
  166TCq2    C9 2536   3.857   4.522   1.128 -0.1445 -0.3207 -0.8163
  166TCq2    O5 2537   3.795   4.578   1.036  0.0198 -0.2564  0.1653
  166TCq2    O6 2538   3.845   4.402   1.168 -0.1010 -0.3008 -0.2590
  166TCq2    H2 2539   4.019   4.445   1.312  0.1102 -0.3466 -1.5121
  166TCq2    H3 2540   3.911   0.045   1.073 -0.8945  0.0894  0.5783
  166TCq2    H4 2541   4.248   0.081   1.340  1.8792 -0.7499 -3.1512
  167TMC2    C1 2542   1.029   3.115  12.604 -0.2697 -0.4426 -0.6782
  167TMC2    C2 2543   0.962   3.179  12.708 -0.1370 -0.0348 -0.0911
  167TMC2    C3 2544   0.910   3.094  12.800 -0.6239 -1.0546  0.0120
  167TMC2    C4 2545   1.059   2.984  12.601  0.4809 -0.7673 -0.0611
  167TMC2    C5 2546   1.005   2.906  12.698  0.2475 -0.1171  0.0881
  167TMC2    C6 2547   0.927   2.964  12.792  0.1752 -0.0167  0.5594
  167TMC2     C 2548   1.036   3.195  12.485 -0.7666 -0.0159  0.4320
  167TMC2     O 2549   0.951   3.285  12.472  0.5365  0.8295  0.2910
  167TMC2     H 2550   0.945   3.285  12.722 -2.7671 -0.2825 -1.5070
  167TMC2    H1 2551   1.110   2.945  12.514  1.8983 -1.0155  0.8754
  167TMC2    H2 2552   0.890   2.903  12.874 -0.7843  0.6551  0.6165
  167TMC2    C7 2553   1.018   2.759  12.700 -0.2869 -0.0062 -0.2291
  167TMC2    C8 2554   0.793   3.144  12.879  0.3450 -0.0771  0.0820
  167TMC2    O1 2555   0.975   2.695  12.794  0.1366 -0.2385  0.2775
  167TMC2    O2 2556   0.705   3.069  12.911  0.1158  0.0577  0.1798
  167TMC2    O5 2557   0.781   3.276  12.893 -0.7462  0.0267 -0.1831
  167TMC2    H5 2558   0.864   3.326  12.881  0.0048 -0.8074  1.6176
  168MPD2     C 2559   1.077   3.320  12.219  0.1479  0.3558  0.1359
  168MPD2    C1 2560   1.127   3.193  12.258 -0.1323 -1.1911 -0.4036
  168MPD2    C2 2561   1.172   3.112  12.156  0.2799  0.0464 -0.1366
  168MPD2    C3 2562   1.170   3.147  12.023 -0.1261 -0.0866  0.2678
  168MPD2    C4 2563   1.130   3.279  11.996 -0.7469  0.4935 -0.2532
  168MPD2    C5 2564   1.091   3.365  12.092 -0.0943 -0.3722  0.7293
  168MPD2     H 2565   1.196   3.010  12.182  2.4138  0.9104  1.2876
  168MPD2    H1 2566   1.128   3.313  11.893 -0.4690  0.6428 -0.2099
  168MPD2    H2 2567   1.042   3.391  12.292  2.2877 -0.7039  2.1962
  168MPD2    H3 2568   1.056   3.463  12.061 -0.3086 -0.6721  0.0257
  168MPD2     N 2569   1.182   3.064  11.914 -0.0748  0.1490  0.4545
  168MPD2    H5 2570   1.154   3.097  11.822 -0.6574 -0.8190  0.2928
  168MPD2    N1 2571   1.111   3.138  12.387 -0.0889  0.0988 -0.3724
  168MPD2    H7 2572   1.174   3.061  12.405 -0.7783 -0.1559  1.0188
  169MPD1     C 2573   3.937   1.560   9.229  0.6211  0.3033 -0.9463
  169MPD1    C1 2574   3.978   1.427   9.232 -1.0703 -0.0404  0.4880
  169MPD1    C2 2575   4.105   1.393   9.176 -1.1126 -0.2901  0.4048
  169MPD1    C3 2576   4.195   1.494   9.143  0.1578  0.1656  0.3767
  169MPD1    C4 2577   4.149   1.627   9.145  0.7914  0.4788  1.1583
  169MPD1    C5 2578   4.029   1.656   9.197 -0.1480  0.4717  0.0020
  169MPD1     H 2579   4.132   1.292   9.149  0.6978 -0.3735  2.4508
  169MPD1    H1 2580   4.201   1.710   9.099  0.5312  0.2664  0.4920
  169MPD1    H2 2581   3.840   1.596   9.261  0.9796  1.3011 -0.9528
  169MPD1    H3 2582   4.003   1.760   9.207  1.0369  0.6582  1.1726
  169MPD1     N 2583   4.319   1.448   9.088  0.9143  0.5825  0.0490
  169MPD1    H5 2584   4.337   1.348   9.094 -0.3390  0.4576  1.7126
  169MPD1    N1 2585   3.879   1.334   9.268 -0.1467 -0.5433 -0.2219
  169MPD1    H6 2586   3.820   1.380   9.337  2.2661  2.5759 -0.2451
  169MPD1    H7 2587   3.917   1.247   9.306 -1.9449 -2.4448 -2.8151
  170MPD1     C 2588   2.789   0.093  12.674  0.4769  0.0747 -0.0362
  170MPD1    C1 2589   2.701   0.201  12.645  0.5165  0.1955  0.0564
  170MPD1    C2 2590   2.683   0.290  12.750  0.0839  0.2468  0.4067
  170MPD1    C3 2591   2.715   0.260  12.884  0.4756  0.5437  0.9981
  170MPD1    C4 2592   2.803   0.156  12.905  0.2908  0.3908  0.5874
  170MPD1    C5 2593   2.844   0.084  12.796  0.2126  0.7256 -0.1448
  170MPD1     H 2594   2.632   0.383  12.733 -0.6274  0.0076  1.2809
  170MPD1    H1 2595   2.852   0.137  12.999 -0.2687 -0.0658  0.7917
  170MPD1    H2 2596   2.835   0.037  12.594  0.3271 -0.4527  0.2474
  170MPD1    H3 2597   2.922   0.011  12.818  0.8706  1.1169 -1.1782
  170MPD1     N 2598   2.664   0.341  12.989  0.3572 -0.6790 -0.3469
  170MPD1    H5 2599   2.602   0.413  12.952 -1.4204 -2.3472 -0.5878
  170MPD1    N1 2600   2.688   0.240  12.511  0.4680  0.2716 -0.4023
  170MPD1    H6 2601   2.609   0.302  12.499  1.7089  1.5611 -1.8699
  170MPD1    H7 2602   2.666   0.167  12.443  1.2383 -0.5030  0.1767
  171MPD1     C 2603   1.430   1.252  15.211  0.5707  0.5593  0.4638
  171MPD1    C1 2604   1.446   1.277  15.342  0.0764 -0.3836 -0.5949
  171MPD1    C2 2605   1.528   1.185  15.417 -0.3466  0.3630  0.8492
  171MPD1    C3 2606   1.576   1.066  15.354 -0.1666  0.2718  0.0854
  171MPD1    C4 2607   1.556   1.045  15.219 -0.2069  0.4985 -0.0516
  171MPD1    C5 2608   1.478   1.137  15.151  0.2856  0.3007  0.0990
  171MPD1     H 2609   1.552   1.208  15.521 -3.5871  2.5982  1.1047
  171MPD1    H1 2610   1.599   0.958  15.171  0.2228  0.9048 -0.3977
  171MPD1    H2 2611   1.367   1.312  15.146  3.0273  0.1614 -2.2876
  171MPD1    H3 2612   1.475   1.132  15.043 -0.0884 -0.8140  0.1678
  171MPD1     N 2613   1.656   0.966  15.420 -0.4351  0.0056 -0.2267
  171MPD1    H5 2614   1.665   0.872  15.382 -0.3102  0.0649 -0.3445
  171MPD1    N1 2615   1.417   1.404  15.394 -0.1303 -0.0817  0.8350
  171MPD1    H6 2616   1.397   1.404  15.493  0.1611 -0.3300  0.8947
  171MPD1    H7 2617   1.338   1.450  15.348  0.4122  0.2737  0.2460
  172MPD1     C 2618   0.244   0.157   0.209 -0.4771  0.4766  0.6990
  172MPD1    C1 2619   0.340   0.171   0.112 -0.2620  0.1037  0.0946
  172MPD1    C2 2620   0.443   0.256   0.140 -0.1346 -0.1952 -0.0724
  172MPD1    C3 2621   0.448   0.320   0.264 -0.0366  0.2841 -0.3232
  172MPD1    C4 2622   0.339   0.304   0.356 -0.0801  0.6002  0.8670
  172MPD1    C5 2623   0.244   0.213   0.328  0.5794 -0.4892 -1.2827
  172MPD1     H 2624   0.531   0.256   0.076 -0.0391 -0.1874  0.0579
  172MPD1    H1 2625   0.324   0.361   0.447 -1.0994  0.7622  0.5980
  172MPD1    H2 2626   0.158   0.094   0.190 -0.6473  1.4470 -1.8591
  172MPD1    H3 2627   0.171   0.177   0.399  0.6370  2.6962  0.3808
  172MPD1     N 2628   0.555   0.395   0.308 -0.7018  0.3415 -0.2557
  172MPD1    H5 2629   0.562   0.415   0.407 -2.5728 -1.7296  0.2879
  172MPD1    N1 2630   0.317   0.092  17.704 -0.3857 -0.2970 -0.6222
  172MPD1    H6 2631   0.229   0.112  17.656 -0.0949  2.7000  0.1177
  172MPD1    H7 2632   0.394   0.112  17.642  0.2579 -1.3488 -0.1608
  173MPD1     C 2633   1.290   0.904  14.031 -0.7028 -0.0568  0.4517
  173MPD1    C1 2634   1.165   0.867  14.016 -0.1942  0.3471  0.2725
  173MPD1    C2 2635   1.120   0.746  14.072  0.5452  0.3018  0.4619
  173MPD1    C3 2636   1.208   0.680  14.163 -0.5921  0.0694 -0.1425
  173MPD1    C4 2637   1.342   0.724  14.176  0.1081  0.0676 -0.0820
  173MPD1    C5 2638   1.382   0.834  14.103  0.2548  0.0024 -0.6630
  173MPD1     H 2639   1.019   0.712  14.051  0.0611  2.0243  0.0097
  173MPD1    H1 2640   1.412   0.677  14.244  0.1498  1.4661  0.8245
  173MPD1    H2 2641   1.329   0.995  13.987 -3.3461  0.6967 -0.3132
  173MPD1    H3 2642   1.484   0.872  14.106 -0.3669  1.4999  1.1201
  173MPD1     N 2643   1.157   0.567  14.231 -0.1562  0.2960 -0.2683
  173MPD1    H5 2644   1.064   0.531  14.213  0.5512 -2.0505  0.6540
  173MPD1    N1 2645   1.086   0.933  13.916  0.2160  0.6084 -0.7881
  173MPD1    H6 2646   1.100   1.034  13.913 -0.3675  0.7632  1.9796
  173MPD1    H7 2647   0.987   0.911  13.926  0.0098  1.2877 -1.3306
  174MPD1     C 2648   0.702   4.656  13.830 -0.0226 -0.1943  0.0441
  174MPD1    C1 2649   0.799   4.590  13.894 -0.4460 -0.3863 -0.5731
  174MPD1    C2 2650   0.890   4.650  13.978  0.2358  0.1323 -0.4867
  174MPD1    C3 2651   0.868   0.061  14.008  0.3686  0.8683 -0.2479
  174MPD1    C4 2652   0.759   0.127  13.944  0.0489  0.5795 -0.0780
  174MPD1    C5 2653   0.685   0.065  13.850  0.1079  0.1254  0.6386
  174MPD1     H 2654   0.969   4.593  14.026  0.4394 -0.5240 -1.5977
  174MPD1    H1 2655   0.728   0.229  13.967 -0.2714  0.5763 -0.4912
  174MPD1    H2 2656   0.647   4.601  13.754  0.6144  0.5208 -0.9445
  174MPD1    H3 2657   0.609   0.119  13.795  2.3735 -0.3587 -2.9776
  174MPD1     N 2658   0.934   0.134  14.106 -0.2767 -0.0024  0.4044
  174MPD1    H5 2659   0.894   0.225  14.125 -0.5178 -0.1472  0.5833
  174MPD1    N1 2660   0.832   4.453  13.859  0.2081  0.3254  0.0272
  174MPD1    H6 2661   0.752   4.394  13.838  0.0890  0.1799  0.9271
  174MPD1    H7 2662   0.882   4.395  13.925 -1.0591 -3.0006 -1.9332
  175MPD1     C 2663   0.601   0.921  15.382  0.6381  0.2704  0.0700
  175MPD1    C1 2664   0.484   0.913  15.450 -0.1469 -0.7772 -0.9358
  175MPD1    C2 2665   0.478   0.871  15.580  0.0780  0.0427 -0.2545
  175MPD1    C3 2666   0.596   0.847  15.651 -0.6416  0.2885 -0.0388
  175MPD1    C4 2667   0.719   0.863  15.587 -0.0761 -0.7480 -0.4123
  175MPD1    C5 2668   0.720   0.897  15.452  0.3357  0.5033 -0.3265
  175MPD1     H 2669   0.381   0.860  15.628 -0.2913  2.5382 -0.4039
  175MPD1    H1 2670   0.813   0.840  15.635  0.6214 -0.3562 -1.6179
  175MPD1    H2 2671   0.603   0.941  15.275 -2.3649 -1.4882 -0.3138
  175MPD1    H3 2672   0.809   0.885  15.391  0.0264  2.4491 -1.1386
  175MPD1     N 2673   0.601   0.798  15.785  0.0428 -0.4859  0.4380
  175MPD1    H5 2674   0.691   0.790  15.831 -1.3529 -2.9783  2.7444
  175MPD1    N1 2675   0.366   0.950  15.384  0.6137 -0.2278 -0.1173
  175MPD1    H6 2676   0.375   0.944  15.283 -3.2098 -1.5764 -0.4015
  175MPD1    H7 2677   0.283   0.912  15.430 -1.9464  3.1004 -2.0670
  176MPD1     C 2678   1.526   3.405   0.356 -0.6706 -0.4156  0.8746
  176MPD1    C1 2679   1.441   3.364   0.258  0.1674 -0.0662  0.0665
  176MPD1    C2 2680   1.487   3.384   0.124  0.3846  0.5503 -0.1042
  176MPD1    C3 2681   1.603   3.444   0.096 -0.4579  0.2791 -0.0464
  176MPD1    C4 2682   1.692   3.481   0.196  0.2346 -0.2934 -0.2457
  176MPD1    C5 2683   1.649   3.468   0.328 -0.7642 -0.1180 -0.2226
  176MPD1     H 2684   1.418   3.360   0.044 -0.2209  1.5399  0.1232
  176MPD1    H1 2685   1.789   3.528   0.184  0.5374 -1.2316 -1.4942
  176MPD1    H2 2686   1.492   3.398   0.459  0.7037  0.4122  1.3909
  176MPD1    H3 2687   1.709   3.510   0.407 -0.7315 -1.4275  0.4461
  176MPD1     N 2688   1.626   3.457  17.662  0.1962  0.6522  0.1817
  176MPD1    H5 2689   1.542   3.442  17.608  0.0241  0.5682  0.4699
  176MPD1    N1 2690   1.313   3.329   0.289 -0.1891  0.2253 -0.0259
  176MPD1    H6 2691   1.265   3.267   0.225 -0.3859  0.0897  0.2500
  176MPD1    H7 2692   1.300   3.291   0.383 -0.5757  1.0921  0.2659
  177MPD1     C 2693   1.222   3.950   9.327 -0.0791 -0.7433 -0.5109
  177MPD1    C1 2694   1.140   3.973   9.429  0.0996  0.7100  0.2495
  177MPD1    C2 2695   1.015   3.906   9.437  0.8485 -0.0319 -0.4980
  177MPD1    C3 2696   0.983   3.813   9.337 -0.0808 -0.0052 -0.0987
  177MPD1    C4 2697   1.071   3.792   9.229  0.6877  0.5739 -0.3504
  177MPD1    C5 2698   1.190   3.861   9.227 -0.2271 -0.3520  0.0938
  177MPD1     H 2699   0.955   3.921   9.526 -0.4398  0.8475 -1.5185
  177MPD1    H1 2700   1.057   3.720   9.149  1.1939 -1.4824  1.4034
  177MPD1    H2 2701   1.311   4.009   9.308 -0.5835  0.4601  0.8901
  177MPD1    H3 2702   1.251   3.850   9.138 -0.2212  2.5230 -0.2440
  177MPD1     N 2703   0.866   3.727   9.356 -0.3016  0.5214 -0.2963
  177MPD1    H5 2704   0.802   3.751   9.431  0.6406  0.7909  0.4206
  177MPD1    N1 2705   1.176   4.072   9.529  0.2337 -0.0971 -0.3710
  177MPD1    H6 2706   1.116   4.075   9.611 -0.0621 -0.1306 -0.5845
  177MPD1    H7 2707   1.277   4.081   9.536  0.1984 -0.2812  0.3372
  178MPD1     C 2708   2.630   4.613   0.224 -0.1547 -0.2336 -0.5713
  178MPD1    C1 2709   2.534   4.517   0.235  0.2467  0.0264 -0.5821
  178MPD1    C2 2710   2.558   4.395   0.171 -0.1360 -0.3483  0.1654
  178MPD1    C3 2711   2.686   4.368   0.118 -0.2705 -0.5599  0.6292
  178MPD1    C4 2712   2.782   4.460   0.130  0.2241 -0.4943  1.2593
  178MPD1    C5 2713   2.755   4.581   0.180 -0.2475 -0.2245 -0.0315
  178MPD1     H 2714   2.478   4.323   0.163 -0.1664 -0.2117 -0.8058
  178MPD1    H1 2715   2.885   4.444   0.100 -0.4840  1.7215 -2.3576
  178MPD1    H2 2716   2.608   4.715   0.254  1.9573  0.1287 -0.2772
  178MPD1    H3 2717   2.837   4.651   0.186  0.5512 -1.2157  0.5893
  178MPD1     N 2718   2.719   4.250   0.048  0.8923 -0.4252 -1.0888
  178MPD1    H5 2719   2.814   4.264   0.015  1.9022  0.1818  2.1197
  178MPD1    N1 2720   2.405   4.542   0.276  0.1136  0.2147  0.1825
  178MPD1    H6 2721   2.364   4.460   0.321 -0.2297  0.4452  0.2898
  178MPD1    H7 2722   2.395   4.626   0.333 -3.4091 -0.7580  1.0095
  179MPD1     C 2723   2.440   1.841  14.755  0.4408 -0.2963 -0.1763
  179MPD1    C1 2724   2.422   1.757  14.858 -0.3245 -0.1144 -0.1034
  179MPD1    C2 2725   2.379   1.800  14.982 -0.0240  0.0975 -0.1712
  179MPD1    C3 2726   2.356   1.936  15.002  0.1590  0.9102 -0.1611
  179MPD1    C4 2727   2.359   2.023  14.888 -0.4365 -0.4610 -0.0885
  179MPD1    C5 2728   2.405   1.973  14.771 -1.0416  0.0179 -0.6567
  179MPD1     H 2729   2.369   1.729  15.063 -1.2995  2.8439  2.0795
  179MPD1    H1 2730   2.327   2.127  14.889  1.4312  0.1112  3.0643
  179MPD1    H2 2731   2.488   1.812  14.663  1.1280  2.4155 -0.6689
  179MPD1    H3 2732   2.428   2.043  14.691 -3.1180  1.3937 -0.0337
  179MPD1     N 2733   2.320   1.997  15.123  0.1180 -0.2546 -0.3020
  179MPD1    H5 2734   2.291   2.094  15.129 -1.1247 -0.6569  0.2078
  179MPD1    N1 2735   2.469   1.629  14.849 -0.2179  0.0613 -0.1420
  179MPD1    H6 2736   2.489   1.603  14.753  1.9027 -2.7472  1.0751
  179MPD1    H7 2737   2.399   1.566  14.888  2.2814 -2.5367  0.0952
  180MPD1     C 2738   2.396   3.457  15.582 -1.3302 -0.0843 -0.1924
  180MPD1    C1 2739   2.337   3.582  15.586  0.0970 -0.0425  0.1710
  180MPD1    C2 2740   2.249   3.626  15.486 -0.8103  0.0966 -0.3992
  180MPD1    C3 2741   2.236   3.542  15.374  0.0638 -0.0556 -0.1166
  180MPD1    C4 2742   2.307   3.423  15.368 -0.2540  0.6471 -1.0819
  180MPD1    C5 2743   2.382   3.381  15.474  0.0342 -0.0301 -0.6045
  180MPD1     H 2744   2.187   3.714  15.503  0.4298  0.7943  0.5208
  180MPD1    H1 2745   2.304   3.356  15.283  1.0528 -2.8382  1.6590
  180MPD1    H2 2746   2.457   3.418  15.663  0.0435 -0.3412 -1.3524
  180MPD1    H3 2747   2.442   3.291  15.464 -2.9050 -2.2264  1.3748
  180MPD1     N 2748   2.146   3.582  15.272  0.2751  0.1488 -0.0584
  180MPD1    H5 2749   2.082   3.660  15.286  0.0288 -0.0132 -0.2756
  180MPD1    N1 2750   2.316   3.635  15.714  0.3212 -0.1923  0.5972
  180MPD1    H6 2751   2.316   3.736  15.716  1.9248 -0.1898  0.9053
  180MPD1    H7 2752   2.383   3.605  15.785  1.2939 -0.5282 -0.4622
  181MPD1     C 2753   0.956   1.791   9.047  0.3897  0.0481  0.4489
  181MPD1    C1 2754   0.942   1.656   9.020 -0.3363 -0.4652  0.2870
  181MPD1    C2 2755   0.828   1.587   9.048 -0.2367 -0.0595  0.0524
  181MPD1    C3 2756   0.720   1.668   9.080  0.0133 -1.5608 -0.6114
  181MPD1    C4 2757   0.726   1.801   9.101 -0.4882  0.1693  0.7281
  181MPD1    C5 2758   0.851   1.867   9.082  0.6698  0.3485  0.0209
  181MPD1     H 2759   0.821   1.479   9.036  2.3338 -0.0850 -1.3172
  181MPD1    H1 2760   0.632   1.851   9.118 -1.1902 -0.7451 -0.4408
  181MPD1    H2 2761   1.050   1.842   9.030  0.5973  0.1377  1.8994
  181MPD1    H3 2762   0.872   1.974   9.085 -0.3985  0.6895 -3.7411
  181MPD1     N 2763   0.601   1.589   9.097 -0.4802 -0.2395 -0.2061
  181MPD1    H5 2764   0.603   1.496   9.056  0.8522 -0.1516 -0.3311
  181MPD1    N1 2765   1.061   1.593   8.972  0.7091 -0.3356 -0.5630
  181MPD1    H6 2766   1.121   1.584   9.053 -0.2759 -0.9301  0.1005
  181MPD1    H7 2767   1.049   1.499   8.935 -0.4596 -0.9217  1.2916
  182MPD1     C 2768   0.748   4.110   1.150  0.4654  0.2612  0.2275
  182MPD1    C1 2769   0.701   4.016   1.057  0.1122  0.4804 -0.0246
  182MPD1    C2 2770   0.574   4.030   1.001 -0.0986 -0.6211  0.6055
  182MPD1    C3 2771   0.502   4.141   1.045  0.3185 -0.4231  0.6692
  182MPD1    C4 2772   0.545   4.228   1.144 -0.5155  0.0546 -0.6434
  182MPD1    C5 2773   0.673   4.215   1.197 -0.1386  0.3527  0.3584
  182MPD1     H 2774   0.521   3.964   0.933 -0.0693 -0.7957  0.7528
  182MPD1    H1 2775   0.486   4.308   1.187 -1.1222  0.2010 -1.7483
  182MPD1    H2 2776   0.847   4.097   1.191  0.9198 -1.4979 -1.3915
  182MPD1    H3 2777   0.710   4.279   1.276 -2.2733  0.0583  1.5940
  182MPD1     N 2778   0.368   4.177   1.003 -0.4979  0.2457 -0.2383
  182MPD1    H5 2779   0.318   4.250   1.052 -0.1100  0.3916 -0.0525
  182MPD1    N1 2780   0.792   3.926   1.000 -0.0421  0.4559  0.2840
  182MPD1    H6 2781   0.752   3.852   0.943  3.7231 -0.2909 -1.4132
  182MPD1    H7 2782   0.844   3.889   1.080  1.1569 -2.1103 -1.7029
  183MPD1     C 2783   0.177   0.545   8.952  0.5229 -0.0540  0.3049
  183MPD1    C1 2784   0.298   0.473   8.959 -0.8575  0.3856  0.0080
  183MPD1    C2 2785   0.417   0.532   8.995 -0.1288 -0.8912 -0.6682
  183MPD1    C3 2786   0.425   0.668   9.028  0.0743 -0.3948  0.7470
  183MPD1    C4 2787   0.303   0.737   9.035  0.3997  0.8921 -0.2608
  183MPD1    C5 2788   0.185   0.676   8.983  0.3313  0.0452  0.2734
  183MPD1     H 2789   0.509   0.476   8.982 -1.9909 -4.3536  1.0251
  183MPD1    H1 2790   0.302   0.842   9.063  0.0502  0.5430  1.0273
  183MPD1    H2 2791   0.086   0.507   8.907  1.5960 -0.7190 -1.3258
  183MPD1    H3 2792   0.098   0.739   8.970 -0.0075 -0.3512  0.6393
  183MPD1     N 2793   0.547   0.728   9.068 -0.0661  0.2182 -0.0513
  183MPD1    H5 2794   0.627   0.666   9.077  0.5328  1.2313  1.6445
  183MPD1    N1 2795   0.301   0.348   8.899  0.9531  0.0966  0.6248
  183MPD1    H6 2796   0.382   0.299   8.936  0.0799  0.3844  2.8836
  183MPD1    H7 2797   0.213   0.297   8.891  1.6882 -0.7861 -2.0529
  184MPD1     C 2798   3.611   3.089  10.186  0.0504 -0.1350  0.7972
  184MPD1    C1 2799   3.562   2.982  10.115 -0.9552  0.5179  0.4744
  184MPD1    C2 2800   3.632   2.946  10.005 -0.2276 -0.1504 -0.0577
  184MPD1    C3 2801   3.761   2.989   9.977  0.4306 -0.7844  0.2251
  184MPD1    C4 2802   3.805   3.089  10.053 -0.0974 -0.2061 -0.2388
  184MPD1    C5 2803   3.729   3.142  10.150 -1.0370 -1.2807  0.0869
  184MPD1     H 2804   3.592   2.861   9.952 -0.3868 -0.3701  0.4119
  184MPD1    H1 2805   3.898   3.144  10.043  0.2261 -1.1405 -2.5910
  184MPD1    H2 2806   3.559   3.138  10.268 -1.5872  1.0796 -0.9477
  184MPD1    H3 2807   3.773   3.218  10.213 -2.1743 -0.4221 -0.1502
  184MPD1     N 2808   3.843   2.937   9.872  0.4151  0.0895  0.4306
  184MPD1    H5 2809   3.931   2.988   9.860 -0.1356  0.9772  0.1699
  184MPD1    N1 2810   3.434   2.925  10.126 -0.2819  0.5387 -0.3216
  184MPD1    H6 2811   3.429   2.835  10.078 -0.0599  0.8063 -0.8431
  184MPD1    H7 2812   3.416   2.904  10.224  2.1526 -1.4748 -0.2916
  185MPD1     C 2813   3.857   2.508   8.867  0.6691  0.3047  0.3106
  185MPD1    C1 2814   3.800   2.451   8.981 -0.9957 -0.0765 -0.4043
  185MPD1    C2 2815   3.821   2.507   9.106 -0.7529 -0.9107 -0.9055
  185MPD1    C3 2816   3.892   2.622   9.115  0.3429  0.2177  0.3500
  185MPD1    C4 2817   3.931   2.688   9.000 -0.0043  0.0719  0.1892
  185MPD1    C5 2818   3.910   2.630   8.877  0.3437  0.0042 -0.5856
  185MPD1     H 2819   3.791   2.456   9.197 -1.1277  2.2800  0.7446
  185MPD1    H1 2820   3.993   2.776   9.012  0.7419 -0.5041  0.5952
  185MPD1    H2 2821   3.862   2.471   8.765  0.9193 -0.6623  0.6771
  185MPD1    H3 2822   3.955   2.686   8.796  2.1328  0.4587  0.7115
  185MPD1     N 2823   3.923   2.687   9.234  0.3369 -0.0069  0.1207
  185MPD1    H5 2824   4.003   2.749   9.241  1.6318 -1.6825  0.1532
  185MPD1    N1 2825   3.732   2.336   8.966  0.8434 -0.1392 -0.4232
  185MPD1    H6 2826   3.690   2.316   9.057 -0.3201 -2.2640 -1.4331
  185MPD1    H7 2827   3.653   2.350   8.903  1.8565 -0.7111 -1.8007
  186MPD1     C 2828   2.684   2.137  15.629  0.2114  0.6547  0.3422
  186MPD1    C1 2829   2.784   2.230  15.612 -0.1580 -0.4319 -0.5017
  186MPD1    C2 2830   2.824   2.310  15.720 -0.6582  0.2183 -1.0790
  186MPD1    C3 2831   2.755   2.306  15.841  0.1735 -0.0047  0.0879
  186MPD1    C4 2832   2.656   2.215  15.855 -0.5810  0.2760 -1.0103
  186MPD1    C5 2833   2.622   2.140  15.752  0.6010 -0.5954 -0.0327
  186MPD1     H 2834   2.905   2.378  15.698 -1.5744  1.1603 -1.5870
  186MPD1    H1 2835   2.603   2.212  15.949  3.4346  0.4561  1.2778
  186MPD1    H2 2836   2.658   2.065  15.552 -0.4234  2.9339 -1.5701
  186MPD1    H3 2837   2.533   2.080  15.771 -0.6105  1.0099 -0.6545
  186MPD1     N 2838   2.775   2.395  15.950 -0.4288 -0.7521 -0.9899
  186MPD1    H5 2839   2.704   2.396  16.022  0.1874 -1.3318 -0.3698
  186MPD1    N1 2840   2.877   2.234  15.504  0.6512  0.4330 -0.0638
  186MPD1    H6 2841   2.941   2.313  15.500  0.0066  0.9447 -0.2052
  186MPD1    H7 2842   2.837   2.217  15.411 -1.5068 -0.8030  1.0978
  187MPD1     C 2843   1.713   4.293   0.354  0.2309 -0.4240  0.1041
  187MPD1    C1 2844   1.605   4.260   0.269  0.1622 -0.2092  0.7297
  187MPD1    C2 2845   1.627   4.248   0.135  0.2262 -0.2193  0.1380
  187MPD1    C3 2846   1.744   4.291   0.076  0.6551 -0.0461  0.4138
  187MPD1    C4 2847   1.840   4.333   0.165  0.0339 -0.7129 -0.9776
  187MPD1    C5 2848   1.833   4.324   0.297  0.5670  0.2132  0.1841
  187MPD1     H 2849   1.546   4.204   0.079 -0.4954 -0.4182  1.3465
  187MPD1    H1 2850   1.933   4.370   0.121  0.8586  0.4239  1.7155
  187MPD1    H2 2851   1.707   4.293   0.462  0.4863  1.7579  0.1187
  187MPD1    H3 2852   1.911   4.373   0.354 -0.0417 -0.8158  1.9089
  187MPD1     N 2853   1.766   4.311  17.646 -0.7738 -0.1575 -0.6111
  187MPD1    H5 2854   1.852   4.361  17.629  0.8538 -2.7335  0.0278
  187MPD1    N1 2855   1.482   4.217   0.326 -0.4205 -0.0993 -0.6724
  187MPD1    H6 2856   1.464   4.252   0.420 -0.6402  0.5370 -0.9550
  187MPD1    H7 2857   1.401   4.238   0.269  0.2313  1.6005 -0.9654
  188MPD1     C 2858   1.851   0.077  10.120 -0.2479 -0.0447 -0.0693
  188MPD1    C1 2859   1.942   4.723  10.189  0.0285  0.1945  0.3506
  188MPD1    C2 2860   1.955   4.592  10.163 -0.1378 -0.1601  0.5502
  188MPD1    C3 2861   1.869   4.528  10.073 -0.1699 -0.1778 -0.5179
  188MPD1    C4 2862   1.774   4.600  10.004  0.2126  0.5758  0.1427
  188MPD1    C5 2863   1.767   0.014  10.032  0.6896  0.1739 -0.0363
  188MPD1     H 2864   2.028   4.537  10.221 -0.4180  0.3917  1.4366
  188MPD1    H1 2865   1.688   4.566   9.948  0.5257 -1.1266  0.7149
  188MPD1    H2 2866   1.824   0.175  10.157 -1.5466 -0.2245 -0.5437
  188MPD1    H3 2867   1.705   0.085   9.978 -0.7995  0.5538  2.2186
  188MPD1     N 2868   1.878   4.392  10.047 -0.1477  0.1277 -0.3896
  188MPD1    H5 2869   1.815   4.357   9.975  0.8645 -2.2719 -0.0916
  188MPD1    N1 2870   1.994   0.050  10.310  0.3296  0.1098 -0.2834
  188MPD1    H6 2871   2.006   0.151  10.308 -2.6603  0.4973  1.0986
  188MPD1    H7 2872   2.083   0.008  10.337  0.3328  0.9492  1.0032
  189MPD1     C 2873   3.260   0.545   1.163 -0.3193  0.4584  0.3669
  189MPD1    C1 2874   3.285   0.576   1.028 -0.1081  0.3398  0.0713
  189MPD1    C2 2875   3.223   0.498   0.929  1.1621 -0.1329 -0.5937
  189MPD1    C3 2876   3.153   0.383   0.965 -0.2067  0.3412 -0.5182
  189MPD1    C4 2877   3.135   0.350   1.100 -0.2524  0.2287 -0.1553
  189MPD1    C5 2878   3.192   0.432   1.195  0.6715  0.4038  0.0472
  189MPD1     H 2879   3.244   0.524   0.826 -0.1195  0.0085 -0.8102
  189MPD1    H1 2880   3.077   0.263   1.129  1.6846 -0.7900  0.6460
  189MPD1    H2 2881   3.303   0.608   1.239 -0.3603 -0.9993  1.6083
  189MPD1    H3 2882   3.188   0.403   1.299 -0.7912  0.4910  0.0103
  189MPD1     N 2883   3.084   0.307   0.865 -0.4479 -0.0650  0.0765
  189MPD1    H5 2884   3.093   0.349   0.773 -0.8826 -1.0687 -0.4149
  189MPD1    N1 2885   3.356   0.693   0.996 -0.0050  0.1550  0.9415
  189MPD1    H6 2886   3.434   0.713   1.057 -0.7330  2.6656  1.0506
  189MPD1    H7 2887   3.368   0.719   0.898 -0.3121 -0.4406  0.7465
  190MPD1     C 2888   2.695   4.106  14.692 -0.0120  0.1211  0.7942
  190MPD1    C1 2889   2.756   3.990  14.734  0.3604 -0.2203  0.5678
  190MPD1    C2 2890   2.763   3.971  14.875  0.0429 -0.0843 -0.1950
  190MPD1    C3 2891   2.705   4.055  14.962  0.5115 -0.4771  0.6407
  190MPD1    C4 2892   2.637   4.169  14.919 -0.1171  0.2687  0.0519
  190MPD1    C5 2893   2.637   4.189  14.780  0.1651 -0.1655 -0.2040
  190MPD1     H 2894   2.812   3.882  14.912 -2.3290 -1.7116 -0.9322
  190MPD1    H1 2895   2.588   4.241  14.983 -1.6119 -0.3107 -0.4162
  190MPD1    H2 2896   2.686   4.130  14.587 -1.1638 -0.3057  0.7902
  190MPD1    H3 2897   2.585   4.275  14.739  0.0166  0.0707  0.4737
  190MPD1     N 2898   2.710   4.014  15.098 -0.0025  0.1869 -0.1496
  190MPD1    H5 2899   2.758   3.927  15.118 -0.3067 -0.0590 -0.5051
  190MPD1    N1 2900   2.826   3.900  14.654 -0.0084 -0.1189 -0.1931
  190MPD1    H6 2901   2.792   3.891  14.558 -1.1362  2.7774 -0.0398
  190MPD1    H7 2902   2.835   3.806  14.693 -0.5172  0.4615  1.3214
  191MPD1     C 2903   0.939   0.733  13.083  0.2052  0.0296 -0.2798
  191MPD1    C1 2904   0.859   0.843  13.048  0.9542  0.5787 -0.0868
  191MPD1    C2 2905   0.860   0.888  12.919 -0.1796 -0.9159  0.1813
  191MPD1    C3 2906   0.963   0.851  12.833 -0.6955 -0.0073  0.6608
  191MPD1    C4 2907   1.052   0.757  12.868  0.1554  0.3434  0.2867
  191MPD1    C5 2908   1.040   0.698  12.991 -0.1264 -0.4749 -0.3258
  191MPD1     H 2909   0.786   0.963  12.893  0.7546 -0.1496 -0.2937
  191MPD1    H1 2910   1.133   0.724  12.804  1.1678 -0.1986  1.8330
  191MPD1    H2 2911   0.925   0.693  13.183  2.0258  0.3897  0.1317
  191MPD1    H3 2912   1.115   0.625  13.018  0.1323 -0.2710 -0.4856
  191MPD1     N 2913   0.974   0.924  12.709  0.1216  0.6112 -0.3370
  191MPD1    H5 2914   0.898   0.986  12.681 -0.3805  0.4309  0.6569
  191MPD1    N1 2915   0.752   0.883  13.128 -0.5011  0.9008  0.1630
  191MPD1    H6 2916   0.774   0.869  13.226 -1.0027  2.5728  0.5021
  191MPD1    H7 2917   0.711   0.975  13.116 -0.1346  1.0642  0.1679
  192MPD1     C 2918   0.362   1.474  12.288  0.3411  0.0919 -0.8295
  192MPD1    C1 2919   0.370   1.341  12.277  0.2131 -0.2417 -0.4340
  192MPD1    C2 2920   0.487   1.281  12.300 -0.1395 -1.0538  0.8843
  192MPD1    C3 2921   0.607   1.354  12.315  0.1442  0.1149  0.1009
  192MPD1    C4 2922   0.595   1.492  12.312 -0.9019  0.0332 -0.2534
  192MPD1    C5 2923   0.470   1.545  12.297 -0.4343 -0.1732  0.1757
  192MPD1     H 2924   0.495   1.173  12.299  0.5771 -1.0193  2.0784
  192MPD1    H1 2925   0.684   1.553  12.314 -1.2600  0.6350 -3.0993
  192MPD1    H2 2926   0.264   1.522  12.287  0.3075  0.0532  0.7332
  192MPD1    H3 2927   0.464   1.653  12.301  2.2205  0.0491 -2.5035
  192MPD1     N 2928   0.736   1.295  12.338 -1.1507  0.3315 -0.4922
  192MPD1    H5 2929   0.810   1.361  12.360 -1.7979  0.6362  0.7788
  192MPD1    N1 2930   0.259   1.259  12.276  0.0378  0.1065 -0.3705
  192MPD1    H6 2931   0.185   1.302  12.221  0.2890  3.7068  2.1138
  192MPD1    H7 2932   0.291   1.171  12.235 -1.1982 -0.0715 -0.9468
  193MPD1     C 2933   1.793   0.473  17.137  0.4002  0.3129  0.3733
  193MPD1    C1 2934   1.765   0.576  17.224  0.3995  0.1443  0.0210
  193MPD1    C2 2935   1.783   0.705  17.171 -0.4099  0.6407 -0.3686
  193MPD1    C3 2936   1.822   0.722  17.034 -0.5791  0.3301  0.1585
  193MPD1    C4 2937   1.842   0.610  16.957 -0.1104  0.1749 -0.1730
  193MPD1    C5 2938   1.842   0.487  17.016 -0.7436 -0.2623  0.2558
  193MPD1     H 2939   1.755   0.792  17.231 -0.3600  0.4170 -0.0202
  193MPD1    H1 2940   1.882   0.611  16.856 -0.3820  0.7832 -0.2710
  193MPD1    H2 2941   1.779   0.368  17.158  0.8743  0.8190  3.2112
  193MPD1    H3 2942   1.878   0.404  16.957 -0.1848  0.9006 -1.0074
  193MPD1     N 2943   1.834   0.852  16.977 -0.2657  0.0289  0.2379
  193MPD1    H5 2944   1.871   0.847  16.883  1.4175  1.2964  0.8326
  193MPD1    N1 2945   1.691   0.552  17.345  0.2953  0.4122 -0.2738
  193MPD1    H6 2946   1.706   0.459  17.382  1.5209  0.5654 -0.3907
  193MPD1    H7 2947   1.710   0.617  17.421  1.5173  0.0172 -0.2527
  194MPD1     C 2948   4.313   3.236  16.432  0.1954 -0.3722  0.3673
  194MPD1    C1 2949   4.224   3.151  16.372 -0.3443  1.1434 -0.2137
  194MPD1    C2 2950   4.235   3.011  16.394 -0.6930 -0.0214  0.1614
  194MPD1    C3 2951   4.313   2.968  16.501  0.4706  0.1580 -0.3579
  194MPD1    C4 2952   4.396   3.060  16.565 -0.5337  0.5456 -0.3121
  194MPD1    C5 2953   4.401   3.188  16.520  0.5890 -0.4276  0.5475
  194MPD1     H 2954   4.167   2.938  16.352 -1.3947 -0.1111  1.4449
  194MPD1    H1 2955   4.465   3.026  16.642 -1.6908  0.9250  0.8949
  194MPD1    H2 2956   4.316   3.343  16.414  0.4568  0.0003  2.6970
  194MPD1    H3 2957   4.461   3.264  16.568 -0.2857  0.5048  0.1724
  194MPD1     N 2958   4.307   2.846  16.567  0.3298 -0.6202  0.4697
  194MPD1    H5 2959   4.376   2.830  16.640  0.1328  0.3253  0.8769
  194MPD1    N1 2960   4.145   3.199  16.268 -0.5552  0.2463 -0.3621
  194MPD1    H6 2961   4.096   3.286  16.290  0.7475  0.8609  0.1120
  194MPD1    H7 2962   4.070   3.135  16.242  0.5175 -0.9489 -0.4955
  195MPD1     C 2963   1.226   0.420  17.270 -0.2812  0.4071  0.6306
  195MPD1    C1 2964   1.120   0.338  17.309 -0.3620  0.6651  0.2599
  195MPD1    C2 2965   1.154   0.235  17.385  0.2272  0.0656 -0.1176
  195MPD1    C3 2966   1.284   0.192  17.396  0.2119  0.5999  0.7027
  195MPD1    C4 2967   1.390   0.255  17.330 -0.1448 -0.1526  0.4218
  195MPD1    C5 2968   1.361   0.374  17.280 -0.9945 -0.2188  0.1138
  195MPD1     H 2969   1.071   0.183  17.432 -0.9650  0.7715 -1.4407
  195MPD1    H1 2970   1.493   0.226  17.350 -0.5805 -1.4859  0.7115
  195MPD1    H2 2971   1.216   0.512  17.214  3.1035 -0.3506 -1.2665
  195MPD1    H3 2972   1.445   0.437  17.254 -0.0158 -0.4109  2.9065
  195MPD1     N 2973   1.324   0.080  17.472  0.7532  0.3222  0.4066
  195MPD1    H5 2974   1.420   0.048  17.472  1.1706  1.5825 -1.6044
  195MPD1    N1 2975   0.988   0.389  17.307  0.2273  0.2682  0.2264
  195MPD1    H6 2976   0.923   0.313  17.288  0.5150 -0.2185  1.1631
  195MPD1    H7 2977   0.976   0.454  17.231  1.1691  2.1441  1.6831
  196MPD1     C 2978   0.772   3.567   0.930 -0.5599  0.4472 -0.7655
  196MPD1    C1 2979   0.683   3.617   0.839 -0.2372 -0.0068  0.5440
  196MPD1    C2 2980   0.734   3.716   0.759  0.3637  0.1791 -0.7743
  196MPD1    C3 2981   0.869   3.738   0.747  0.4079 -0.0200 -0.7837
  196MPD1    C4 2982   0.961   3.678   0.829  0.7262  0.0296 -1.0168
  196MPD1    C5 2983   0.907   3.599   0.925  0.4352  0.0114  0.2429
  196MPD1     H 2984   0.664   3.758   0.688 -0.8302  0.0110  0.2855
  196MPD1    H1 2985   1.067   3.701   0.825  0.8576 -0.2994  0.4077
  196MPD1    H2 2986   0.751   3.474   0.981  0.9314 -1.5912 -3.9191
  196MPD1    H3 2987   0.973   3.545   0.991 -1.2532  0.1699  2.0571
  196MPD1     N 2988   0.921   3.843   0.668  0.0514  0.2707 -0.0594
  196MPD1    H5 2989   1.019   3.856   0.687  0.2663 -0.2506 -0.8222
  196MPD1    N1 2990   0.546   3.577   0.839  0.8757 -0.3259 -0.6474
  196MPD1    H6 2991   0.484   3.657   0.829 -0.1305 -0.7963  1.6815
  196MPD1    H7 2992   0.508   3.517   0.912  1.2274 -0.1325 -0.3061
  197MPD1     C 2993   0.290   0.932  17.405 -1.0956 -0.3310  0.5152
  197MPD1    C1 2994   0.400   1.016  17.422  0.5421  0.6081  0.2134
  197MPD1    C2 2995   0.426   1.111  17.327 -0.5071  0.0914 -0.0360
  197MPD1    C3 2996   0.359   1.124  17.207 -0.8022 -0.1196  0.3893
  197MPD1    C4 2997   0.276   1.023  17.178 -0.2831  0.3386  0.1485
  197MPD1    C5 2998   0.232   0.936  17.284  1.1708  0.8091  0.3424
  197MPD1     H 2999   0.482   1.195  17.366 -3.5955  1.4770  1.3880
  197MPD1    H1 3000   0.232   1.004  17.080 -0.8176  1.0011  0.2641
  197MPD1    H2 3001   0.260   0.855  17.475 -1.5163  0.8666  1.6483
  197MPD1    H3 3002   0.154   0.860  17.282  1.1378  0.9357 -2.8019
  197MPD1     N 3003   0.385   1.226  17.102  0.3895  0.1238 -0.2743
  197MPD1    H5 3004   0.327   1.230  17.019 -0.0967  1.4904  0.1330
  197MPD1    N1 3005   0.450   1.030  17.555  0.5454 -0.0595  0.5596
  197MPD1    H6 3006   0.551   1.040  17.549  0.7998 -1.5498  2.2881
  197MPD1    H7 3007   0.449   0.938  17.598  1.6788 -0.8465 -1.1023
  198MPD1     C 3008   1.920   0.272  15.212 -0.2696 -0.1333  0.4753
  198MPD1    C1 3009   2.045   0.253  15.156  0.8142 -0.0960  0.4278
  198MPD1    C2 3010   2.154   0.276  15.242  0.4456  0.0216 -0.0798
  198MPD1    C3 3011   2.144   0.290  15.379  0.7342  0.0538 -0.0512
  198MPD1    C4 3012   2.016   0.303  15.430 -0.5340 -1.0366  0.0462
  198MPD1    C5 3013   1.908   0.294  15.348  0.3091  0.1826 -0.1745
  198MPD1     H 3014   2.255   0.282  15.203 -0.4223 -1.8736 -2.5873
  198MPD1    H1 3015   1.997   0.310  15.537  0.3436 -1.0323  0.2030
  198MPD1    H2 3016   1.829   0.272  15.153  0.3926 -0.7817 -0.5432
  198MPD1    H3 3017   1.811   0.283  15.393  0.5952 -1.1054  0.1261
  198MPD1     N 3018   2.262   0.301  15.458  1.3058 -0.0918  0.1119
  198MPD1    H5 3019   2.346   0.289  15.402 -0.3585  0.8779 -2.5982
  198MPD1    N1 3020   2.064   0.245  15.018  0.0728 -0.3215  0.0744
  198MPD1    H6 3021   1.985   0.189  14.989 -2.0338  0.9724  3.4037
  198MPD1    H7 3022   2.149   0.195  14.992  0.8219  0.8763  0.1560
  199MPD1     C 3023   3.294   0.508   9.414 -0.0412 -0.0345 -0.0421
  199MPD1    C1 3024   3.372   0.616   9.452 -0.7016 -0.8455  0.4739
  199MPD1    C2 3025   3.508   0.620   9.431  0.6758 -0.0912  0.2063
  199MPD1    C3 3026   3.573   0.511   9.378 -1.0334  0.5748 -0.5242
  199MPD1    C4 3027   3.496   0.409   9.328 -0.8756  0.1498  1.1949
  199MPD1    C5 3028   3.358   0.411   9.346  0.5015  0.2127  0.7271
  199MPD1     H 3029   3.564   0.701   9.477  0.1458  0.2967  0.1626
  199MPD1    H1 3030   3.540   0.326   9.274  3.6120  2.9604  0.5176
  199MPD1    H2 3031   3.187   0.510   9.430  0.4131 -0.3252  2.9530
  199MPD1    H3 3032   3.291   0.333   9.311  0.3914  1.1121 -1.0332
  199MPD1     N 3033   3.716   0.507   9.365  0.1716 -0.1333  0.9758
  199MPD1    H5 3034   3.765   0.426   9.328 -0.2433  0.8640 -1.8017
  199MPD1    N1 3035   3.310   0.704   9.547 -0.0231  0.1291  0.8272
  199MPD1    H6 3036   3.362   0.789   9.565  0.3223 -0.1847  1.3038
  199MPD1    H7 3037   3.211   0.726   9.537  0.2506 -0.0133 -2.3034
  200MPD1     C 3038   2.349   0.450  14.901  0.1234  0.0180 -0.1622
  200MPD1    C1 3039   2.465   0.444  14.978  0.2651 -0.2883  0.0717
  200MPD1    C2 3040   2.557   0.540  14.953 -0.5131  0.7662  0.1198
  200MPD1    C3 3041   2.548   0.631  14.845 -0.3890  0.4514 -0.3641
  200MPD1    C4 3042   2.420   0.644  14.793 -0.2985  0.3477 -0.2670
  200MPD1    C5 3043   2.329   0.544  14.810 -0.1384  0.2539 -0.4547
  200MPD1     H 3044   2.641   0.533  15.021 -0.8024 -4.6659 -0.0682
  200MPD1    H1 3045   2.388   0.728  14.732  1.7175  0.3199 -1.3481
  200MPD1    H2 3046   2.275   0.373  14.919  1.6332 -1.3216  0.3795
  200MPD1    H3 3047   2.235   0.557  14.757  0.3761  0.6095 -1.2781
  200MPD1     N 3048   2.653   0.720  14.817  0.0323  0.2044  0.8012
  200MPD1    H5 3049   2.741   0.712  14.867 -0.2670 -1.5837  1.0426
  200MPD1    N1 3050   2.462   0.359  15.093  0.0161  0.3090  0.4222
  200MPD1    H6 3051   2.425   0.267  15.073 -2.8932  1.9916 -1.8675
  200MPD1    H7 3052   2.557   0.348  15.130 -1.4061 -3.3615  2.9745
  201MPD1     C 3053   0.782   0.277  13.067 -0.2320 -0.3613  0.6020
  201MPD1    C1 3054   0.798   0.265  13.200 -0.1838  0.1803  0.3477
  201MPD1    C2 3055   0.876   0.163  13.251 -0.3813 -0.9265  0.8133
  201MPD1    C3 3056   0.944   0.083  13.160  0.1922 -0.3920 -0.3728
  201MPD1    C4 3057   0.931   0.098  13.023  0.5040 -0.2215 -0.5521
  201MPD1    C5 3058   0.850   0.201  12.980  0.2801  0.2207 -0.0003
  201MPD1     H 3059   0.878   0.140  13.357  1.7341 -0.2508  0.9123
  201MPD1    H1 3060   0.990   0.043  12.951  0.5681 -1.3664  0.3756
  201MPD1    H2 3061   0.716   0.352  13.025  0.1700 -0.1872  0.2818
  201MPD1    H3 3062   0.831   0.211  12.874 -1.3233 -0.6770  0.1993
  201MPD1     N 3063   1.031   4.700  13.207  0.7309  0.4845  0.0538
  201MPD1    H5 3064   1.044   4.686  13.306 -2.0496  0.2632  0.3989
  201MPD1    N1 3065   0.724   0.350  13.286 -0.3727 -0.9808 -0.0702
  201MPD1    H6 3066   0.722   0.444  13.246  0.4644 -0.7797  0.3784
  201MPD1    H7 3067   0.763   0.355  13.380 -0.0608 -0.6442 -0.2209
  202MPD1     C 3068   0.176   4.714   9.599  0.9042  0.3472 -0.8957
  202MPD1    C1 3069   0.236   4.606   9.657 -0.2554  0.2359  0.0622
  202MPD1    C2 3070   0.374   4.606   9.662 -0.1274 -0.7580  0.5475
  202MPD1    C3 3071   0.444   4.673   9.563  0.0581 -0.0631  0.4847
  202MPD1    C4 3072   0.379   0.045   9.492 -0.1961  0.8529  0.1842
  202MPD1    C5 3073   0.240   0.066   9.509 -0.0018 -0.7913  0.9469
  202MPD1     H 3074   0.418   4.516   9.705  0.4208 -0.3976  0.7430
  202MPD1    H1 3075   0.430   0.102   9.414  0.0927  0.2956 -0.0334
  202MPD1    H2 3076   0.078   0.020   9.631  1.0485  0.1776 -0.2953
  202MPD1    H3 3077   0.189   0.141   9.449  0.4652 -0.8858  0.4371
  202MPD1     N 3078   0.588   4.650   9.555 -0.0182 -0.0921 -0.4722
  202MPD1    H5 3079   0.629   4.578   9.614  2.6524  3.3914  1.9081
  202MPD1    N1 3080   0.160   4.557   9.767  0.2507  0.4216  0.3730
  202MPD1    H6 3081   0.065   4.535   9.739  0.4413 -2.1222  1.7337
  202MPD1    H7 3082   0.191   4.463   9.790 -1.2779  0.5107  2.8705
  203MPD1     C 3083   3.771   0.915  11.707 -0.0021 -0.1322 -0.6082
  203MPD1    C1 3084   3.894   0.858  11.677 -0.4874  0.2199  0.0171
  203MPD1    C2 3085   3.957   0.785  11.775  0.0460  0.2138 -0.6607
  203MPD1    C3 3086   3.897   0.747  11.894  0.0995  0.4509  0.5984
  203MPD1    C4 3087   3.771   0.802  11.918 -0.0600 -0.8049  0.1249
  203MPD1    C5 3088   3.711   0.890  11.834 -0.9590 -0.1054 -0.9098
  203MPD1     H 3089   4.056   0.746  11.751  0.0088  0.8944 -1.9284
  203MPD1    H1 3090   3.711   0.768  12.002  2.4949 -0.3436  2.1364
  203MPD1    H2 3091   3.725   0.992  11.646 -1.2486 -1.2530 -1.0818
  203MPD1    H3 3092   3.620   0.941  11.862  1.2145  1.5273  3.0762
  203MPD1     N 3093   3.969   0.669  11.983  0.0061 -0.5065 -0.2367
  203MPD1    H5 3094   4.047   0.618  11.944  0.2769 -0.1585 -0.1537
  203MPD1    N1 3095   3.940   0.846  11.543 -0.3708  0.3355 -0.0900
  203MPD1    H6 3096   4.042   0.835  11.538 -0.2792  0.8218  0.6762
  203MPD1    H7 3097   3.918   0.932  11.494 -0.4002  0.6781  0.5186
  204MPD1     C 3098   4.578   1.440  17.627  0.2724  0.3884 -0.1240
  204MPD1    C1 3099   4.494   1.345  17.675 -0.1271 -0.2396  0.4137
  204MPD1    C2 3100   4.376   1.322  17.611  1.1689 -0.9910  0.4232
  204MPD1    C3 3101   4.337   1.400  17.503  0.1290  0.0747  0.4340
  204MPD1    C4 3102   4.429   1.492  17.455 -0.1417  0.1601  0.6824
  204MPD1    C5 3103   4.549   1.512  17.512 -0.0177 -0.1711  0.1333
  204MPD1     H 3104   4.303   1.255  17.656 -0.2042  1.3355  1.6095
  204MPD1    H1 3105   4.410   1.552  17.367  1.2791  0.2418  0.4420
  204MPD1    H2 3106   4.674   1.457  17.674  1.7004  1.0058 -3.2344
  204MPD1    H3 3107   4.628   1.581  17.487  0.7257 -0.3019  2.1164
  204MPD1     N 3108   4.213   1.377  17.443 -0.0354  0.4175  0.5135
  204MPD1    H5 3109   4.156   1.304  17.485  1.2095 -0.9132 -0.1291
  204MPD1    N1 3110   4.526   1.279   0.090 -0.1600  0.0042  0.1048
  204MPD1    H6 3111   4.624   1.279   0.118 -0.1323  2.0158  0.0018
  204MPD1    H7 3112   4.498   1.181   0.096  3.2281 -0.9297  0.8956
  205MPD1     C 3113   4.605   0.201  16.925 -0.3735  0.9843 -0.1832
  205MPD1    C1 3114   4.564   0.335  16.923  0.3407 -0.1203  0.6447
  205MPD1    C2 3115   4.440   0.370  16.987 -0.2308 -0.9927  0.3761
  205MPD1    C3 3116   4.370   0.268  17.059  0.2112 -0.1856 -0.1797
  205MPD1    C4 3117   4.425   0.144  17.076  0.2749 -0.2338 -0.2532
  205MPD1    C5 3118   4.539   0.116  17.008 -0.5659  0.3526  0.0505
  205MPD1     H 3119   4.402   0.470  16.973  0.4480 -0.7727  0.0821
  205MPD1    H1 3120   4.378   0.061  17.129  1.8904 -2.1139 -1.7691
  205MPD1    H2 3121   4.692   0.160  16.875  0.6113 -0.5154  2.7624
  205MPD1    H3 3122   4.582   0.016  17.008  1.0522  1.0442  0.5871
  205MPD1     N 3123   4.239   0.299  17.111 -0.5803 -0.7117 -0.0938
  205MPD1    H5 3124   4.182   0.232  17.162  1.4666 -0.4510  2.5749
  205MPD1    N1 3125   4.632   0.426  16.840  0.0044  0.0616 -0.8173
  205MPD1    H6 3126   0.003   0.408  16.813 -0.1330 -0.3042 -1.0710
  205MPD1    H7 3127   4.620   0.523  16.866 -0.2729  0.0533 -0.9151
  206MPD1     C 3128   0.112   3.172  16.266  0.7759 -0.3790 -0.1337
  206MPD1    C1 3129   0.033   3.059  16.257 -0.5439  0.1238  0.0962
  206MPD1    C2 3130   4.636   3.073  16.200  0.6668 -0.2430 -0.1887
  206MPD1    C3 3131   4.584   3.192  16.145  0.6442  0.3154 -0.0569
  206MPD1    C4 3132   4.671   3.297  16.142  0.3497 -0.2246 -0.6367
  206MPD1    C5 3133   0.062   3.290  16.211  0.3521 -0.0092  0.3638
  206MPD1     H 3134   4.567   2.990  16.193 -0.8052  0.9084  0.5964
  206MPD1    H1 3135   4.642   3.387  16.089  0.0774 -0.8328 -1.5422
  206MPD1    H2 3136   0.208   3.170  16.318  1.4939 -2.8439 -1.5721
  206MPD1    H3 3137   0.122   3.380  16.207 -0.7579  0.5499 -2.8822
  206MPD1     N 3138   4.473   3.193  16.060 -0.3259  0.1167  0.1218
  206MPD1    H5 3139   4.462   3.277  16.005 -1.1576 -0.4310 -0.5543
  206MPD1    N1 3140   0.071   2.940  16.323  0.0632  0.0207 -0.0802
  206MPD1    H6 3141   0.170   2.918  16.318  0.2295  0.6355  0.5607
  206MPD1    H7 3142   0.014   2.859  16.298  1.9057 -1.0180 -0.8945
  207MPD1     C 3143   1.650   1.042   9.818  0.4051 -0.1780 -0.0290
  207MPD1    C1 3144   1.574   1.061   9.929  0.8102 -0.1069  0.7172
  207MPD1    C2 3145   1.634   1.087  10.052 -0.6533 -0.2721  0.9548
  207MPD1    C3 3146   1.774   1.085  10.057  0.2010 -0.1534  0.1354
  207MPD1    C4 3147   1.848   1.065   9.942  0.2913 -0.4301  0.2383
  207MPD1    C5 3148   1.791   1.052   9.822  0.1405  0.7592 -0.2128
  207MPD1     H 3149   1.567   1.093  10.137  0.2229 -1.5194  1.7228
  207MPD1    H1 3150   1.956   1.073   9.932  0.0530  0.0201 -1.8747
  207MPD1    H2 3151   1.603   1.034   9.721 -0.3017  1.5867  0.1529
  207MPD1    H3 3152   1.849   1.052   9.731 -0.6492 -0.9454 -0.7125
  207MPD1     N 3153   1.845   1.113  10.173 -0.2542  0.3253  0.5660
  207MPD1    H5 3154   1.947   1.113  10.175 -0.2333 -0.1500 -0.6886
  207MPD1    N1 3155   1.438   1.093   9.911 -0.2939  0.5885 -0.0125
  207MPD1    H6 3156   1.397   1.034   9.839  2.2564 -1.6488  0.3566
  207MPD1    H7 3157   1.388   1.069   9.997  1.0861 -0.7491  0.4151
  208MPD1     C 3158   4.019   4.228  16.955 -0.2373  0.0553 -0.4189
  208MPD1    C1 3159   3.908   4.187  17.021 -0.7575 -0.6173 -0.3168
  208MPD1    C2 3160   3.914   4.176  17.164 -0.2938  0.1309 -0.5458
  208MPD1    C3 3161   4.030   4.204  17.231  0.0759 -0.4077  0.3341
  208MPD1    C4 3162   4.146   4.234  17.157  0.6679 -0.1655  0.1018
  208MPD1    C5 3163   4.133   4.254  17.022  0.3017  0.4137  0.0224
  208MPD1     H 3164   3.822   4.154  17.217 -1.9420  1.3678 -2.9085
  208MPD1    H1 3165   4.243   4.252  17.202  0.5945 -0.2110  0.2790
  208MPD1    H2 3166   4.014   4.242  16.848 -3.9471  0.6687 -0.1567
  208MPD1    H3 3167   4.224   4.280  16.968  1.5941 -0.3841  1.8194
  208MPD1     N 3168   4.030   4.200  17.373  0.0403 -0.3503 -0.4359
  208MPD1    H5 3169   3.943   4.193  17.425  1.1303  1.3505  1.5939
  208MPD1    N1 3170   3.791   4.163  16.953  0.3162 -0.2448 -0.0362
  208MPD1    H6 3171   3.805   4.125  16.859  1.3879  0.1683 -0.0505
  208MPD1    H7 3172   3.737   4.091  17.000  0.3098  0.4781  1.0731
  209MPD1     C 3173   1.684   0.628  11.939  0.0974  0.5134  0.4600
  209MPD1    C1 3174   1.760   0.642  11.826 -0.2738 -0.3492 -0.0973
  209MPD1    C2 3175   1.748   0.761  11.754  0.7356 -0.0375  0.2759
  209MPD1    C3 3176   1.657   0.861  11.786  0.8383  0.1559 -0.1154
  209MPD1    C4 3177   1.587   0.839  11.897  0.9524 -0.0757 -0.4445
  209MPD1    C5 3178   1.593   0.724  11.976 -0.0354  0.8199 -0.3564
  209MPD1     H 3179   1.810   0.783  11.668  0.9689 -0.9552  0.2028
  209MPD1    H1 3180   1.516   0.915  11.926 -0.3853 -1.5126  0.0217
  209MPD1    H2 3181   1.689   0.530  11.984  0.7565 -0.4380 -1.6830
  209MPD1    H3 3182   1.522   0.703  12.056  1.0857 -0.0411  0.4037
  209MPD1     N 3183   1.645   0.974  11.698  0.6666  0.8134  0.3839
  209MPD1    H5 3184   1.707   0.976  11.617  0.5336 -0.8698  0.2412
  209MPD1    N1 3185   1.824   0.532  11.770  0.0017  0.3937 -0.2543
  209MPD1    H6 3186   1.898   0.558  11.705 -0.5325  1.3855 -0.4647
  209MPD1    H7 3187   1.835   0.442  11.817  2.8986  0.3435 -1.0239
  210MPD1     C 3188   1.281   1.979  11.390  0.6377 -0.5540  0.0407
  210MPD1    C1 3189   1.240   1.903  11.495  0.4795  0.3861 -0.2864
  210MPD1    C2 3190   1.302   1.780  11.515  0.9633 -0.3221  0.2936
  210MPD1    C3 3191   1.388   1.727  11.417 -0.4544  0.1353  0.0746
  210MPD1    C4 3192   1.419   1.805  11.308 -0.1895 -0.3293  0.1819
  210MPD1    C5 3193   1.377   1.939  11.302 -0.5144 -0.1931  0.5730
  210MPD1     H 3194   1.276   1.720  11.601  1.8690 -1.3685 -0.1600
  210MPD1    H1 3195   1.484   1.777  11.225 -0.1310 -1.4417  0.6017
  210MPD1    H2 3196   1.238   2.074  11.362 -0.5368 -1.5028 -1.3687
  210MPD1    H3 3197   1.425   1.992  11.221  2.1324 -0.8509  1.7339
  210MPD1     N 3198   1.451   1.595  11.435 -0.1271  0.3403 -0.1789
  210MPD1    H5 3199   1.514   1.567  11.360 -0.4203 -3.1194  0.8858
  210MPD1    N1 3200   1.131   1.948  11.561 -0.1628  0.2644 -0.2593
  210MPD1    H6 3201   1.143   2.047  11.582 -1.1156  0.2285  0.4699
  210MPD1    H7 3202   1.115   1.907  11.653 -0.2492 -1.8792 -1.2497
  211MPD1     C 3203   0.383   4.636  16.438 -0.1368 -0.2544  0.5889
  211MPD1    C1 3204   0.378   0.044  16.412 -0.4314 -0.1281  0.7866
  211MPD1    C2 3205   0.260   0.115  16.436  0.5717 -0.1988  0.3724
  211MPD1    C3 3206   0.156   0.052  16.505  0.3756  0.4704  0.6182
  211MPD1    C4 3207   0.171   4.647  16.548 -0.0223  0.0519  0.4784
  211MPD1    C5 3208   0.284   4.580  16.503  0.7325  0.0980  0.3273
  211MPD1     H 3209   0.247   0.207  16.380 -1.2278  1.1679  3.0376
  211MPD1    H1 3210   0.089   4.596  16.597  0.0454  0.9718  1.5537
  211MPD1    H2 3211   0.466   4.574  16.407  1.2152  0.7263  2.2916
  211MPD1    H3 3212   0.294   4.476  16.533 -0.8746 -0.4762 -1.1649
  211MPD1     N 3213   0.027   0.115  16.505  0.4193  0.1349 -0.6431
  211MPD1    H5 3214   0.029   0.207  16.461  0.1117  0.4632  0.0287
  211MPD1    N1 3215   0.484   0.081  16.326  0.3466  0.2764  0.6475
  211MPD1    H6 3216   0.568   0.024  16.339  0.8866  1.6741  3.2566
  211MPD1    H7 3217   0.513   0.176  16.347 -0.1746  0.3935  0.8389
  212MPD1     C 3218   4.035   3.323  16.679  0.8088  0.4585  0.5950
  212MPD1    C1 3219   4.007   3.306  16.815 -0.4051 -0.0242 -0.5067
  212MPD1    C2 3220   3.898   3.219  16.851 -0.4498 -0.6511  0.7406
  212MPD1    C3 3221   3.846   3.144  16.750 -0.1450 -0.4201 -0.4129
  212MPD1    C4 3222   3.876   3.164  16.616 -0.1139 -0.2290 -0.2529
  212MPD1    C5 3223   3.969   3.261  16.586  0.0014  0.5642 -0.3334
  212MPD1     H 3224   3.870   3.205  16.955 -0.0962 -1.9612  0.6618
  212MPD1    H1 3225   3.822   3.106  16.543 -0.7055  0.9240 -0.7184
  212MPD1    H2 3226   4.114   3.389  16.646  1.3417 -0.1376  0.6690
  212MPD1    H3 3227   4.009   3.273  16.486 -0.1555  1.5795 -0.2746
  212MPD1     N 3228   3.735   3.055  16.773 -0.4635 -0.0702  0.3382
  212MPD1    H5 3229   3.697   3.009  16.691 -1.3251 -0.8742  1.1952
  212MPD1    N1 3230   4.082   3.376  16.908 -0.6336  0.2803 -0.2589
  212MPD1    H6 3231   4.093   3.326  16.996 -0.0997 -0.5151 -0.7806
  212MPD1    H7 3232   4.170   3.416  16.878  1.8936 -3.3331  2.3560
  213MPD1     C 3233   1.661   4.613  15.218  0.2133 -0.9590 -0.4183
  213MPD1    C1 3234   1.759   4.576  15.127  0.5871 -0.1529 -0.4583
  213MPD1    C2 3235   1.711   4.470  15.051 -0.8609 -0.2519 -0.1879
  213MPD1    C3 3236   1.613   4.380  15.094  0.1114 -0.2990 -0.4736
  213MPD1    C4 3237   1.540   4.411  15.206  0.5793 -0.5027  0.3898
  213MPD1    C5 3238   1.577   4.523  15.270 -0.1288  0.2196  0.2734
  213MPD1     H 3239   1.758   4.453  14.955  1.3478  0.8791  0.6967
  213MPD1    H1 3240   1.464   4.341  15.242  1.6642 -0.4864  2.6731
  213MPD1    H2 3241   1.671   4.704  15.275 -1.4684 -0.1297 -1.4340
  213MPD1    H3 3242   1.507   4.561  15.344  2.2480  3.2283  0.9303
  213MPD1     N 3243   1.598   4.268  15.012  0.3509 -0.3043  0.1940
  213MPD1    H5 3244   1.655   4.258  14.929  0.9719  1.2343  0.4415
  213MPD1    N1 3245   1.848   4.675  15.078 -0.9585 -0.1502 -0.2137
  213MPD1    H6 3246   1.929   4.627  15.039 -2.4608 -1.4392 -1.7247
  213MPD1    H7 3247   1.890   4.726  15.156 -2.2163  0.0378  0.3346
  214MPD1     C 3248   0.812   3.662  15.144 -0.3006 -0.6702 -0.8142
  214MPD1    C1 3249   0.804   3.690  15.015 -0.0173  0.0348 -0.1021
  214MPD1    C2 3250   0.904   3.760  14.955 -0.7692  0.3200  0.1748
  214MPD1    C3 3251   1.017   3.802  15.016 -0.6114  0.3925 -0.2092
  214MPD1    C4 3252   1.020   3.782  15.151  0.3760 -0.6195 -0.0961
  214MPD1    C5 3253   0.919   3.707  15.211 -0.1096 -0.4271 -0.5147
  214MPD1     H 3254   0.904   3.772  14.848 -1.1290 -1.2545  0.0111
  214MPD1    H1 3255   1.102   3.811  15.216  1.3869 -3.6675  0.0064
  214MPD1    H2 3256   0.741   3.601  15.199  0.4081  0.1795  1.0545
  214MPD1    H3 3257   0.939   3.673  15.312 -2.4188 -1.4678 -0.4132
  214MPD1     N 3258   1.125   3.878  14.965 -0.5088 -0.4023 -0.2891
  214MPD1    H5 3259   1.190   3.907  15.037  1.4574 -1.6672 -1.5179
  214MPD1    N1 3260   0.707   3.625  14.935 -0.0835 -0.1521  0.2159
  214MPD1    H6 3261   0.626   3.598  14.991 -1.8883 -0.5780 -2.5690
  214MPD1    H7 3262   0.675   3.691  14.864 -2.4711 -0.9004  0.5840
  215MPD1     C 3263   1.903   4.596  10.797 -0.6357  0.4527 -0.1706
  215MPD1    C1 3264   1.942   4.667  10.688 -0.0772 -0.0203 -0.2442
  215MPD1    C2 3265   1.935   0.080  10.702  0.6498 -0.4208 -0.9724
  215MPD1    C3 3266   1.892   0.148  10.823  0.1871 -0.0060 -0.2387
  215MPD1    C4 3267   1.859   0.067  10.931 -0.4606 -0.3942  0.0928
  215MPD1    C5 3268   1.855   4.653  10.908  0.3742  0.4476 -0.1249
  215MPD1     H 3269   1.947   0.150  10.619 -0.1973  1.0415  0.1360
  215MPD1    H1 3270   1.814   0.118  11.016  0.4732 -1.9069  1.5154
  215MPD1    H2 3271   1.896   4.488  10.795 -1.3268  0.5033 -0.5362
  215MPD1    H3 3272   1.818   4.577  10.977  1.8432 -0.8177 -0.7299
  215MPD1     N 3273   1.880   0.287  10.821  0.0334 -0.2200 -0.0441
  215MPD1    H5 3274   1.892   0.338  10.735  1.4114 -0.8824 -0.2447
  215MPD1    N1 3275   1.958   4.605  10.563  0.0637  0.7042  0.3144
  215MPD1    H6 3276   1.991   4.665  10.488  0.3600  0.3748  0.1789
  215MPD1    H7 3277   2.002   4.514  10.568  0.7927  0.9531 -1.5187
  216MPD1     C 3278   3.273   2.509  17.218  0.2677  0.2177 -0.3884
  216MPD1    C1 3279   3.351   2.487  17.327  0.1845 -0.1451  0.0311
  216MPD1    C2 3280   3.387   2.357  17.356  0.0398 -0.3301 -0.3544
  216MPD1    C3 3281   3.360   2.255  17.270 -0.0501 -0.0367  0.4929
  216MPD1    C4 3282   3.291   2.283  17.156 -0.0675 -0.5619 -0.6216
  216MPD1    C5 3283   3.243   2.408  17.132 -0.0215  0.0914 -0.0926
  216MPD1     H 3284   3.437   2.337  17.449  1.3453  0.8807 -0.7920
  216MPD1    H1 3285   3.266   2.207  17.083 -0.2427 -1.5820  0.5103
  216MPD1    H2 3286   3.226   2.605  17.203  0.6206  0.2751 -1.1315
  216MPD1    H3 3287   3.181   2.425  17.045  1.4899  1.3968 -0.8999
  216MPD1     N 3288   3.411   2.127  17.301 -0.4698 -0.0630 -0.0530
  216MPD1    H5 3289   3.467   2.125  17.386 -0.8029  0.8121  0.1865
  216MPD1    N1 3290   3.355   2.584  17.423  0.3427 -1.0246 -0.3157
  216MPD1    H6 3291   3.360   2.682  17.395 -0.6499 -0.7858  0.3663
  216MPD1    H7 3292   3.434   2.571  17.486  0.7343 -0.7337 -0.7452
  217MPD1     C 3293   0.630   3.713   8.932  0.0280  0.3626 -0.6779
  217MPD1    C1 3294   0.516   3.649   8.985 -0.5901  0.2063  0.3173
  217MPD1    C2 3295   0.445   3.704   9.090 -0.3183  0.1856  0.4613
  217MPD1    C3 3296   0.490   3.824   9.147 -0.2408 -0.4608 -0.0343
  217MPD1    C4 3297   0.605   3.882   9.097  0.5592  0.2459 -0.2963
  217MPD1    C5 3298   0.679   3.828   8.995  0.1605  0.0681 -0.6856
  217MPD1     H 3299   0.357   3.649   9.124  0.4520 -1.5102 -0.2592
  217MPD1    H1 3300   0.645   3.977   9.132  1.9990 -0.3359 -0.3621
  217MPD1    H2 3301   0.690   3.676   8.850  0.0268 -1.4459  0.1350
  217MPD1    H3 3302   0.759   3.887   8.953  1.7847  0.1788  2.5334
  217MPD1     N 3303   0.420   3.880   9.255  0.4052 -0.6018  0.2161
  217MPD1    H5 3304   0.466   3.957   9.302 -0.0826  0.2205 -0.6736
  217MPD1    N1 3305   0.491   3.528   8.921 -0.2825  0.5201 -0.3099
  217MPD1    H6 3306   0.399   3.491   8.945  0.7872 -2.8351 -1.4778
  217MPD1    H7 3307   0.505   3.545   8.821  0.2582  0.8202 -0.1834
  218MPD1     C 3308   0.468   0.996  12.796  0.5365  0.4939  0.4597
  218MPD1    C1 3309   0.508   0.992  12.666 -1.0998 -0.6927  1.0190
  218MPD1    C2 3310   0.585   0.885  12.623 -0.3649 -0.5870 -0.2839
  218MPD1    C3 3311   0.620   0.783  12.710 -0.2247  0.5135  0.0201
  218MPD1    C4 3312   0.569   0.785  12.839 -0.1265  0.1511  0.0796
  218MPD1    C5 3313   0.502   0.898  12.883  0.1348 -0.2990  0.0443
  218MPD1     H 3314   0.605   0.874  12.517 -1.9445 -0.3689 -0.5942
  218MPD1    H1 3315   0.608   0.724  12.920 -1.0803 -1.8020 -0.9419
  218MPD1    H2 3316   0.399   1.075  12.824 -0.5756 -1.0445  2.0713
  218MPD1    H3 3317   0.476   0.915  12.987  0.1760  0.1984 -0.0245
  218MPD1     N 3318   0.713   0.686  12.666 -0.2126 -0.2894  0.1063
  218MPD1    H5 3319   0.753   0.703  12.574 -1.8739 -0.0188 -0.5676
  218MPD1    N1 3320   0.455   1.089  12.577 -0.3767  0.0340 -0.4384
  218MPD1    H6 3321   0.452   1.183  12.615  0.9391 -1.2748  2.8473
  218MPD1    H7 3322   0.506   1.104  12.490 -1.9356  1.4021 -1.1141
  219MPD1     C 3323   1.265   0.898  12.075  0.1006 -0.1562 -0.3509
  219MPD1    C1 3324   1.153   0.824  12.048  0.8603 -0.0829 -0.7159
  219MPD1    C2 3325   1.101   0.741  12.146  0.2468  0.4315 -1.2757
  219MPD1    C3 3326   1.175   0.709  12.259  0.3917  0.3162 -0.1359
  219MPD1    C4 3327   1.291   0.772  12.278  0.0407  0.2658  0.0115
  219MPD1    C5 3328   1.333   0.871  12.193 -0.0275  0.0233  0.0111
  219MPD1     H 3329   1.001   0.700  12.138  1.1463 -1.7681 -1.1732
  219MPD1    H1 3330   1.348   0.762  12.370  0.8179  0.4422 -0.4526
  219MPD1    H2 3331   1.309   0.965  12.002  1.6905 -0.5309  0.2574
  219MPD1    H3 3332   1.425   0.927  12.206 -0.1356 -0.5687  3.2259
  219MPD1     N 3333   1.134   0.604  12.343  0.1398  0.1592  0.1505
  219MPD1    H5 3334   1.187   0.580  12.426 -1.1444  1.0909  1.2375
  219MPD1    N1 3335   1.074   0.872  11.938 -0.1577 -0.3947  0.1421
  219MPD1    H6 3336   1.007   0.807  11.897 -0.9717  0.1288  0.6301
  219MPD1    H7 3337   1.138   0.906  11.866  0.7381  1.8118  1.9760
  220MPD1     C 3338   1.050   1.280   9.673  0.5666  0.2783  0.5593
  220MPD1    C1 3339   0.994   1.196   9.755  0.3444  1.4154 -0.7768
  220MPD1    C2 3340   1.040   1.068   9.774  0.1631  0.2666 -0.1672
  220MPD1    C3 3341   1.144   1.028   9.691 -0.1084 -0.7754 -1.6255
  220MPD1    C4 3342   1.187   1.112   9.588 -0.1007  0.0277 -0.4028
  220MPD1    C5 3343   1.141   1.239   9.580  0.3642 -0.7630 -0.4890
  220MPD1     H 3344   1.004   1.006   9.855  1.2771  1.7862  1.4803
  220MPD1    H1 3345   1.266   1.075   9.524  0.6606  1.7373 -0.4392
  220MPD1    H2 3346   1.013   1.381   9.667  1.8291  0.6433 -0.8900
  220MPD1    H3 3347   1.177   1.305   9.502  0.9505 -1.7714 -1.0641
  220MPD1     N 3348   1.207   0.904   9.723  0.1529  0.5925  0.4070
  220MPD1    H5 3349   1.157   0.854   9.795 -0.3197 -1.5202 -1.3856
  220MPD1    N1 3350   0.896   1.246   9.841 -0.3231 -0.1034 -0.3237
  220MPD1    H6 3351   0.845   1.175   9.894 -1.2564 -0.5763 -1.8554
  220MPD1    H7 3352   0.828   1.307   9.796  0.2206  0.6244 -0.1534
  221MPD1     C 3353   3.332   0.020  16.478  0.1201 -0.0473  0.5749
  221MPD1    C1 3354   3.402   0.066  16.370 -0.8542 -0.2205 -0.7651
  221MPD1    C2 3355   3.538   0.063  16.374 -0.3017  0.1517 -0.2212
  221MPD1    C3 3356   3.598   4.722  16.479 -0.3913 -0.2170 -0.6099
  221MPD1    C4 3357   3.524   4.669  16.585 -0.0697 -0.0959 -0.6304
  221MPD1    C5 3358   3.382   4.684  16.583 -0.1455  0.6558 -0.7733
  221MPD1     H 3359   3.595   0.108  16.294  0.1951 -0.5142 -0.2474
  221MPD1    H1 3360   3.573   4.635  16.676 -2.5166 -0.6136  0.4969
  221MPD1    H2 3361   3.224   0.031  16.477 -0.1910 -3.1617  0.5990
  221MPD1    H3 3362   3.318   4.644  16.660 -0.5817 -2.3356 -2.6683
  221MPD1     N 3363   3.740   4.716  16.495  0.0408  0.5799  0.0975
  221MPD1    H5 3364   3.778   4.657  16.568  0.2405 -2.6950 -2.6724
  221MPD1    N1 3365   3.330   0.123  16.262  0.9534 -0.6051  0.4916
  221MPD1    H6 3366   3.393   0.152  16.188  1.3035 -2.0303  0.2439
  221MPD1    H7 3367   3.263   0.197  16.285  3.3736  1.3459  1.2598
  222MPD1     C 3368   3.758   2.659  17.047 -0.0203 -0.2994  0.5976
  222MPD1    C1 3369   3.637   2.639  17.111  0.7079  0.0470 -0.2061
  222MPD1    C2 3370   3.600   2.724  17.207  0.2306  0.1171 -0.5694
  222MPD1    C3 3371   3.657   2.850  17.219 -0.3139 -0.1544  0.2261
  222MPD1    C4 3372   3.772   2.873  17.149 -0.3054  0.0378  0.6265
  222MPD1    C5 3373   3.831   2.773  17.072  0.1529  0.3257 -0.2311
  222MPD1     H 3374   3.504   2.698  17.251  0.6344  0.4196  0.4796
  222MPD1    H1 3375   3.833   2.962  17.159 -0.3617  0.0636  0.7314
  222MPD1    H2 3376   3.796   2.589  16.973  0.6233 -1.1105  1.7080
  222MPD1    H3 3377   3.925   2.782  17.020  1.1237  0.7884  1.6001
  222MPD1     N 3378   3.598   2.954  17.296 -0.4425  0.0378 -0.5555
  222MPD1    H5 3379   3.640   3.047  17.300  1.0710 -0.5748 -2.2661
  222MPD1    N1 3380   3.572   2.514  17.097 -0.0409 -0.3436  0.3358
  222MPD1    H6 3381   3.478   2.503  17.135 -0.8750  0.7288 -1.3965
  222MPD1    H7 3382   3.574   2.469  17.005 -1.2784  1.1493 -0.4316
  223MPD1     C 3383   3.040   3.572   0.218  0.5072 -0.8658 -0.0253
  223MPD1    C1 3384   3.116   3.648   0.131  0.1744  0.3516 -0.5063
  223MPD1    C2 3385   3.165   3.586   0.018 -0.0565  0.6559  0.6062
  223MPD1    C3 3386   3.130   3.450  17.699  0.8259  0.1164  0.9431
  223MPD1    C4 3387   3.045   3.381   0.077  0.0495 -0.6104 -0.6410
  223MPD1    C5 3388   3.005   3.448   0.196 -0.2901  0.3775 -0.1366
  223MPD1     H 3389   3.225   3.636  17.649 -0.3015  0.8102  0.5138
  223MPD1    H1 3390   3.010   3.280   0.060  0.3237 -0.9758  0.9814
  223MPD1    H2 3391   2.992   3.614   0.305  1.1985 -2.5914  1.1716
  223MPD1    H3 3392   2.947   3.401   0.275  0.0372 -0.5980 -0.4747
  223MPD1     N 3393   3.180   3.403  17.577 -0.0448  0.6635 -0.5375
  223MPD1    H5 3394   3.214   3.476  17.515  0.8411  0.3450 -0.4199
  223MPD1    N1 3395   3.134   3.786   0.145  0.0171  0.0325  0.4886
  223MPD1    H6 3396   3.169   3.799   0.240  0.6194  0.6672  0.1776
  223MPD1    H7 3397   3.191   3.838   0.079 -0.5383  0.4945  0.3638
  224MPD1     C 3398   4.518   0.225  10.094 -0.5673  0.2437 -0.2701
  224MPD1    C1 3399   4.553   0.355  10.058 -0.4225  0.0128  0.2320
  224MPD1    C2 3400   4.646   0.370   9.959  0.2373 -0.1277  0.2443
  224MPD1    C3 3401   4.711   0.272   9.897  0.3684 -0.1090  0.6626
  224MPD1    C4 3402   4.674   0.139   9.929  0.2397 -0.2829 -0.1831
  224MPD1    C5 3403   4.582   0.120  10.029  0.1328 -0.2254 -0.1148
  224MPD1     H 3404   4.667   0.474   9.935 -0.3243 -0.5261 -2.0348
  224MPD1    H1 3405   4.715   0.054   9.876  1.1596 -1.4382  2.3830
  224MPD1    H2 3406   4.441   0.207  10.168  0.2393  2.4298  1.1299
  224MPD1    H3 3407   4.562   0.016  10.050 -0.6346  0.7462  3.9091
  224MPD1     N 3408   0.094   0.289   9.808  0.0594  0.8583 -0.4731
  224MPD1    H5 3409   0.140   0.208   9.768 -1.0071  1.3646 -2.7748
  224MPD1    N1 3410   4.498   0.462  10.133  0.4084 -0.4033 -0.7123
  224MPD1    H6 3411   4.401   0.439  10.154  0.5286  0.2792  0.5514
  224MPD1    H7 3412   4.511   0.550  10.084 -0.5951 -0.2813 -0.7640
  225MPD1     C 3413   1.062   1.749  12.320  0.2800 -0.6269 -0.2274
  225MPD1    C1 3414   1.058   1.634  12.244 -0.3716  0.1515  0.5881
  225MPD1    C2 3415   0.939   1.607  12.172 -0.6754  0.5142  0.7696
  225MPD1    C3 3416   0.850   1.712  12.142  0.0414 -0.0961  0.3337
  225MPD1    C4 3417   0.881   1.836  12.188  0.5262 -0.5142  0.1815
  225MPD1    C5 3418   0.986   1.855  12.282  0.6244 -0.8454  0.0763
  225MPD1     H 3419   0.923   1.509  12.128 -1.7640  0.9275  0.2765
  225MPD1    H1 3420   0.820   1.925  12.178  2.3961  0.5412 -2.0563
  225MPD1    H2 3421   1.141   1.764  12.393  0.2922 -1.4043 -0.0858
  225MPD1    H3 3422   1.016   1.951  12.322 -0.2447 -0.3703 -0.4098
  225MPD1     N 3423   0.729   1.692  12.070 -0.5440  0.2692  0.4723
  225MPD1    H5 3424   0.658   1.764  12.071 -2.5865 -1.7104 -3.5509
  225MPD1    N1 3425   1.143   1.523  12.274  1.0744  0.2256  0.0705
  225MPD1    H6 3426   1.228   1.551  12.324  0.9272  3.6538 -1.5595
  225MPD1    H7 3427   1.160   1.464  12.193  0.3584 -0.8990  0.7530
  226MPD1     C 3428   4.650   1.604   9.675  0.2505  0.3847  0.1254
  226MPD1    C1 3429   4.661   1.740   9.653 -0.2840  0.0803 -0.0151
  226MPD1    C2 3430   0.056   1.789   9.615 -0.0473 -0.1238 -0.5175
  226MPD1    C3 3431   0.168   1.705   9.593 -0.4214  0.1445 -0.1904
  226MPD1    C4 3432   0.151   1.573   9.603  0.4260  0.2059  0.1019
  226MPD1    C5 3433   0.028   1.520   9.648 -1.0389 -0.1111 -0.2960
  226MPD1     H 3434   0.071   1.896   9.616 -0.9170  0.0033 -2.0830
  226MPD1    H1 3435   0.225   1.493   9.596  0.6432  0.2628  1.7490
  226MPD1    H2 3436   4.564   1.555   9.720  0.2292 -0.8538 -1.2745
  226MPD1    H3 3437   0.012   1.413   9.656 -2.4335  0.1429  0.3750
  226MPD1     N 3438   0.288   1.764   9.565 -0.2058  0.5891 -0.1882
  226MPD1    H5 3439   0.296   1.866   9.566 -1.1218  0.6393  1.2657
  226MPD1    N1 3440   4.552   1.822   9.666 -0.2721  0.1045  0.0138
  226MPD1    H6 3441   4.564   1.912   9.711 -1.3827  0.4494 -0.3935
  226MPD1    H7 3442   4.479   1.763   9.705  0.1235 -0.4512 -0.0854
  227MPD1     C 3443   0.788   2.145  10.274 -0.1524 -0.1982 -0.4348
  227MPD1    C1 3444   0.896   2.107  10.199 -0.0272 -0.6005  0.8563
  227MPD1    C2 3445   0.868   2.067  10.070 -0.0464 -0.3460  0.3531
  227MPD1    C3 3446   0.743   2.073  10.012  0.1211  0.2689 -0.2373
  227MPD1    C4 3447   0.638   2.117  10.095 -0.6261 -0.0862 -0.1282
  227MPD1    C5 3448   0.659   2.157  10.220  0.0825 -0.3669  0.2572
  227MPD1     H 3449   0.949   2.031  10.007 -1.5887  0.5576 -2.1436
  227MPD1    H1 3450   0.534   2.129  10.067 -0.4526  1.7412  0.0444
  227MPD1    H2 3451   0.788   2.167  10.380  0.1332 -2.8726  0.1036
  227MPD1    H3 3452   0.577   2.188  10.283  0.0213  0.4190 -0.2068
  227MPD1     N 3453   0.729   2.013   9.882  0.3335  0.3051  0.0042
  227MPD1    H5 3454   0.815   1.972   9.849 -0.7839  0.5859 -3.2553
  227MPD1    N1 3455   1.017   2.077  10.264  0.2490 -0.2109  0.1441
  227MPD1    H6 3456   1.106   2.079  10.216 -0.0128  0.8528 -0.2904
  227MPD1    H7 3457   1.017   2.127  10.353 -1.9295 -3.0352  1.7375
  228MPD1     C 3458   2.865   3.623  12.903  0.2102 -0.4769  0.2979
  228MPD1    C1 3459   2.773   3.718  12.857 -0.3668 -0.0371  0.3814
  228MPD1    C2 3460   2.647   3.700  12.916  1.0170  0.8552 -0.3626
  228MPD1    C3 3461   2.607   3.594  12.995 -0.5293 -1.0409  1.1023
  228MPD1    C4 3462   2.704   3.509  13.042  0.5860 -0.4457 -0.3560
  228MPD1    C5 3463   2.833   3.527  12.995  0.2271 -0.4635 -0.3902
  228MPD1     H 3464   2.568   3.769  12.887  0.7516  1.4885  1.8593
  228MPD1    H1 3465   2.688   3.423  13.107 -0.9608  0.1082 -0.0094
  228MPD1    H2 3466   2.972   3.626  12.881  0.0844 -0.4104 -0.3114
  228MPD1    H3 3467   2.912   3.457  13.019 -0.4565 -1.3420 -0.6838
  228MPD1     N 3468   2.474   3.591  13.026 -0.0221  1.1951  0.4442
  228MPD1    H5 3469   2.422   3.670  12.988  0.3457  2.5332  2.7449
  228MPD1    N1 3470   2.820   3.842  12.816 -0.6616 -0.6888 -0.5168
  228MPD1    H6 3471   2.901   3.843  12.755  0.3907 -2.1501  0.8824
  228MPD1    H7 3472   2.746   3.891  12.766 -0.0748 -0.0811 -0.7893
  229MPD1     C 3473   1.845   2.493  13.988  0.1576 -0.8160  0.2141
  229MPD1    C1 3474   1.856   2.567  14.101 -0.1463 -0.1717 -0.0329
  229MPD1    C2 3475   1.908   2.511  14.221  0.2978  0.2790  0.5371
  229MPD1    C3 3476   1.944   2.378  14.226 -0.2683  0.4916  0.6926
  229MPD1    C4 3477   1.941   2.311  14.104 -0.6770 -0.7335  1.0868
  229MPD1    C5 3478   1.887   2.365  13.990 -0.0989  0.6278 -0.7448
  229MPD1     H 3479   1.904   2.578  14.307  2.0885  2.8503 -1.3945
  229MPD1    H1 3480   1.970   2.207  14.109 -1.0844 -0.7923  2.3881
  229MPD1    H2 3481   1.799   2.526  13.896 -1.0140  0.3850  1.2276
  229MPD1    H3 3482   1.881   2.303  13.901  0.9671 -0.7286  0.1214
  229MPD1     N 3483   1.989   2.311  14.339  0.4470 -0.2733 -0.5894
  229MPD1    H5 3484   2.033   2.224  14.310  0.5449 -0.1483 -0.8156
  229MPD1    N1 3485   1.784   2.691  14.109  0.0214 -0.6009 -1.0620
  229MPD1    H6 3486   1.759   2.739  14.023 -1.1566  1.4551  0.3995
  229MPD1    H7 3487   1.827   2.763  14.167 -3.4600  0.8364 -0.2438
  230MPD1     C 3488   1.818   2.714  15.184  0.3708 -0.2592  0.0567
  230MPD1    C1 3489   1.745   2.707  15.066 -1.0302 -0.2676 -0.2067
  230MPD1    C2 3490   1.773   2.607  14.980  0.5233  0.6716  0.3120
  230MPD1    C3 3491   1.866   2.508  15.011  0.8062 -0.4142  0.0684
  230MPD1    C4 3492   1.937   2.517  15.132  0.4337 -0.0858  0.2082
  230MPD1    C5 3493   1.908   2.614  15.215  0.4522  0.0417  0.0474
  230MPD1     H 3494   1.717   2.601  14.888 -0.0972 -0.5213  0.7626
  230MPD1    H1 3495   2.010   2.441  15.159  1.0565  0.5980  0.4267
  230MPD1    H2 3496   1.795   2.794  15.253  1.7642  0.4233 -0.2584
  230MPD1    H3 3497   1.966   2.629  15.305  2.7767 -0.5258 -1.3580
  230MPD1     N 3498   1.887   2.408  14.920  0.0481 -0.2644 -0.0538
  230MPD1    H5 3499   1.830   2.425  14.837 -0.1079  0.2394  0.1584
  230MPD1    N1 3500   1.669   2.815  15.034 -0.2477 -0.3551 -0.2406
  230MPD1    H6 3501   1.592   2.792  14.971  0.4946  1.5484 -1.8458
  230MPD1    H7 3502   1.630   2.863  15.115 -1.1064 -1.5147  0.0343
  231MPD1     C 3503   0.426   3.763  15.528  0.0669  0.1506  0.5799
  231MPD1    C1 3504   0.393   3.717  15.399  0.2211  0.0479 -0.6189
  231MPD1    C2 3505   0.435   3.793  15.289 -0.0267 -0.0400 -0.0592
  231MPD1    C3 3506   0.524   3.902  15.314 -0.0953 -0.8085 -1.0979
  231MPD1    C4 3507   0.567   3.932  15.444  0.2780 -0.1989 -0.1417
  231MPD1    C5 3508   0.514   3.861  15.550  0.1910  0.5770 -0.5659
  231MPD1     H 3509   0.415   3.765  15.186 -0.5308  2.2042 -0.5696
  231MPD1    H1 3510   0.641   4.007  15.467 -0.0053  0.4004 -1.1967
  231MPD1    H2 3511   0.388   3.711  15.615 -2.5285 -0.9051 -1.1692
  231MPD1    H3 3512   0.541   3.893  15.650 -0.9473  1.2341 -0.4780
  231MPD1     N 3513   0.577   3.971  15.199 -0.4895 -0.1000 -0.7503
  231MPD1    H5 3514   0.552   3.940  15.106 -2.7290 -0.2587 -0.0898
  231MPD1    N1 3515   0.313   3.607  15.374 -0.0964  0.2081  0.5831
  231MPD1    H6 3516   0.330   3.561  15.285 -1.8618  0.6788 -0.0019
  231MPD1    H7 3517   0.299   3.547  15.455  0.8015  1.4975  1.7109
  232MPD1     C 3518   3.094   1.511   0.280 -0.0071 -0.3169  0.5202
  232MPD1    C1 3519   3.067   1.596   0.175 -0.1737 -0.3142 -0.5844
  232MPD1    C2 3520   2.959   1.567   0.090 -0.2521 -0.5490 -0.1641
  232MPD1    C3 3521   2.882   1.449   0.108 -0.2881 -0.7789  0.0951
  232MPD1    C4 3522   2.921   1.360   0.210  0.2014 -0.0689 -0.0588
  232MPD1    C5 3523   3.022   1.391   0.297 -0.3006 -0.0657  0.7298
  232MPD1     H 3524   2.947   1.634   0.005 -0.6903 -0.9384 -0.4106
  232MPD1    H1 3525   2.875   1.262   0.223  0.2514 -0.3122 -1.7411
  232MPD1    H2 3526   3.174   1.524   0.352  1.1797 -4.0972 -0.1161
  232MPD1    H3 3527   3.045   1.321   0.376  0.6778  0.3412  0.8117
  232MPD1     N 3528   2.781   1.420   0.011  0.1146  0.5813  0.0646
  232MPD1    H5 3529   2.784   1.473  17.631 -0.9784  0.1799 -0.2200
  232MPD1    N1 3530   3.160   1.689   0.135 -0.2851 -0.0408  0.2802
  232MPD1    H6 3531   3.124   1.769   0.083 -0.5223  0.2500  0.8919
  232MPD1    H7 3532   3.211   1.733   0.212 -1.9877  2.0483  0.2043
  233MPD1     C 3533   4.318   4.134   0.772 -0.1317  0.2644 -0.3040
  233MPD1    C1 3534   4.290   4.264   0.741 -0.1384 -0.1810  0.9630
  233MPD1    C2 3535   4.298   4.359   0.842 -0.3542 -0.1954  0.0257
  233MPD1    C3 3536   4.357   4.321   0.960  0.0729  0.1887 -0.4519
  233MPD1    C4 3537   4.387   4.188   0.990  0.4987  1.2438 -0.0467
  233MPD1    C5 3538   4.364   4.098   0.892 -0.5844 -0.1869 -0.6335
  233MPD1     H 3539   4.285   4.463   0.813  1.2441  0.2753  0.9690
  233MPD1    H1 3540   4.412   4.153   1.090  1.4290  0.7443 -0.4606
  233MPD1    H2 3541   4.307   4.058   0.696  1.5408  1.4418 -1.7380
  233MPD1    H3 3542   4.388   3.994   0.911  1.0880  0.3939  0.4090
  233MPD1     N 3543   4.397   4.421   1.056  0.2229  0.0436 -0.0575
  233MPD1    H5 3544   4.460   4.387   1.127  0.7910  1.5543  0.1507
  233MPD1    N1 3545   4.241   4.307   0.616  0.1894  0.4016  0.0561
  233MPD1    H6 3546   4.267   4.403   0.593  0.0155  1.0383  2.4797
  233MPD1    H7 3547   4.285   4.255   0.541  1.7472  0.2948  1.0413
  234MPD1     C 3548   1.732   4.129  10.337 -0.0394  0.4900  0.1120
  234MPD1    C1 3549   1.716   4.264  10.339 -0.5597 -0.1595 -0.1441
  234MPD1    C2 3550   1.589   4.313  10.307  0.2070 -1.0648  0.2763
  234MPD1    C3 3551   1.482   4.230  10.282  0.0474  1.0033 -0.4578
  234MPD1    C4 3552   1.502   4.092  10.283  0.3881  0.3717  0.6182
  234MPD1    C5 3553   1.629   4.049  10.308 -0.2730  0.5804  0.0465
  234MPD1     H 3554   1.570   4.419  10.317 -0.7538 -1.1867 -0.3117
  234MPD1    H1 3555   1.426   4.018  10.261 -1.3699  1.5421  2.6768
  234MPD1    H2 3556   1.826   4.078  10.352  0.1175  0.7099 -0.1216
  234MPD1    H3 3557   1.654   3.944  10.306  0.4817  0.7849 -0.9026
  234MPD1     N 3558   1.357   4.289  10.245  1.1093 -0.1220  0.8599
  234MPD1    H5 3559   1.350   4.390  10.236  1.2359 -0.1590  0.3363
  234MPD1    N1 3560   1.815   4.349  10.393  0.3455  0.0892 -0.2869
  234MPD1    H6 3561   1.796   4.449  10.394 -1.2138 -0.1768 -2.0872
  234MPD1    H7 3562   1.912   4.331  10.368  0.6114 -1.6090  2.0529
  235MPD1     C 3563   1.412   2.097   9.448 -0.8320  0.6520  0.5231
  235MPD1    C1 3564   1.339   1.988   9.482  0.0619 -0.3038 -0.0147
  235MPD1    C2 3565   1.406   1.904   9.568 -0.1444 -0.4686 -0.3248
  235MPD1    C3 3566   1.525   1.932   9.622  0.5249  0.0359 -0.1904
  235MPD1    C4 3567   1.587   2.050   9.606  0.1185  0.5817  0.3591
  235MPD1    C5 3568   1.533   2.125   9.508  0.5440  0.7829  0.6613
  235MPD1     H 3569   1.354   1.811   9.591  1.9313 -1.5223  0.1016
  235MPD1    H1 3570   1.680   2.087   9.648  2.2010 -3.1768 -0.9865
  235MPD1    H2 3571   1.372   2.176   9.384  0.3321  0.3427 -0.5778
  235MPD1    H3 3572   1.591   2.216   9.501  0.0485  0.9076 -1.8452
  235MPD1     N 3573   1.569   1.837   9.721  0.5280  0.4051 -0.3216
  235MPD1    H5 3574   1.529   1.744   9.731  0.3624  0.7045  1.7995
  235MPD1    N1 3575   1.228   1.943   9.404 -0.0809 -0.1804 -0.0746
  235MPD1    H6 3576   1.165   1.887   9.460  2.3276 -3.5989 -0.8361
  235MPD1    H7 3577   1.178   2.021   9.361  0.7346  0.1913 -0.3458
  236MPD1     C 3578   0.943   2.726   9.247 -0.1123 -0.5133  0.3914
  236MPD1    C1 3579   0.917   2.607   9.305  0.0250 -0.0219  0.5447
  236MPD1    C2 3580   1.014   2.539   9.386  0.1826  0.2385 -0.0300
  236MPD1    C3 3581   1.138   2.595   9.399 -0.2697  0.6098 -0.2646
  236MPD1    C4 3582   1.162   2.707   9.316 -0.4051 -0.0205  0.6299
  236MPD1    C5 3583   1.067   2.769   9.244  0.2038  0.3705 -0.5836
  236MPD1     H 3584   0.985   2.447   9.435  0.1476 -0.1010 -0.6898
  236MPD1    H1 3585   1.259   2.756   9.317 -0.8582  0.8557  2.1876
  236MPD1    H2 3586   0.869   2.786   9.195 -0.9438 -1.7795  0.1060
  236MPD1    H3 3587   1.082   2.864   9.194  0.7033  0.9881  0.7464
  236MPD1     N 3588   1.241   2.547   9.479  0.4221  0.2783 -0.8984
  236MPD1    H5 3589   1.325   2.604   9.485  0.8588 -0.4224 -0.3778
  236MPD1    N1 3590   0.791   2.556   9.309 -0.2157 -0.1898  0.0980
  236MPD1    H6 3591   0.723   2.595   9.244  0.4211 -0.4298 -0.7056
  236MPD1    H7 3592   0.794   2.454   9.302  0.6501 -0.1963  0.5858
  237MPD1     C 3593   1.160   0.373  14.966  0.4127  0.5506 -0.2693
  237MPD1    C1 3594   1.124   0.311  15.084  0.4177  0.3510  0.1675
  237MPD1    C2 3595   0.984   0.290  15.107  0.0705 -0.5146  0.0549
  237MPD1    C3 3596   0.885   0.316  15.010  0.7982  0.3972  0.1146
  237MPD1    C4 3597   0.935   0.368  14.890 -0.2533 -0.0949 -0.1854
  237MPD1    C5 3598   1.069   0.398  14.870  0.1093 -0.2480  0.2860
  237MPD1     H 3599   0.953   0.251  15.203  0.2999  2.0654  1.1869
  237MPD1    H1 3600   0.873   0.389  14.804 -0.4910  1.4529  0.3723
  237MPD1    H2 3601   1.262   0.405  14.945 -0.0099  0.9822 -1.6019
  237MPD1    H3 3602   1.100   0.448  14.779  0.3270  0.7718  0.9283
  237MPD1     N 3603   0.750   0.295  15.029  0.6958 -0.0056 -0.4236
  237MPD1    H5 3604   0.700   0.321  14.945 -0.3683  1.9207  0.8106
  237MPD1    N1 3605   1.215   0.308  15.189 -0.2654  0.4865 -0.7582
  237MPD1    H6 3606   1.180   0.232  15.247  2.4950 -1.1777 -1.2958
  237MPD1    H7 3607   1.315   0.300  15.173 -0.0760  2.7557 -0.6869
  238MPD1     C 3608   2.597   3.603  15.023  0.2513  0.4099  0.7884
  238MPD1    C1 3609   2.557   3.630  15.151 -0.5276  0.1639  0.6030
  238MPD1    C2 3610   2.478   3.737  15.175 -0.3057 -0.0870  0.1995
  238MPD1    C3 3611   2.434   3.815  15.067 -1.1039  0.5248  0.5958
  238MPD1    C4 3612   2.469   3.783  14.941 -0.6623 -0.5157  0.4516
  238MPD1    C5 3613   2.543   3.672  14.915 -0.1121  0.3625 -0.9196
  238MPD1     H 3614   2.466   3.771  15.277 -0.6512 -0.7445  0.3768
  238MPD1    H1 3615   2.432   3.840  14.856  2.2785 -0.5606 -0.8858
  238MPD1    H2 3616   2.675   3.532  14.999 -0.9572 -1.9109  3.6852
  238MPD1    H3 3617   2.555   3.645  14.811 -0.1929  0.3384 -0.9221
  238MPD1     N 3618   2.344   3.917  15.078 -0.2508  0.2903  0.1746
  238MPD1    H5 3619   2.329   3.972  14.994  2.6998 -2.3189 -2.0734
  238MPD1    N1 3620   2.630   3.566  15.247  0.0653 -0.1089 -0.5798
  238MPD1    H6 3621   2.663   3.472  15.226 -0.2233 -0.1630 -0.7841
  238MPD1    H7 3622   2.567   3.554  15.326 -0.9582  0.1989 -1.3568
  239MPD1     C 3623   2.873   0.120  14.789 -0.2536 -0.7298 -0.2724
  239MPD1    C1 3624   2.822   0.248  14.776 -0.6334 -0.2016 -0.5567
  239MPD1    C2 3625   2.771   0.288  14.651 -0.3252  0.0500  0.0766
  239MPD1    C3 3626   2.787   0.209  14.539 -0.8239 -0.2750 -0.8689
  239MPD1    C4 3627   2.854   0.090  14.548  0.3086  0.3805  0.1187
  239MPD1    C5 3628   2.891   0.044  14.671 -0.2150 -0.4713  0.0619
  239MPD1     H 3629   2.720   0.383  14.652 -1.0851 -0.3709  1.3153
  239MPD1    H1 3630   2.885   0.035  14.459 -3.6450  1.3011 -1.7958
  239MPD1    H2 3631   2.909   0.095  14.888  2.3786  2.3554 -0.4270
  239MPD1    H3 3632   2.956   4.684  14.667  0.6248  0.1816 -0.5063
  239MPD1     N 3633   2.752   0.261  14.409  0.2343  0.0209  0.9190
  239MPD1    H5 3634   2.768   0.203  14.327 -2.2490  1.4090 -0.5471
  239MPD1    N1 3635   2.798   0.324  14.888 -0.0432  0.0786  0.0115
  239MPD1    H6 3636   2.875   0.305  14.951 -1.4264 -1.6172  1.2169
  239MPD1    H7 3637   2.787   0.423  14.865 -0.8264  0.2857  1.2976
  240MPD1     C 3638   1.635   0.694  13.632 -0.5459  0.2985 -0.9436
  240MPD1    C1 3639   1.596   0.712  13.760  0.4411  0.2339 -0.0733
  240MPD1    C2 3640   1.624   0.609  13.852  0.2231 -0.5022 -0.4646
  240MPD1    C3 3641   1.692   0.497  13.812  0.2124 -0.8037 -0.1227
  240MPD1    C4 3642   1.733   0.484  13.683  0.1384  0.4634 -0.6471
  240MPD1    C5 3643   1.700   0.583  13.594 -0.7206  0.0426  0.2394
  240MPD1     H 3644   1.592   0.613  13.956  1.3984  0.8914 -0.1559
  240MPD1    H1 3645   1.782   0.398  13.640 -0.4526  0.1542 -0.7084
  240MPD1    H2 3646   1.614   0.776  13.564  3.2228  0.8854 -1.3872
  240MPD1    H3 3647   1.744   0.569  13.496 -0.2374  1.1017  0.3107
  240MPD1     N 3648   1.714   0.394  13.905 -0.2924  0.4233 -0.0021
  240MPD1    H5 3649   1.703   0.407  14.005  0.7886  0.5571  0.1012
  240MPD1    N1 3650   1.524   0.826  13.797 -0.1859 -0.4276  0.0635
  240MPD1    H6 3651   1.468   0.812  13.881  0.1162 -3.0406 -0.1853
  240MPD1    H7 3652   1.450   0.838  13.728  1.7792  0.2998 -1.9218
  241MPD1     C 3653   2.442   0.166  14.438  0.4450  0.0694  0.3221
  241MPD1    C1 3654   2.345   0.256  14.478  0.3558 -0.9785 -0.1427
  241MPD1    C2 3655   2.228   0.269  14.406  0.6557  0.0248 -0.1476
  241MPD1    C3 3656   2.211   0.191  14.292 -0.4147 -0.5750 -0.7759
  241MPD1    C4 3657   2.317   0.113  14.251 -0.0519  0.2640 -0.2366
  241MPD1    C5 3658   2.419   0.091  14.331  0.5934  0.5396  0.5945
  241MPD1     H 3659   2.151   0.331  14.450  3.6386  2.6245  1.4030
  241MPD1    H1 3660   2.297   0.049  14.165 -0.0854 -1.4579  1.0417
  241MPD1    H2 3661   2.537   0.159  14.490  0.5920  1.0117  0.1801
  241MPD1    H3 3662   2.493   0.017  14.301  0.1046  0.9857 -1.7191
  241MPD1     N 3663   2.087   0.184  14.222  0.5730 -0.2061  0.0608
  241MPD1    H5 3664   2.083   0.123  14.141 -2.0475  1.1328 -0.8124
  241MPD1    N1 3665   2.360   0.313  14.611  0.4444 -0.6097  0.0005
  241MPD1    H6 3666   2.453   0.334  14.646  0.2347 -0.2470  0.3479
  241MPD1    H7 3667   2.288   0.382  14.633  0.0447 -0.3079 -2.2497
  242MPD1     C 3668   1.895   3.299  15.342  0.2916 -0.6962  0.7942
  242MPD1    C1 3669   2.006   3.214  15.364 -0.2724 -0.0351 -0.6407
  242MPD1    C2 3670   2.018   3.094  15.292  0.6551 -0.2608  0.1531
  242MPD1    C3 3671   1.947   3.085  15.175 -0.6086 -0.3005  0.0813
  242MPD1    C4 3672   1.839   3.168  15.146  0.6986 -0.1227  0.6906
  242MPD1    C5 3673   1.813   3.271  15.233  0.1602  0.1258 -0.3720
  242MPD1     H 3674   2.096   3.020  15.310  0.2432 -0.7513 -0.0887
  242MPD1    H1 3675   1.779   3.159  15.057 -0.9241 -0.9964  1.8769
  242MPD1    H2 3676   1.874   3.384  15.405  0.1685 -0.1214 -0.0178
  242MPD1    H3 3677   1.722   3.328  15.213 -1.4795 -2.4431 -0.3356
  242MPD1     N 3678   1.978   3.001  15.065 -0.7414  0.4620  0.2772
  242MPD1    H5 3679   1.915   3.011  14.986 -0.9749 -0.1145  0.3885
  242MPD1    N1 3680   2.084   3.230  15.479  0.2199  0.1565 -0.3147
  242MPD1    H6 3681   2.183   3.207  15.473  0.6439  1.8743 -0.0185
  242MPD1    H7 3682   2.077   3.325  15.515  1.2793 -0.6394  1.9885
  243MPD1     C 3683   4.557   1.121  17.060 -0.6345 -0.0067 -0.1056
  243MPD1    C1 3684   4.458   1.207  17.105  0.5629  0.4566  0.6987
  243MPD1    C2 3685   4.382   1.279  17.019  0.2513 -0.8083  0.1728
  243MPD1    C3 3686   4.413   1.274  16.885 -0.0464 -0.3664 -0.4408
  243MPD1    C4 3687   4.513   1.196  16.840 -0.4601 -0.1182 -0.5196
  243MPD1    C5 3688   4.588   1.119  16.928  0.4091  0.4509 -0.1396
  243MPD1     H 3689   4.302   1.340  17.060  0.2028  0.7601 -2.2210
  243MPD1    H1 3690   4.551   1.201  16.738  1.9112 -3.3007  0.2310
  243MPD1    H2 3691   4.611   1.053  17.124  0.9892  1.6377  0.2562
  243MPD1    H3 3692   4.674   1.062  16.894  1.2754  0.8458  1.3838
  243MPD1     N 3693   4.331   1.353  16.802 -0.2369  0.1392  0.6679
  243MPD1    H5 3694   4.250   1.400  16.841  0.2626  1.2201  0.3817
  243MPD1    N1 3695   4.425   1.187  17.235 -0.0600 -0.4119 -0.3030
  243MPD1    H6 3696   4.507   1.163  17.289 -0.8970 -0.1414  1.0795
  243MPD1    H7 3697   4.394   1.274  17.278 -1.3099  0.4965 -3.0220
  244MPD1     C 3698   3.828   1.874  17.126  0.3795  0.2567 -0.2814
  244MPD1    C1 3699   3.956   1.828  17.147  0.4336 -0.0704  0.3612
  244MPD1    C2 3700   4.018   1.773  17.037 -0.2581 -0.1030 -0.0131
  244MPD1    C3 3701   3.951   1.756  16.913  0.6527 -0.0703  0.6482
  244MPD1    C4 3702   3.817   1.789  16.901  0.7682 -0.7385 -0.2954
  244MPD1    C5 3703   3.757   1.851  17.005 -0.2607  0.6111  0.2249
  244MPD1     H 3704   4.125   1.759  17.048 -0.0411  2.2161  1.0225
  244MPD1    H1 3705   3.766   1.778  16.806  0.6580  0.5043 -0.3875
  244MPD1    H2 3706   3.770   1.931  17.198  0.1290  0.6371 -0.7813
  244MPD1    H3 3707   3.653   1.881  16.997 -1.1853 -2.2793  1.2420
  244MPD1     N 3708   4.025   1.698  16.805  0.3210 -0.2446  0.2569
  244MPD1    H5 3709   4.107   1.642  16.826  0.0787 -1.6610 -2.5622
  244MPD1    N1 3710   4.027   1.877  17.259 -0.0992 -0.3551 -0.6397
  244MPD1    H6 3711   4.109   1.826  17.291  0.4985  0.2852 -1.1452
  244MPD1    H7 3712   3.969   1.898  17.340  0.9718 -0.3328  0.1383
  245MPD1     C 3713   4.487   2.138  13.012  0.4701 -0.7316  0.7973
  245MPD1    C1 3714   4.470   2.234  13.114 -0.2676  0.2035  1.1311
  245MPD1    C2 3715   4.569   2.319  13.143  0.0445 -0.0282  0.4656
  245MPD1    C3 3716   4.692   2.312  13.078 -0.1060  0.2459 -0.3578
  245MPD1    C4 3717   4.708   2.221  12.975 -0.3663  0.5275 -0.7793
  245MPD1    C5 3718   4.603   2.133  12.950 -0.0062  0.1669 -0.2405
  245MPD1     H 3719   4.559   2.400  13.215  1.9476 -0.8666  1.6697
  245MPD1    H1 3720   0.075   2.218  12.919  0.5309  0.0472  0.7381
  245MPD1    H2 3721   4.408   2.067  12.992  0.5597 -0.7033  0.3457
  245MPD1    H3 3722   4.610   2.053  12.877  1.8451  0.7260 -0.6794
  245MPD1     N 3723   0.065   2.406  13.118  0.4945  0.2381  0.2118
  245MPD1    H5 3724   0.056   2.449  13.210 -2.0900  0.9867 -0.4010
  245MPD1    N1 3725   4.349   2.241  13.176 -0.2505 -0.4222  0.3191
  245MPD1    H6 3726   4.339   2.315  13.246 -0.2981  0.1746 -0.3127
  245MPD1    H7 3727   4.282   2.278  13.109  1.2710 -0.4225 -1.2196
  246MPD1     C 3728   2.984   4.221   9.822 -0.2243  0.0088 -0.2273
  246MPD1    C1 3729   3.034   4.181   9.699 -0.1757 -0.2818  0.2366
  246MPD1    C2 3730   2.960   4.086   9.629  0.5653  0.3670  0.1381
  246MPD1    C3 3731   2.836   4.031   9.670  0.5247 -0.1476  0.3267
  246MPD1    C4 3732   2.790   4.084   9.793  0.6922  0.3630  0.4984
  246MPD1    C5 3733   2.868   4.162   9.874  0.3029 -0.0299 -0.3270
  246MPD1     H 3734   2.992   4.050   9.531  2.2841  1.9401  0.1258
  246MPD1    H1 3735   2.696   4.056   9.838  0.8289 -1.2949 -0.2436
  246MPD1    H2 3736   3.041   4.285   9.888 -1.1779 -1.3469  1.9235
  246MPD1    H3 3737   2.826   4.196   9.968 -0.0300  0.3717 -0.6216
  246MPD1     N 3738   2.766   3.931   9.600  0.0143  0.2193  0.8131
  246MPD1    H5 3739   2.804   3.875   9.524  0.3717 -0.8849  1.8007
  246MPD1    N1 3740   3.138   4.258   9.640  0.0543  0.3997 -0.8587
  246MPD1    H6 3741   3.205   4.294   9.708 -1.8221  1.3156  0.4950
  246MPD1    H7 3742   3.191   4.190   9.585 -0.3108 -0.8138  0.2970
  247MPD1     C 3743   4.588   2.735  16.430 -0.1872 -0.0029 -0.8325
  247MPD1    C1 3744   4.621   2.629  16.520 -0.0181  0.2996 -0.3671
  247MPD1    C2 3745   4.627   2.501  16.469  0.8463  0.1794 -0.4679
  247MPD1    C3 3746   4.596   2.470  16.340 -0.0673 -0.4824 -0.0515
  247MPD1    C4 3747   4.546   2.570  16.259 -0.6060 -0.1380  0.8709
  247MPD1    C5 3748   4.551   2.701  16.304  0.2738  0.1146 -0.1574
  247MPD1     H 3749   4.674   2.432  16.538  0.5080  0.0467 -0.3707
  247MPD1    H1 3750   4.511   2.556  16.157  0.7146  1.0210  0.2594
  247MPD1    H2 3751   4.613   2.837  16.454  0.8772 -0.3413 -0.5068
  247MPD1    H3 3752   4.516   2.787  16.247 -1.0167 -0.0042  0.4588
  247MPD1     N 3753   4.600   2.339  16.288 -0.1053  0.0313  0.0831
  247MPD1    H5 3754   4.568   2.319  16.194  0.0593 -1.6459  0.3861
  247MPD1    N1 3755   4.694   2.659  16.640  0.7994  0.0274 -0.4052
  247MPD1    H6 3756   4.663   2.590  16.708 -2.1507 -0.4221 -2.1846
  247MPD1    H7 3757   4.674   2.751  16.679  2.0339  0.2254 -0.2310
  248MPD1     C 3758   1.323   1.276   0.468 -0.3601 -0.1107  0.3729
  248MPD1    C1 3759   1.239   1.378   0.429 -0.2146  0.5995  0.4525
  248MPD1    C2 3760   1.193   1.471   0.523  0.0247 -0.1437 -0.3580
  248MPD1    C3 3761   1.239   1.459   0.662 -0.2177  0.2428 -0.6697
  248MPD1    C4 3762   1.321   1.347   0.690  0.4903 -0.2690 -0.8051
  248MPD1    C5 3763   1.364   1.261   0.597  0.3088 -0.4569 -1.0453
  248MPD1     H 3764   1.136   1.558   0.496  2.0161  1.5670  0.9674
  248MPD1    H1 3765   1.356   1.338   0.792  2.0465 -0.5210 -1.3558
  248MPD1    H2 3766   1.362   1.205   0.396  1.5458 -0.5901  1.8735
  248MPD1    H3 3767   1.411   1.170   0.631  0.0234 -0.6013 -1.0404
  248MPD1     N 3768   1.204   1.560   0.755  0.0661  0.0834 -0.2634
  248MPD1    H5 3769   1.151   1.634   0.712  3.2683  2.0199 -0.9170
  248MPD1    N1 3770   1.203   1.390   0.296  0.1535 -0.6089 -0.2411
  248MPD1    H6 3771   1.173   1.484   0.269  3.3432  0.2194 -0.8371
  248MPD1    H7 3772   1.279   1.372   0.231 -0.3471 -1.0674 -0.6960
  249MPD1     C 3773   2.136   1.030   9.688  0.2036  0.0796  0.2131
  249MPD1    C1 3774   2.216   1.129   9.744  0.3110 -0.2647 -0.1138
  249MPD1    C2 3775   2.352   1.108   9.741  0.2235  0.1765 -0.1351
  249MPD1    C3 3776   2.406   1.010   9.649  0.6894  0.7222 -0.2819
  249MPD1    C4 3777   2.325   0.919   9.580  0.6350  1.0607  0.5529
  249MPD1    C5 3778   2.188   0.936   9.599 -0.1836 -0.2267  0.1042
  249MPD1     H 3779   2.416   1.168   9.805  1.4210 -1.0939 -0.1457
  249MPD1    H1 3780   2.352   0.845   9.506  0.8407  0.8584  0.8311
  249MPD1    H2 3781   2.030   1.017   9.708  0.0499  1.4096  0.2659
  249MPD1    H3 3782   2.123   0.874   9.539  0.8122  0.3741 -1.6036
  249MPD1     N 3783   2.545   1.016   9.638 -0.2914  0.0669  0.0505
  249MPD1    H5 3784   2.588   1.098   9.679  3.0092 -0.2399 -2.7412
  249MPD1    N1 3785   2.167   1.213   9.844  0.8441 -0.3219  0.4320
  249MPD1    H6 3786   2.227   1.295   9.851 -1.8000  1.7470 -1.0669
  249MPD1    H7 3787   2.074   1.249   9.824  1.7748  0.8439 -1.8454
  250MPD2     C 3788   3.361   0.486  12.954 -0.2149  0.4689 -0.3896
  250MPD2    C1 3789   3.298   0.543  12.846 -0.0325  0.4255  0.6163
  250MPD2    C2 3790   3.254   0.466  12.747  0.8154 -0.0465  0.2799
  250MPD2    C3 3791   3.270   0.324  12.756  0.0278  0.1951 -0.1460
  250MPD2    C4 3792   3.335   0.275  12.864 -0.0591  0.7055  0.1584
  250MPD2    C5 3793   3.373   0.355  12.971 -0.7819 -0.0268 -0.1327
  250MPD2     H 3794   3.216   0.522  12.663 -0.4327  1.5464  1.9000
  250MPD2    H1 3795   3.347   0.168  12.872 -1.9636  0.4539 -0.2297
  250MPD2    H2 3796   3.390   0.547  13.038 -0.4087 -1.6017  1.1785
  250MPD2    H3 3797   3.408   0.314  13.065  0.6166 -1.0999 -1.1199
  250MPD2     N 3798   3.218   0.236  12.650  0.3973 -0.2076  0.2386
  250MPD2    H5 3799   3.250   0.140  12.650 -0.0840 -0.3643 -0.1081
  250MPD2    N1 3800   3.268   0.682  12.863 -0.3381  0.1812  0.0148
  250MPD2    H7 3801   3.312   0.727  12.942 -0.5149  0.4027 -0.0159
  251TMC3    C1 3802   3.180   0.899  12.823  0.2822  0.6939 -0.6006
  251TMC3    C2 3803   3.194   0.935  12.960 -0.9783  0.0757  0.1474
  251TMC3    C3 3804   3.178   1.069  12.984 -0.0502  0.4577 -0.1938
  251TMC3    C4 3805   3.175   0.997  12.720  0.9130  0.1990 -1.1148
  251TMC3    C5 3806   3.162   1.128  12.765  0.8842 -0.1484 -0.0715
  251TMC3    C6 3807   3.163   1.166  12.891  0.4689 -0.6114 -0.5578
  251TMC3     C 3808   3.187   0.762  12.777 -0.4963  0.3682 -0.6522
  251TMC3     O 3809   3.121   0.727  12.682 -0.2788  0.0151 -0.0038
  251TMC3     H 3810   3.185   0.872  13.047 -0.0219  0.0501  0.2293
  251TMC3    H1 3811   3.172   0.971  12.615 -1.2509 -0.1765 -0.9705
  251TMC3    H2 3812   3.146   1.272  12.907  1.4949  0.0009 -3.5082
  251TMC3    C7 3813   3.220   1.232  12.680 -0.6398 -0.6914 -0.8710
  251TMC3    C8 3814   3.211   1.125  13.109 -0.1934  0.1890  0.3105
  251TMC3    O1 3815   3.203   1.347  12.723  0.3850 -0.0998 -0.4164
  251TMC3    O2 3816   3.162   1.234  13.140 -0.1158  1.2992 -0.4261
  252TMC3    C1 3817   4.545   1.458   9.019 -0.6959  0.0826 -0.4171
  252TMC3    C2 3818   4.629   1.517   8.924 -0.3687 -0.0042 -0.3646
  252TMC3    C3 3819   0.014   1.443   8.886  0.1612 -0.0018 -0.1997
  252TMC3    C4 3820   4.569   1.332   9.060  1.0935 -0.1269  0.0317
  252TMC3    C5 3821   4.678   1.267   9.014 -0.3801 -0.3022  0.2613
  252TMC3    C6 3822   0.046   1.324   8.932 -0.0069  0.4336 -0.3923
  252TMC3     C 3823   4.414   1.530   9.046  0.4377  0.3601  0.2457
  252TMC3     O 3824   4.413   1.653   9.030  0.2735 -0.2679 -0.2500
  252TMC3     H 3825   4.616   1.620   8.894  1.3832 -0.0887 -1.4375
  252TMC3    H1 3826   4.520   1.291   9.148  1.1996 -0.7078 -0.1775
  252TMC3    H2 3827   0.135   1.274   8.896 -0.8552 -1.1580 -0.2858
  252TMC3    C7 3828   4.708   1.134   9.060  0.3915 -0.7670  0.0313
  252TMC3    C8 3829   0.132   1.525   8.851  0.6672  0.1457 -0.3512
  252TMC3    O1 3830   0.090   1.087   9.025  0.8380  0.1016  0.6989
  252TMC3    O2 3831   0.219   1.464   8.794  0.0347 -0.0647  0.6004
  253MPD2     C 3832   0.551   0.762  15.057 -0.8613  0.6384  0.0029
  253MPD2    C1 3833   0.416   0.763  15.093 -0.1480  0.0287  0.7923
  253MPD2    C2 3834   0.375   0.690  15.208 -0.1277  0.3584 -0.1839
  253MPD2    C3 3835   0.467   0.618  15.282 -0.3386  0.0337 -0.6669
  253MPD2    C4 3836   0.601   0.620  15.239 -0.2577 -0.1654 -0.3237
  253MPD2    C5 3837   0.639   0.686  15.129 -0.5309 -0.0998  0.7686
  253MPD2     H 3838   0.271   0.700  15.239 -0.0228  1.1449 -0.0821
  253MPD2    H1 3839   0.680   0.570  15.294  0.8152 -0.4297 -2.0916
  253MPD2    H2 3840   0.587   0.824  14.976 -2.2042  0.1010 -1.0036
  253MPD2    H3 3841   0.742   0.685  15.097 -0.9979  1.3064 -0.7459
  253MPD2     N 3842   0.431   0.559  15.405 -0.5901  0.0537  0.0789
  253MPD2    H5 3843   0.502   0.521  15.466 -2.5271  1.8909  3.5209
  253MPD2    N1 3844   0.316   0.839  15.029  0.1557 -0.1914  0.0716
  253MPD2    H7 3845   0.221   0.820  15.059 -0.0860  0.4069 -0.2990
  254TMC3    C1 3846   0.291   0.497  15.582  0.2840  0.3485  0.2822
  254TMC3    C2 3847   0.190   0.559  15.647 -0.0684  0.2607 -0.0916
  254TMC3    C3 3848   0.159   0.514  15.772  0.0710  0.8148 -0.3632
  254TMC3    C4 3849   0.371   0.403  15.644  0.0771  0.3856  0.7637
  254TMC3    C5 3850   0.338   0.362  15.768  0.7536 -0.3987 -0.3653
  254TMC3    C6 3851   0.224   0.414  15.831  0.1110  0.4138 -0.7514
  254TMC3     C 3852   0.302   0.536  15.446 -0.1724 -0.1999 -0.1935
  254TMC3     O 3853   0.200   0.558  15.384 -0.2303  0.2296 -0.2665
  254TMC3     H 3854   0.166   0.652  15.596  1.9199  0.0414 -1.4058
  254TMC3    H1 3855   0.456   0.359  15.593 -1.1806  1.4651 -2.2747
  254TMC3    H2 3856   0.185   0.383  15.928  1.3345 -1.8137 -0.9490
  254TMC3    C7 3857   0.441   0.325  15.865 -0.5564 -0.2844  0.0819
  254TMC3    C8 3858   0.042   0.567  15.839 -0.0723  0.7952 -0.2563
  254TMC3    O1 3859   0.398   0.272  15.971 -0.1058  0.0316 -0.0047
  254TMC3    O2 3860   0.040   0.569  15.960 -0.2877 -0.1581 -0.2613
  255MPD2     C 3861   3.256   3.465  10.423 -0.1146  0.5183  0.6025
  255MPD2    C1 3862   3.287   3.567  10.507  0.4367  0.4340 -0.4542
  255MPD2    C2 3863   3.421   3.593  10.537  0.2887 -0.2752 -0.1805
  255MPD2    C3 3864   3.520   3.514  10.484  0.9713  0.2181  0.1873
  255MPD2    C4 3865   3.482   3.409  10.405 -0.1263 -0.6149 -0.1398
  255MPD2    C5 3866   3.356   3.382  10.373 -0.4249  0.5853 -0.2708
  255MPD2     H 3867   3.450   3.679  10.597 -1.5389  0.2208  0.0052
  255MPD2    H1 3868   3.563   3.350  10.362  1.0372  1.0951 -0.3011
  255MPD2    H2 3869   3.153   3.445  10.396  0.1877  0.0703 -0.2170
  255MPD2    H3 3870   3.331   3.289  10.323  1.1635 -0.3109  0.5817
  255MPD2     N 3871   3.651   3.559  10.497 -0.1523 -0.1422  0.0641
  255MPD2    H5 3872   3.664   3.629  10.569  0.9387 -2.4078  2.0601
  255MPD2    N1 3873   3.183   3.657  10.535 -0.1791 -0.5890 -0.1775
  255MPD2    H7 3874   3.093   3.647  10.489 -0.3766 -1.4358  0.4028
  256TMC3    C1 3875   3.091   3.868  10.583  0.3159  0.4788  0.1665
  256TMC3    C2 3876   3.130   3.978  10.512 -0.5292  0.0537 -0.1588
  256TMC3    C3 3877   3.031   4.048  10.450  0.5584  0.8204 -0.7252
  256TMC3    C4 3878   2.977   3.804  10.564 -0.0137  0.1747 -0.2339
  256TMC3    C5 3879   2.895   3.859  10.465 -0.3396 -0.5789  0.2831
  256TMC3    C6 3880   2.912   3.983  10.418  0.3497  0.5448  0.6683
  256TMC3     C 3881   3.199   3.775  10.613 -0.6790  0.2563  0.1355
  256TMC3     O 3882   3.292   3.829  10.669  0.3890  0.4553 -0.1195
  256TMC3     H 3883   3.209   4.039  10.555  0.4954 -2.3797  1.4771
  256TMC3    H1 3884   2.953   3.717  10.624 -1.1357  1.1153  0.6970
  256TMC3    H2 3885   2.829   4.034  10.371  0.6780  0.7201  0.2780
  256TMC3    C7 3886   2.933   3.765  10.352 -0.6349  0.8584  0.0348
  256TMC3    C8 3887   3.078   4.131  10.347 -0.0454 -0.3511 -0.8044
  256TMC3    O1 3888   2.957   3.651  10.384  0.2169 -0.1637 -0.0551
  256TMC3    O2 3889   2.997   4.202  10.288 -0.3990  0.0251 -0.0038
  257MPD2     C 3890   2.410   1.146  13.001 -0.8512 -0.2245  0.8116
  257MPD2    C1 3891   2.370   1.047  12.909  0.0595 -0.3136  0.0653
  257MPD2    C2 3892   2.382   0.920  12.951 -0.5671  0.1151  0.1350
  257MPD2    C3 3893   2.409   0.899  13.084  0.2740 -0.2060 -0.0614
  257MPD2    C4 3894   2.437   0.995  13.177 -0.2619  0.3270 -0.0844
  257MPD2    C5 3895   2.443   1.122  13.128  0.7069 -0.2206 -0.1513
  257MPD2     H 3896   2.356   0.839  12.885 -0.1483  0.9546 -1.0762
  257MPD2    H1 3897   2.464   0.981  13.281 -0.4123  0.6653 -0.0014
  257MPD2    H2 3898   2.391   1.249  12.973  1.4709 -0.2551 -0.8872
  257MPD2    H3 3899   2.456   1.207  13.193  1.5881 -1.9361  1.9087
  257MPD2     N 3900   2.422   0.762  13.117 -0.9466 -0.0651  0.1414
  257MPD2    H5 3901   2.414   0.696  13.040  1.1270 -0.9255  0.6475
  257MPD2    N1 3902   2.325   1.097  12.785 -0.1926  0.1464  0.0906
  257MPD2    H7 3903   2.312   1.197  12.774 -0.5038  0.0801 -0.1371
  258TMC3    C1 3904   2.453   0.572  13.253  0.1357 -0.8617 -0.1525
  258TMC3    C2 3905   2.532   0.510  13.164  0.6954 -0.1172 -0.2299
  258TMC3    C3 3906   2.586   0.390  13.207  0.5300 -0.1198 -0.1766
  258TMC3    C4 3907   2.430   0.521  13.373  0.6859 -0.3905  0.0818
  258TMC3    C5 3908   2.484   0.403  13.410  0.1074 -0.2230  0.0498
  258TMC3    C6 3909   2.572   0.336  13.332  0.1969 -0.1996  0.4003
  258TMC3     C 3910   2.433   0.716  13.244 -1.0102  0.3084 -0.0054
  258TMC3     O 3911   2.424   0.770  13.356 -0.0761 -0.2850  0.3456
  258TMC3     H 3912   2.562   0.556  13.070  1.9560  0.6764  0.5508
  258TMC3    H1 3913   2.352   0.571  13.430  0.7905 -0.7959  0.5791
  258TMC3    H2 3914   2.611   0.240  13.365 -0.8412  0.1350  2.5912
  258TMC3    C7 3915   2.461   0.358  13.543 -0.6413 -0.7405 -0.0297
  258TMC3    C8 3916   2.687   0.320  13.123  0.7480  0.7521  0.0089
  258TMC3    O1 3917   2.355   0.406  13.588  0.2860  0.3901  0.2475
  258TMC3    O2 3918   2.769   0.251  13.181  0.7878  0.2372 -0.2866
  259MPD2     C 3919   1.818   1.760   0.812 -0.2541 -0.0312  0.5379
  259MPD2    C1 3920   1.943   1.765   0.875  0.0369  0.2489  0.4922
  259MPD2    C2 3921   2.054   1.740   0.794 -0.0640  0.0981 -0.8649
  259MPD2    C3 3922   2.044   1.715   0.658  0.5429 -0.5393  0.7336
  259MPD2    C4 3923   1.920   1.716   0.599  0.5809  0.5582 -0.3226
  259MPD2    C5 3924   1.809   1.729   0.678 -0.2557 -0.3271  0.4595
  259MPD2     H 3925   2.154   1.742   0.835 -0.7230 -0.3197  0.7490
  259MPD2    H1 3926   1.910   1.691   0.494 -3.1404 -1.0323  0.4002
  259MPD2    H2 3927   1.727   1.753   0.871 -0.1542 -1.2357  0.5497
  259MPD2    H3 3928   1.713   1.725   0.629 -0.3729  0.9953  0.5846
  259MPD2     N 3929   2.164   1.691   0.584  0.5446  0.0594 -0.0187
  259MPD2    H5 3930   2.253   1.687   0.632  0.3562 -2.6972  0.0685
  259MPD2    N1 3931   1.950   1.791   1.013 -0.1093  0.2814  0.1682
  259MPD2    H7 3932   1.862   1.822   1.053 -0.2119  1.2544 -0.8088
  260TMC3    C1 3933   2.331   1.702   0.414 -0.2382  0.2831 -1.0100
  260TMC3    C2 3934   2.363   1.758   0.297 -0.6606  0.0808  0.0264
  260TMC3    C3 3935   2.485   1.723   0.240  0.1894 -0.2913 -0.2951
  260TMC3    C4 3936   2.411   1.603   0.464 -0.5669 -0.3359 -0.5130
  260TMC3    C5 3937   2.524   1.568   0.400 -0.0968 -0.1332  0.4555
  260TMC3    C6 3938   2.563   1.627   0.289 -0.7583 -0.1764 -0.4231
  260TMC3     C 3939   2.188   1.701   0.449  0.3923  0.4121  0.1909
  260TMC3     O 3940   2.114   1.749   0.364  0.2109  0.5071 -1.3695
  260TMC3     H 3941   2.294   1.826   0.247  0.5738  2.2764  1.3024
  260TMC3    H1 3942   2.384   1.548   0.553 -1.5794 -2.8420 -2.3696
  260TMC3    H2 3943   2.666   1.616   0.257 -0.6790  0.0010 -0.2365
  260TMC3    C7 3944   2.575   1.432   0.429 -0.0824  0.6300  0.3369
  260TMC3    C8 3945   2.542   1.811   0.136  0.0593  0.5316  0.7946
  260TMC3    O1 3946   2.701   1.421   0.446 -0.5964 -0.4152  0.3376
  260TMC3    O2 3947   2.631   1.886   0.175 -0.0983  0.6701 -0.7848
  261MPD2     C 3948   2.809   0.377  11.941  0.1722  0.1101 -0.7772
  261MPD2    C1 3949   2.896   0.411  12.044  0.2624 -0.1711  0.2870
  261MPD2    C2 3950   2.927   0.539  12.063  0.2988 -0.6801 -0.5721
  261MPD2    C3 3951   2.866   0.642  11.987 -0.1305  0.0126  0.6098
  261MPD2    C4 3952   2.783   0.607  11.880  0.1593 -0.3605  0.4006
  261MPD2    C5 3953   2.748   0.472  11.859  0.3005 -0.2419  0.0068
  261MPD2     H 3954   2.975   0.570  12.155 -0.0880  0.1329 -0.6476
  261MPD2    H1 3955   2.728   0.681  11.822  0.6474  1.2555  2.0056
  261MPD2    H2 3956   2.763   0.279  11.943  0.6170 -0.0892 -0.3942
  261MPD2    H3 3957   2.671   0.452  11.785  0.0946  0.6732 -0.0343
  261MPD2     N 3958   2.890   0.778  12.014 -0.1113 -0.1197  0.3236
  261MPD2    H5 3959   2.959   0.799  12.085 -0.2564 -2.8606  1.2826
  261MPD2    N1 3960   2.943   0.313  12.139  0.0148 -0.2625  0.1994
  261MPD2    H7 3961   2.984   0.354  12.222 -0.4709  1.8360 -0.5966
  262TMC3    C1 3962   2.914   1.005  11.998  0.5407  0.4438  1.0122
  262TMC3    C2 3963   2.854   1.122  11.977 -0.3209 -0.3303 -0.2524
  262TMC3    C3 3964   2.935   1.232  11.980  0.0669  0.4334  0.2807
  262TMC3    C4 3965   3.050   0.991  12.023  0.1169  0.4496  0.0675
  262TMC3    C5 3966   3.131   1.104  12.034 -0.0789  0.2918  0.0422
  262TMC3    C6 3967   3.070   1.226  12.014 -0.3168  0.1775 -0.0207
  262TMC3     C 3968   2.840   0.889  11.963  0.3509  0.1360  0.1483
  262TMC3     O 3969   2.749   0.890  11.886  0.3011 -0.0584 -0.6670
  262TMC3     H 3970   2.752   1.126  11.939 -0.2213  0.1976 -0.4592
  262TMC3    H1 3971   3.094   0.892  12.023 -0.0523  0.3746 -0.7252
  262TMC3    H2 3972   3.132   1.315  12.015  1.0233 -0.7376 -0.9089
  262TMC3    C7 3973   3.245   1.086  11.939  0.7484 -0.6035 -0.5269
  262TMC3    C8 3974   2.893   1.354  11.919 -0.5176 -0.2502 -0.9559
  262TMC3    O1 3975   3.288   0.977  11.941 -0.1616 -0.2941 -0.7816
  262TMC3    O2 3976   2.977   1.441  11.909 -0.5113 -0.3198  0.5577
  263MPD2     C 3977   3.945   0.370  11.232  0.2254 -0.3803  0.0150
  263MPD2    C1 3978   4.051   0.335  11.157  0.4749 -0.5306 -0.4586
  263MPD2    C2 3979   4.076   0.391  11.033  0.3738 -0.0745  0.5379
  263MPD2    C3 3980   3.989   0.477  10.973  0.8216 -0.5071 -0.6934
  263MPD2    C4 3981   3.868   0.497  11.046  0.2034  0.4157 -0.0100
  263MPD2    C5 3982   3.850   0.446  11.173 -0.1167 -0.2409 -0.4506
  263MPD2     H 3983   4.169   0.360  10.988 -1.2001 -2.4287 -1.1201
  263MPD2    H1 3984   3.787   0.563  11.014 -0.1347 -0.9366 -1.9339
  263MPD2    H2 3985   3.931   0.321  11.328  2.5740  0.2718  0.7012
  263MPD2    H3 3986   3.759   0.473  11.226  0.7109 -1.5717  1.6413
  263MPD2     N 3987   4.028   0.554  10.856 -0.2652  0.0645  0.6045
  263MPD2    H5 3988   4.113   0.524  10.810 -2.4822 -0.2671 -3.3250
  263MPD2    N1 3989   4.144   0.250  11.223  0.7234  0.2997  0.6048
  263MPD2    H7 3990   4.115   0.209  11.311 -0.5211 -2.6128 -1.1713
  264TMC3    C1 3991   4.039   0.755  10.717 -0.0406 -0.2436  0.4233
  264TMC3    C2 3992   4.017   0.893  10.706 -0.1380  0.2306  0.7531
  264TMC3    C3 3993   4.091   0.960  10.613  0.0934  0.1772  0.1650
  264TMC3    C4 3994   4.111   0.685  10.625  1.0483 -0.7969  0.1942
  264TMC3    C5 3995   4.156   0.756  10.514  0.1843  1.2038 -0.0756
  264TMC3    C6 3996   4.145   0.895  10.512 -1.1273  0.9476  0.1688
  264TMC3     C 3997   3.978   0.682  10.828  0.0572  0.4887 -0.2815
  264TMC3     O 3998   3.893   0.754  10.882 -0.1674  0.3637  0.2821
  264TMC3     H 3999   3.992   0.943  10.799  1.1583 -0.4202  1.4621
  264TMC3    H1 4000   4.134   0.579  10.631  3.1666 -0.4648 -1.9183
  264TMC3    H2 4001   4.180   0.950  10.426  0.7457 -1.6198 -0.7244
  264TMC3    C7 4002   4.284   0.705  10.468  0.3265 -0.8656 -0.7042
  264TMC3    C8 4003   4.183   1.065  10.658  0.7229  0.5660 -0.5255
  264TMC3    O1 4004   4.314   0.588  10.466  0.1510 -0.4539 -0.0611
  264TMC3    O2 4005   4.301   1.042  10.630  0.0505  0.3242 -0.1103
  265MPD2     C 4006   1.469   0.285  15.405 -0.1317  0.0257 -0.8170
  265MPD2    C1 4007   1.547   0.386  15.363 -0.0044 -0.0244  0.2476
  265MPD2    C2 4008   1.580   0.382  15.233  0.7665  0.1873 -0.6272
  265MPD2    C3 4009   1.553   0.284  15.141  0.1313 -0.6397  0.2980
  265MPD2    C4 4010   1.485   0.171  15.189  1.0082  0.3453 -0.0338
  265MPD2    C5 4011   1.443   0.179  15.325  0.0234 -0.3856  0.5784
  265MPD2     H 4012   1.625   0.474  15.195 -0.0829 -0.1793 -2.4889
  265MPD2    H1 4013   1.461   0.082  15.133 -1.8602  1.0082  0.1052
  265MPD2    H2 4014   1.437   0.270  15.507 -1.1859 -0.9653 -1.2980
  265MPD2    H3 4015   1.396   0.097  15.378  3.3271 -2.5346  0.2499
  265MPD2     N 4016   1.588   0.282  15.005 -0.1799 -0.1555 -0.1806
  265MPD2    H5 4017   1.566   0.199  14.950 -0.2619  0.5257 -1.1896
  265MPD2    N1 4018   1.577   0.499  15.443  0.0746 -0.4664  0.3451
  265MPD2    H7 4019   1.607   0.585  15.398 -0.8394 -0.5420 -0.4186
  266TMC3    C1 4020   1.644   0.621  15.638  1.0198 -0.3989  0.1731
  266TMC3    C2 4021   1.683   0.624  15.771  0.3240  0.1388  0.4918
  266TMC3    C3 4022   1.724   0.747  15.829  0.2150  0.0655 -0.5736
  266TMC3    C4 4023   1.659   0.736  15.558 -0.0589  0.2052  0.3485
  266TMC3    C5 4024   1.712   0.849  15.620  0.5139  0.0099  0.1589
  266TMC3    C6 4025   1.748   0.855  15.750 -0.2399  0.1598 -0.2137
  266TMC3     C 4026   1.586   0.495  15.578 -0.1892  0.3557 -0.7707
  266TMC3     O 4027   1.571   0.406  15.660 -0.3078 -0.3149 -0.0971
  266TMC3     H 4028   1.652   0.541  15.833 -0.7860  0.6508  0.6207
  266TMC3    H1 4029   1.621   0.737  15.456  0.5561  2.7651  0.1489
  266TMC3    H2 4030   1.790   0.944  15.796  1.8886 -0.8305 -0.2831
  266TMC3    C7 4031   1.686   0.976  15.553  0.2469  0.1987 -0.2845
  266TMC3    C8 4032   1.732   0.754  15.979 -0.7047  0.1370  0.5006
  266TMC3    O1 4033   1.708   1.074  15.618 -0.4567  0.0741 -0.2098
  266TMC3    O2 4034   1.728   0.648  16.039  0.1577  0.1635 -0.1897
  267MPD2     C 4035   4.067   1.522   0.050 -0.1166 -0.4266 -0.7371
  267MPD2    C1 4036   4.086   1.632  17.682  0.3627  0.2480  0.2327
  267MPD2    C2 4037   3.979   1.685  17.613 -0.0663 -0.1592  0.0634
  267MPD2    C3 4038   3.854   1.626  17.622 -0.0624  0.1892  0.3186
  267MPD2    C4 4039   3.836   1.512  17.700 -0.6502 -0.4655 -0.0316
  267MPD2    C5 4040   3.944   1.460   0.053 -1.1108 -0.2056 -0.4096
  267MPD2     H 4041   3.991   1.764  17.540  0.3105  0.3703  0.6928
  267MPD2    H1 4042   3.738   1.465  17.704  0.0745 -1.8043  1.5770
  267MPD2    H2 4043   4.150   1.474   0.100 -0.5851  0.0350  0.4810
  267MPD2    H3 4044   3.938   1.362   0.099  0.9616  0.3183  0.9315
  267MPD2     N 4045   3.737   1.678  17.555 -0.2211 -0.0120  0.3508
  267MPD2    H5 4046   3.656   1.620  17.577  1.0847 -2.0948 -0.2641
  267MPD2    N1 4047   4.222   1.671  17.661  0.1402 -0.5402 -0.2614
  267MPD2    H7 4048   4.291   1.646   0.026 -0.0448  2.0308  0.8330
  268TMC3    C1 4049   4.395   1.821  17.587 -0.0907 -0.0226 -0.6065
  268TMC3    C2 4050   4.412   1.950  17.535 -0.3102  0.6990  0.4673
  268TMC3    C3 4051   4.516   2.029  17.590 -0.4564 -0.2145 -0.2010
  268TMC3    C4 4052   4.465   1.789  17.704 -0.7663 -0.0072  0.0239
  268TMC3    C5 4053   4.561   1.864   0.046  0.2900  0.6060 -0.0518
  268TMC3    C6 4054   4.595   1.985  17.696  0.5282 -0.8231  0.6172
  268TMC3     C 4055   4.259   1.763  17.560 -0.4404  0.0368 -0.3955
  268TMC3     O 4056   4.204   1.824  17.469 -0.3939 -0.1791 -0.4291
  268TMC3     H 4057   4.358   1.984  17.447  0.3388  0.0436 -0.1804
  268TMC3    H1 4058   4.454   1.688   0.035 -1.9301 -0.5820 -1.8829
  268TMC3    H2 4059   4.674   2.047   0.032 -0.4168 -1.4043  3.2723
  268TMC3    C7 4060   4.597   1.831   0.185  0.6569 -0.1242 -0.0934
  268TMC3    C8 4061   4.543   2.165  17.542  0.3180 -0.2677  0.0730
  268TMC3    O1 4062   4.517   1.760   0.248  0.1824  0.0534  0.4200
  268TMC3    O2 4063   4.627   2.226  17.604 -0.5610 -0.4675 -0.2517
  269MPD2     C 4064   3.959   1.041  15.596 -0.2635  1.2172 -0.1647
  269MPD2    C1 4065   3.840   1.111  15.620  0.2891  0.9772  0.2697
  269MPD2    C2 4066   3.839   1.240  15.571 -0.2573 -0.4674  0.3466
  269MPD2    C3 4067   3.938   1.295  15.491  0.9114  0.6771 -0.6066
  269MPD2    C4 4068   4.048   1.216  15.465 -0.1386 -0.4195  0.1482
  269MPD2    C5 4069   4.059   1.088  15.513  0.2637  0.2107 -0.2158
  269MPD2     H 4070   3.744   1.288  15.592 -0.2925 -0.4501  0.1440
  269MPD2    H1 4071   4.127   1.263  15.407 -0.5810  0.0359 -0.0828
  269MPD2    H2 4072   3.977   0.941  15.634  1.7265  1.5182 -0.3258
  269MPD2    H3 4073   4.147   1.029  15.492  0.2758  0.2849 -0.3741
  269MPD2     N 4074   3.916   1.430  15.442  0.3212 -0.2232 -0.0484
  269MPD2    H5 4075   3.845   1.480  15.493 -0.1148 -1.1440  0.2497
  269MPD2    N1 4076   3.734   1.051  15.698 -0.3334 -0.6170 -0.5868
  269MPD2    H7 4077   3.740   0.952  15.720  2.1578 -0.1676  0.7758
  270TMC3    C1 4078   3.537   1.032  15.817  0.3738  0.2616 -0.4272
  270TMC3    C2 4079   3.400   1.018  15.795 -0.3333  0.1621 -0.2246
  270TMC3    C3 4080   3.330   0.931  15.873  0.6661 -0.4725 -0.8654
  270TMC3    C4 4081   3.599   0.939  15.897 -0.6625  0.8518  0.3808
  270TMC3    C5 4082   3.527   0.841  15.966 -0.0408 -0.4272  0.1995
  270TMC3    C6 4083   3.386   0.842  15.953 -0.0592 -0.5381  0.5158
  270TMC3     C 4084   3.609   1.105  15.718 -0.3355 -0.2455 -0.3175
  270TMC3     O 4085   3.557   1.200  15.666 -0.0985 -0.1009  0.7527
  270TMC3     H 4086   3.341   1.091  15.740  1.0169  1.2903 -0.1646
  270TMC3    H1 4087   3.702   0.960  15.922 -0.7607 -0.8902  2.2897
  270TMC3    H2 4088   3.324   0.785  16.021  2.1793 -0.5807  2.5079
  270TMC3    C7 4089   3.586   0.712  15.954 -0.7325  0.7547  0.0072
  270TMC3    C8 4090   3.235   0.865  15.791  0.3829  0.0708  0.5479
  270TMC3    O1 4091   3.705   0.704  15.978  0.4993 -0.0441  0.2584
  270TMC3    O2 4092   3.134   0.819  15.840 -0.2137  0.6888  0.4619
  271MPD2     C 4093   2.930   0.821  14.179  0.3647  0.0409 -0.9248
  271MPD2    C1 4094   2.835   0.748  14.248  0.5114 -0.0973  0.1744
  271MPD2    C2 4095   2.698   0.759  14.213  0.2323 -0.5988  0.0158
  271MPD2    C3 4096   2.662   0.846  14.108  0.5692 -0.3142  0.0507
  271MPD2    C4 4097   2.759   0.910  14.035 -0.1705 -0.6069 -0.4426
  271MPD2    C5 4098   2.891   0.899  14.071  0.2904  0.4736  0.9104
  271MPD2     H 4099   2.626   0.688  14.253  2.2386  0.1296  4.9662
  271MPD2    H1 4100   2.728   0.974  13.953 -1.1491 -0.6331 -0.0930
  271MPD2    H2 4101   3.033   0.818  14.212 -0.2524 -0.7175  0.9517
  271MPD2    H3 4102   2.968   0.952  14.017 -1.1488  0.8041 -0.8228
  271MPD2     N 4103   2.536   0.868  14.059  0.2905  0.5067  0.3896
  271MPD2    H5 4104   2.531   0.927  13.976  1.1077  1.2009  0.8355
  271MPD2    N1 4105   2.871   0.657  14.352  0.3217 -0.2613 -0.3555
  271MPD2    H7 4106   2.801   0.619  14.415  1.3785  2.0737  2.2263
  272TMC3    C1 4107   3.028   0.511  14.474 -0.0909 -0.1638  0.3160
  272TMC3    C2 4108   3.143   0.439  14.458  0.2569  0.6779  0.6538
  272TMC3    C3 4109   3.212   0.405  14.571  0.0499 -0.5854 -0.3225
  272TMC3    C4 4110   2.984   0.551  14.599 -0.3399  0.4265  0.2594
  272TMC3    C5 4111   3.060   0.510  14.705 -0.6107  0.4067 -0.4778
  272TMC3    C6 4112   3.168   0.438  14.700 -0.4633 -0.4383  0.5273
  272TMC3     C 4113   2.998   0.600  14.358 -0.1275 -1.2893 -0.7144
  272TMC3     O 4114   3.088   0.615  14.276 -0.3380  0.0936 -0.4850
  272TMC3     H 4115   3.190   0.420  14.362 -0.4258  1.0809  0.2451
  272TMC3    H1 4116   2.910   0.626  14.623 -1.1607  0.1266 -1.3377
  272TMC3    H2 4117   3.229   0.413  14.786 -1.2409 -0.3609  1.1000
  272TMC3    C7 4118   3.026   0.567  14.828 -0.4894  0.9209 -0.0528
  272TMC3    C8 4119   3.357   0.398  14.543  0.6483 -0.3575  0.1800
  272TMC3    O1 4120   2.905   0.581  14.842 -0.9630 -0.1566  0.6087
  272TMC3    O2 4121   3.409   0.453  14.445  0.0772 -0.4917  0.0569
  273MPD2     C 4122   4.052   3.986  11.505  0.1738  0.4332 -0.0474
  273MPD2    C1 4123   4.179   4.036  11.480  0.2832  0.3318 -0.7325
  273MPD2    C2 4124   4.220   4.040  11.350 -0.5614  0.0828  0.0965
  273MPD2    C3 4125   4.141   4.000  11.242 -0.2805  0.7831 -0.1419
  273MPD2    C4 4126   4.016   3.949  11.265  0.1034 -0.5168 -0.1807
  273MPD2    C5 4127   3.975   3.950  11.402 -0.0006  0.2103  0.1812
  273MPD2     H 4128   4.317   4.078  11.322 -0.1746 -0.7370  0.3189
  273MPD2    H1 4129   3.951   3.906  11.189 -0.9669 -0.3207  0.6273
  273MPD2    H2 4130   4.014   3.982  11.606 -0.6442 -1.4705 -0.4424
  273MPD2    H3 4131   3.884   3.894  11.420  0.9194 -1.4886 -0.4058
  273MPD2     N 4132   4.199   4.009  11.116 -0.0953 -0.4074  0.8664
  273MPD2    H5 4133   4.294   4.044  11.120  0.0036 -0.7923  1.9364
  273MPD2    N1 4134   4.273   4.075  11.572  0.3191 -0.5902  0.5452
  273MPD2    H7 4135   4.358   4.116  11.534 -0.3153 -1.2388 -1.5818
  274TMC3    C1 4136   4.224   4.008  10.887  0.6359  0.3037 -0.6167
  274TMC3    C2 4137   4.184   4.065  10.769 -0.0028  0.0434 -0.8754
  274TMC3    C3 4138   4.280   4.122  10.680  0.0361  0.1543  0.0245
  274TMC3    C4 4139   4.359   3.994  10.911 -0.4754  0.2285  0.3659
  274TMC3    C5 4140   4.444   4.055  10.827  0.2127  0.0494  0.4959
  274TMC3    C6 4141   4.415   4.102  10.704  0.7262 -0.1607 -0.4429
  274TMC3     C 4142   4.132   4.010  10.997 -0.0229 -0.3617 -0.3701
  274TMC3     O 4143   4.011   4.008  10.972  0.1942 -0.2762  0.0458
  274TMC3     H 4144   4.077   4.077  10.751 -0.3875 -0.8506  0.8348
  274TMC3    H1 4145   4.394   3.931  10.992  1.3311  2.1978  1.1165
  274TMC3    H2 4146   4.478   4.173  10.651  0.4625  1.7615  1.8255
  274TMC3    C7 4147   4.517   4.156  10.911 -0.3556  0.6147 -0.2507
  274TMC3    C8 4148   4.238   4.211  10.571 -0.8117 -0.3983  0.1218
  274TMC3    O1 4149   4.469   4.166  11.028 -0.1747 -0.2889  0.1910
  274TMC3    O2 4150   4.137   4.274  10.576  0.0148 -0.0668  0.2818
  275MPD2     C 4151   4.678   1.033  14.543  0.1423  0.3986 -0.6331
  275MPD2    C1 4152   4.655   1.156  14.490 -0.0862 -0.8146 -0.6653
  275MPD2    C2 4153   4.533   1.210  14.465  0.5267  0.6449 -0.3893
  275MPD2    C3 4154   4.422   1.127  14.492  0.2774 -0.0402 -0.0050
  275MPD2    C4 4155   4.447   1.001  14.537 -0.2245 -0.9232  0.4122
  275MPD2    C5 4156   4.575   0.956  14.573  0.6753 -0.4408 -0.2848
  275MPD2     H 4157   4.523   1.312  14.431 -1.3018  0.8168  0.6573
  275MPD2    H1 4158   4.369   0.925  14.535  0.2111 -1.3743  0.4517
  275MPD2    H2 4159   0.047   1.002  14.583  0.9611 -0.3394 -3.1938
  275MPD2    H3 4160   4.591   0.856  14.610  1.4715 -0.1589  0.1502
  275MPD2     N 4161   4.285   1.168  14.486 -0.5666  0.0260 -0.0048
  275MPD2    H5 4162   4.214   1.108  14.526 -1.3014  1.9259  1.4911
  275MPD2    N1 4163   0.034   1.249  14.470  0.5082 -0.0208  0.4306
  275MPD2    H7 4164   0.014   1.344  14.443 -0.5004 -0.4782 -0.4657
  276TMC3    C1 4165   0.246   1.334  14.487 -0.0460 -0.1545 -0.1372
  276TMC3    C2 4166   0.195   1.456  14.454 -0.1964 -0.2411 -0.1293
  276TMC3    C3 4167   0.237   1.573  14.511  0.2067  0.1103  0.5107
  276TMC3    C4 4168   0.352   1.333  14.583 -0.1025  0.1715  0.2051
  276TMC3    C5 4169   0.397   1.458  14.623 -0.5822  0.4176  0.2667
  276TMC3    C6 4170   0.346   1.579  14.590 -1.0928  0.2639  0.1649
  276TMC3     C 4171   0.164   1.221  14.491 -0.1079 -0.1551 -0.3176
  276TMC3     O 4172   0.221   1.119  14.513 -0.1053  0.0446  0.3464
  276TMC3     H 4173   0.111   1.461  14.386  1.4355 -0.4220 -2.1643
  276TMC3    H1 4174   0.389   1.240  14.623  0.0513 -0.0177 -0.3695
  276TMC3    H2 4175   0.388   1.677  14.610  0.4009 -0.5449  0.9475
  276TMC3    C7 4176   0.498   1.460  14.720  0.5194  0.4098 -0.1603
  276TMC3    C8 4177   0.168   1.696  14.490 -0.2256  0.6244 -0.2461
  276TMC3    O1 4178   0.582   1.371  14.708  0.2398  0.3317 -1.1660
  276TMC3    O2 4179   0.236   1.788  14.444  0.8054  0.1882  0.4159
  277MPD2     C 4180   1.477   0.721  13.008 -0.2930  0.1079  0.1961
  277MPD2    C1 4181   1.372   0.784  13.069 -0.5336 -0.5613 -0.3550
  277MPD2    C2 4182   1.339   0.747  13.203  0.8816  0.7164 -0.2969
  277MPD2    C3 4183   1.396   0.640  13.266 -0.5939 -0.2268 -0.1902
  277MPD2    C4 4184   1.496   0.572  13.193  0.1544  0.4725  0.5892
  277MPD2    C5 4185   1.521   0.608  13.066 -0.3938 -0.5104 -0.1403
  277MPD2     H 4186   1.277   0.815  13.260  0.1520 -2.1915  2.4188
  277MPD2    H1 4187   1.549   0.494  13.246  1.3029  1.4903  0.9257
  277MPD2    H2 4188   1.496   0.748  12.904 -1.9355 -1.3019 -0.4691
  277MPD2    H3 4189   1.599   0.549  13.020  1.3851  0.5019  1.5474
  277MPD2     N 4190   1.354   0.612  13.399 -0.2190  0.0209  0.2933
  277MPD2    H5 4191   1.287   0.674  13.443  2.0196  2.7311 -0.1214
  277MPD2    N1 4192   1.321   0.898  13.000 -0.4498  0.9379 -0.0069
  277MPD2    H7 4193   1.352   0.909  12.904  0.5117 -2.2116 -0.0564
  278TMC3    C1 4194   1.346   0.484  13.610 -0.3731 -0.1307  0.0637
  278TMC3    C2 4195   1.405   0.396  13.690  1.0304 -0.0450 -0.2359
  278TMC3    C3 4196   1.364   0.383  13.822  0.1271 -0.2519 -0.2205
  278TMC3    C4 4197   1.225   0.532  13.645  0.5995  0.5148  0.2909
  278TMC3    C5 4198   1.178   0.517  13.775  0.2306  0.6885 -0.2355
  278TMC3    C6 4199   1.249   0.437  13.862 -0.2942  0.5054 -0.6518
  278TMC3     C 4200   1.407   0.506  13.476 -0.7920  0.4173  0.0151
  278TMC3     O 4201   1.481   0.415  13.436  0.1907  0.2208 -0.0040
  278TMC3     H 4202   1.499   0.359  13.653  1.5140  0.2309  0.7205
  278TMC3    H1 4203   1.171   0.596  13.575  0.5286  0.0079 -0.1224
  278TMC3    H2 4204   1.212   0.427  13.963 -1.1209  1.2159 -0.8889
  278TMC3    C7 4205   1.044   0.545  13.801 -0.1306 -0.5524 -0.4391
  278TMC3    C8 4206   1.377   0.252  13.885 -0.3401 -0.3841  0.4091
  278TMC3    O1 4207   0.980   0.462  13.865  1.2073 -0.0450 -0.0167
  278TMC3    O2 4208   1.326   0.239  13.998 -0.3572  0.2801 -0.2134
  279MPD2     C 4209   1.293   0.433   0.058 -0.4706  0.0702  0.0739
  279MPD2    C1 4210   1.235   0.554   0.086 -0.1237  0.1950  0.3291
  279MPD2    C2 4211   1.254   0.666   0.001  0.1412 -0.4432 -0.3373
  279MPD2    C3 4212   1.334   0.655  17.602  0.2423  1.2344 -1.4130
  279MPD2    C4 4213   1.401   0.534  17.579  0.3174  0.2440  0.2046
  279MPD2    C5 4214   1.385   0.426  17.669 -0.1506  0.2261  0.2679
  279MPD2     H 4215   1.190   0.752   0.012  0.1001 -0.9099  3.0426
  279MPD2    H1 4216   1.475   0.514  17.502 -0.3589  1.7404 -0.8178
  279MPD2    H2 4217   1.294   0.353   0.132  0.2780 -1.4559 -1.5945
  279MPD2    H3 4218   1.440   0.333  17.660 -0.5137 -0.1486  1.9823
  279MPD2     N 4219   1.333   0.755  17.502  0.0303 -0.2045 -0.2555
  279MPD2    H5 4220   1.367   0.732  17.409 -2.3305  0.5170 -1.2960
  279MPD2    N1 4221   1.136   0.552   0.189  0.0127 -0.4821  0.2578
  279MPD2    H7 4222   1.122   0.468   0.244 -1.8332 -1.5497 -1.8626
  280TMC3    C1 4223   0.963   0.636   0.327 -0.1995 -0.5565 -0.4261
  280TMC3    C2 4224   0.885   0.526   0.290 -0.4191  0.6659 -1.1117
  280TMC3    C3 4225   0.751   0.519   0.320  0.6205  0.2684  0.6255
  280TMC3    C4 4226   0.901   0.737   0.390 -0.3154  0.4901 -0.9578
  280TMC3    C5 4227   0.765   0.727   0.414 -0.3313 -0.2179  0.8524
  280TMC3    C6 4228   0.683   0.625   0.373 -0.2056  0.3902  0.2886
  280TMC3     C 4229   1.067   0.664   0.237 -0.8934 -0.4223  0.4941
  280TMC3     O 4230   1.097   0.782   0.224  0.1525 -0.2033  1.0354
  280TMC3     H 4231   0.920   0.442   0.231 -1.9807 -0.9697  0.2875
  280TMC3    H1 4232   0.955   0.821   0.433  0.8359 -0.3436 -0.7781
  280TMC3    H2 4233   0.576   0.632   0.390 -0.3220 -1.1929  0.2044
  280TMC3    C7 4234   0.702   0.855   0.442 -0.3249 -0.3682  0.6440
  280TMC3    C8 4235   0.672   0.429   0.240 -0.5595 -0.6733  0.1086
  280TMC3    O1 4236   0.727   0.909   0.547 -0.0911 -0.2844  0.6801
  280TMC3    O2 4237   0.712   0.385   0.134  0.2603  0.1631 -0.0606
  281TMC3    C1 4238   4.106   1.080  12.721 -0.4390  0.7145 -1.1611
  281TMC3    C2 4239   3.995   1.123  12.653  0.6102 -0.4808 -0.0036
  281TMC3    C3 4240   3.931   1.041  12.560  0.1330 -0.5107 -0.6012
  281TMC3    C4 4241   4.148   0.952  12.697  0.8223  1.1939 -0.1620
  281TMC3    C5 4242   4.072   0.869  12.615 -0.0425 -0.3594  0.4493
  281TMC3    C6 4243   3.960   0.913  12.547 -0.7463 -0.3681  0.0166
  281TMC3     C 4244   4.134   1.129  12.856  0.9530 -0.1132  0.2460
  281TMC3     O 4245   4.224   1.074  12.916 -0.0944 -0.1572  0.2309
  281TMC3     H 4246   3.962   1.225  12.669  1.8000  0.1552 -1.5682
  281TMC3    H1 4247   4.230   0.909  12.753  0.1461 -0.9275 -0.8141
  281TMC3    H2 4248   3.902   0.846  12.484  1.8132 -0.7693 -1.9073
  281TMC3    C7 4249   4.079   0.734  12.634  0.3646 -0.3508  0.4452
  281TMC3    C8 4250   3.799   1.072  12.510  0.5380  0.2206  0.5049
  281TMC3    O1 4251   4.081   0.664  12.534 -0.0203 -0.2255 -0.3054
  281TMC3    O2 4252   3.728   0.985  12.462 -0.3539  0.1827 -0.3642
  282MPD2     C 4253   1.269   2.213  14.633  0.2898  1.0986  0.0901
  282MPD2    C1 4254   1.155   2.248  14.701  0.3501  0.1715  0.1176
  282MPD2    C2 4255   1.035   2.224  14.640 -0.3900  0.5675 -0.2217
  282MPD2    C3 4256   1.021   2.138  14.530  0.2254  0.2314  0.4735
  282MPD2    C4 4257   1.136   2.090  14.475 -0.3119 -0.3679 -0.4562
  282MPD2    C5 4258   1.257   2.134  14.526 -0.3064  0.3150 -0.4501
  282MPD2     H 4259   0.943   2.256  14.688  0.1659 -2.5542  2.9721
  282MPD2    H1 4260   1.144   2.025  14.388  2.2971  0.3306 -0.7478
  282MPD2    H2 4261   1.364   2.244  14.674  0.5899  0.9267 -0.4718
  282MPD2    H3 4262   1.347   2.098  14.477 -0.4742  1.1114 -1.3261
  282MPD2     N 4263   0.893   2.128  14.460  0.2539  0.5523  0.2352
  282MPD2    H5 4264   0.811   2.165  14.507 -2.1220 -3.4496 -0.7794
  282MPD2    N1 4265   1.160   2.320  14.823  0.0170  0.1987  0.8092
  282MPD2    H7 4266   1.069   2.343  14.861 -0.4974  0.3286 -0.4856
  283TMC3    C1 4267   1.233   2.403  15.026 -0.1692  1.1361 -0.0427
  283TMC3    C2 4268   1.322   2.485  15.089 -0.1141 -0.6627 -0.3019
  283TMC3    C3 4269   1.330   2.495  15.227 -0.4412  0.3888 -0.0737
  283TMC3    C4 4270   1.159   2.322  15.103 -0.3919  0.0418 -1.2353
  283TMC3    C5 4271   1.167   2.338  15.238 -0.1232 -0.4492  0.1592
  283TMC3    C6 4272   1.240   2.434  15.304  0.2055 -0.1305  0.4947
  283TMC3     C 4273   1.268   2.365  14.891 -0.0589  0.3611  0.3394
  283TMC3     O 4274   1.383   2.373  14.856  0.6328 -0.6357  0.6077
  283TMC3     H 4275   1.403   2.528  15.031  1.4065  0.7794  2.9005
  283TMC3    H1 4276   1.099   2.241  15.062 -1.5665  0.7797 -0.9682
  283TMC3    H2 4277   1.236   2.455  15.410  0.9467 -0.8053  0.6534
  283TMC3    C7 4278   1.091   2.257  15.337  0.1226 -0.3540 -0.4779
  283TMC3    C8 4279   1.375   2.623  15.274  0.3066  0.4740 -1.1965
  283TMC3    O1 4280   1.056   2.311  15.440 -0.2192  0.3606  0.3224
  283TMC3    O2 4281   1.385   2.635  15.394 -0.1907 -0.0284  0.5619
  284MPD2     C 4282   4.319   2.087  11.603  0.1243  0.3949 -0.1907
  284MPD2    C1 4283   4.345   2.057  11.468  0.2220  0.4342 -0.2193
  284MPD2    C2 4284   4.277   1.952  11.409 -0.0720 -0.6904  0.2493
  284MPD2    C3 4285   4.172   1.891  11.472  1.1336  0.1244 -0.0225
  284MPD2    C4 4286   4.137   1.926  11.603 -0.4590 -0.2678 -0.8277
  284MPD2    C5 4287   4.222   2.018  11.667  0.3329 -0.5380  0.0928
  284MPD2     H 4288   4.303   1.923  11.307  0.7035  0.1464  0.2052
  284MPD2    H1 4289   4.066   1.876  11.666 -1.4028  1.7793 -0.2730
  284MPD2    H2 4290   4.364   2.172  11.652  0.1892  2.0303 -3.0616
  284MPD2    H3 4291   4.197   2.051  11.767  2.2584  2.5123 -0.4193
  284MPD2     N 4292   4.109   1.786  11.408  0.2022  0.1156  0.3990
  284MPD2    H5 4293   4.144   1.769  11.315 -0.2908 -0.2162  0.2787
  284MPD2    N1 4294   4.444   2.129  11.395  0.0379 -0.9974 -0.3298
  284MPD2    H7 4295   4.456   2.102  11.298  3.5357 -1.8371  0.3208
  285TMC3    C1 4296   4.618   2.280  11.318  0.2483 -1.0218  0.0741
  285TMC3    C2 4297   4.632   2.193  11.215 -0.1547  0.3390  0.0505
  285TMC3    C3 4298   4.669   2.258  11.100 -0.1644 -0.6404 -0.4870
  285TMC3    C4 4299   4.637   2.413  11.310  0.9303  0.2214 -0.2730
  285TMC3    C5 4300   4.670   2.470  11.191 -0.8897  0.1848 -0.0348
  285TMC3    C6 4301   4.690   2.392  11.082  0.6788  0.1910 -0.6163
  285TMC3     C 4302   4.521   2.249  11.429 -0.0538 -0.0327 -0.2246
  285TMC3     O 4303   4.530   2.316  11.530  0.0932  0.3522 -0.6581
  285TMC3     H 4304   4.636   2.085  11.215  1.1229  0.3792  2.9307
  285TMC3    H1 4305   4.627   2.485  11.390  0.3121  1.3183 -1.3226
  285TMC3    H2 4306   0.001   2.436  10.990 -1.6928 -0.8791 -2.0811
  285TMC3    C7 4307   4.716   2.611  11.188 -0.2242  0.5360 -0.6879
  285TMC3    C8 4308   0.000   2.172  10.996  0.0431  0.2855 -0.5980
  285TMC3    O1 4309   0.079   2.639  11.269  0.3450 -0.0162  0.0283
  285TMC3    O2 4310   4.658   2.072  10.981 -0.5950  0.6235 -0.7447
  286MPD2     C 4311   0.247   0.574   1.377  0.5796 -0.2655 -0.5695
  286MPD2    C1 4312   0.170   0.518   1.270 -0.3000 -0.0600  0.4466
  286MPD2    C2 4313   0.186   0.381   1.247  0.3506  0.1675 -0.0589
  286MPD2    C3 4314   0.286   0.312   1.310 -0.1513 -0.2931 -0.5289
  286MPD2    C4 4315   0.354   0.366   1.418  0.0430  1.1028 -0.1395
  286MPD2    C5 4316   0.346   0.499   1.438 -0.0285  0.2301 -0.2068
  286MPD2     H 4317   0.129   0.347   1.161 -1.5301  2.6165  0.1943
  286MPD2    H1 4318   0.437   0.308   1.457  1.4123  1.4605 -2.5163
  286MPD2    H2 4319   0.253   0.677   1.409  2.0257 -0.5359  0.0407
  286MPD2    H3 4320   0.399   0.543   1.522 -0.8073 -0.6872  0.7775
  286MPD2     N 4321   0.326   0.183   1.263 -0.6610 -0.5772 -0.2783
  286MPD2    H5 4322   0.400   0.139   1.317 -0.6944  0.6328  0.7526
  286MPD2    N1 4323   0.076   0.592   1.194 -0.3434  0.8307 -0.5352
  286MPD2    H7 4324   0.049   0.539   1.112  1.3604 -1.4928  0.3827
  287TMC3    C1 4325   0.357   0.004   1.105  0.3201  1.4873 -0.2596
  287TMC3    C2 4326   0.341   4.699   0.969  0.4608  0.4321 -0.0620
  287TMC3    C3 4327   0.418   4.606   0.914 -0.0370 -0.1473 -0.3578
  287TMC3    C4 4328   0.470   4.695   1.177 -1.1079 -0.4354  0.2516
  287TMC3    C5 4329   0.555   4.607   1.115  0.4815  0.3066  0.0190
  287TMC3    C6 4330   0.515   4.552   0.994 -0.2993 -0.4671  0.3993
  287TMC3     C 4331   0.293   0.132   1.139 -0.1108 -0.1483 -0.3718
  287TMC3     O 4332   0.236   0.188   1.050 -0.2667 -0.0451  0.1423
  287TMC3     H 4333   0.264   0.019   0.908  0.9394  0.6483 -0.4970
  287TMC3    H1 4334   0.490   4.723   1.279  0.6201 -1.2205  0.1387
  287TMC3    H2 4335   0.563   4.457   0.971  0.8853  0.3456 -0.4561
  287TMC3    C7 4336   0.672   4.562   1.187  0.3819 -0.0210 -0.0426
  287TMC3    C8 4337   0.374   4.536   0.800 -0.1575 -0.0955 -0.1150
  287TMC3    O1 4338   0.675   4.571   1.308 -0.1392 -0.1619 -0.0143
  287TMC3    O2 4339   0.390   4.418   0.796  0.1686 -0.6950 -0.2769
  288TMC3    C1 4340   1.082   0.173  14.296 -0.3171 -0.1644 -1.5088
  288TMC3    C2 4341   1.122   0.113  14.412  0.5643 -0.1012  0.3575
  288TMC3    C3 4342   1.180   0.192  14.505 -0.0761  0.2953  0.6363
  288TMC3    C4 4343   1.085   0.306  14.271 -0.3561 -0.0724  0.7493
  288TMC3    C5 4344   1.160   0.379  14.364  0.5653 -0.0227 -0.0034
  288TMC3    C6 4345   1.199   0.327  14.484 -0.4909 -0.1303  0.5206
  288TMC3     C 4346   1.035   0.090  14.184 -0.0374  0.6223 -0.0743
  288TMC3     O 4347   1.080   4.701  14.179 -0.7551 -0.0914 -0.1524
  288TMC3     H 4348   1.113   0.005  14.418  2.6948 -0.3111 -0.3551
  288TMC3    H1 4349   1.063   0.334  14.168  1.2999  1.1370  0.7250
  288TMC3    H2 4350   1.256   0.393  14.549 -2.7236  2.1239  0.1852
  288TMC3    C7 4351   1.221   0.509  14.335  1.1829  0.6316 -0.5574
  288TMC3    C8 4352   1.227   0.143  14.635  0.5140 -0.3587 -0.7336
  288TMC3    O1 4353   1.318   0.550  14.398  0.0629 -0.2628 -0.1735
  288TMC3    O2 4354   1.307   0.203  14.705  0.2993  0.2857 -0.0371
  289MPD2     C 4355   1.751   4.340  14.392 -0.3084  0.0374  0.0397
  289MPD2    C1 4356   1.681   4.391  14.285 -0.5899  0.1366  0.4318
  289MPD2    C2 4357   1.582   4.325  14.215  0.1714 -0.0535  0.3026
  289MPD2    C3 4358   1.548   4.198  14.265  0.6568 -0.1591 -0.3441
  289MPD2    C4 4359   1.621   4.151  14.373 -0.1215  0.3884 -0.4315
  289MPD2    C5 4360   1.717   4.220  14.436  0.4906 -0.5877 -0.1679
  289MPD2     H 4361   1.543   4.369  14.124  0.0717  0.0294  0.3858
  289MPD2    H1 4362   1.598   4.054  14.415 -0.8624  0.0698 -1.5649
  289MPD2    H2 4363   1.831   4.398  14.438  0.6476 -1.2088 -0.0329
  289MPD2    H3 4364   1.761   4.181  14.527 -2.3553  2.0442  2.2812
  289MPD2     N 4365   1.448   4.120  14.209  0.3970  0.3503 -0.0199
  289MPD2    H5 4366   1.443   4.024  14.240  0.1734 -0.5175 -2.7659
  289MPD2    N1 4367   1.722   4.526  14.246 -0.2436  0.5579  0.5595
  289MPD2    H7 4368   1.787   4.572  14.309  0.6851  0.0486 -0.0182
  290TMC3    C1 4369   1.232   4.080  14.123  0.0024  0.4878  0.6515
  290TMC3    C2 4370   1.111   4.134  14.118  0.4818 -0.4687 -0.8499
  290TMC3    C3 4371   0.999   4.055  14.106  0.0898  0.3805  0.4578
  290TMC3    C4 4372   1.249   3.945  14.119  1.0565  0.1644  0.0234
  290TMC3    C5 4373   1.139   3.868  14.112 -0.2289  0.4221 -0.2218
  290TMC3    C6 4374   1.010   3.922  14.101  0.7024  0.2755 -0.0034
  290TMC3     C 4375   1.335   4.172  14.141 -0.3701 -0.5932 -0.1874
  290TMC3     O 4376   1.311   4.290  14.113  0.4430 -0.5364  0.5900
  290TMC3     H 4377   1.096   4.241  14.104 -3.2201 -0.9776 -0.9249
  290TMC3    H1 4378   1.345   3.896  14.109  0.6479 -0.7616  0.6752
  290TMC3    H2 4379   0.921   3.861  14.094 -0.0356  1.0011  3.1322
  290TMC3    C7 4380   1.139   3.731  14.070  0.3922 -0.2958 -0.3311
  290TMC3    C8 4381   0.863   4.122  14.116 -0.0993  0.3855  0.4112
  290TMC3    O1 4382   1.231   3.657  14.111  0.4315  0.0217 -0.5867
  290TMC3    O2 4383   0.770   4.052  14.072 -0.0561  0.0164  0.4835
  291MPD2     C 4384   0.752   4.084   0.204  0.0282 -1.0487  0.3718
  291MPD2    C1 4385   0.885   4.043   0.217 -0.3207  0.7424  0.3670
  291MPD2    C2 4386   0.990   4.130   0.194 -0.3193  0.6668  0.0914
  291MPD2    C3 4387   0.960   4.264   0.155 -0.3424 -0.2940 -0.1798
  291MPD2    C4 4388   0.835   4.315   0.162 -0.3806 -0.2887 -0.3063
  291MPD2    C5 4389   0.731   4.219   0.172  0.4339 -0.0944  0.0768
  291MPD2     H 4390   1.094   4.097   0.198 -0.0523  1.3384 -1.1428
  291MPD2    H1 4391   0.814   4.421   0.153  0.9704  0.0588  0.6948
  291MPD2    H2 4392   0.669   4.015   0.213 -1.7411  0.7035 -2.3593
  291MPD2    H3 4393   0.632   4.260   0.158  0.6277  0.6236  0.8329
  291MPD2     N 4394   1.057   4.359   0.123 -0.7139 -0.1904 -0.2672
  291MPD2    H5 4395   1.015   4.437   0.075  1.4485 -0.4364 -2.5609
  291MPD2    N1 4396   0.929   3.908   0.229  0.1533  0.3267 -0.2670
  291MPD2    H7 4397   1.026   3.882   0.241  0.3007  0.9145 -0.1922
  292TMC3    C1 4398   0.891   3.673   0.255 -0.3521  0.7338 -0.4361
  292TMC3    C2 4399   1.000   3.670   0.346  0.7642  0.0122  0.8027
  292TMC3    C3 4400   1.036   3.550   0.393 -0.4273  0.8888 -0.1032
  292TMC3    C4 4401   0.830   3.565   0.206  0.6881 -0.2455  0.1704
  292TMC3    C5 4402   0.881   3.448   0.247  0.1897 -0.8762  0.5737
  292TMC3    C6 4403   0.972   3.431   0.352  0.9607 -0.1508  0.0189
  292TMC3     C 4404   0.838   3.801   0.208  0.0181  0.0292 -0.0624
  292TMC3     O 4405   0.723   3.809   0.169 -0.3796  0.2903  0.6630
  292TMC3     H 4406   1.029   3.755   0.408  0.3765  1.2810 -0.7486
  292TMC3    H1 4407   0.759   3.580   0.126 -0.3438  1.2270  1.3626
  292TMC3    H2 4408   1.002   3.333   0.387  0.2389 -0.0279  0.9833
  292TMC3    C7 4409   0.861   3.328   0.168 -0.3858 -0.4174 -0.6890
  292TMC3    C8 4410   1.101   3.552   0.520  0.0402  0.2631 -0.3146
  292TMC3    O1 4411   0.942   3.239   0.183 -0.2974 -0.4885 -0.0009
  292TMC3    O2 4412   1.179   3.649   0.538 -0.5929 -0.6736 -0.0274
  293MPD2     C 4413   2.706   1.000  12.410 -0.3736  0.3430 -0.0004
  293MPD2    C1 4414   2.611   0.921  12.470 -0.3271  0.3153 -0.5430
  293MPD2    C2 4415   2.613   0.914  12.608 -0.3919  0.0495 -0.6891
  293MPD2    C3 4416   2.702   0.982  12.688  0.2561  0.7572 -0.2476
  293MPD2    C4 4417   2.791   1.066  12.623 -0.3747 -0.7065 -0.5604
  293MPD2    C5 4418   2.794   1.071  12.487  0.2786  0.1499  0.4223
  293MPD2     H 4419   2.538   0.854  12.656  0.1785 -0.2421 -0.1593
  293MPD2    H1 4420   2.862   1.131  12.673 -2.0765 -0.0698  1.0473
  293MPD2    H2 4421   2.709   1.011  12.303  2.3718 -1.6618 -0.1236
  293MPD2    H3 4422   2.869   1.132  12.437  0.0638 -0.1593 -0.2739
  293MPD2     N 4423   2.689   0.983  12.825  0.4320 -0.0102  0.4299
  293MPD2    H5 4424   2.649   0.902  12.870  1.4852 -0.2164  1.0039
  293MPD2    N1 4425   2.504   0.881  12.395 -0.2243 -0.2087 -0.1940
  293MPD2    H7 4426   2.506   0.897  12.294  0.1486  0.4313 -0.0868
  294TMC3    C1 4427   2.275   0.847  12.369 -0.1622 -0.4745  0.4455
  294TMC3    C2 4428   2.161   0.787  12.403 -0.6020  0.3918 -0.5318
  294TMC3    C3 4429   2.051   0.826  12.332  0.9811  0.4208 -0.7715
  294TMC3    C4 4430   2.280   0.944  12.273 -0.4276  0.4616  0.0106
  294TMC3    C5 4431   2.166   0.977  12.207 -0.3231 -1.0197 -0.0751
  294TMC3    C6 4432   2.046   0.921  12.234  0.0744 -0.5094 -0.3189
  294TMC3     C 4433   2.390   0.817  12.443  0.4853 -0.1031 -0.1461
  294TMC3     O 4434   2.380   0.745  12.544  0.0474  0.6147 -0.1889
  294TMC3     H 4435   2.162   0.691  12.454  1.4740  1.1594  0.8532
  294TMC3    H1 4436   2.374   0.988  12.243  0.5382 -2.3662 -1.1281
  294TMC3    H2 4437   1.963   0.952  12.170  0.5192  1.1114 -0.1287
  294TMC3    C7 4438   2.175   1.062  12.091 -0.3683  0.0209 -0.1995
  294TMC3    C8 4439   1.926   0.763  12.380 -0.4259  0.0274  0.0750
  294TMC3    O1 4440   2.081   1.136  12.063  0.4220 -0.0735  0.0536
  294TMC3    O2 4441   1.899   0.779  12.498 -0.0958 -0.1437  0.3168
  295MPD2     C 4442   4.077   3.849   0.705 -0.8198  0.0415  0.1838
  295MPD2    C1 4443   4.121   3.800   0.585 -0.2712  0.1154 -0.0033
  295MPD2    C2 4444   4.223   3.706   0.583  0.1192  0.4020  0.4093
  295MPD2    C3 4445   4.280   3.651   0.699 -0.3757 -0.0574 -0.3880
  295MPD2    C4 4446   4.223   3.695   0.818  0.5532 -0.2510 -0.0531
  295MPD2    C5 4447   4.140   3.803   0.825 -0.2781  0.5393 -0.0534
  295MPD2     H 4448   4.262   3.676   0.486 -2.1293  1.2864 -0.7723
  295MPD2    H1 4449   4.259   3.653   0.911 -0.3238 -0.9574 -0.0316
  295MPD2    H2 4450   4.000   3.924   0.714  0.4377  1.1196  1.8047
  295MPD2    H3 4451   4.106   3.846   0.919 -1.7740 -1.3134  0.2506
  295MPD2     N 4452   4.386   3.548   0.696 -0.5801  0.6165  0.1065
  295MPD2    H5 4453   4.420   3.518   0.786  0.4960  2.6481  0.3821
  295MPD2    N1 4454   4.080   3.850   0.460  0.2812  0.1263  0.1034
  295MPD2    H7 4455   4.098   3.790   0.380 -2.2071 -2.9717  1.8433
  296TMC3    C1 4456   4.519   3.384   0.625  0.8663  0.2534 -0.3626
  296TMC3    C2 4457   4.577   3.377   0.755  0.1453 -0.9101 -0.2955
  296TMC3    C3 4458   4.627   3.259   0.799  0.1712  0.5296  0.2228
  296TMC3    C4 4459   4.517   3.281   0.546  0.4470 -1.1477  0.0120
  296TMC3    C5 4460   4.586   3.166   0.587 -0.4234 -0.9732  0.4280
  296TMC3    C6 4461   4.622   3.152   0.716 -0.2230 -0.7413  0.5035
  296TMC3     C 4462   4.417   3.471   0.587 -0.0351  0.1934  0.2158
  296TMC3     O 4463   4.372   3.467   0.477 -0.1959 -0.0911  0.1191
  296TMC3     H 4464   4.604   3.471   0.801  2.3607 -1.3127 -0.7939
  296TMC3    H1 4465   4.485   3.280   0.443 -2.1122  2.5487  0.7341
  296TMC3    H2 4466   4.654   3.054   0.751 -2.2213 -1.2825  0.7835
  296TMC3    C7 4467   4.516   3.041   0.553 -0.1337 -0.1914 -0.2753
  296TMC3    C8 4468   4.674   3.234   0.930 -0.7259  0.2868 -0.2161
  296TMC3    O1 4469   4.564   2.974   0.459 -0.4352  0.0780  0.2406
  296TMC3    O2 4470   4.723   3.122   0.951 -0.8207 -0.1669  0.4490
  297MPD2     C 4471   1.008   0.981  16.325  0.6031  0.1051  0.7038
  297MPD2    C1 4472   0.908   1.035  16.249 -0.6751 -0.1511  0.4894
  297MPD2    C2 4473   0.916   1.169  16.213  0.3186  0.4526 -0.1752
  297MPD2    C3 4474   1.025   1.244  16.262  0.4019  0.8524 -0.4734
  297MPD2    C4 4475   1.126   1.184  16.335 -0.0630 -0.7055  0.1208
  297MPD2    C5 4476   1.117   1.054  16.364  0.3544  0.8580 -0.0282
  297MPD2     H 4477   0.836   1.215  16.156  0.2349 -1.8662 -1.9189
  297MPD2    H1 4478   1.217   1.235  16.365 -0.9441  1.3364 -0.7163
  297MPD2    H2 4479   1.002   0.876  16.352 -0.6901  0.4790  1.9029
  297MPD2    H3 4480   1.189   1.007  16.431 -1.3556  1.6821  2.3687
  297MPD2     N 4481   1.046   1.374  16.212 -0.0106  0.1794  0.0625
  297MPD2    H5 4482   0.987   1.402  16.134  1.0453 -1.8344 -1.4316
  297MPD2    N1 4483   0.789   0.968  16.216  0.2552 -0.3725  0.7295
  297MPD2    H7 4484   0.724   1.019  16.157  0.3235 -0.7242  0.3517
  298TMC3    C1 4485   0.622   0.808  16.194  0.3914 -0.3033  0.1419
  298TMC3    C2 4486   0.638   0.793  16.055  0.8026  0.2516 -0.7757
  298TMC3    C3 4487   0.527   0.737  15.994 -0.1226  0.0512  0.7935
  298TMC3    C4 4488   0.519   0.761  16.268  0.2165  0.4030 -0.7351
  298TMC3    C5 4489   0.407   0.713  16.203 -0.2837 -0.0216 -1.0188
  298TMC3    C6 4490   0.423   0.685  16.068 -0.2142  0.4452 -0.2643
  298TMC3     C 4491   0.741   0.852  16.268  0.7902  0.0281 -0.2980
  298TMC3     O 4492   0.767   0.790  16.374  0.2606  0.1878  0.0709
  298TMC3     H 4493   0.720   0.838  16.001  0.9613  0.8132 -0.0634
  298TMC3    H1 4494   0.514   0.787  16.373  0.3108 -3.2794  0.1902
  298TMC3    H2 4495   0.347   0.628  16.016 -1.3754  1.0290  0.7923
  298TMC3    C7 4496   0.295   0.799  16.225  0.4433  0.1178  0.5392
  298TMC3    C8 4497   0.494   0.762  15.855 -0.3936  0.3500 -0.5495
  298TMC3    O1 4498   0.289   0.858  16.327 -0.2745  0.0783  0.2678
  298TMC3    O2 4499   0.377   0.751  15.819 -0.1282 -1.0624  0.0118
  299MPD2     C 4500   1.302   0.638  10.497  0.0962  0.5260  0.2500
  299MPD2    C1 4501   1.283   0.761  10.433  0.2849  0.0651  0.0761
  299MPD2    C2 4502   1.181   0.766  10.340  0.5205  0.0085 -0.5609
  299MPD2    C3 4503   1.100   0.656  10.318  0.0103  0.3516 -0.6375
  299MPD2    C4 4504   1.135   0.530  10.369  0.4536 -0.2603  0.1031
  299MPD2    C5 4505   1.242   0.528  10.457  0.0939 -0.6098 -0.2792
  299MPD2     H 4506   1.147   0.861  10.299 -1.4024 -1.3701 -2.1391
  299MPD2    H1 4507   1.070   0.443  10.365  1.5978 -1.0961 -0.3654
  299MPD2    H2 4508   1.371   0.633  10.581 -0.3676  0.5624  0.6359
  299MPD2    H3 4509   1.251   0.434  10.510  1.5133 -0.7751 -0.8073
  299MPD2     N 4510   0.973   0.663  10.254 -0.2781 -0.4202 -0.4491
  299MPD2    H5 4511   0.929   0.573  10.236 -2.0445  0.7269 -1.8601
  299MPD2    N1 4512   1.355   0.868  10.478  0.7555 -0.3675 -0.1681
  299MPD2    H7 4513   1.415   0.849  10.557  1.8567 -1.1573 -1.1848
  300TMC3    C1 4514   0.791   0.752  10.140 -0.1506 -0.5280 -0.2987
  300TMC3    C2 4515   0.749   0.844  10.052 -0.8581  0.3166  0.5020
  300TMC3    C3 4516   0.617   0.889  10.051 -1.0119  0.3569 -0.4170
  300TMC3    C4 4517   0.699   0.711  10.238 -0.6734  0.1072  0.4805
  300TMC3    C5 4518   0.572   0.758  10.232 -1.0619  0.0341  0.0917
  300TMC3    C6 4519   0.525   0.852  10.143 -0.3259 -0.0369  0.1297
  300TMC3     C 4520   0.918   0.777  10.190 -0.1752  0.0885 -0.7019
  300TMC3     O 4521   0.959   0.891  10.178 -0.5060  0.5516 -0.0353
  300TMC3     H 4522   0.808   0.886   9.971 -1.0909  0.9199  0.6490
  300TMC3    H1 4523   0.740   0.647  10.315 -1.3332 -0.5569  0.2821
  300TMC3    H2 4524   0.425   0.890  10.162  0.4606  0.4626  3.2250
  300TMC3    C7 4525   0.505   0.751  10.358 -0.5288 -0.5699  0.4261
  300TMC3    C8 4526   0.592   1.006   9.964  0.0929  0.3698  0.3738
  300TMC3    O1 4527   0.498   0.636  10.403 -0.2725  0.4636 -0.0484
  300TMC3    O2 4528   0.689   1.065   9.923  0.1154 -0.0924 -0.0606
  301MPD2     C 4529   3.853   1.863   1.104  0.0958  0.0189 -0.2398
  301MPD2    C1 4530   3.732   1.869   1.152  0.6827  0.1187  0.2435
  301MPD2    C2 4531   3.690   1.784   1.245  0.7669  0.4295  0.0627
  301MPD2    C3 4532   3.773   1.687   1.296  0.4183  0.0168  0.1373
  301MPD2    C4 4533   3.901   1.682   1.251 -0.4127  0.6280 -0.7299
  301MPD2    C5 4534   3.942   1.770   1.152 -0.0283 -0.3422  0.2158
  301MPD2     H 4535   3.594   1.798   1.293 -0.3518  0.5310 -2.2402
  301MPD2    H1 4536   3.973   1.611   1.291 -2.2181 -0.5947  0.3397
  301MPD2    H2 4537   3.882   1.932   1.026 -1.6641  1.4212  0.3500
  301MPD2    H3 4538   4.038   1.755   1.103  0.5911  1.9717  0.7357
  301MPD2     N 4539   3.742   1.597   1.402  0.1297  0.1732  0.3424
  301MPD2    H5 4540   3.813   1.531   1.433  0.4289 -0.1503 -1.0488
  301MPD2    N1 4541   3.639   1.964   1.110  0.4503 -0.4306 -0.4729
  301MPD2    H7 4542   3.545   1.941   1.142 -0.2345  1.3834 -1.2004
  302TMC3    C1 4543   3.582   1.455   1.506 -0.0131 -0.4435  0.3306
  302TMC3    C2 4544   3.677   1.364   1.544  0.2084 -0.6403  0.3467
  302TMC3    C3 4545   3.643   1.237   1.575  0.2110  0.5383 -0.2508
  302TMC3    C4 4546   3.452   1.408   1.494  0.2848 -0.0796  0.2491
  302TMC3    C5 4547   3.422   1.282   1.532  0.6118  0.3844 -0.4308
  302TMC3    C6 4548   3.516   1.191   1.564  0.2427 -0.6047  0.0750
  302TMC3     C 4549   3.615   1.584   1.455 -0.3978 -0.2440 -0.2084
  302TMC3     O 4550   3.515   1.653   1.433 -0.2696 -0.6164 -0.3594
  302TMC3     H 4551   3.778   1.396   1.565 -0.1286 -0.1024  1.1680
  302TMC3    H1 4552   3.372   1.463   1.445  1.3674 -0.1411 -1.5821
  302TMC3    H2 4553   3.504   1.086   1.586 -0.1139 -0.4104  0.8105
  302TMC3    C7 4554   3.296   1.217   1.488  0.3970 -0.0421  0.1648
  302TMC3    C8 4555   3.752   1.147   1.595  0.1942 -0.2938  0.4489
  302TMC3    O1 4556   3.314   1.099   1.470 -0.2975 -0.0827 -0.4939
  302TMC3    O2 4557   3.747   1.033   1.557 -0.4532  0.1849 -0.5117
  303MPD2     C 4558   3.115   0.110   9.278  0.0544  0.0346 -0.3516
  303MPD2    C1 4559   3.090   0.110   9.407  0.0858 -0.0896 -0.6686
  303MPD2    C2 4560   3.163   0.033   9.499  0.8166 -0.1111  1.4862
  303MPD2    C3 4561   3.266   4.682   9.453 -0.1316 -0.0697  0.3933
  303MPD2    C4 4562   3.294   4.682   9.321 -0.4380  0.0924 -0.5110
  303MPD2    C5 4563   3.212   0.026   9.236 -0.3905 -0.4173 -0.4690
  303MPD2     H 4564   3.139   0.041   9.604  1.1521  2.0492  1.3998
  303MPD2    H1 4565   3.376   4.624   9.278  0.2967  0.0008  1.0291
  303MPD2    H2 4566   3.063   0.166   9.201 -0.7064 -1.2003 -0.7551
  303MPD2    H3 4567   3.231   0.014   9.130  0.5865  1.7075 -0.5220
  303MPD2     N 4568   3.352   4.612   9.540 -0.6785  0.2464  0.1878
  303MPD2    H5 4569   3.440   4.579   9.501 -1.1564 -2.4599  1.4149
  303MPD2    N1 4570   2.996   0.213   9.451 -0.3149  0.7164 -0.7632
  303MPD2    H7 4571   2.956   0.275   9.381 -1.3753 -0.0587 -0.8644
  304TMC3    C1 4572   2.821   0.315   9.564  0.0717  0.0823 -0.3595
  304TMC3    C2 4573   2.734   0.296   9.670  0.0730  0.1361 -0.1282
  304TMC3    C3 4574   2.677   0.406   9.730 -0.5052 -1.1494 -0.1679
  304TMC3    C4 4575   2.871   0.440   9.533 -0.2925 -0.5576 -0.3474
  304TMC3    C5 4576   2.832   0.544   9.605  0.1386  0.6999 -0.3203
  304TMC3    C6 4577   2.728   0.535   9.691  0.0094 -0.1964 -0.6029
  304TMC3     C 4578   2.919   0.204   9.558  0.0749  0.0314 -0.1410
  304TMC3     O 4579   2.935   0.125   9.648 -0.5508  0.4687 -0.7361
  304TMC3     H 4580   2.710   0.194   9.699 -0.4429  0.7049  1.4616
  304TMC3    H1 4581   2.948   0.456   9.459 -0.3153 -0.5040 -0.3595
  304TMC3    H2 4582   2.688   0.627   9.733  1.2460  0.3002 -0.5029
  304TMC3    C7 4583   2.945   0.627   9.649 -0.1774  0.7201 -1.0444
  304TMC3    C8 4584   2.680   0.396   9.873  0.0795  0.3243  0.1927
  304TMC3    O1 4585   3.030   0.658   9.566 -0.4272  0.1397  0.3140
  304TMC3    O2 4586   2.724   0.493   9.928 -0.1682 -0.7696  0.5076
  305MPD2     C 4587   0.987   2.164  13.899  0.2694  0.0631  0.1331
  305MPD2    C1 4588   1.066   2.248  13.825 -0.1623  0.6994  0.5806
  305MPD2    C2 4589   1.038   2.267  13.692  0.1105  0.1506  0.1779
  305MPD2    C3 4590   0.929   2.211  13.626 -0.0207  0.3812  0.0806
  305MPD2    C4 4591   0.860   2.113  13.694 -0.7557  0.1624  0.9161
  305MPD2    C5 4592   0.885   2.094  13.827  0.0384  0.2300 -0.1535
  305MPD2     H 4593   1.101   2.336  13.637 -0.4143  2.0339  1.8950
  305MPD2    H1 4594   0.780   2.058  13.646 -0.0066 -2.6739  2.9388
  305MPD2    H2 4595   0.996   2.137  14.003  3.2735 -0.5177 -0.2719
  305MPD2    H3 4596   0.820   2.029  13.884 -1.3413  2.0020  0.2993
  305MPD2     N 4597   0.905   2.232  13.493 -0.2043 -0.0120  0.6683
  305MPD2    H5 4598   0.845   2.164  13.448 -1.8712  1.6622  0.3267
  305MPD2    N1 4599   1.164   2.322  13.890 -0.4150 -0.1067 -0.1502
  305MPD2    H7 4600   1.178   2.298  13.987 -0.6503 -1.3734 -0.4367
  306TMC3    C1 4601   1.348   2.456  13.931 -0.5006 -0.4357 -0.1024
  306TMC3    C2 4602   1.412   2.347  13.975  0.9425 -0.1408  0.0293
  306TMC3    C3 4603   1.494   2.377  14.079 -0.8030 -0.2173  0.0835
  306TMC3    C4 4604   1.363   2.584  13.977 -0.5555 -0.3311  0.8061
  306TMC3    C5 4605   1.449   2.596  14.084 -0.2639 -0.0682 -0.3284
  306TMC3    C6 4606   1.527   2.494  14.136  0.2455  0.6038  0.4454
  306TMC3     C 4607   1.242   2.426  13.840 -0.4576  0.1472 -0.7755
  306TMC3     O 4608   1.246   2.481  13.730  0.0355 -0.2348  0.1688
  306TMC3     H 4609   1.397   2.247  13.936 -1.6710  0.3950 -0.2939
  306TMC3    H1 4610   1.302   2.667  13.944 -0.4591  0.0457  1.5896
  306TMC3    H2 4611   1.611   2.502  14.204  0.6399  1.8465 -0.1711
  306TMC3    C7 4612   1.418   2.697  14.176  0.2644 -0.0470  0.4787
  306TMC3    C8 4613   1.570   2.258  14.123 -0.5241  0.3394 -0.1698
  306TMC3    O1 4614   1.302   2.735  14.172 -0.0477 -0.4399  0.5671
  306TMC3    O2 4615   1.589   2.172  14.037 -0.5061  0.1108  0.1117
  307MPD2     C 4616   4.132   1.155   1.315  0.1192 -0.0637  0.6887
  307MPD2    C1 4617   4.057   1.102   1.215  0.1138  0.0900  0.9504
  307MPD2    C2 4618   4.030   1.180   1.105 -0.2027 -0.0947 -0.4312
  307MPD2    C3 4619   4.074   1.311   1.093 -0.7072  0.0694  0.0002
  307MPD2    C4 4620   4.152   1.363   1.197  0.1422  0.1373  0.1970
  307MPD2    C5 4621   4.171   1.287   1.315 -0.0889 -0.5393  0.2664
  307MPD2     H 4622   3.982   1.128   1.022  0.3142  1.1506 -1.5036
  307MPD2    H1 4623   4.193   1.463   1.201  1.2457 -0.2490 -1.6163
  307MPD2    H2 4624   4.165   1.097   1.401  1.5771 -0.0755  0.1145
  307MPD2    H3 4625   4.250   1.307   1.386  1.0178  2.3821 -1.7459
  307MPD2     N 4626   4.046   1.384   0.973 -0.0792 -0.1099 -0.0384
  307MPD2    H5 4627   3.987   1.332   0.908 -3.1951  1.5160  1.5058
  307MPD2    N1 4628   4.005   0.972   1.210  0.2405 -0.2319  0.2378
  307MPD2    H7 4629   3.943   0.952   1.131 -1.2866  4.1288  0.3385
  308TMC3    C1 4630   3.834   1.560   0.722  0.4798  0.5442 -0.7835
  308TMC3    C2 4631   3.896   1.522   0.602  0.7414 -0.4821  0.3373
  308TMC3    C3 4632   4.027   1.489   0.608 -0.0964  0.1031 -0.1528
  308TMC3    C4 4633   3.903   1.588   0.835  0.3600 -0.2986  0.3166
  308TMC3    C5 4634   4.044   1.563   0.831 -0.6399 -0.1664 -0.9879
  308TMC3    C6 4635   4.101   1.503   0.722  0.1454 -0.0224 -0.6017
  308TMC3     C 4636   3.689   1.580   0.720 -0.4128  0.0857  0.9010
  308TMC3     O 4637   3.636   1.673   0.786 -0.1189  0.1970  0.6111
  308TMC3     H 4638   3.848   1.523   0.505  0.8860 -1.4191  0.2541
  308TMC3    H1 4639   3.845   1.614   0.923  0.3366  2.9658 -0.6442
  308TMC3    H2 4640   4.204   1.469   0.733 -0.2188  0.0146  2.9055
  308TMC3    C7 4641   4.098   1.506   0.944 -0.1117  0.4042  0.7811
  308TMC3    C8 4642   4.092   1.432   0.493  0.9709 -0.5480  0.1476
  308TMC3    O1 4643   4.202   1.563   0.989 -0.4967  0.0963  0.4683
  308TMC3    O2 4644   4.215   1.438   0.495  0.3468 -0.7036  0.5557
  309MPD2     C 4645   3.243   0.625  16.844 -0.2878  0.3115 -0.0774
  309MPD2    C1 4646   3.236   0.741  16.776 -0.4818 -0.0979  0.5998
  309MPD2    C2 4647   3.120   0.818  16.800  0.5820  0.6275 -0.7746
  309MPD2    C3 4648   3.023   0.778  16.887 -0.2769  0.3247  0.0837
  309MPD2    C4 4649   3.023   0.653  16.940  0.2032 -0.0935 -1.0277
  309MPD2    C5 4650   3.137   0.577  16.921  0.8946  0.7687  0.4893
  309MPD2     H 4651   3.116   0.912  16.745  0.5502  1.2501  0.2989
  309MPD2    H1 4652   2.939   0.622  17.001  0.0386 -0.5448 -1.4890
  309MPD2    H2 4653   3.322   0.556  16.819  0.2378 -0.1833  2.9180
  309MPD2    H3 4654   3.138   0.477  16.962  0.4220  1.3167  1.8403
  309MPD2     N 4655   2.913   0.855  16.917 -0.3796  0.6364 -0.2448
  309MPD2    H5 4656   2.851   0.818  16.988 -1.0250 -1.2929 -1.8176
  309MPD2    N1 4657   3.342   0.789  16.691 -0.4188 -0.2316  0.1246
  309MPD2    H7 4658   3.321   0.875  16.640  1.2116  0.1306  0.0756
  310TMC3    C1 4659   3.554   0.807  16.586 -0.0620  0.4455  0.4211
  310TMC3    C2 4660   3.494   0.872  16.485 -0.0985  0.6348 -0.1782
  310TMC3    C3 4661   3.571   0.951  16.403 -0.6002 -0.1116 -0.3253
  310TMC3    C4 4662   3.690   0.802  16.612 -0.1200 -0.2783  0.5674
  310TMC3    C5 4663   3.766   0.884  16.530  0.3383 -0.0875 -0.8913
  310TMC3    C6 4664   3.710   0.956  16.424  0.0940 -0.4461  0.2079
  310TMC3     C 4665   3.471   0.739  16.687  0.9274 -0.4647  0.2486
  310TMC3     O 4666   3.530   0.660  16.760 -0.4163 -0.2598 -0.4656
  310TMC3     H 4667   3.386   0.868  16.472  0.1142 -1.0778 -1.3836
  310TMC3    H1 4668   3.733   0.745  16.694 -3.5012 -4.5366 -0.6383
  310TMC3    H2 4669   3.772   1.038  16.391 -1.8685 -0.0110 -2.3899
  310TMC3    C7 4670   3.910   0.852  16.513  0.7810  0.8935 -0.0587
  310TMC3    C8 4671   3.512   1.013  16.291 -0.2175 -0.4491 -0.1466
  310TMC3    O1 4672   3.955   0.789  16.607  0.1845 -0.1063 -0.1563
  310TMC3    O2 4673   3.391   1.006  16.293 -0.0050  1.0912 -0.0075
  311MPD2     C 4674   0.079   2.153  12.468  0.4350  0.6279  0.2944
  311MPD2    C1 4675   0.092   2.251  12.567  0.0930 -0.0651  0.5412
  311MPD2    C2 4676   4.705   2.301  12.630 -0.3499 -0.2126 -0.9652
  311MPD2    C3 4677   4.577   2.268  12.575 -0.4659 -0.3871 -0.1883
  311MPD2    C4 4678   4.570   2.186  12.468  0.0373  0.5485 -0.2216
  311MPD2    C5 4679   4.680   2.128  12.415  0.0317 -0.0300 -0.1622
  311MPD2     H 4680   4.722   2.363  12.717  0.4361 -0.4027 -0.9818
  311MPD2    H1 4681   4.477   2.161  12.419 -0.1473 -2.7353  1.7611
  311MPD2    H2 4682   0.167   2.116  12.416 -0.0249 -1.9189  1.3520
  311MPD2    H3 4683   4.674   2.065  12.327 -0.1687 -0.3820  0.1012
  311MPD2     N 4684   4.468   2.338  12.628  0.3472  0.3218 -0.4021
  311MPD2    H5 4685   4.500   2.413  12.689  0.3814  0.5137 -0.6548
  311MPD2    N1 4686   0.214   2.301  12.619 -0.2272  0.3478 -0.1972
  311MPD2    H7 4687   0.196   2.354  12.703  0.5236  1.8366 -0.9632
  312TMC3    C1 4688   4.247   2.396  12.690 -0.0665  0.1231  0.2275
  312TMC3    C2 4689   4.127   2.412  12.628  0.3143 -0.4567  0.1650
  312TMC3    C3 4690   4.031   2.459  12.715 -0.3713  0.4374 -0.2009
  312TMC3    C4 4691   4.273   2.429  12.819  0.2643  0.5312 -0.1360
  312TMC3    C5 4692   4.178   2.495  12.893  0.0395  0.0471 -0.6412
  312TMC3    C6 4693   4.053   2.509  12.842 -0.0119  0.3763 -0.5612
  312TMC3     C 4694   4.335   2.313  12.609  0.8622 -0.3508  0.7051
  312TMC3     O 4695   4.287   2.220  12.540 -0.3508 -0.2174  0.1607
  312TMC3     H 4696   4.102   2.366  12.533 -2.4104  0.0690  0.6101
  312TMC3    H1 4697   4.373   2.419  12.862 -0.0228  0.4300  0.5176
  312TMC3    H2 4698   3.975   2.562  12.895  1.5764  1.6956  0.4299
  312TMC3    C7 4699   4.216   2.554  13.017  0.7069 -0.2892  0.0138
  312TMC3    C8 4700   3.892   2.431  12.690  0.1735  0.7370 -0.4625
  312TMC3    O1 4701   4.319   2.516  13.068  0.2880  0.4922 -0.5230
  312TMC3    O2 4702   3.826   2.406  12.788  0.0926 -0.5180 -0.2970
  313MPD2     C 4703   0.224   1.292  10.262 -0.2422 -0.6329 -0.0800
  313MPD2    C1 4704   0.109   1.370  10.241 -0.0104 -0.1660  0.0960
  313MPD2    C2 4705   4.718   1.309  10.193 -0.2448  0.1655  0.0554
  313MPD2    C3 4706   4.718   1.178  10.158  1.0900  0.6523 -0.5668
  313MPD2    C4 4707   0.100   1.098  10.188  0.2963 -0.6357 -0.5083
  313MPD2    C5 4708   0.212   1.159  10.242 -0.1624  0.2025 -0.4739
  313MPD2     H 4709   4.629   1.367  10.171 -1.3666 -1.3199  0.7154
  313MPD2    H1 4710   0.114   0.991  10.170  1.2966 -0.5722 -0.1171
  313MPD2    H2 4711   0.315   1.340  10.298  1.0315 -2.2127 -1.1899
  313MPD2    H3 4712   0.295   1.100  10.280 -0.0096  1.6722  1.5154
  313MPD2     N 4713   4.608   1.124  10.085 -0.3987  0.2190 -0.0972
  313MPD2    H5 4714   4.529   1.185  10.065 -0.4313  0.5942  1.1930
  313MPD2    N1 4715   0.109   1.517  10.252 -0.5011 -0.2501  0.6370
  313MPD2    H7 4716   0.026   1.565  10.217  1.0439  0.5491 -1.9181
  314TMC3    C1 4717   0.180   1.739  10.277  0.2950 -0.6867 -0.3290
  314TMC3    C2 4718   0.253   1.832  10.336 -0.2526 -0.5781  0.2365
  314TMC3    C3 4719   0.225   1.967  10.309 -0.7173 -0.1947 -0.1117
  314TMC3    C4 4720   0.074   1.769  10.193 -0.5339 -0.4596  0.1963
  314TMC3    C5 4721   0.043   1.903  10.174 -0.1078  0.8689 -0.4301
  314TMC3    C6 4722   0.119   2.001  10.224 -0.1544 -0.2242 -0.3243
  314TMC3     C 4723   0.214   1.598  10.289 -0.2296  0.5641  0.1933
  314TMC3     O 4724   0.317   1.567  10.346 -0.0837  0.2603  0.5416
  314TMC3     H 4725   0.320   1.805  10.416  1.1141  1.0204 -0.3758
  314TMC3    H1 4726   0.019   1.696  10.135 -0.4507 -1.1244  0.9494
  314TMC3    H2 4727   0.088   2.103  10.203  1.1110  0.3497  0.6064
  314TMC3    C7 4728   4.672   1.945  10.073 -0.1306  0.2189  0.2651
  314TMC3    C8 4729   0.279   2.068  10.396  0.3933  0.3350 -0.0055
  314TMC3    O1 4730   4.558   1.903  10.083 -0.4948  0.4055 -0.2633
  314TMC3    O2 4731   0.219   2.175  10.394  0.2966 -0.6956 -0.1279
  315MPD2     C 4732   4.391   0.826  17.651  0.2552 -0.2198 -1.0072
  315MPD2    C1 4733   4.493   0.841   0.043  0.7818  0.0703 -0.3679
  315MPD2    C2 4734   4.593   0.929   0.014  0.0596 -0.2657 -0.1610
  315MPD2    C3 4735   4.612   0.998  17.600  0.1384 -0.1831  0.2377
  315MPD2    C4 4736   4.515   0.979  17.502 -0.2138 -0.3931  0.5089
  315MPD2    C5 4737   4.408   0.889  17.532 -0.0497  0.2581  0.2820
  315MPD2     H 4738   4.667   0.938   0.094 -0.4600 -3.4639  0.6619
  315MPD2    H1 4739   4.512   1.018  17.401 -0.5228 -0.7581  0.3763
  315MPD2    H2 4740   4.305   0.760  17.666  0.1161 -0.9771 -5.1216
  315MPD2    H3 4741   4.345   0.878  17.445  0.1765 -0.1590  0.1702
  315MPD2     N 4742   4.720   1.098  17.590  0.2196  0.0424 -0.4247
  315MPD2    H5 4743   0.052   1.127  17.668  0.4704 -0.0122 -0.5941
  315MPD2    N1 4744   4.490   0.784   0.169  0.2855 -0.3011  0.2355
  315MPD2    H7 4745   4.571   0.812   0.224 -0.8080 -1.7631  2.5603
  316TMC3    C1 4746   0.130   1.252  17.478  0.3345  0.8500  0.3178
  316TMC3    C2 4747   0.225   1.241  17.582  0.2411 -0.2940  0.2676
  316TMC3    C3 4748   0.311   1.350  17.592 -0.1334 -0.5013  0.2706
  316TMC3    C4 4749   0.123   1.363  17.396  0.1911  0.2824  0.9925
  316TMC3    C5 4750   0.212   1.462  17.409 -0.6140  0.0443  0.9361
  316TMC3    C6 4751   0.307   1.461  17.509 -0.0976  0.6650  0.1388
  316TMC3     C 4752   0.015   1.164  17.470 -0.5062 -0.5581  0.4368
  316TMC3     O 4753   4.686   1.152  17.360  0.2844  0.1284 -0.0674
  316TMC3     H 4754   0.226   1.158  17.652  1.0323 -0.7248 -0.2458
  316TMC3    H1 4755   0.040   1.375  17.327  1.1131 -1.2370 -0.3970
  316TMC3    H2 4756   0.379   1.541  17.519 -0.1222  0.6011  0.8491
  316TMC3    C7 4757   0.214   1.565  17.308 -0.4086 -0.1074 -0.1876
  316TMC3    C8 4758   0.392   1.351   0.001 -0.5511 -0.3091 -0.4182
  316TMC3    O1 4759   0.268   1.669  17.342 -0.1920 -1.0073  0.5328
  316TMC3    O2 4760   0.435   1.458   0.046  0.2820 -0.4847 -0.7190
  317MPD2     C 4761   1.525   4.442  12.941 -0.8562  0.4517 -0.0907
  317MPD2    C1 4762   1.561   4.316  12.885  0.3505  0.4722  0.2389
  317MPD2    C2 4763   1.547   4.203  12.968 -0.5349  0.1863 -0.2990
  317MPD2    C3 4764   1.525   4.218  13.105 -0.3159 -0.6851  0.0697
  317MPD2    C4 4765   1.506   4.341  13.152 -0.6489 -0.1830 -0.2416
  317MPD2    C5 4766   1.512   4.453  13.078 -0.3552  0.5975 -0.2523
  317MPD2     H 4767   1.565   4.101  12.938 -2.5443  0.0994 -1.1956
  317MPD2    H1 4768   1.501   4.353  13.260  0.4102  0.6004 -0.2743
  317MPD2    H2 4769   1.521   4.535  12.887 -1.1240 -0.6185 -1.9227
  317MPD2    H3 4770   1.507   4.551  13.123 -2.6843  0.3418  0.0469
  317MPD2     N 4771   1.538   4.099  13.183 -0.5555  0.1409  0.4515
  317MPD2    H5 4772   1.555   4.013  13.132  2.4888  0.3544  1.1128
  317MPD2    N1 4773   1.592   4.296  12.747  0.3794 -0.0603 -0.3277
  317MPD2    H7 4774   1.615   4.202  12.716 -1.0840 -0.0340 -1.5384
  318TMC3    C1 4775   1.565   3.969  13.373  0.2782 -0.1337 -0.3063
  318TMC3    C2 4776   1.512   3.852  13.338  0.2176 -0.2836  0.1764
  318TMC3    C3 4777   1.558   3.747  13.403 -0.2710 -0.6960  0.1339
  318TMC3    C4 4778   1.666   3.986  13.464  0.1005 -0.3313  0.2091
  318TMC3    C5 4779   1.713   3.873  13.527  0.6160 -0.2625  0.7145
  318TMC3    C6 4780   1.662   3.751  13.491 -0.5029 -0.9591  0.9854
  318TMC3     C 4781   1.523   4.090  13.318 -0.7122 -0.4730  0.0429
  318TMC3     O 4782   1.490   4.171  13.398  0.0585  0.0304 -0.3390
  318TMC3     H 4783   1.430   3.855  13.267  0.6419 -1.2145 -0.3573
  318TMC3    H1 4784   1.680   4.087  13.501  1.4334 -0.4589  0.0523
  318TMC3    H2 4785   1.676   3.671  13.563 -0.2703 -0.9018  1.0031
  318TMC3    C7 4786   1.820   3.883  13.618 -0.5081 -0.4585 -0.4589
  318TMC3    C8 4787   1.489   3.622  13.389  0.2173  0.2509  0.5380
  318TMC3    O1 4788   1.838   3.995  13.665 -0.1545 -0.1253  0.0626
  318TMC3    O2 4789   1.546   3.537  13.456  0.0459 -0.6745 -0.2451
  319MPD2     C 4790   2.698   0.634  16.723 -0.3258 -0.0130 -0.3615
  319MPD2    C1 4791   2.560   0.627  16.745  0.3585  0.4084 -0.9448
  319MPD2    C2 4792   2.473   0.621  16.640  0.7592  0.0814 -0.0085
  319MPD2    C3 4793   2.522   0.635  16.508 -0.3032  0.3154  0.6676
  319MPD2    C4 4794   2.660   0.650  16.488  0.3006 -0.0223 -0.3270
  319MPD2    C5 4795   2.746   0.639  16.598  1.1548  0.6611 -0.6228
  319MPD2     H 4796   2.367   0.608  16.658  1.1991 -1.9162  1.1228
  319MPD2    H1 4797   2.700   0.643  16.387  2.1166  0.2726  0.3615
  319MPD2    H2 4798   2.767   0.629  16.807 -2.2435 -0.4187  1.1871
  319MPD2    H3 4799   2.854   0.634  16.588  1.4143  1.5144  1.6358
  319MPD2     N 4800   2.446   0.615  16.397  0.1013  0.9029  0.4217
  319MPD2    H5 4801   2.493   0.595  16.309 -0.1205 -1.3928  0.8334
  319MPD2    N1 4802   2.508   0.600  16.868 -0.4901 -0.3274 -0.7379
  319MPD2    H7 4803   2.419   0.553  16.881 -0.2533 -0.5077  0.2682
  320TMC3    C1 4804   2.260   0.650  16.261  0.3113  0.0503  0.2187
  320TMC3    C2 4805   2.172   0.754  16.228 -0.4680  0.3630  1.1249
  320TMC3    C3 4806   2.084   0.737  16.127 -0.2881 -0.6313 -0.2450
  320TMC3    C4 4807   2.231   0.530  16.203 -0.4387  0.2229  0.5416
  320TMC3    C5 4808   2.137   0.514  16.103 -0.8779  0.4184  0.7139
  320TMC3    C6 4809   2.065   0.616  16.058  0.2739 -0.2026  0.6722
  320TMC3     C 4810   2.318   0.645  16.391 -0.8070 -0.1776  0.0247
  320TMC3     O 4811   2.238   0.691  16.478  0.2235  0.0428 -0.0619
  320TMC3     H 4812   2.192   0.854  16.263  1.0677 -0.0919  1.5545
  320TMC3    H1 4813   2.288   0.451  16.252 -0.2780 -0.5611 -0.9106
  320TMC3    H2 4814   1.975   0.602  15.998  0.3316  2.7238 -0.0793
  320TMC3    C7 4815   2.062   0.390  16.125  0.1161 -0.2048 -0.4508
  320TMC3    C8 4816   2.055   0.855  16.043  0.4599  0.3799 -0.0275
  320TMC3    O1 4817   1.944   0.407  16.143 -0.1218  0.4245 -0.3021
  320TMC3    O2 4818   2.054   0.852  15.921 -0.0614  0.2256 -0.0389
  321TMC3    C1 4819   2.521   0.573  17.106 -0.6229 -0.0316  0.0534
  321TMC3    C2 4820   2.511   0.435  17.098  0.2158  0.3353  0.4043
  321TMC3    C3 4821   2.496   0.373  17.224  0.0484  0.5249 -0.3974
  321TMC3    C4 4822   2.542   0.646  17.224 -0.7405  0.2051  0.1530
  321TMC3    C5 4823   2.548   0.573  17.341 -0.8196  0.2992 -0.0390
  321TMC3    C6 4824   2.499   0.441  17.342  0.4233  0.6003 -0.0665
  321TMC3     C 4825   2.573   0.637  16.985  0.6599  0.3378 -0.2851
  321TMC3     O 4826   2.662   0.719  17.001 -0.6472 -0.4428 -0.2507
  321TMC3     H 4827   2.539   0.381  17.009 -2.6990 -0.0446 -0.2999
  321TMC3    H1 4828   2.566   0.751  17.218  0.9665 -0.0152  2.8627
  321TMC3    H2 4829   2.511   0.394  17.438 -1.2917  0.4708  0.0764
  321TMC3    C7 4830   2.664   0.598  17.423  0.7259 -0.2802  0.2044
  321TMC3    C8 4831   2.585   0.257  17.231 -0.3205  0.2505 -0.5250
  321TMC3    O1 4832   2.674   0.520  17.521  0.4684 -0.8985  0.2570
  321TMC3    O2 4833   2.678   0.244  17.156  0.5609 -0.2274  0.6351
  322MPD2     C 4834   1.183   1.864  13.127 -0.7956  0.3354 -0.1127
  322MPD2    C1 4835   1.156   1.810  13.246 -0.4129 -0.9217  0.7782
  322MPD2    C2 4836   1.185   1.676  13.265 -0.6962  0.2533 -0.0952
  322MPD2    C3 4837   1.252   1.597  13.174  0.0709 -0.1686  0.0704
  322MPD2    C4 4838   1.267   1.653  13.052  0.0709  0.1973 -0.6170
  322MPD2    C5 4839   1.245   1.785  13.028  0.4055 -0.5012 -0.4984
  322MPD2     H 4840   1.157   1.631  13.360 -0.1700 -0.2782 -0.1900
  322MPD2    H1 4841   1.296   1.588  12.970  2.3507 -1.6201  1.6206
  322MPD2    H2 4842   1.161   1.964  13.090  0.5574  0.0437 -1.6772
  322MPD2    H3 4843   1.259   1.815  12.925  0.4821  0.3346 -0.2467
  322MPD2     N 4844   1.290   1.467  13.218  0.7706  0.1800  0.2819
  322MPD2    H5 4845   1.264   1.446  13.314 -1.0890  0.0461 -0.2441
  322MPD2    N1 4846   1.136   1.898  13.351 -0.0491 -0.0426 -0.4133
  322MPD2    H7 4847   1.150   1.998  13.336  0.4918  0.2856  2.3794
  323TMC3    C1 4848   1.159   1.949  13.584  0.4404 -0.2619 -0.3434
  323TMC3    C2 4849   1.262   2.036  13.569 -0.0328  0.2963  0.2642
  323TMC3    C3 4850   1.342   2.083  13.662  0.5293 -0.0913 -1.2388
  323TMC3    C4 4851   1.142   1.899  13.708  0.1008 -0.0975  1.0160
  323TMC3    C5 4852   1.234   1.936  13.805  0.2362  0.0731 -0.4459
  323TMC3    C6 4853   1.337   2.029  13.778 -0.0242  0.2335 -0.6680
  323TMC3     C 4854   1.116   1.860  13.483 -0.2161 -0.6927 -0.0913
  323TMC3     O 4855   1.073   1.752  13.524 -0.6254 -0.3234  0.8429
  323TMC3     H 4856   1.291   2.063  13.468  1.1429  1.5398  0.9365
  323TMC3    H1 4857   1.049   1.845  13.724  0.1454 -0.7229 -0.7767
  323TMC3    H2 4858   1.411   2.057  13.852 -1.8991  0.3986  1.1783
  323TMC3    C7 4859   1.202   1.877  13.937 -0.5928  0.7076  0.5282
  323TMC3    C8 4860   1.447   2.174  13.620  0.3918 -0.5854 -0.1586
  323TMC3    O1 4861   1.100   1.809  13.955 -0.4040  0.0133 -0.0114
  323TMC3    O2 4862   1.419   2.266  13.540  0.4315 -0.4536  0.1915
  324MPD2     C 4863   3.568   3.615  14.261 -0.3666 -0.1195 -0.0311
  324MPD2    C1 4864   3.513   3.503  14.212 -0.0406 -0.2931  0.5430
  324MPD2    C2 4865   3.373   3.496  14.221  0.5710  0.3820  0.1947
  324MPD2    C3 4866   3.287   3.590  14.278  0.5278  0.4246 -0.4027
  324MPD2    C4 4867   3.352   3.706  14.322 -0.3041 -0.1023 -0.3822
  324MPD2    C5 4868   3.490   3.714  14.319 -0.1515 -0.8121  0.1444
  324MPD2     H 4869   3.335   3.401  14.183 -0.7317  1.0875 -0.2968
  324MPD2    H1 4870   3.297   3.786  14.371 -0.1634 -1.1082  1.3912
  324MPD2    H2 4871   3.676   3.618  14.269 -0.5397 -1.0842  2.5995
  324MPD2    H3 4872   3.537   3.806  14.351 -1.6412 -0.3847  1.0692
  324MPD2     N 4873   3.148   3.577  14.289 -0.1806 -0.7728 -0.2690
  324MPD2    H5 4874   3.099   3.642  14.350  1.8106  0.0554  0.4509
  324MPD2    N1 4875   3.586   3.397  14.154  0.4213 -0.0680 -0.6776
  324MPD2    H7 4876   3.525   3.317  14.143  1.5192 -1.0347  0.2589
  325TMC3    C1 4877   2.943   3.487  14.254  0.8185  0.3164 -1.1138
  325TMC3    C2 4878   2.869   3.375  14.214  0.1825  0.0618 -0.2800
  325TMC3    C3 4879   2.732   3.380  14.216  0.1042  0.7525  0.5775
  325TMC3    C4 4880   2.878   3.596  14.312  0.7226 -0.2407 -0.2874
  325TMC3    C5 4881   2.744   3.591  14.326  0.6273  0.3020 -0.1824
  325TMC3    C6 4882   2.669   3.486  14.281 -0.4067 -0.0168 -0.6611
  325TMC3     C 4883   3.080   3.487  14.220  0.0150  0.1981  0.0837
  325TMC3     O 4884   3.120   3.394  14.152 -0.3071 -0.3420 -0.7400
  325TMC3     H 4885   2.919   3.286  14.179 -1.3016 -0.5259 -0.8741
  325TMC3    H1 4886   2.928   3.688  14.340 -1.1491  0.9164 -0.6420
  325TMC3    H2 4887   2.562   3.494  14.298  0.0813  0.7274  2.0367
  325TMC3    C7 4888   2.689   3.705  14.395 -0.9260 -0.0033  0.1539
  325TMC3    C8 4889   2.664   3.251  14.220 -0.1679 -0.6073  1.1461
  325TMC3    O1 4890   2.754   3.812  14.392  0.6549  0.2175  0.0056
  325TMC3    O2 4891   2.735   3.152  14.232 -0.0773 -0.1367 -1.1290
  326MPD2     C 4892   3.819   0.180  10.632 -0.1779 -0.1517 -0.3586
  326MPD2    C1 4893   3.909   0.098  10.564 -0.4336  0.1265 -0.1395
  326MPD2    C2 4894   4.008   0.028  10.633 -0.5203  0.4576  0.3307
  326MPD2    C3 4895   4.033   0.061  10.765 -0.2057 -0.1601 -0.1680
  326MPD2    C4 4896   3.957   0.148  10.828  0.0243  0.7551 -0.1621
  326MPD2    C5 4897   3.849   0.204  10.763  0.6010  0.1990  0.0221
  326MPD2     H 4898   4.083   4.697  10.580  0.5882  2.8770 -0.6977
  326MPD2    H1 4899   3.973   0.185  10.929  0.8546  1.4950 -0.5629
  326MPD2    H2 4900   3.729   0.225  10.592 -1.3854 -0.7304  1.7135
  326MPD2    H3 4901   3.784   0.262  10.829 -0.7563 -2.0774  0.6987
  326MPD2     N 4902   4.143   0.009  10.834  0.3365  0.2329 -0.4457
  326MPD2    H5 4903   4.178   0.070  10.907  0.2229 -0.2367 -0.0062
  326MPD2    N1 4904   3.903   0.078  10.428 -0.1755  0.0135  0.7034
  326MPD2    H7 4905   3.983   0.030  10.388 -0.6480  0.5447 -0.9107
  327TMC3    C1 4906   3.852   0.092  10.195  1.0501  0.4086  0.5128
  327TMC3    C2 4907   3.860   0.203  10.114  0.1795 -0.0893 -0.6731
  327TMC3    C3 4908   3.924   0.184   9.993  0.2070  0.6003  0.4927
  327TMC3    C4 4909   3.923   4.703  10.171  0.4657  0.2176  0.5708
  327TMC3    C5 4910   4.001   4.698  10.054 -0.5204  0.8306  0.8598
  327TMC3    C6 4911   3.998   0.075   9.962 -0.0576  0.0418 -0.0761
  327TMC3     C 4912   3.815   0.128  10.333 -0.7063 -0.4476  0.6295
  327TMC3     O 4913   3.725   0.208  10.356  0.5471  0.0381 -0.1625
  327TMC3     H 4914   3.811   0.297  10.136  0.1413 -0.4319  0.7198
  327TMC3    H1 4915   3.910   4.615  10.234  1.5794  0.4135  1.0801
  327TMC3    H2 4916   4.056   0.081   9.871  0.0238  1.1842  0.0414
  327TMC3    C7 4917   4.112   4.606  10.049  0.4990  0.0622 -0.1852
  327TMC3    C8 4918   3.907   0.285   9.883 -0.4012 -0.8848  0.3125
  327TMC3    O1 4919   4.195   4.633   9.961  0.1523 -0.6874 -0.8061
  327TMC3    O2 4920   3.994   0.297   9.800  0.2431  0.0797  0.5153
  328MPD2     C 4921   2.199   3.801  17.223  0.3488  0.3347 -0.0844
  328MPD2    C1 4922   2.108   3.732  17.145  0.5376 -0.2148  0.1922
  328MPD2    C2 4923   2.081   3.788  17.014  0.2933 -0.4481  0.9228
  328MPD2    C3 4924   2.133   3.909  16.973 -0.4676 -0.1871  0.0750
  328MPD2    C4 4925   2.226   3.976  17.055 -0.5216  0.5416  1.1780
  328MPD2    C5 4926   2.255   3.916  17.178 -0.4685  0.5240  0.1626
  328MPD2     H 4927   2.005   3.740  16.954 -0.2908  0.4548  0.9436
  328MPD2    H1 4928   2.277   4.068  17.028 -0.2214  0.1824  0.5350
  328MPD2    H2 4929   2.213   3.773  17.327  1.1675  2.4086  0.3647
  328MPD2    H3 4930   2.330   3.962  17.240 -0.7426  0.4842  0.5287
  328MPD2     N 4931   2.087   3.965  16.859  0.2011 -0.4460 -0.3505
  328MPD2    H5 4932   2.108   4.064  16.850 -0.9886 -0.0400  1.3328
  328MPD2    N1 4933   2.032   3.626  17.209 -0.1341 -0.2496 -0.3996
  328MPD2    H7 4934   2.059   3.632  17.307 -0.2081 -0.1275 -0.3866
  329TMC3    C1 4935   1.816   3.518  17.241  0.8466  0.5514  0.4838
  329TMC3    C2 4936   1.689   3.522  17.190 -0.2288 -0.0114 -0.3325
  329TMC3    C3 4937   1.589   3.541  17.281  0.1767  0.5319  0.0239
  329TMC3    C4 4938   1.837   3.521  17.375 -0.3329 -0.3050 -0.3610
  329TMC3    C5 4939   1.730   3.511  17.461 -0.5366 -0.2987  0.3937
  329TMC3    C6 4940   1.606   3.521  17.413 -0.4565 -0.1275 -0.1013
  329TMC3     C 4941   1.918   3.562  17.146  0.7043  0.5843 -0.2340
  329TMC3     O 4942   1.904   3.525  17.030 -0.2516 -0.0467  0.0826
  329TMC3     H 4943   1.670   3.523  17.083  0.3284 -0.0376 -0.4320
  329TMC3    H1 4944   1.936   3.519  17.418 -0.3562 -0.3702 -0.3106
  329TMC3    H2 4945   1.528   3.541  17.486 -1.1432 -1.2162 -0.5357
  329TMC3    C7 4946   1.745   3.496  17.605 -0.2742  0.3661  0.0075
  329TMC3    C8 4947   1.485   3.625  17.224 -0.3524 -0.5899 -0.5873
  329TMC3    O1 4948   1.849   3.516  17.666  0.2868  0.6032 -0.5257
  329TMC3    O2 4949   1.427   3.581  17.130  0.2061 -0.0232 -0.2828
  330TMC3    C1 4950   0.507   3.538   9.447 -0.0710 -0.0442  0.0911
  330TMC3    C2 4951   0.483   3.411   9.401  0.0291  0.2608  0.1571
  330TMC3    C3 4952   0.571   3.353   9.313 -0.2193  0.2556 -0.4690
  330TMC3    C4 4953   0.622   3.605   9.415  0.1549  0.8467 -0.1423
  330TMC3    C5 4954   0.708   3.548   9.327 -0.8375  0.6576 -0.0886
  330TMC3    C6 4955   0.680   3.426   9.270 -0.1380  0.2194  0.5732
  330TMC3     C 4956   0.411   3.604   9.534  0.2684 -0.0797 -0.7497
  330TMC3     O 4957   0.449   3.704   9.595 -0.4244  0.4287 -0.3797
  330TMC3     H 4958   0.391   3.363   9.433 -1.0174  1.8390 -0.4688
  330TMC3    H1 4959   0.627   3.712   9.434 -0.9839  0.8916 -0.1132
  330TMC3    H2 4960   0.743   3.391   9.189 -1.0815  1.6033 -0.7661
  330TMC3    C7 4961   0.828   3.618   9.277 -0.0368  0.4671  0.0363
  330TMC3    C8 4962   0.536   3.244   9.226 -0.3947  0.3539 -0.0452
  330TMC3    O1 4963   0.892   3.565   9.187 -0.8625  0.0784 -0.3876
  330TMC3    O2 4964   0.607   3.235   9.128 -0.6002  0.0468 -0.9551
  331MPD2     C 4965   1.857   2.586  12.844  0.6077 -0.2256 -0.4654
  331MPD2    C1 4966   1.974   2.593  12.771 -0.3595  0.5527  0.3760
  331MPD2    C2 4967   2.010   2.504  12.667  0.4006 -0.0092  0.5449
  331MPD2    C3 4968   1.924   2.402  12.635 -0.3494  0.5820  0.6362
  331MPD2    C4 4969   1.812   2.387  12.714 -0.0548 -0.3128  0.0293
  331MPD2    C5 4970   1.779   2.478  12.821 -0.6675 -0.2310 -0.7254
  331MPD2     H 4971   2.093   2.532  12.604 -0.0218  0.6609  0.2891
  331MPD2    H1 4972   1.737   2.309  12.703  0.1349 -0.8345  2.5075
  331MPD2    H2 4973   1.848   2.656  12.926  1.3375  0.3050 -0.8461
  331MPD2    H3 4974   1.691   2.460  12.881 -0.4511  2.2218  0.3209
  331MPD2     N 4975   1.958   2.324  12.521  0.1458  0.0687  0.0372
  331MPD2    H5 4976   2.041   2.352  12.471 -1.9821  2.9976 -1.8480
  331MPD2    N1 4977   2.060   2.701  12.802 -0.3473  0.0057  0.2402
  331MPD2    H7 4978   2.032   2.760  12.879  0.6983  0.6384  0.1235
  332TMC3    C1 4979   1.989   2.132  12.399 -0.0811 -0.3501 -0.0362
  332TMC3    C2 4980   2.033   2.206  12.290  0.3425  0.1269 -0.0446
  332TMC3    C3 4981   2.134   2.149  12.219  0.4032  0.0955 -0.2085
  332TMC3    C4 4982   2.041   2.016  12.432  0.0653 -0.0481  0.1811
  332TMC3    C5 4983   2.150   1.975  12.368  0.1556  0.3273  0.5833
  332TMC3    C6 4984   2.194   2.027  12.249  0.5046  0.1534 -0.6106
  332TMC3     C 4985   1.902   2.200  12.501 -0.1190  0.7854  0.1255
  332TMC3     O 4986   1.837   2.125  12.576  0.1475 -0.5323 -0.1598
  332TMC3     H 4987   1.993   2.302  12.260  1.6645  0.6017 -0.2583
  332TMC3    H1 4988   2.011   1.969  12.525 -0.4376  3.9724  2.0522
  332TMC3    H2 4989   2.288   1.993  12.208  0.2031 -0.9345 -0.3990
  332TMC3    C7 4990   2.233   1.888  12.448  0.7204 -0.1014  0.6374
  332TMC3    C8 4991   2.224   2.234  12.138  0.4140  0.0476 -0.0374
  332TMC3    O1 4992   2.172   1.817  12.527  0.1926  0.0978 -0.0022
  332TMC3    O2 4993   2.228   2.352  12.165  0.1052 -0.1311 -0.0825
  333MPD2     C 4994   2.748   2.489  11.148 -0.0888 -0.4370  0.3790
  333MPD2    C1 4995   2.698   2.426  11.031 -0.1146  0.8561 -0.4041
  333MPD2    C2 4996   2.607   2.324  11.053  0.3801  0.2915 -0.1584
  333MPD2    C3 4997   2.556   2.293  11.181 -0.3996  0.1470  0.1013
  333MPD2    C4 4998   2.599   2.367  11.286 -0.6321  0.3464 -0.7044
  333MPD2    C5 4999   2.693   2.468  11.265  1.1594  0.5964 -0.6591
  333MPD2     H 5000   2.584   2.255  10.973  2.6364  1.1145 -1.4930
  333MPD2    H1 5001   2.587   2.335  11.389 -0.6527 -1.7392 -1.3410
  333MPD2    H2 5002   2.819   2.571  11.144 -1.1713  0.5007  0.4117
  333MPD2    H3 5003   2.735   2.532  11.341 -0.0159  0.2809  0.2495
  333MPD2     N 5004   2.469   2.179  11.195 -0.0492 -0.1733 -0.0936
  333MPD2    H5 5005   2.463   2.119  11.113 -1.5781 -1.1746  0.7336
  333MPD2    N1 5006   2.736   2.465  10.898  0.0585  0.4178 -0.5510
  333MPD2    H7 5007   2.808   2.536  10.895  0.5751 -0.0437  0.8553
  334TMC3    C1 5008   2.745   2.486  10.668  0.1282 -0.9843  0.2374
  334TMC3    C2 5009   2.877   2.464  10.654 -0.0899 -0.3549 -0.0220
  334TMC3    C3 5010   2.963   2.557  10.603 -0.1163 -1.3456  0.0426
  334TMC3    C4 5011   2.690   2.613  10.640 -0.6538 -0.1922  0.2990
  334TMC3    C5 5012   2.778   2.712  10.596 -0.3141 -0.2211 -0.5162
  334TMC3    C6 5013   2.912   2.682  10.565  0.3363  0.6304  0.0829
  334TMC3     C 5014   2.683   2.424  10.780  0.0547  0.2140  0.0040
  334TMC3     O 5015   2.571   2.374  10.767  0.2923 -0.1943  0.0647
  334TMC3     H 5016   2.921   2.370  10.687  1.1186 -0.3105 -1.5566
  334TMC3    H1 5017   2.595   2.639  10.686 -0.9259 -1.0467  0.2388
  334TMC3    H2 5018   2.974   2.760  10.522 -1.3489  1.7390 -0.3273
  334TMC3    C7 5019   2.715   2.848  10.581  0.4486  0.2724 -0.5235
  334TMC3    C8 5020   3.091   2.507  10.562 -0.0028 -0.5652  0.5263
  334TMC3    O1 5021   2.592   2.857  10.580 -0.0188 -0.2880  0.4160
  334TMC3    O2 5022   3.099   2.387  10.533 -0.2483 -0.0780 -0.1044
  335TMC3    C1 5023   2.711   4.045  17.664 -0.1209  0.5538  0.0955
  335TMC3    C2 5024   2.637   3.977  17.576 -0.0235  0.2163 -0.3088
  335TMC3    C3 5025   2.697   3.877  17.502  0.0953 -0.6119 -0.2255
  335TMC3    C4 5026   2.850   4.047  17.664  0.6430  0.3146 -0.7738
  335TMC3    C5 5027   2.906   3.967  17.569 -0.2973  0.0375 -0.3603
  335TMC3    C6 5028   2.836   3.876  17.492 -0.2778 -0.2648  0.2456
  335TMC3     C 5029   2.638   4.144   0.017  0.5431 -0.1981  0.4876
  335TMC3     O 5030   2.517   4.136   0.028  0.0536  0.1338 -0.2930
  335TMC3     H 5031   2.530   3.970  17.594  0.1905 -0.2938  0.7908
  335TMC3    H1 5032   2.914   4.090   0.033  1.1653  0.4816 -1.3112
  335TMC3    H2 5033   2.887   3.828  17.410 -1.0879 -0.0202 -0.4063
  335TMC3    C7 5034   3.049   3.963  17.551  0.0608  0.1382 -0.3648
  335TMC3    C8 5035   2.614   3.811  17.406 -0.9585 -0.0739 -0.1309
  335TMC3    O1 5036   3.105   3.859  17.522 -0.0017 -0.4922 -0.0990
  335TMC3    O2 5037   2.513   3.873  17.374 -0.4372  0.1016 -0.2546
  336MPD2     C 5038   2.213   1.851  15.931 -0.1995  0.0735 -0.2176
  336MPD2    C1 5039   2.285   1.811  15.825 -0.5761  0.2478 -0.9474
  336MPD2    C2 5040   2.324   1.679  15.816 -0.5775  0.5055  0.0819
  336MPD2    C3 5041   2.293   1.590  15.923 -0.5992 -0.0693  0.6740
  336MPD2    C4 5042   2.221   1.633  16.031 -0.7686  0.7165  0.4923
  336MPD2    C5 5043   2.182   1.762  16.029  0.0765 -0.4538  0.4319
  336MPD2     H 5044   2.378   1.638  15.731 -0.1714 -1.4372  1.2554
  336MPD2    H1 5045   2.175   1.573  16.109 -0.1069 -0.8604 -0.3362
  336MPD2    H2 5046   2.188   1.956  15.944 -0.7169 -0.3235  1.9542
  336MPD2    H3 5047   2.125   1.796  16.115 -3.2668 -0.4353 -1.8021
  336MPD2     N 5048   2.313   1.450  15.916 -0.9046 -0.4334 -0.2968
  336MPD2    H5 5049   2.284   1.397  15.997  2.7442 -0.4881  0.9974
  336MPD2    N1 5050   2.310   1.895  15.717 -0.5625 -0.0519 -0.0857
  336MPD2    H7 5051   2.357   1.854  15.636 -1.5273 -0.8584 -0.2256
  337TMC3    C1 5052   2.270   2.077  15.573  0.4094 -0.9148  0.7940
  337TMC3    C2 5053   2.163   2.165  15.551  0.3894 -0.0995 -0.0509
  337TMC3    C3 5054   2.105   2.176  15.429 -0.3329  0.4000 -0.2111
  337TMC3    C4 5055   2.318   2.008  15.473 -0.6228 -0.4149  0.2161
  337TMC3    C5 5056   2.274   2.028  15.349  0.2447 -0.3634  0.6472
  337TMC3    C6 5057   2.158   2.104  15.330 -0.0782  0.4737 -0.1271
  337TMC3     C 5058   2.268   2.028  15.711 -0.2324 -0.5419  0.3040
  337TMC3     O 5059   2.218   2.098  15.798  0.2963  0.7615  0.2594
  337TMC3     H 5060   2.129   2.228  15.632 -0.1119 -1.8199  1.0849
  337TMC3    H1 5061   2.400   1.937  15.486 -1.7616 -1.5860  1.0201
  337TMC3    H2 5062   2.108   2.101  15.233 -0.8257 -1.4307  0.3129
  337TMC3    C7 5063   2.321   1.940  15.247  0.4744 -0.2534  0.3565
  337TMC3    C8 5064   1.970   2.225  15.420  0.7950 -0.7013  0.2239
  337TMC3    O1 5065   2.367   1.836  15.285 -0.6074  0.8140  0.1476
  337TMC3    O2 5066   1.945   2.304  15.512  0.0929 -0.1000 -0.1868
  338MPD2     C 5067   2.921   0.666   0.684 -0.7349 -0.0374  0.0578
  338MPD2    C1 5068   2.880   0.704   0.558  0.3316  0.0822  0.0094
  338MPD2    C2 5069   2.754   0.673   0.509 -0.8383  0.3787  0.7365
  338MPD2    C3 5070   2.665   0.600   0.577 -0.2746  0.0434 -0.3703
  338MPD2    C4 5071   2.712   0.552   0.697  0.4003  0.8506 -0.2026
  338MPD2    C5 5072   2.833   0.587   0.749  0.4966  0.2707 -0.4005
  338MPD2     H 5073   2.720   0.712   0.414  2.5607  0.4347 -0.4641
  338MPD2    H1 5074   2.645   0.505   0.768 -1.8262 -0.9667 -3.4541
  338MPD2    H2 5075   3.024   0.669   0.720 -1.0947  2.0571  0.9128
  338MPD2    H3 5076   2.859   0.554   0.849  0.5301 -1.3607 -0.9543
  338MPD2     N 5077   2.530   0.598   0.530  0.4126  0.0921  0.0581
  338MPD2    H5 5078   2.499   0.638   0.442 -0.2905  0.2474  0.3862
  338MPD2    N1 5079   2.957   0.785   0.470 -0.0294  0.0255 -0.2919
  338MPD2    H7 5080   2.904   0.815   0.388 -0.7752  1.8145  0.8675
  339TMC3    C1 5081   2.295   0.536   0.518 -0.2712  0.7941 -0.7027
  339TMC3    C2 5082   2.187   0.466   0.573  0.0042  1.0832 -0.1574
  339TMC3    C3 5083   2.060   0.492   0.522 -0.0511  0.1969  0.1313
  339TMC3    C4 5084   2.283   0.642   0.434  0.2586  0.7512 -0.2120
  339TMC3    C5 5085   2.157   0.671   0.391 -0.2409  0.3841  0.0407
  339TMC3    C6 5086   2.048   0.589   0.429  0.2090 -0.1114 -0.7613
  339TMC3     C 5087   2.429   0.525   0.585  0.0091  0.5862  0.0701
  339TMC3     O 5088   2.428   0.453   0.689  0.0858  0.4644 -0.4150
  339TMC3     H 5089   2.200   0.395   0.654  0.8744  0.1692 -1.0911
  339TMC3    H1 5090   2.363   0.712   0.410  3.0322 -1.6512  2.1579
  339TMC3    H2 5091   1.949   0.601   0.387  0.5261 -1.7604 -1.9712
  339TMC3    C7 5092   2.156   0.755   0.275 -0.4474  0.0801  0.3089
  339TMC3    C8 5093   1.934   0.433   0.565  0.3014 -0.3699 -0.1354
  339TMC3    O1 5094   2.259   0.751   0.211  0.0299  0.4983  0.6505
  339TMC3    O2 5095   1.829   0.484   0.540  0.7405  0.1806  0.0443
  340MPD2     C 5096   3.171   3.739   9.894 -0.0438 -0.2326  0.1343
  340MPD2    C1 5097   3.133   3.633   9.985 -0.1255  0.2201  0.3160
  340MPD2    C2 5098   3.064   3.667  10.101 -0.1361  0.0532 -0.2424
  340MPD2    C3 5099   3.023   3.801  10.123 -0.7974 -0.0892  0.0558
  340MPD2    C4 5100   3.060   3.893  10.028 -0.1302 -0.0989 -0.2698
  340MPD2    C5 5101   3.132   3.870   9.916  0.0624  0.0770 -0.6230
  340MPD2     H 5102   3.042   3.594  10.178 -0.9041 -0.4361 -0.9234
  340MPD2    H1 5103   3.033   3.997  10.047  0.6296 -0.1270  0.9552
  340MPD2    H2 5104   3.231   3.721   9.805  1.0946 -0.0836  0.8635
  340MPD2    H3 5105   3.170   3.955   9.861  0.1895  0.5590  0.2193
  340MPD2     N 5106   2.951   3.843  10.235  0.0564 -0.7362  0.6606
  340MPD2    H5 5107   2.921   3.940  10.224  1.2194 -0.1694  2.4746
  340MPD2    N1 5108   3.163   3.497   9.937  0.1637 -0.1475 -0.3421
  340MPD2    H7 5109   3.211   3.484   9.849 -2.6297  2.0918 -2.2074
  341TMC3    C1 5110   3.203   3.265   9.962  0.4533  0.3190 -0.0706
  341TMC3    C2 5111   3.130   3.154   9.972  0.0247 -0.1401  0.1299
  341TMC3    C3 5112   3.189   3.040   9.914 -1.1592 -0.0030 -0.4992
  341TMC3    C4 5113   3.317   3.281   9.889 -0.6967  0.5244 -0.6565
  341TMC3    C5 5114   3.369   3.164   9.834 -0.5001  1.2924  0.7165
  341TMC3    C6 5115   3.304   3.041   9.844 -0.2175 -0.4533 -0.3043
  341TMC3     C 5116   3.147   3.385  10.020  0.6024  0.4334 -0.2479
  341TMC3     O 5117   3.070   3.367  10.115 -0.2966 -0.0165  0.2864
  341TMC3     H 5118   3.035   3.150  10.025  0.0194  1.9840  0.2488
  341TMC3    H1 5119   3.383   3.367   9.894  1.3996 -0.9864 -2.4212
  341TMC3    H2 5120   3.364   2.956   9.812 -0.6602  0.1229 -2.6744
  341TMC3    C7 5121   3.480   3.180   9.743  0.5295  0.1626  0.2780
  341TMC3    C8 5122   3.106   2.929   9.920  0.4645  0.0118 -0.9116
  341TMC3    O1 5123   3.549   3.279   9.770 -0.7095 -0.3084  0.5322
  341TMC3    O2 5124   3.045   2.919  10.026 -0.0775 -0.4419 -0.6313
  342MPD2     C 5125   0.526   1.977  17.528  0.4386 -0.7965 -0.5135
  342MPD2    C1 5126   0.646   1.971  17.461  0.5172  0.1691 -0.0196
  342MPD2    C2 5127   0.711   2.089  17.445 -0.4065 -0.0234 -1.0330
  342MPD2    C3 5128   0.659   2.205  17.495 -0.2462 -0.1156 -0.3238
  342MPD2    C4 5129   0.549   2.203  17.568 -0.3715 -0.2772  0.0236
  342MPD2    C5 5130   0.475   2.089  17.585 -0.5510 -0.0795  0.1922
  342MPD2     H 5131   0.792   2.096  17.374 -1.6004 -1.6042 -2.5520
  342MPD2    H1 5132   0.516   2.290  17.624 -0.6127 -0.4677  0.1786
  342MPD2    H2 5133   0.464   1.889  17.541  1.8293 -1.2929  2.8989
  342MPD2    H3 5134   0.387   2.093  17.649  1.5302 -0.7867  3.1076
  342MPD2     N 5135   0.717   2.331  17.479  0.6608  0.2293  0.5674
  342MPD2    H5 5136   0.674   2.412  17.524 -0.3455  0.3024 -0.5441
  342MPD2    N1 5137   0.704   1.863  17.403 -0.0492  0.5865 -0.2820
  342MPD2    H7 5138   0.792   1.871  17.354  0.3670  3.1387  0.8843
  343TMC3    C1 5139   0.761   1.634  17.376  0.0284  0.1274  0.0888
  343TMC3    C2 5140   0.796   1.644  17.245  0.1585 -0.5229  0.7062
  343TMC3    C3 5141   0.860   1.533  17.187 -0.3758  0.2799 -0.2717
  343TMC3    C4 5142   0.766   1.516  17.448 -0.1675 -1.2645 -0.2723
  343TMC3    C5 5143   0.810   1.404  17.375 -0.2715  0.3601  0.3954
  343TMC3    C6 5144   0.869   1.418  17.258 -0.5193  0.5146  0.5790
  343TMC3     C 5145   0.678   1.734  17.441  0.5271  0.1810 -0.4587
  343TMC3     O 5146   0.606   1.698  17.532 -0.2436  0.4401 -0.5334
  343TMC3     H 5147   0.812   1.742  17.200 -0.6855  0.0052  1.5564
  343TMC3    H1 5148   0.733   1.509  17.551 -2.8907 -1.8582 -1.1823
  343TMC3    H2 5149   0.918   1.333  17.212 -2.2236  1.5423 -3.1611
  343TMC3    C7 5150   0.827   1.274  17.445 -0.3451  1.0044  0.6723
  343TMC3    C8 5151   0.924   1.550  17.057 -0.1404 -0.0244 -0.4155
  343TMC3    O1 5152   0.856   1.265  17.566  0.3408  0.4121  0.3887
  343TMC3    O2 5153   0.873   1.618  16.968 -0.1158 -0.2019  0.0300
  344MPD2     C 5154   1.290   1.738  10.440 -1.1218  0.2818 -0.2806
  344MPD2    C1 5155   1.414   1.695  10.484 -0.0947 -0.1251 -0.4002
  344MPD2    C2 5156   1.518   1.784  10.490 -0.1548  0.0117 -0.5341
  344MPD2    C3 5157   1.504   1.917  10.458  0.2962 -0.5430 -0.1595
  344MPD2    C4 5158   1.377   1.959  10.418  0.3057 -0.1927 -0.0602
  344MPD2    C5 5159   1.277   1.869  10.408  0.3396  1.0168  0.5599
  344MPD2     H 5160   1.616   1.747  10.520  0.0618  0.4513 -0.7025
  344MPD2    H1 5161   1.365   2.064  10.395  1.5073  0.0635  0.4900
  344MPD2    H2 5162   1.204   1.674  10.426 -1.0527 -0.0411  0.7211
  344MPD2    H3 5163   1.178   1.907  10.384 -0.3006 -0.8325  0.2190
  344MPD2     N 5164   1.613   2.008  10.459 -0.8570 -0.2314  0.3195
  344MPD2    H5 5165   1.599   2.095  10.408  1.3917  0.5683  1.0424
  344MPD2    N1 5166   1.441   1.559  10.519  0.5573  0.5938  0.0806
  344MPD2    H7 5167   1.526   1.541  10.571 -0.9129  1.6263  2.7933
  345TMC3    C1 5168   1.830   2.109  10.513  0.5007  0.3781  0.5384
  345TMC3    C2 5169   1.902   2.148  10.627  0.0629 -0.1944 -0.2063
  345TMC3    C3 5170   1.984   2.259  10.625 -0.0563 -0.3581  0.3882
  345TMC3    C4 5171   1.835   2.187  10.397  0.3003  0.2156  0.1335
  345TMC3    C5 5172   1.919   2.292  10.403  0.3369 -0.1749 -0.4671
  345TMC3    C6 5173   1.991   2.333  10.508 -0.0574 -0.6045  0.0701
  345TMC3     C 5174   1.732   1.996  10.527  0.1079 -0.0680 -0.1036
  345TMC3     O 5175   1.756   1.913  10.618  0.1825 -0.0320 -0.1459
  345TMC3     H 5176   1.886   2.094  10.720  0.6040  0.4830  0.2792
  345TMC3    H1 5177   1.790   2.154  10.305 -1.4446  0.3601  0.9379
  345TMC3    H2 5178   2.067   2.406  10.484 -0.7267  0.4063  1.0415
  345TMC3    C7 5179   1.931   2.369  10.273 -0.0673  0.0784  0.0613
  345TMC3    C8 5180   1.969   2.342  10.740 -0.3314  0.3085 -0.2576
  345TMC3    O1 5181   1.988   2.478  10.275  0.9089 -0.6231 -0.4072
  345TMC3    O2 5182   1.907   2.288  10.835 -0.2494 -0.1370  0.0943
  346MPD2     C 5183   1.483   3.310  14.443  0.3022  0.2170 -0.0029
  346MPD2    C1 5184   1.562   3.406  14.384 -0.5982 -0.1423  0.5518
  346MPD2    C2 5185   1.656   3.477  14.466  0.4166 -0.2852 -0.3961
  346MPD2    C3 5186   1.665   3.445  14.599 -0.5121 -0.1647  0.3753
  346MPD2    C4 5187   1.578   3.359  14.654  0.7982  0.3829 -0.4258
  346MPD2    C5 5188   1.500   3.280  14.575  0.0512 -0.2231  0.0418
  346MPD2     H 5189   1.727   3.542  14.416  0.7100 -0.1836  0.1519
  346MPD2    H1 5190   1.573   3.338  14.761  0.5082 -2.5095 -0.9964
  346MPD2    H2 5191   1.411   3.257  14.381  0.2837  2.4609 -1.8770
  346MPD2    H3 5192   1.440   3.205  14.627  1.2858  0.3090  2.2451
  346MPD2     N 5193   1.772   3.496  14.672 -0.5691 -0.0518  0.0508
  346MPD2    H5 5194   1.841   3.555  14.627 -1.9026  1.0001 -0.6197
  346MPD2    N1 5195   1.545   3.434  14.244  0.4958 -0.0795 -0.1334
  346MPD2    H7 5196   1.600   3.510  14.206  2.0977 -0.5981  1.1126
  347TMC3    C1 5197   1.933   3.524  14.850  0.4095  0.0516 -0.6845
  347TMC3    C2 5198   1.972   3.639  14.797 -0.6827 -0.4937  0.0057
  347TMC3    C3 5199   2.038   3.728  14.884 -0.2240  0.5391 -0.4394
  347TMC3    C4 5200   1.966   3.489  14.980  0.3873 -0.2191  0.2134
  347TMC3    C5 5201   2.031   3.580  15.061  0.4265 -0.0512  0.8246
  347TMC3    C6 5202   2.066   3.708  15.015 -0.0013 -0.0910  0.2962
  347TMC3     C 5203   1.798   3.470  14.808 -0.6081 -0.4559 -0.1840
  347TMC3     O 5204   1.759   3.373  14.870 -0.3196  0.4178 -0.4109
  347TMC3     H 5205   1.949   3.666  14.695  0.9695 -0.1882 -0.2922
  347TMC3    H1 5206   1.953   3.386  15.010  0.2113 -0.7564 -1.6880
  347TMC3    H2 5207   2.124   3.778  15.073  0.3140 -0.4549  0.4181
  347TMC3    C7 5208   2.125   3.516  15.151 -0.6302  0.1592 -0.1520
  347TMC3    C8 5209   2.128   3.824  14.829 -0.5800  0.1930 -0.2844
  347TMC3    O1 5210   2.175   3.413  15.106  0.0423  0.1108 -0.0544
  347TMC3    O2 5211   2.148   3.933  14.889 -0.2704 -0.1516  0.0371
  348MPD2     C 5212   4.648   3.249  12.024 -0.1392 -0.1554  0.0902
  348MPD2    C1 5213   0.005   3.180  11.940 -0.0867  0.4071 -0.8271
  348MPD2    C2 5214   0.027   3.219  11.812  0.3455  0.0228  0.0644
  348MPD2    C3 5215   4.714   3.350  11.775 -0.1655  0.2846 -0.2362
  348MPD2    C4 5216   4.639   3.425  11.860 -0.7362 -1.1942 -0.6087
  348MPD2    C5 5217   4.612   3.376  11.987  0.7636  0.1989  0.0792
  348MPD2     H 5218   0.090   3.163  11.745  0.6632  0.8980 -0.3580
  348MPD2    H1 5219   4.608   3.526  11.837  0.0996 -1.1878 -1.7429
  348MPD2    H2 5220   4.632   3.227  12.129  1.7414  0.7362  0.5611
  348MPD2    H3 5221   4.571   3.443  12.061 -1.4220  0.4768 -1.3856
  348MPD2     N 5222   0.008   3.393  11.638  0.3195 -0.0834  0.4994
  348MPD2    H5 5223   0.041   3.323  11.573  0.4659  1.4532 -1.0965
  348MPD2    N1 5224   0.071   3.057  11.984  0.2831 -0.7497  0.1818
  348MPD2    H7 5225   0.134   3.023  11.913 -0.9964 -1.2695 -0.6882
  349TMC3    C1 5226   0.206   2.931  12.110  0.8677  0.8129  0.2222
  349TMC3    C2 5227   0.225   2.799  12.109 -0.3820  0.4865  0.5439
  349TMC3    C3 5228   0.354   2.762  12.086 -0.0480 -0.8088 -0.3294
  349TMC3    C4 5229   0.304   3.029  12.096 -0.1359 -0.6229 -0.3184
  349TMC3    C5 5230   0.439   2.980  12.085 -0.7261 -0.3398  0.6605
  349TMC3    C6 5231   0.456   2.849  12.083  0.4586  0.1990  0.1385
  349TMC3     C 5232   0.075   2.995  12.101 -0.0963  0.1947  0.4328
  349TMC3     O 5233   0.003   3.016  12.197 -0.7188  0.3215 -0.1624
  349TMC3     H 5234   0.143   2.738  12.144 -0.1878 -0.0852 -0.0111
  349TMC3    H1 5235   0.272   3.132  12.099  0.8771 -0.3746  2.2553
  349TMC3    H2 5236   0.556   2.810  12.069  0.2491 -0.0719 -0.6148
  349TMC3    C7 5237   0.519   3.046  11.982  0.2905 -0.1512 -0.2801
  349TMC3    C8 5238   0.379   2.623  12.119 -0.2231 -0.5790 -0.1275
  349TMC3    O1 5239   0.578   2.981  11.898  0.1095 -0.1669 -0.1250
  349TMC3    O2 5240   0.294   2.573  12.190  0.8707  0.6976  0.0234
  350MPD2     C 5241   4.502   1.520   9.379  0.0585  0.7032 -0.8590
  350MPD2    C1 5242   4.577   1.405   9.396  0.5080 -0.3184 -0.2461
  350MPD2    C2 5243   4.533   1.298   9.476 -0.0604  0.0808 -0.5803
  350MPD2    C3 5244   4.421   1.306   9.550 -0.4987 -0.3290 -0.6204
  350MPD2    C4 5245   4.342   1.419   9.537  0.8532 -0.0436  0.1661
  350MPD2    C5 5246   4.384   1.518   9.454 -0.2598 -0.1323  0.2743
  350MPD2     H 5247   4.601   1.214   9.482 -2.7656 -2.2500 -2.9565
  350MPD2    H1 5248   4.254   1.432   9.599  0.7655 -0.9439  0.2266
  350MPD2    H2 5249   4.530   1.614   9.334  0.7541  1.5136  1.2604
  350MPD2    H3 5250   4.319   1.605   9.452 -1.1955 -0.8071  0.8551
  350MPD2     N 5251   4.403   1.202   9.645 -0.3049  0.2572  0.4702
  350MPD2    H5 5252   4.455   1.115   9.639 -1.2354 -0.2944  0.4564
  350MPD2    N1 5253   4.710   1.395   9.343 -0.1625 -0.3295 -0.3144
  350MPD2    H7 5254   0.022   1.302   9.357 -2.3164 -1.3043 -0.8946
  351TMC3    C1 5255   0.185   1.445   9.245 -0.2899  0.0895 -0.4810
  351TMC3    C2 5256   0.224   1.314   9.257 -0.1192 -0.3524 -0.4699
  351TMC3    C3 5257   0.363   1.288   9.245  0.5639  0.9363 -0.1190
  351TMC3    C4 5258   0.273   1.544   9.208  0.6679  0.4843  0.3200
  351TMC3    C5 5259   0.405   1.514   9.191 -0.2470  0.3869  0.4040
  351TMC3    C6 5260   0.457   1.384   9.217 -0.0725  0.2215 -0.3196
  351TMC3     C 5261   0.053   1.493   9.279 -0.1777 -0.1888  0.1832
  351TMC3     O 5262   0.020   1.604   9.245 -0.3655 -0.2902 -0.2159
  351TMC3     H 5263   0.153   1.235   9.281 -0.3972  0.3105  0.8603
  351TMC3    H1 5264   0.243   1.648   9.211 -0.6253  0.0624  2.0027
  351TMC3    H2 5265   0.565   1.369   9.215  0.2253  2.3185 -0.4605
  351TMC3    C7 5266   0.491   1.625   9.169 -0.2254  0.4739 -0.1739
  351TMC3    C8 5267   0.398   1.159   9.302  0.3649 -0.4421 -0.0687
  351TMC3    O1 5268   0.446   1.737   9.197 -0.0268  0.8770  0.0568
  351TMC3    O2 5269   0.314   1.076   9.319  0.5823  0.5742  0.5501
  352MPD2     C 5270   3.547   2.885   0.758 -0.7681  0.1946 -0.4750
  352MPD2    C1 5271   3.465   2.872   0.866 -0.4494 -0.1859  0.1862
  352MPD2    C2 5272   3.442   2.751   0.919 -0.0332  0.4526  0.5033
  352MPD2    C3 5273   3.506   2.641   0.866  0.3595  0.5695  0.1706
  352MPD2    C4 5274   3.595   2.649   0.763  0.2406  0.3456  0.9915
  352MPD2    C5 5275   3.607   2.775   0.700 -0.2909  1.0616 -0.3076
  352MPD2     H 5276   3.363   2.737   0.992  1.0719 -0.1413  1.5787
  352MPD2    H1 5277   3.652   2.568   0.720  0.5499  0.6454  0.8283
  352MPD2    H2 5278   3.570   2.982   0.715  0.7804  0.0489  0.0382
  352MPD2    H3 5279   3.680   2.785   0.621 -0.3901  2.2688 -0.2446
  352MPD2     N 5280   3.486   2.516   0.919  0.4791  0.8415 -0.5386
  352MPD2    H5 5281   3.535   2.440   0.872  0.3693 -0.5356  1.5824
  352MPD2    N1 5282   3.405   2.993   0.919 -0.1245  0.2222  0.6149
  352MPD2    H7 5283   3.423   3.079   0.868 -2.0208 -0.4889 -1.2491
  353TMC3    C1 5284   3.418   2.338   1.053  0.1853 -0.0149 -0.0982
  353TMC3    C2 5285   3.525   2.266   1.011 -0.4547 -0.4320 -0.4343
  353TMC3    C3 5286   3.517   2.130   1.026 -0.4881 -0.9448 -0.0978
  353TMC3    C4 5287   3.316   2.284   1.126  0.1891  0.0285  0.1017
  353TMC3    C5 5288   3.315   2.145   1.127  0.2443  0.4891  0.1368
  353TMC3    C6 5289   3.415   2.062   1.091 -0.3756  0.2931 -0.2906
  353TMC3     C 5290   3.402   2.479   1.013  0.3554  0.6846  0.5121
  353TMC3     O 5291   3.307   2.545   1.061 -0.6990  0.0784  0.4138
  353TMC3     H 5292   3.604   2.299   0.944 -1.7059  2.3272 -0.5740
  353TMC3    H1 5293   3.225   2.344   1.133  0.1291 -0.0665  0.1369
  353TMC3    H2 5294   3.392   1.956   1.091  0.6136  0.0780  0.6008
  353TMC3    C7 5295   3.202   2.076   1.200 -0.0579  0.8843  0.1267
  353TMC3    C8 5296   3.644   2.066   1.017 -0.2751 -0.4989  0.1463
  353TMC3    O1 5297   3.206   1.956   1.200  0.3643 -0.1515  0.7496
  353TMC3    O2 5298   3.742   2.116   0.960  0.2590  0.9032  0.5883
  354TMC3    C1 5299   3.652   4.438  13.030  0.2395 -0.0019 -0.2438
  354TMC3    C2 5300   3.652   4.571  12.987 -0.6703  0.1370 -0.1638
  354TMC3    C3 5301   3.613   4.589  12.861  0.9120 -0.6054 -0.4715
  354TMC3    C4 5302   3.595   4.337  12.954 -0.2533 -0.4046  0.4993
  354TMC3    C5 5303   3.565   4.366  12.823  0.2999 -0.1913 -0.4774
  354TMC3    C6 5304   3.568   4.493  12.777  0.2111  0.1163  0.4101
  354TMC3     C 5305   3.642   4.415  13.176 -0.2838  0.0463  0.0627
  354TMC3     O 5306   3.573   4.325  13.225  0.0059 -0.1118 -0.0541
  354TMC3     H 5307   3.683   4.656  13.048 -2.3415 -0.1491  1.0928
  354TMC3    H1 5308   3.613   4.237  12.991  0.8309 -0.1897  0.5433
  354TMC3    H2 5309   3.514   4.528  12.689 -2.4729  0.0676  2.0256
  354TMC3    C7 5310   3.625   4.279  12.727  0.1854 -0.9701  0.1546
  354TMC3    C8 5311   3.663   4.704  12.783  0.2176  0.3000 -0.2333
  354TMC3    O1 5312   3.618   4.161  12.744 -0.4514 -0.3867  0.0149
  354TMC3    O2 5313   3.706   4.675  12.673 -0.0495 -0.4525  0.2960
  355MPD2     C 5314   4.148   0.598  11.432  0.3140 -0.1023 -0.0371
  355MPD2    C1 5315   4.261   0.598  11.347 -0.3496  0.5023 -0.5505
  355MPD2    C2 5316   4.378   0.534  11.391 -0.7349 -0.3966 -0.6563
  355MPD2    C3 5317   4.381   0.480  11.517 -0.7421  0.5173 -0.0693
  355MPD2    C4 5318   4.275   0.497  11.600  0.2331  0.2948  0.1725
  355MPD2    C5 5319   4.161   0.543  11.556 -0.3747  0.0259  0.5274
  355MPD2     H 5320   4.463   0.537  11.325  0.4383 -2.6897  0.7620
  355MPD2    H1 5321   4.281   0.440  11.692 -1.3423 -1.1718 -0.6388
  355MPD2    H2 5322   4.050   0.633  11.400  0.4995 -0.0088 -0.5111
  355MPD2    H3 5323   4.077   0.548  11.623  2.3394  0.7188  3.8669
  355MPD2     N 5324   4.502   0.428  11.568  0.1074  0.4259 -0.3274
  355MPD2    H5 5325   4.523   0.420  11.667  0.0229 -3.9278 -0.6520
  355MPD2    N1 5326   4.265   0.666  11.226 -0.0663  0.2259 -0.5923
  355MPD2    H7 5327   4.342   0.634  11.167  1.4499  0.6629  1.1528
  356TMC3    C1 5328   0.007   0.465  11.536 -0.3625 -0.9790  0.1567
  356TMC3    C2 5329   0.094   0.494  11.438  0.1950  0.4148 -0.1576
  356TMC3    C3 5330   0.167   0.607  11.432 -0.1929 -0.3980 -0.2226
  356TMC3    C4 5331   0.008   0.552  11.646  0.7157  0.0259  0.8509
  356TMC3    C5 5332   0.085   0.666  11.648  0.3618  0.4678  0.3072
  356TMC3    C6 5333   0.151   0.703  11.530  0.4597  0.8896  0.1018
  356TMC3     C 5334   4.608   0.397  11.494 -0.3221  0.5878  1.0207
  356TMC3     O 5335   4.606   0.343  11.386  0.0920 -0.1451  0.0235
  356TMC3     H 5336   0.094   0.430  11.351 -0.4790  2.0573 -1.3737
  356TMC3    H1 5337   4.668   0.536  11.731  2.1914  1.9385  2.3535
  356TMC3    H2 5338   0.220   0.786  11.541  2.6004 -0.7303 -1.1616
  356TMC3    C7 5339   0.041   0.772  11.733  0.0104 -0.1300 -0.0442
  356TMC3    C8 5340   0.247   0.636  11.319 -0.3867 -0.4735  0.6349
  356TMC3    O1 5341   4.668   0.754  11.797  0.1043 -0.1909  0.3343
  356TMC3    O2 5342   0.274   0.540  11.244  0.3211  0.1208 -0.5302
  357MPD2     C 5343   4.593   0.025   0.682 -0.4312  0.4910  0.0851
  357MPD2    C1 5344   4.652   4.708   0.797 -0.1758  1.0755  0.4175
  357MPD2    C2 5345   4.669   0.074   0.902 -0.6359 -0.0875  0.3290
  357MPD2    C3 5346   4.602   0.196   0.895 -0.2940 -0.0635  0.5597
  357MPD2    C4 5347   4.549   0.240   0.778  0.1527  0.4284  0.2177
  357MPD2    C5 5348   4.550   0.157   0.674  0.5186 -0.5101  0.6379
  357MPD2     H 5349   4.720   0.043   0.992 -0.8938  2.5649  1.3610
  357MPD2    H1 5350   4.507   0.338   0.765  1.5028  0.8608 -0.8738
  357MPD2    H2 5351   4.584   4.684   0.597  0.3216  0.1350  0.2887
  357MPD2    H3 5352   4.534   0.195   0.574 -0.6750 -2.8162 -0.0552
  357MPD2     N 5353   4.575   0.289   1.003 -0.2058 -0.4163 -0.5741
  357MPD2    H5 5354   4.536   0.377   0.971 -2.8911 -1.2317  0.4019
  357MPD2    N1 5355   4.695   4.575   0.813  0.0730 -0.1885 -0.3132
  357MPD2    H7 5356   4.677   4.513   0.734 -2.3258  1.0328 -0.7236
  358TMC3    C1 5357   0.046   4.372   0.891 -0.5277 -0.0694 -0.0330
  358TMC3    C2 5358   4.684   4.312   0.806 -0.1239 -0.6966 -0.2883
  358TMC3    C3 5359   4.705   4.194   0.760 -0.0121 -0.2229 -0.6867
  358TMC3    C4 5360   0.157   4.309   0.938  0.0815 -0.2708  0.4158
  358TMC3    C5 5361   0.167   4.180   0.893 -0.4880 -0.5243  0.0742
  358TMC3    C6 5362   0.081   4.120   0.799 -0.0042 -0.0172  0.8222
  358TMC3     C 5363   0.027   4.511   0.921  0.2039  0.0217 -0.0204
  358TMC3     O 5364   0.069   4.549   1.027  0.0681 -0.4519  0.0628
  358TMC3     H 5365   4.596   4.366   0.775 -0.2023 -0.5045  0.2803
  358TMC3    H1 5366   0.234   4.372   0.980 -0.8623  1.5049 -0.5467
  358TMC3    H2 5367   0.102   4.023   0.756  1.6158  0.8849 -0.4221
  358TMC3    C7 5368   0.288   4.113   0.913 -0.0943  0.7289 -1.3032
  358TMC3    C8 5369   4.625   4.157   0.645  0.2775 -0.3563  0.1935
  358TMC3    O1 5370   0.318   4.032   0.830  0.6960 -0.2107  0.6792
  358TMC3    O2 5371   4.575   4.247   0.578  0.1679 -0.5784  0.0243
  359MPD2     C 5372   4.491   4.087  12.392 -0.1860  0.5236  0.5820
  359MPD2    C1 5373   4.406   4.042  12.297 -0.3812  0.0112  0.6757
  359MPD2    C2 5374   4.300   3.963  12.334  0.0493  0.1044 -0.4149
  359MPD2    C3 5375   4.270   3.942  12.470  0.0447  0.2898  0.1000
  359MPD2    C4 5376   4.346   4.005  12.563 -0.4913  0.2482  0.7660
  359MPD2    C5 5377   4.456   4.074  12.520  0.0381  0.2420  0.0762
  359MPD2     H 5378   4.245   3.915  12.253  1.0318 -0.0054 -1.0108
  359MPD2    H1 5379   4.321   4.003  12.668 -3.3301  2.5007  0.1455
  359MPD2    H2 5380   4.579   4.142  12.362  0.8559 -2.0256 -1.0599
  359MPD2    H3 5381   4.514   4.115  12.602 -0.5603 -0.1560  0.7017
  359MPD2     N 5382   4.166   3.858  12.527  0.5916  0.1076  0.1061
  359MPD2    H5 5383   4.163   3.859  12.628  3.5102 -0.2444  0.1778
  359MPD2    N1 5384   4.428   4.060  12.160  0.7505 -0.5963  0.1501
  359MPD2    H7 5385   4.355   4.029  12.097  1.9221 -0.0851 -1.4311
  360TMC3    C1 5386   4.520   4.125  11.954  0.2248 -0.1729 -0.1068
  360TMC3    C2 5387   4.603   4.215  11.902  0.2106 -0.6492 -0.0215
  360TMC3    C3 5388   4.555   4.273  11.783 -0.9725 -0.0842 -0.6264
  360TMC3    C4 5389   4.404   4.083  11.903  0.0190 -0.3542 -0.1542
  360TMC3    C5 5390   4.367   4.135  11.779  0.4251  0.4361  0.0237
  360TMC3    C6 5391   4.436   4.241  11.721  0.3275 -0.2716 -0.7300
  360TMC3     C 5392   4.539   4.109  12.100  0.8232  0.0781  0.1256
  360TMC3     O 5393   4.640   4.154  12.153 -0.4466 -0.2460  0.4239
  360TMC3     H 5394   4.708   4.227  11.926  0.3637  0.1665 -1.0784
  360TMC3    H1 5395   4.363   3.992  11.947 -2.6652  1.1124  0.3556
  360TMC3    H2 5396   4.414   4.280  11.622  1.9314 -1.2660 -1.4774
  360TMC3    C7 5397   4.265   4.065  11.712  0.2711  0.1947 -0.0500
  360TMC3    C8 5398   4.639   4.365  11.713  0.1110 -0.2383  0.4301
  360TMC3    O1 5399   4.188   3.989  11.776 -0.7846  0.4405 -0.2730
  360TMC3    O2 5400   4.574   4.448  11.652 -1.0394  0.7624 -0.3297
  361MPD2     C 5401   1.816   2.783  17.244 -0.5847 -0.2769 -0.8107
  361MPD2    C1 5402   1.802   2.696  17.138  0.1711 -0.3649 -0.5135
  361MPD2    C2 5403   1.884   2.588  17.121  0.0695  0.0173 -0.3906
  361MPD2    C3 5404   1.995   2.574  17.199  1.0139 -0.0367  0.6462
  361MPD2    C4 5405   2.011   2.665  17.299  0.8597  0.4055  0.2592
  361MPD2    C5 5406   1.927   2.773  17.321 -0.1752  0.4873 -0.0887
  361MPD2     H 5407   1.863   2.518  17.041 -3.5139 -0.1631  0.7458
  361MPD2    H1 5408   2.103   2.654  17.355  1.8233 -1.1529 -1.6055
  361MPD2    H2 5409   1.738   2.854  17.271 -0.7018 -0.9977  0.7374
  361MPD2    H3 5410   1.943   2.841  17.404 -1.1411 -0.5195  0.9003
  361MPD2     N 5411   2.097   2.469  17.183  0.6808  0.1479  0.1538
  361MPD2    H5 5412   2.187   2.485  17.228  0.4499  2.8660 -0.3344
  361MPD2    N1 5413   1.691   2.702  17.052 -0.2293 -0.2658  0.3191
  361MPD2    H7 5414   1.683   2.632  16.979  0.1285 -0.2929  0.3067
  362TMC3    C1 5415   1.476   2.757  16.986  0.0106  0.1169  0.2070
  362TMC3    C2 5416   1.351   2.726  17.037 -0.0666  0.6261 -0.2409
  362TMC3    C3 5417   1.245   2.750  16.955  0.6574 -0.0995 -0.4901
  362TMC3    C4 5418   1.485   2.806  16.856 -0.0528  0.6908  0.4485
  362TMC3    C5 5419   1.374   2.817  16.771 -0.0816 -0.2931 -0.4401
  362TMC3    C6 5420   1.258   2.775  16.816 -0.3242  0.2592 -0.0850
  362TMC3     C 5421   1.572   2.761  17.093  0.5685 -0.1142  0.3124
  362TMC3     O 5422   1.531   2.816  17.197  0.1931 -1.0505 -0.1089
  362TMC3     H 5423   1.336   2.673  17.130 -0.6337  0.2392 -0.5540
  362TMC3    H1 5424   1.581   2.841  16.822  0.2436 -0.1985  0.3793
  362TMC3    H2 5425   1.175   2.798  16.750 -0.0499  1.4694 -0.0015
  362TMC3    C7 5426   1.383   2.873  16.636  0.0152  1.1780 -0.0913
  362TMC3    C8 5427   1.119   2.719  17.015 -0.3088  0.0520 -0.3318
  362TMC3    O1 5428   1.468   2.959  16.626 -0.3113  0.1376  0.0948
  362TMC3    O2 5429   1.111   2.624  17.085 -0.0436  0.2178  0.2877
  363TMC3    C1 5430   0.706   0.904   9.108 -0.4202 -0.1941  0.5738
  363TMC3    C2 5431   0.788   0.815   9.182  0.3245 -0.6418  0.3388
  363TMC3    C3 5432   0.919   0.871   9.210  0.0179  0.1170  0.0132
  363TMC3    C4 5433   0.746   1.030   9.071  0.5434 -0.5028  0.4602
  363TMC3    C5 5434   0.876   1.077   9.103  0.4166  0.1618  0.3119
  363TMC3    C6 5435   0.965   0.990   9.155  1.1404 -0.5253  0.0398
  363TMC3     C 5436   0.575   0.862   9.054  0.0964  0.4898  0.1519
  363TMC3     O 5437   0.515   0.942   8.981 -0.1680 -0.2698  0.1635
  363TMC3     H 5438   0.744   0.727   9.228  0.0200 -0.4869  0.3406
  363TMC3    H1 5439   0.682   1.093   9.010  2.2595  1.7345  0.9553
  363TMC3    H2 5440   1.063   1.024   9.188 -0.0395  1.4801  1.5183
  363TMC3    C7 5441   0.875   1.215   9.150 -0.1251  0.4073 -0.7152
  363TMC3    C8 5442   1.028   0.799   9.271  0.7775 -0.4446  0.2535
  363TMC3    O1 5443   0.762   1.263   9.169  0.2203 -0.8796  0.0126
  363TMC3    O2 5444   1.108   0.864   9.338 -0.0598  0.2391 -0.4203
  364MPD2     C 5445   3.658   0.720   9.746  0.3963  0.1002 -0.0218
  364MPD2    C1 5446   3.785   0.677   9.722  0.3818 -0.4987 -0.0979
  364MPD2    C2 5447   3.821   0.548   9.747 -0.1046  0.3720 -0.8066
  364MPD2    C3 5448   3.744   0.463   9.824  0.2530  0.3102  0.3474
  364MPD2    C4 5449   3.617   0.508   9.852  0.1121  0.6615 -0.3762
  364MPD2    C5 5450   3.568   0.631   9.804  0.2225  0.4516  0.0310
  364MPD2     H 5451   3.918   0.507   9.722 -0.6091 -1.0385 -0.5175
  364MPD2    H1 5452   3.555   0.441   9.910  0.4401 -0.6523 -1.5337
  364MPD2    H2 5453   3.625   0.818   9.714 -0.3044 -0.4518 -0.9838
  364MPD2    H3 5454   3.466   0.663   9.819  0.8056  2.8009 -0.9762
  364MPD2     N 5455   3.783   0.342   9.892 -0.5899  0.1483  0.6270
  364MPD2    H5 5456   3.718   0.294   9.953  0.1628 -0.3378  1.0433
  364MPD2    N1 5457   3.866   0.781   9.674  0.2066 -0.2986 -0.0413
  364MPD2    H7 5458   3.815   0.858   9.631 -1.3918 -1.2394  0.1785
  365TMC3    C1 5459   4.090   0.707   9.740  0.4137  0.3922  0.5214
  365TMC3    C2 5460   4.202   0.668   9.677  0.0755  0.3426  0.0252
  365TMC3    C3 5461   4.291   0.587   9.747 -0.5274  0.2149 -0.1034
  365TMC3    C4 5462   4.060   0.677   9.872  0.4002  0.2907  0.3463
  365TMC3    C5 5463   4.148   0.588   9.934 -0.7919  0.4026  0.7835
  365TMC3    C6 5464   4.261   0.542   9.870 -0.7376 -0.1203  0.1467
  365TMC3     C 5465   3.998   0.793   9.663 -0.5681 -0.0644  0.6295
  365TMC3     O 5466   4.053   0.876   9.593  0.1855  0.1879  0.6920
  365TMC3     H 5467   4.221   0.708   9.579  0.2786 -0.5892 -0.3184
  365TMC3    H1 5468   3.974   0.725   9.916 -0.5230  0.8087 -2.0436
  365TMC3    H2 5469   4.329   0.480   9.927  0.0120  0.3610 -0.2231
  365TMC3    C7 5470   4.125   0.534  10.066 -0.2993 -0.4313  1.2465
  365TMC3    C8 5471   4.377   0.503   9.671  0.6368  0.4742 -0.0649
  365TMC3    O1 5472   4.197   0.441  10.095 -0.8625  0.0441  0.6632
  365TMC3    O2 5473   4.445   0.550   9.588 -0.4242  0.4756  0.2983
  366MPD2     C 5474   2.063   0.901  15.576 -0.5742  0.1110 -0.4840
  366MPD2    C1 5475   2.026   0.936  15.448  0.2367 -0.0412 -0.4558
  366MPD2    C2 5476   1.997   0.832  15.362 -0.2902 -0.3241  0.2144
  366MPD2    C3 5477   1.995   0.697  15.403  0.4824 -0.5125  0.1070
  366MPD2    C4 5478   2.040   0.664  15.529  0.1085  0.4473  0.1932
  366MPD2    C5 5479   2.077   0.765  15.613 -0.1145 -0.2576 -0.3726
  366MPD2     H 5480   1.974   0.855  15.258 -1.1692 -0.1070  0.4597
  366MPD2    H1 5481   2.051   0.560  15.559 -1.3980 -0.4756 -2.4483
  366MPD2    H2 5482   2.054   0.976  15.654 -1.2744  1.2418 -1.6324
  366MPD2    H3 5483   2.121   0.743  15.710  0.1505  0.5560 -0.3066
  366MPD2     N 5484   1.949   0.600  15.320 -0.0079  0.1562  0.5339
  366MPD2    H5 5485   1.991   0.509  15.333 -1.2035 -0.3049  1.1211
  366MPD2    N1 5486   2.037   1.067  15.400 -0.0392  0.8335  0.3597
  366MPD2    H7 5487   2.005   1.091  15.307  0.9016 -0.8777 -0.4123
  367TMC3    C1 5488   2.112   1.284  15.385  0.6289 -0.1985 -0.2339
  367TMC3    C2 5489   2.208   1.378  15.422  0.3354 -0.1881  0.4577
  367TMC3    C3 5490   2.215   1.496  15.346 -0.6130  0.5723 -0.3335
  367TMC3    C4 5491   2.021   1.309  15.279 -0.0621  0.1432 -0.0905
  367TMC3    C5 5492   2.046   1.417  15.208 -0.4963  0.3592 -0.1012
  367TMC3    C6 5493   2.147   1.509  15.229 -0.4695 -0.0745 -0.5823
  367TMC3     C 5494   2.089   1.166  15.469 -0.1819 -0.5729  0.3379
  367TMC3     O 5495   2.141   1.166  15.582  0.8425  0.8075  0.4711
  367TMC3     H 5496   2.274   1.355  15.505 -0.7958  0.6909  1.6138
  367TMC3    H1 5497   1.939   1.240  15.266  0.0420  0.0961 -0.5072
  367TMC3    H2 5498   2.148   1.603  15.174 -0.4910  0.5288  0.4589
  367TMC3    C7 5499   1.949   1.449  15.110 -0.3740 -0.8320 -0.4343
  367TMC3    C8 5500   2.334   1.572  15.371  0.0152  0.2486 -0.3363
  367TMC3    O1 5501   1.948   1.563  15.068  0.7682 -0.0337  0.1424
  367TMC3    O2 5502   2.349   1.615  15.489 -0.1906 -0.0021  0.4437
  368MPD2     C 5503   3.411   2.351  13.250  0.3220  0.0252 -0.2656
  368MPD2    C1 5504   3.332   2.423  13.165 -0.0162  0.1785 -0.5541
  368MPD2    C2 5505   3.398   2.482  13.063 -0.0819 -0.1236  0.0427
  368MPD2    C3 5506   3.521   2.457  13.024  0.3319 -0.7275 -0.1475
  368MPD2    C4 5507   3.602   2.383  13.106  0.0504  0.4444  0.1002
  368MPD2    C5 5508   3.545   2.336  13.225  0.1256 -0.4524 -0.0883
  368MPD2     H 5509   3.337   2.558  13.016 -0.1497  0.3185  0.8584
  368MPD2    H1 5510   3.709   2.366  13.094 -0.2354  0.4670 -2.5490
  368MPD2    H2 5511   3.373   2.300  13.338  0.4338 -1.2749 -0.9685
  368MPD2    H3 5512   3.604   2.273  13.291  0.1571  0.5836  0.8760
  368MPD2     N 5513   3.582   2.518  12.913  0.3462  0.4121 -0.3238
  368MPD2    H5 5514   3.680   2.496  12.896  0.1888  0.8585 -1.8462
  368MPD2    N1 5515   3.199   2.458  13.194 -0.6364  0.0185  0.6365
  368MPD2    H7 5516   3.153   2.515  13.124 -0.5576 -0.1222  0.4709
  369TMC3    C1 5517   2.999   2.514  13.293  0.1867 -0.2432  0.5088
  369TMC3    C2 5518   3.013   2.642  13.242 -0.1860  0.2372 -0.1619
  369TMC3    C3 5519   2.901   2.717  13.210  0.8795 -0.4047  0.3349
  369TMC3    C4 5520   2.874   2.476  13.339 -0.0422  0.5139  0.2411
  369TMC3    C5 5521   2.769   2.564  13.308  0.4493 -0.1821 -0.6878
  369TMC3    C6 5522   2.776   2.681  13.242 -0.4165 -0.6880 -0.0916
  369TMC3     C 5523   3.117   2.428  13.300  0.2832  0.8552  0.5379
  369TMC3     O 5524   3.129   2.360  13.399 -0.1906  0.2933 -0.3253
  369TMC3     H 5525   3.111   2.687  13.227 -0.1737 -0.7395 -2.9141
  369TMC3    H1 5526   2.860   2.375  13.377  2.9504 -0.5222 -1.3891
  369TMC3    H2 5527   2.687   2.730  13.203  0.1515  0.8576  0.5727
  369TMC3    C7 5528   2.641   2.541  13.361 -0.0864 -0.1159  0.6856
  369TMC3    C8 5529   2.900   2.825  13.110 -0.1651 -0.0217  0.2513
  369TMC3    O1 5530   2.547   2.593  13.307  0.0199  0.2934  0.3017
  369TMC3    O2 5531   2.811   2.910  13.106 -0.6424 -0.5336  0.1324
  370TMC3    C1 5532   2.968   3.415  16.306 -0.5024  0.2625 -0.0185
  370TMC3    C2 5533   2.916   3.335  16.403  0.3768  0.5128  0.1109
  370TMC3    C3 5534   2.841   3.232  16.363  0.0274  0.4952  0.3446
  370TMC3    C4 5535   2.944   3.399  16.174 -0.1105 -0.0616 -0.9712
  370TMC3    C5 5536   2.865   3.297  16.140  0.0653 -0.0958 -0.0941
  370TMC3    C6 5537   2.819   3.212  16.233  0.4650  0.1997 -0.2533
  370TMC3     C 5538   3.086   3.483  16.344  0.1587  0.3947  0.3582
  370TMC3     O 5539   3.142   3.456  16.447  0.4259 -0.2752 -0.2564
  370TMC3     H 5540   2.947   3.344  16.507  2.8159 -0.8465 -0.5056
  370TMC3    H1 5541   3.004   3.435  16.092  1.2549  1.2293  0.5766
  370TMC3    H2 5542   2.760   3.130  16.195 -0.0066  1.4589 -2.2030
  370TMC3    C7 5543   2.867   3.273  15.996  0.2025  0.3508 -0.1366
  370TMC3    C8 5544   2.804   3.123  16.454  0.4210  0.5186  0.1777
  370TMC3    O1 5545   2.863   3.374  15.927  0.0936 -0.4694  0.0089
  370TMC3    O2 5546   2.794   3.011  16.404  0.5867 -0.1331 -0.2121
  371TMC3    C1 5547   3.955   1.630  15.336 -0.6919 -0.6476  0.1797
  371TMC3    C2 5548   3.852   1.689  15.408  0.2540 -0.5249  0.2345
  371TMC3    C3 5549   3.837   1.819  15.394 -0.6211 -0.3752  0.1190
  371TMC3    C4 5550   4.022   1.702  15.240  0.3390  0.1266  0.1155
  371TMC3    C5 5551   4.016   1.837  15.244 -0.4978  0.0291 -0.3439
  371TMC3    C6 5552   3.929   1.894  15.332  0.4331  0.2397  0.1448
  371TMC3     C 5553   3.989   1.485  15.342  0.9284  0.1415 -0.2589
  371TMC3     O 5554   4.075   1.445  15.271  0.2814  0.0920  0.1474
  371TMC3     H 5555   3.784   1.636  15.474 -0.5487 -0.9596 -0.9523
  371TMC3    H1 5556   4.076   1.645  15.165 -1.5077  1.4257 -2.1817
  371TMC3    H2 5557   3.910   1.999  15.313 -0.9069 -0.3439 -1.7352
  371TMC3    C7 5558   4.118   1.914  15.173  0.5572  0.2341  0.6841
  371TMC3    C8 5559   3.704   1.872  15.415  0.1628  0.5268  0.2374
  371TMC3    O1 5560   4.098   2.032  15.165 -0.7404  0.0909  0.6004
  371TMC3    O2 5561   3.614   1.790  15.425  0.4842  0.2014  0.0331
  372MPD2     C 5562   2.988   2.799  13.568 -0.2648 -0.1300 -0.0473
  372MPD2    C1 5563   3.102   2.722  13.558 -0.0747  0.0901  0.9826
  372MPD2    C2 5564   3.112   2.606  13.634  0.3638  0.3557 -0.3828
  372MPD2    C3 5565   3.013   2.564  13.719  0.4498  0.9509 -0.1967
  372MPD2    C4 5566   2.895   2.641  13.726 -0.5073 -0.1101 -0.0072
  372MPD2    C5 5567   2.885   2.749  13.639 -0.0845 -0.0305  0.5852
  372MPD2     H 5568   3.204   2.550  13.624  0.7635  0.7489  1.1410
  372MPD2    H1 5569   2.819   2.620  13.801  0.4588  3.8627  2.0341
  372MPD2    H2 5570   2.973   2.895  13.520 -0.6174 -0.7265 -1.1294
  372MPD2    H3 5571   2.790   2.801  13.647 -0.8789 -1.8595  2.9563
  372MPD2     N 5572   3.021   2.442  13.798  0.1415  0.1831  0.5214
  372MPD2    H5 5573   3.110   2.395  13.790 -0.8212 -1.6070  0.3714
  372MPD2    N1 5574   3.220   2.754  13.481 -0.0788 -0.3369  0.1795
  372MPD2    H7 5575   3.303   2.699  13.502 -1.0127 -1.3886  1.1259
  373TMC3    C1 5576   2.966   2.259  13.937  0.2819 -0.1896 -0.5506
  373TMC3    C2 5577   2.963   2.261  14.075 -0.7777  0.2179  0.4319
  373TMC3    C3 5578   3.067   2.201  14.152 -0.3500  0.8489 -0.4086
  373TMC3    C4 5579   3.056   2.182  13.868  0.9673 -0.5040  0.0779
  373TMC3    C5 5580   3.146   2.115  13.944 -0.1307 -0.0302  0.0297
  373TMC3    C6 5581   3.153   2.113  14.081 -0.3151  0.6109 -0.3361
  373TMC3     C 5582   2.921   2.387  13.879  0.9057  0.6819 -0.4074
  373TMC3     O 5583   2.812   2.430  13.917  0.1859  0.4230 -0.3024
  373TMC3     H 5584   2.889   2.326  14.119  0.1869  0.1890  2.1010
  373TMC3    H1 5585   3.062   2.189  13.760  0.6892  2.7257  0.2598
  373TMC3    H2 5586   3.234   2.057  14.125 -1.1490 -0.3234  0.0113
  373TMC3    C7 5587   3.228   2.026  13.869  0.8135  0.4248 -0.9064
  373TMC3    C8 5588   3.142   2.279  14.246 -0.4634 -0.5349 -0.2281
  373TMC3    O1 5589   3.176   1.990  13.765 -0.1472 -0.1126  0.7235
  373TMC3    O2 5590   3.257   2.247  14.274  0.0479 -0.0856  0.3157
  374TMC3    C1 5591   3.894   2.810   9.676  0.2130  0.1266  0.8001
  374TMC3    C2 5592   4.024   2.835   9.685 -0.2406  0.1264  0.3374
  374TMC3    C3 5593   4.105   2.795   9.579 -0.0582  0.0316  0.7911
  374TMC3    C4 5594   3.837   2.747   9.574 -0.4506  0.0449 -0.0638
  374TMC3    C5 5595   3.918   2.725   9.467  0.0087 -0.3109  0.1551
  374TMC3    C6 5596   4.053   2.751   9.465 -0.6231 -0.4023  0.0264
  374TMC3     C 5597   3.808   2.830   9.794  0.3390  0.8453  0.0485
  374TMC3     O 5598   3.710   2.759   9.785 -0.2778 -0.6625  0.8971
  374TMC3     H 5599   4.068   2.858   9.781 -0.2717 -2.9363  1.1006
  374TMC3    H1 5600   3.730   2.730   9.564 -0.0506 -2.5238  0.1465
  374TMC3    H2 5601   4.117   2.722   9.382 -1.7259  0.5725 -1.1710
  374TMC3    C7 5602   3.847   2.672   9.350 -0.5139 -0.1019  1.0958
  374TMC3    C8 5603   4.245   2.815   9.592 -0.0300 -0.0199  0.5965
  374TMC3    O1 5604   3.737   2.622   9.361  0.0113 -0.1241 -0.9392
  374TMC3    O2 5605   4.309   2.782   9.494 -0.4605  0.1004 -0.4469
  375MPD2     C 5606   4.383   3.857  17.227 -0.2371  0.4024 -0.0259
  375MPD2    C1 5607   4.289   3.789  17.157  0.2839 -0.4326  0.3932
  375MPD2    C2 5608   4.321   3.715  17.040  0.4766 -0.0230 -0.3195
  375MPD2    C3 5609   4.454   3.699  17.003  0.0335 -0.0728 -0.1270
  375MPD2    C4 5610   4.547   3.756  17.082 -0.5010 -0.2203  1.0488
  375MPD2    C5 5611   4.512   3.839  17.186 -0.4739  0.4175 -0.5472
  375MPD2     H 5612   4.244   3.664  16.983 -0.4230 -0.1658  1.0164
  375MPD2    H1 5613   4.648   3.746  17.045  0.4106  0.2254  3.4313
  375MPD2    H2 5614   4.364   3.922  17.312 -1.0624 -0.5559  0.5230
  375MPD2    H3 5615   4.592   3.898  17.228 -0.0557 -0.8786  0.4675
  375MPD2     N 5616   4.494   3.643  16.885 -0.8479  0.2261 -0.2619
  375MPD2    H5 5617   4.594   3.648  16.865 -0.7163  2.5449  0.9637
  375MPD2    N1 5618   4.154   3.783  17.196 -0.3553 -0.1803 -0.7204
  375MPD2    H7 5619   4.089   3.734  17.135  1.5636 -1.0893 -1.9997
  376TMC3    C1 5620   4.473   3.569  16.665  0.4549 -0.1336 -0.3548
  376TMC3    C2 5621   4.583   3.491  16.667 -0.5919  0.5774  0.0563
  376TMC3    C3 5622   4.636   3.457  16.545 -0.0849 -0.6852 -0.0669
  376TMC3    C4 5623   4.417   3.617  16.547  0.4076 -0.0721 -0.0837
  376TMC3    C5 5624   4.479   3.592  16.425 -0.3938 -1.2290  0.5795
  376TMC3    C6 5625   4.590   3.512  16.426 -0.3774  0.3432 -0.9945
  376TMC3     C 5626   4.406   3.605  16.786  0.4486 -0.5409  0.0280
  376TMC3     O 5627   4.283   3.613  16.774  0.5901  0.2991  0.6371
  376TMC3     H 5628   4.618   3.446  16.760 -1.4034 -1.6872 -0.7341
  376TMC3    H1 5629   4.343   3.695  16.549  0.1413 -0.4101  2.1900
  376TMC3    H2 5630   4.632   3.489  16.329  1.4352  0.3557 -0.2066
  376TMC3    C7 5631   4.486   3.702  16.327 -0.6120 -1.2661 -0.4466
  376TMC3    C8 5632   0.042   3.400  16.568  0.1710  0.8532 -0.4007
  376TMC3    O1 5633   4.463   3.817  16.370 -0.6948 -0.0709 -0.3278
  376TMC3    O2 5634   0.065   3.309  16.646 -0.2298 -0.1513 -0.5329
  377MPD2     C 5635   2.062   3.275  12.950  0.9516  0.0582  0.3691
  377MPD2    C1 5636   1.994   3.336  12.844  0.3024 -0.8213  0.4629
  377MPD2    C2 5637   1.857   3.360  12.865  0.1102 -0.4827 -0.2121
  377MPD2    C3 5638   1.793   3.320  12.984 -0.3135  0.2817  0.4201
  377MPD2    C4 5639   1.867   3.251  13.075 -0.2904  0.7882 -0.0959
  377MPD2    C5 5640   1.996   3.232  13.065 -0.3052  0.4882  0.2190
  377MPD2     H 5641   1.804   3.431  12.803  2.6749  0.3654 -1.4510
  377MPD2    H1 5642   1.824   3.208  13.165  4.0421 -0.1598  1.5246
  377MPD2    H2 5643   2.167   3.251  12.940  1.3272  1.9149 -0.0427
  377MPD2    H3 5644   2.047   3.169  13.137 -1.5890  1.4749  2.0040
  377MPD2     N 5645   1.653   3.335  13.009  0.5018 -0.2918 -0.2076
  377MPD2    H5 5646   1.611   3.291  13.090  0.9626  2.3503  1.4602
  377MPD2    N1 5647   2.069   3.383  12.729  0.9175 -0.2636  0.5125
  377MPD2    H7 5648   2.170   3.383  12.730  0.9302  1.2867 -0.4952
  378TMC3    C1 5649   2.092   3.479  12.265  0.6273  0.1982 -0.9922
  378TMC3    C2 5650   2.032   3.500  12.386 -0.6032 -0.0411  0.2702
  378TMC3    C3 5651   2.097   3.454  12.496  0.4599  0.6753 -0.1631
  378TMC3    C4 5652   2.217   3.427  12.255 -0.0811  0.9006 -0.5348
  378TMC3    C5 5653   2.280   3.379  12.373 -0.4648  0.8228 -0.3538
  378TMC3    C6 5654   2.218   3.387  12.494 -0.2828 -0.2397 -0.7323
  378TMC3     C 5655   2.022   3.520  12.145  0.5530 -1.4478  0.3616
  378TMC3     O 5656   1.902   3.539  12.164 -0.2650  0.0415 -0.8828
  378TMC3     H 5657   1.943   3.560  12.394 -0.3981  0.2404  0.4022
  378TMC3    H1 5658   2.254   3.398  12.158  0.6916 -1.5785  0.5064
  378TMC3    H2 5659   2.261   3.326  12.573  1.0350  2.0725  0.3227
  378TMC3    C7 5660   2.415   3.324  12.374 -0.2125 -0.5900  0.1406
  378TMC3    C8 5661   2.010   3.433  12.618 -0.0655  0.0159 -0.0626
  378TMC3    O1 5662   2.442   3.271  12.480 -0.1990 -0.1439 -0.2323
  378TMC3    O2 5663   1.891   3.458  12.605  0.0278  0.6873  0.2900
  379MPD2     C 5664   3.492   1.393  15.945 -0.3591 -0.1628 -0.0367
  379MPD2    C1 5665   3.394   1.327  16.018  0.2544  0.1532 -0.2044
  379MPD2    C2 5666   3.426   1.241  16.115  0.9988 -0.0206 -0.0669
  379MPD2    C3 5667   3.554   1.197  16.132  0.7829 -0.3155  0.3173
  379MPD2    C4 5668   3.654   1.261  16.060 -0.1090 -0.2263 -0.6184
  379MPD2    C5 5669   3.622   1.357  15.966  0.5864  0.5786  0.3001
  379MPD2     H 5670   3.342   1.207  16.176  0.9112 -0.2720 -0.3298
  379MPD2    H1 5671   3.760   1.245  16.076  0.3465  2.6705 -0.6375
  379MPD2    H2 5672   3.472   1.468  15.870  1.7050  1.5754  1.1442
  379MPD2    H3 5673   3.705   1.402  15.913 -0.7215  0.8918 -1.4824
  379MPD2     N 5674   3.594   1.101  16.228 -0.3306  0.3589  0.0032
  379MPD2    H5 5675   3.694   1.097  16.246 -0.4925  1.7336  1.1965
  379MPD2    N1 5676   3.261   1.357  15.977 -0.1825 -0.3430  0.2363
  379MPD2    H7 5677   3.239   1.437  15.917  1.9767  0.0521 -0.0214
  380TMC3    C1 5678   3.024   1.328  15.961  0.5111  0.0968  0.0783
  380TMC3    C2 5679   2.908   1.271  16.005 -0.1347 -0.1802 -0.1168
  380TMC3    C3 5680   2.800   1.289  15.929  0.4023  0.6452  0.3644
  380TMC3    C4 5681   3.026   1.412  15.853 -0.0128 -0.1785 -0.0481
  380TMC3    C5 5682   2.907   1.444  15.790 -0.7116  0.1983 -0.0799
  380TMC3    C6 5683   2.792   1.374  15.824 -0.3011  1.0242  0.3325
  380TMC3     C 5684   3.154   1.288  16.024 -0.2121 -0.3028 -0.1565
  380TMC3     O 5685   3.155   1.180  16.079  0.0577  0.2801 -0.1154
  380TMC3     H 5686   2.910   1.194  16.081 -1.3344  0.5489  0.6538
  380TMC3    H1 5687   3.117   1.461  15.821  0.4039 -0.2519  1.0190
  380TMC3    H2 5688   2.696   1.416  15.797 -1.3976 -0.9046  1.2142
  380TMC3    C7 5689   2.913   1.476  15.651  0.2543  0.4074 -0.1575
  380TMC3    C8 5690   2.768   1.155  15.865 -0.2421  0.0889  0.4282
  380TMC3    O1 5691   3.026   1.494  15.601 -0.3044 -0.4112 -0.2665
  380TMC3    O2 5692   2.838   1.061  15.902  1.0652 -0.0394  0.2134
  381TMC3    C1 5693   2.878   2.555  16.092 -0.3899  0.3467  0.2275
  381TMC3    C2 5694   2.938   2.675  16.101  0.1903  0.2354  0.3921
  381TMC3    C3 5695   2.921   2.740  16.219  0.4127 -0.5733  0.2828
  381TMC3    C4 5696   2.786   2.505  16.186 -0.0504  0.5184  0.6860
  381TMC3    C5 5697   2.773   2.579  16.301  0.0088  0.0697  0.3954
  381TMC3    C6 5698   2.851   2.689  16.326 -0.0710  0.1320  0.0746
  381TMC3     C 5699   2.877   2.487  15.960  0.0430 -0.3580 -0.0962
  381TMC3     O 5700   2.960   2.525  15.880 -0.2833  0.3783  0.4331
  381TMC3     H 5701   2.985   2.725  16.016  1.7567 -1.1942  0.4218
  381TMC3    H1 5702   2.737   2.409  16.178  1.1454 -0.0635  0.3399
  381TMC3    H2 5703   2.844   2.740  16.421 -1.9598 -1.3221  0.7299
  381TMC3    C7 5704   2.735   2.496  16.415  0.2367 -0.1729  1.1594
  381TMC3    C8 5705   2.983   2.867  16.240 -0.1714 -0.2064  0.0667
  381TMC3    O1 5706   2.747   2.377  16.399 -0.1345 -0.1257 -0.9367
  381TMC3    O2 5707   2.979   2.937  16.142 -0.7396 -0.5601  0.2490
  382MPD2     C 5708   2.183   0.183  17.022 -0.2028 -0.2111  0.5611
  382MPD2    C1 5709   2.098   0.216  17.127 -0.1626 -0.1655 -0.5435
  382MPD2    C2 5710   2.025   0.116  17.184 -0.2313  0.4857 -0.9349
  382MPD2    C3 5711   2.019   4.715  17.124  0.1562 -1.2245 -0.0748
  382MPD2    C4 5712   2.118   4.683  17.024  0.2171 -0.3846  0.0055
  382MPD2    C5 5713   2.193   0.054  16.976  0.0295  0.2219 -0.2735
  382MPD2     H 5714   1.970   0.139  17.275  0.0946 -0.0791 -0.5958
  382MPD2    H1 5715   2.121   4.592  16.965 -2.7827 -0.7148  0.3821
  382MPD2    H2 5716   2.255   0.254  16.985  0.9340 -1.3371  0.6111
  382MPD2    H3 5717   2.262   0.021  16.899 -0.0566 -0.3874 -0.0888
  382MPD2     N 5718   1.944   4.608  17.170 -0.8035  0.4613  0.2181
  382MPD2    H5 5719   1.957   4.515  17.131 -0.7284  1.1561 -1.4411
  382MPD2    N1 5720   2.098   0.341  17.178 -0.1677 -0.1165 -0.0730
  382MPD2    H7 5721   2.053   0.355  17.268 -0.7631 -2.3197 -0.0222
  383TMC3    C1 5722   1.793   4.475  17.290 -0.5247  0.0842  0.3585
  383TMC3    C2 5723   1.765   4.405  17.177 -0.1482  0.0914  0.0725
  383TMC3    C3 5724   1.727   4.274  17.197 -0.2579 -0.2102 -0.1285
  383TMC3    C4 5725   1.766   4.431  17.412  0.3623 -0.2723  1.0823
  383TMC3    C5 5726   1.732   4.299  17.428 -0.2756 -0.1724  0.0239
  383TMC3    C6 5727   1.711   4.219  17.324  0.0731  0.1579  0.2905
  383TMC3     C 5728   1.852   4.606  17.276  0.3011 -0.5805 -0.1213
  383TMC3     O 5729   1.824   4.696  17.353 -0.4511 -0.8188  0.6582
  383TMC3     H 5730   1.770   4.452  17.080 -0.3842  2.2368  1.0825
  383TMC3    H1 5731   1.778   4.495  17.499 -2.6366 -0.6194  1.7340
  383TMC3    H2 5732   1.657   4.126  17.337  1.6394 -0.5539  1.7026
  383TMC3    C7 5733   1.688   4.251  17.554  0.8468  0.1019 -0.1058
  383TMC3    C8 5734   1.671   4.209  17.086 -0.0630  0.5599  0.3500
  383TMC3    O1 5735   1.593   4.175  17.560 -0.6188  0.2840  0.3410
  383TMC3    O2 5736   1.601   4.276  17.013 -0.5666 -0.2600 -0.6550
  384MPD2     C 5737   3.201   2.123  11.894  0.4217  0.2519  0.0887
  384MPD2    C1 5738   3.231   1.995  11.931  0.2228 -0.1136 -0.2960
  384MPD2    C2 5739   3.332   1.929  11.860  0.4335  0.2952  0.2458
  384MPD2    C3 5740   3.389   1.980  11.749  0.0564 -0.7162 -0.0286
  384MPD2    C4 5741   3.354   2.105  11.708  0.0068  0.0506 -0.9108
  384MPD2    C5 5742   3.267   2.173  11.785  0.2337 -0.5585  0.5932
  384MPD2     H 5743   3.355   1.827  11.889 -1.3041 -0.8342 -2.3734
  384MPD2    H1 5744   3.399   2.155  11.624  0.2362 -1.2832 -1.5873
  384MPD2    H2 5745   3.139   2.194  11.948 -0.0937 -0.2175  0.1094
  384MPD2    H3 5746   3.246   2.271  11.745 -2.0389 -0.9080  0.9468
  384MPD2     N 5747   3.481   1.899  11.684  0.5690  0.1030  0.5068
  384MPD2    H5 5748   3.491   1.802  11.711 -0.5453 -0.9751 -2.8645
  384MPD2    N1 5749   3.173   1.937  12.047  0.1137  0.5090  0.5609
  384MPD2    H7 5750   3.209   1.844  12.069  1.0938  0.9626  0.8517
  385TMC3    C1 5751   3.669   1.833  11.568  0.8433 -0.0537 -0.5826
  385TMC3    C2 5752   3.654   1.770  11.448  0.5180 -0.3855  0.0941
  385TMC3    C3 5753   3.653   1.632  11.444  0.0638  0.0375 -0.5099
  385TMC3    C4 5754   3.681   1.753  11.677  0.0234  0.3238 -1.1789
  385TMC3    C5 5755   3.661   1.617  11.676 -0.0172 -0.2813  0.3516
  385TMC3    C6 5756   3.635   1.560  11.555  0.8220 -0.6368 -0.1649
  385TMC3     C 5757   3.570   1.937  11.590  0.3653 -0.0264 -0.0216
  385TMC3     O 5758   3.576   2.037  11.513  0.5245 -0.1121 -0.0407
  385TMC3     H 5759   3.648   1.826  11.355 -1.3931 -0.6743  0.0244
  385TMC3    H1 5760   3.695   1.800  11.774  0.8821 -2.3087 -0.0374
  385TMC3    H2 5761   3.644   1.452  11.557 -0.7715 -0.7810 -0.7463
  385TMC3    C7 5762   3.571   1.580  11.783  0.2233 -0.1709 -0.2349
  385TMC3    C8 5763   3.656   1.560  11.312  0.2226  0.3152 -0.1604
  385TMC3    O1 5764   3.501   1.669  11.829 -0.3558  0.0549  0.5576
  385TMC3    O2 5765   3.648   1.440  11.324 -0.1794  0.2034  0.0554
  386TMC3    C1 5766   3.718   3.506  11.891 -0.4686 -0.2867 -0.2475
  386TMC3    C2 5767   3.712   3.499  11.752 -0.0673  0.0178  0.0096
  386TMC3    C3 5768   3.584   3.512  11.699 -0.1171  0.3322 -0.2751
  386TMC3    C4 5769   3.612   3.536  11.976 -0.2139 -0.0998 -0.2095
  386TMC3    C5 5770   3.487   3.547  11.913 -0.3410 -0.1625 -0.3359
  386TMC3    C6 5771   3.480   3.547  11.777  0.9893  0.2281 -0.1953
  386TMC3     C 5772   3.847   3.475  11.940  0.3186  0.8833  0.3055
  386TMC3     O 5773   3.896   3.553  12.016 -0.1435  0.3456 -0.1775
  386TMC3     H 5774   3.799   3.459  11.701  0.2087  0.0147  0.4807
  386TMC3    H1 5775   3.627   3.553  12.083 -0.4029  2.9282 -0.6582
  386TMC3    H2 5776   3.388   3.572  11.726  0.7763  0.0606  0.1051
  386TMC3    C7 5777   3.367   3.560  11.991  0.5259  0.1112 -0.2061
  386TMC3    C8 5778   3.555   3.505  11.559  0.0238 -0.1656  0.2427
  386TMC3    O1 5779   3.375   3.542  12.111  0.3067  0.3787 -0.0555
  386TMC3    O2 5780   3.448   3.548  11.526 -0.6982  1.0408  0.2052
  387MPD2     C 5781   1.514   3.750   9.797  0.2616 -0.0626 -0.0469
  387MPD2    C1 5782   1.622   3.718   9.879 -0.4293  0.6244  0.2636
  387MPD2    C2 5783   1.649   3.580   9.902  0.8087  0.3293 -0.2775
  387MPD2    C3 5784   1.582   3.481   9.830 -0.8256  0.2759  0.6782
  387MPD2    C4 5785   1.487   3.526   9.738  0.3311  0.0483 -0.6817
  387MPD2    C5 5786   1.458   3.657   9.722 -0.3841  0.2030 -0.1268
  387MPD2     H 5787   1.722   3.547   9.975 -1.4610 -1.9902  0.9529
  387MPD2    H1 5788   1.434   3.458   9.672 -3.5093  1.4371  0.9298
  387MPD2    H2 5789   1.483   3.849   9.766 -0.1974  0.1752  1.1467
  387MPD2    H3 5790   1.383   3.682   9.648  1.2415  1.5287 -1.3385
  387MPD2     N 5791   1.638   3.350   9.840  0.2702 -0.2687  0.1522
  387MPD2    H5 5792   1.704   3.343   9.917 -1.4358  2.1985  1.8230
  387MPD2    N1 5793   1.710   3.816   9.944  0.0617  0.3167 -0.0713
  387MPD2    H7 5794   1.770   3.769  10.011 -1.4073 -2.7882 -0.8953
  388TMC3    C1 5795   1.832   4.005   9.976  0.4068  0.0926 -0.7433
  388TMC3    C2 5796   1.844   4.138   9.993 -0.0715  0.4300 -0.2839
  388TMC3    C3 5797   1.965   4.181  10.040  0.1244 -0.6605 -0.2997
  388TMC3    C4 5798   1.935   3.921   9.976  0.0798  0.6182 -0.0192
  388TMC3    C5 5799   2.054   3.965  10.027  0.2050  0.4506  0.4317
  388TMC3    C6 5800   2.071   4.098  10.064 -0.0701  0.1249 -0.8777
  388TMC3     C 5801   1.719   3.949   9.915 -0.8163  0.1090  0.0223
  388TMC3     O 5802   1.647   4.015   9.838  0.2757 -0.5202 -0.5506
  388TMC3     H 5803   1.756   4.202   9.991 -0.1212  0.3915  0.7437
  388TMC3    H1 5804   1.941   3.838   9.906 -2.5358  0.1806  0.2852
  388TMC3    H2 5805   2.167   4.139  10.094  0.1080 -1.0961  0.2128
  388TMC3    C7 5806   2.172   3.884  10.021 -0.3646  0.4403 -0.8160
  388TMC3    C8 5807   1.974   4.310  10.093  0.8491 -0.2639 -0.3181
  388TMC3    O1 5808   2.274   3.946   9.991 -0.3435 -0.4829 -0.3273
  388TMC3    O2 5809   2.050   4.320  10.185  0.4358  0.4835 -0.0555
  389MPD2     C 5810   0.919   1.885  10.621  0.1931  0.5970 -0.2900
  389MPD2    C1 5811   0.811   1.812  10.576 -0.1968 -0.2237  0.4529
  389MPD2    C2 5812   0.716   1.758  10.667 -0.2149 -1.1274 -0.1107
  389MPD2    C3 5813   0.730   1.776  10.804  0.5851 -0.2848  0.0745
  389MPD2    C4 5814   0.841   1.854  10.847  0.3455 -0.9347 -0.4883
  389MPD2    C5 5815   0.934   1.901  10.757  0.2315 -0.6990 -0.2635
  389MPD2     H 5816   0.637   1.693  10.632  1.3055 -2.8630 -0.2892
  389MPD2    H1 5817   0.874   1.871  10.949 -2.3728  1.4342 -0.0200
  389MPD2    H2 5818   0.989   1.927  10.549  1.3051  1.1983  1.1625
  389MPD2    H3 5819   1.018   1.964  10.783  0.8733 -1.1273 -1.3463
  389MPD2     N 5820   0.645   1.715  10.896 -0.0824 -0.6381 -0.2779
  389MPD2    H5 5821   0.670   1.737  10.992 -1.5467  2.0361 -0.5111
  389MPD2    N1 5822   0.800   1.811  10.438 -0.1830  0.0340 -0.4529
  389MPD2    H7 5823   0.875   1.850  10.382  0.0714 -0.0089 -0.1446
  390TMC3    C1 5824   0.488   1.578  10.999  0.5343  0.7160 -0.4075
  390TMC3    C2 5825   0.423   1.456  10.995 -0.9397  0.2184 -0.7395
  390TMC3    C3 5826   0.358   1.420  11.112  0.3595  0.1855 -0.1434
  390TMC3    C4 5827   0.481   1.672  11.097 -0.1320  0.1826 -0.1154
  390TMC3    C5 5828   0.400   1.637  11.201  0.2900  0.3029  0.2361
  390TMC3    C6 5829   0.357   1.509  11.219 -0.6899  0.1782  0.0071
  390TMC3     C 5830   0.552   1.616  10.878  0.0200 -0.7862 -0.3063
  390TMC3     O 5831   0.506   1.569  10.776 -0.0968  0.3420  0.3544
  390TMC3     H 5832   0.443   1.398  10.906  0.2679 -0.5971  0.0639
  390TMC3    H1 5833   0.508   1.776  11.080 -1.1471  0.1873 -1.7274
  390TMC3    H2 5834   0.322   1.481  11.317  0.1146 -1.1720 -0.0962
  390TMC3    C7 5835   0.292   1.735  11.198 -0.1964 -0.2881 -0.4147
  390TMC3    C8 5836   0.253   1.322  11.094  0.4238 -0.8148 -0.4265
  390TMC3    O1 5837   0.307   1.843  11.141  0.5812  0.3495 -0.2575
  390TMC3    O2 5838   0.219   1.290  10.982  0.5325 -0.0129 -0.0655
  391MPD2     C 5839   4.384   3.280  11.093  0.1653  0.1225 -0.2918
  391MPD2    C1 5840   4.518   3.306  11.058 -0.0735 -0.3046 -0.2223
  391MPD2    C2 5841   4.543   3.318  10.926  0.2082 -0.3217 -0.2034
  391MPD2    C3 5842   4.455   3.297  10.824 -0.2569  0.5775 -0.1453
  391MPD2    C4 5843   4.321   3.262  10.861 -0.2709  0.5149 -0.0140
  391MPD2    C5 5844   4.289   3.252  10.995 -0.5509  0.0698 -0.0424
  391MPD2     H 5845   4.640   3.346  10.888  0.1845  0.8226  0.5612
  391MPD2    H1 5846   4.241   3.256  10.787  0.8592  0.3990 -1.2300
  391MPD2    H2 5847   4.348   3.280  11.195 -0.5121  0.0811 -0.5346
  391MPD2    H3 5848   4.188   3.217  11.011 -1.0389  2.0770  1.1584
  391MPD2     N 5849   4.503   3.311  10.694 -0.4630  0.0113  0.4043
  391MPD2    H5 5850   4.600   3.335  10.680 -0.8108  0.4503 -1.2232
  391MPD2    N1 5851   4.612   3.341  11.157  0.2204 -0.6354  0.1125
  391MPD2    H7 5852   4.583   3.350  11.254 -1.3671  1.4302 -0.5504
  392TMC3    C1 5853   4.507   3.283  10.457 -0.0463  0.1651 -0.2147
  392TMC3    C2 5854   4.459   3.209  10.350 -0.0428 -1.3150  0.2003
  392TMC3    C3 5855   4.531   3.222  10.237  0.2497  0.4261 -0.0758
  392TMC3    C4 5856   4.599   3.383  10.442  1.1101 -0.2920 -0.6911
  392TMC3    C5 5857   4.675   3.383  10.329  0.1711 -0.6396 -0.1861
  392TMC3    C6 5858   4.639   3.302  10.222 -0.0051 -0.1827 -0.4147
  392TMC3     C 5859   4.433   3.278  10.582  1.1735  0.0075 -0.1610
  392TMC3     O 5860   4.318   3.243  10.569 -0.1229  0.1930 -0.2686
  392TMC3     H 5861   4.376   3.140  10.357 -1.4094  0.3600  0.4900
  392TMC3    H1 5862   4.639   3.441  10.524 -0.1903 -1.2612  0.6201
  392TMC3    H2 5863   4.704   3.294  10.135 -0.9309 -0.5358 -1.0739
  392TMC3    C7 5864   0.062   3.471  10.324 -0.3454 -0.1561  0.3809
  392TMC3    C8 5865   4.475   3.150  10.126  0.5880  0.2845  0.0085
  392TMC3    O1 5866   0.062   3.567  10.397  0.1292 -0.5868  0.4507
  392TMC3    O2 5867   4.357   3.111  10.125  0.0135  0.6335  0.0760
  393TMC3    C1 5868   3.668   1.782  10.475 -0.4221  0.2497  0.9682
  393TMC3    C2 5869   3.578   1.689  10.438  0.2210 -0.0920  0.4690
  393TMC3    C3 5870   3.613   1.555  10.441 -1.3796  0.1272 -0.1991
  393TMC3    C4 5871   3.796   1.750  10.510 -0.3166 -0.2476  0.0943
  393TMC3    C5 5872   3.833   1.618  10.499 -0.8173  0.5593  1.2109
  393TMC3    C6 5873   3.739   1.523  10.468 -0.0261  0.3590 -0.0873
  393TMC3     C 5874   3.656   1.906  10.396 -0.4301 -0.0479  0.4718
  393TMC3     O 5875   3.619   1.895  10.280  0.2777 -0.3376  0.4402
  393TMC3     H 5876   3.473   1.716  10.423  0.2440  0.1260  0.6810
  393TMC3    H1 5877   3.862   1.826  10.549 -0.6937 -0.5320  1.2785
  393TMC3    H2 5878   3.758   1.417  10.482 -0.2489  0.8348  3.8918
  393TMC3    C7 5879   3.971   1.591  10.494  0.3694 -0.8780  0.2709
  393TMC3    C8 5880   3.517   1.472  10.495 -0.2387 -0.0722  0.2006
  393TMC3    O1 5881   4.043   1.685  10.522 -0.1106 -0.5118 -0.4458
  393TMC3    O2 5882   3.460   1.502  10.598  0.2177 -0.3029  0.2596
  394TMC3    C1 5883   0.701   1.762  10.226  0.8787  0.7702 -0.2954
  394TMC3    C2 5884   0.593   1.773  10.148 -0.7353 -0.8154 -0.2705
  394TMC3    C3 5885   0.616   1.724  10.016  0.7081 -0.1369  0.5771
  394TMC3    C4 5886   0.827   1.723  10.179 -0.4720  0.3600 -0.8303
  394TMC3    C5 5887   0.847   1.681  10.052 -0.2422  0.8217 -0.2530
  394TMC3    C6 5888   0.736   1.683   9.969 -0.5231 -0.0124 -0.4209
  394TMC3     C 5889   0.680   1.778  10.374  0.0605  0.7034  0.0412
  394TMC3     O 5890   0.567   1.777  10.424 -0.7880 -0.6079 -0.4973
  394TMC3     H 5891   0.494   1.782  10.192 -1.1583 -0.4557 -1.2899
  394TMC3    H1 5892   0.916   1.735  10.240 -0.3829  0.1354 -0.9157
  394TMC3    H2 5893   0.741   1.665   9.862  1.2657 -1.0379 -0.1711
  394TMC3    C7 5894   0.966   1.743   9.994  0.2970  0.0725 -0.1683
  394TMC3    C8 5895   0.499   1.651   9.973 -0.5471 -0.1716 -0.4710
  394TMC3    O1 5896   0.955   1.814   9.895  0.6168 -0.2141  0.1695
  394TMC3    O2 5897   0.393   1.704  10.001 -0.0755  0.4297 -0.9412
  395TMC3    C1 5898   4.608   3.567  14.412 -0.0134  0.5071 -0.0969
  395TMC3    C2 5899   4.494   3.566  14.492  0.2701 -0.5360  0.2155
  395TMC3    C3 5900   4.488   3.647  14.604  0.1815  0.3246 -0.4467
  395TMC3    C4 5901   4.713   3.644  14.440 -0.3928  0.4069 -0.6756
  395TMC3    C5 5902   4.691   3.733  14.543 -0.4137 -0.2153 -0.8755
  395TMC3    C6 5903   4.587   3.734  14.631  0.0825 -0.0568  0.4243
  395TMC3     C 5904   4.648   3.442  14.357  0.4519 -0.2396 -0.7041
  395TMC3     O 5905   4.557   3.378  14.301 -0.4026  0.1281 -0.4737
  395TMC3     H 5906   4.410   3.505  14.462 -1.3774  1.1855  1.2940
  395TMC3    H1 5907   0.068   3.647  14.369 -0.4141  2.2945 -0.6196
  395TMC3    H2 5908   4.588   3.799  14.717  0.1686  0.9397 -0.3406
  395TMC3    C7 5909   0.068   3.823  14.576 -0.9355 -0.2825 -0.4261
  395TMC3    C8 5910   4.476   3.565  14.722 -0.6268 -0.1645 -0.4701
  395TMC3    O1 5911   0.067   3.868  14.689 -0.0811  0.1054 -0.4443
  395TMC3    O2 5912   4.452   3.610  14.835 -0.4015 -0.3513  0.0470
  396MPD2     C 5913   0.275   0.007  17.129 -0.0912 -0.6457 -0.1885
  396MPD2    C1 5914   0.411   0.000  17.094  0.0532  0.3204 -0.5388
  396MPD2    C2 5915   0.463   0.105  17.014 -0.3815  1.0011  0.2174
  396MPD2    C3 5916   0.383   0.201  16.964  0.2748 -0.7467  0.6779
  396MPD2    C4 5917   0.250   0.207  17.002 -0.1027  0.3140 -0.4445
  396MPD2    C5 5918   0.200   0.117  17.090 -0.1721 -0.3361 -0.6336
  396MPD2     H 5919   0.568   0.106  16.991  0.2131 -0.2153  2.7664
  396MPD2    H1 5920   0.181   0.280  16.961 -3.2618 -1.8029  1.1599
  396MPD2    H2 5921   0.232   4.667  17.203 -0.5577  1.5735  1.4894
  396MPD2    H3 5922   0.096   0.115  17.120  0.7382  0.8626  2.6057
  396MPD2     N 5923   0.441   0.312  16.888 -0.2102  0.4269 -0.2326
  396MPD2    H5 5924   0.542   0.319  16.892 -0.0362 -1.3213 -1.4758
  396MPD2    N1 5925   0.481   4.620  17.157 -0.6798  0.6829 -0.8413
  396MPD2    H7 5926   0.432   4.566  17.227  1.2002 -2.5459 -2.0400
  397TMC3    C1 5927   0.628   4.436  17.169  0.9947 -0.6940 -0.8823
  397TMC3    C2 5928   0.667   4.373  17.057  0.0189 -0.2896  0.4148
  397TMC3    C3 5929   0.578   4.274  17.009 -0.9287  0.3820  0.7792
  397TMC3    C4 5930   0.520   4.399  17.241 -0.4303 -0.2755  0.3555
  397TMC3    C5 5931   0.436   4.303  17.196 -0.1167  0.4401 -0.2956
  397TMC3    C6 5932   0.456   4.259  17.072 -0.4848  0.0308  0.6276
  397TMC3     C 5933   0.611   4.575  17.124  0.8623  0.1446 -0.5261
  397TMC3     O 5934   0.682   4.620  17.035  0.1662  0.3099  0.6246
  397TMC3     H 5935   0.741   4.414  16.990  0.2445 -0.8794  0.3099
  397TMC3    H1 5936   0.495   4.454  17.331  0.3201 -0.8806  0.9376
  397TMC3    H2 5937   0.383   4.195  17.023  0.3637 -2.5305  2.7004
  397TMC3    C7 5938   0.346   4.238  17.289 -0.7447  0.4441 -0.2169
  397TMC3    C8 5939   0.584   4.238  16.866  0.1481 -0.1763 -0.4631
  397TMC3    O1 5940   0.341   4.279  17.406  0.1970 -0.0299  0.3623
  397TMC3    O2 5941   0.490   4.183  16.808  0.1818 -0.0063  0.6455
  398MPD2     C 5942   2.906   0.532   0.231 -0.7250 -0.5779 -0.5964
  398MPD2    C1 5943   3.002   0.476   0.315  0.6981  0.2608  0.0073
  398MPD2    C2 5944   3.137   0.499   0.288 -0.1197 -0.2440  0.1423
  398MPD2    C3 5945   3.179   0.585   0.188  0.2363  0.1676 -0.1462
  398MPD2    C4 5946   3.078   0.639   0.099 -0.0038 -0.5695 -0.0580
  398MPD2    C5 5947   2.945   0.608   0.124  0.6736  0.0436 -0.0964
  398MPD2     H 5948   3.215   0.455   0.350  0.3812 -0.8835 -0.9454
  398MPD2    H1 5949   3.104   0.708   0.020 -0.8996 -0.4659 -0.2574
  398MPD2    H2 5950   2.801   0.505   0.243 -0.1572 -1.6052  2.0046
  398MPD2    H3 5951   2.876   0.641   0.048  0.0867  0.3331  0.5614
  398MPD2     N 5952   3.316   0.615   0.169 -0.1421  0.4316  0.4683
  398MPD2    H5 5953   3.387   0.572   0.226  0.5994  1.1077  0.0707
  398MPD2    N1 5954   2.975   0.377   0.418  0.1770  0.3131  0.8679
  398MPD2    H7 5955   3.049   0.364   0.487  1.1900 -0.9359 -0.4435
  399TMC3    C1 5956   2.894   0.194   0.525 -0.0286 -0.7067 -0.4241
  399TMC3    C2 5957   2.929   0.242   0.651  0.8040 -0.4454 -0.1796
  399TMC3    C3 5958   2.930   0.159   0.755  0.2041  0.1056  0.3842
  399TMC3    C4 5959   2.857   0.062   0.509  0.5324  0.1257  0.8876
  399TMC3    C5 5960   2.866   4.708   0.614  0.6868  0.0332  0.2565
  399TMC3    C6 5961   2.892   0.028   0.742  0.2857  0.6556  0.0393
  399TMC3     C 5962   2.869   0.287   0.421 -0.5363  0.1085  0.3069
  399TMC3     O 5963   2.774   0.268   0.346  0.7798  0.1298 -0.1474
  399TMC3     H 5964   2.951   0.349   0.652 -0.1874 -0.2279 -1.8076
  399TMC3    H1 5965   2.839   0.021   0.410  0.2448 -3.4945  2.4221
  399TMC3    H2 5966   2.906   4.685   0.824  3.1803  0.5908 -0.5067
  399TMC3    C7 5967   2.881   4.573   0.586  0.0336  0.4082 -0.8422
  399TMC3    C8 5968   3.003   0.198   0.879  0.2173  0.6013  0.0382
  399TMC3    O1 5969   2.838   4.491   0.666  0.4914  0.6847  0.5844
  399TMC3    O2 5970   2.984   0.128   0.979 -0.1793 -0.3807 -0.0565
  400TMC3    C1 5971   1.942   4.031  16.702  0.3005 -0.4000  0.9054
  400TMC3    C2 5972   1.838   3.998  16.620 -0.1026  0.1468 -0.8931
  400TMC3    C3 5973   1.735   4.094  16.616 -1.0894 -0.7513 -0.4560
  400TMC3    C4 5974   1.955   4.159  16.759 -0.0892  0.7499  0.0843
  400TMC3    C5 5975   1.850   4.246  16.750  0.5715  0.3064  0.1801
  400TMC3    C6 5976   1.733   4.214  16.686  0.0278  0.1223 -0.0811
  400TMC3     C 5977   2.004   3.919  16.765 -0.5348  0.3276 -0.5022
  400TMC3     O 5978   1.962   3.805  16.743 -0.1600  0.3378  0.0947
  400TMC3     H 5979   1.845   3.908  16.559  0.3510 -0.7465  0.4678
  400TMC3    H1 5980   2.042   4.197  16.811  1.1655  0.3027 -1.7104
  400TMC3    H2 5981   1.655   4.288  16.668 -0.4308 -0.3569 -0.0761
  400TMC3    C7 5982   1.880   4.387  16.786  0.3687  0.6534 -0.1067
  400TMC3    C8 5983   1.648   4.091  16.498 -0.1861  0.2492 -0.3509
  400TMC3    O1 5984   1.997   4.415  16.759  0.4847 -0.3438  0.5602
  400TMC3    O2 5985   1.585   4.195  16.474  0.6619 -0.8415  0.0992
  401MPD2     C 5986   0.244   2.834   1.216  0.3327  0.2043  0.1478
  401MPD2    C1 5987   0.346   2.753   1.182  0.0747 -0.0488  0.5025
  401MPD2    C2 5988   0.318   2.625   1.134 -0.8881 -0.6378  0.1299
  401MPD2    C3 5989   0.191   2.570   1.136  0.3812  1.0289 -0.8685
  401MPD2    C4 5990   0.092   2.652   1.177  0.2632  0.0950 -0.0445
  401MPD2    C5 5991   0.119   2.783   1.212 -0.0393 -0.4577 -0.6605
  401MPD2     H 5992   0.398   2.560   1.100 -0.2462 -1.0642  2.4485
  401MPD2    H1 5993   4.716   2.617   1.169 -0.3613  1.8122  0.3888
  401MPD2    H2 5994   0.246   2.934   1.258  0.6540  0.5311 -0.6463
  401MPD2    H3 5995   0.036   2.842   1.250  0.5916  0.3893 -0.6062
  401MPD2     N 5996   0.178   2.435   1.083 -0.0992 -0.1427  0.6441
  401MPD2    H5 5997   0.254   2.391   1.032 -1.4574 -0.4255 -1.1574
  401MPD2    N1 5998   0.479   2.800   1.184 -0.6177  0.4762 -0.3014
  401MPD2    H7 5999   0.552   2.733   1.165  0.5164  1.2030  1.4783
  402TMC3    C1 6000   0.103   2.228   1.081 -0.1542  0.7838 -0.2402
  402TMC3    C2 6001   0.090   2.130   1.172 -0.4984  0.2853  0.0553
  402TMC3    C3 6002   0.142   2.004   1.148  0.5290 -0.0219  0.4865
  402TMC3    C4 6003   0.154   2.204   0.957  0.3152  0.3570  0.3636
  402TMC3    C5 6004   0.196   2.083   0.926  0.1534 -0.9008  0.7555
  402TMC3    C6 6005   0.188   1.984   1.021 -1.0468 -0.1932  0.3355
  402TMC3     C 6006   0.076   2.358   1.126  0.9303 -0.1311  0.4801
  402TMC3     O 6007   4.713   2.382   1.204 -0.1498 -0.0156  0.2684
  402TMC3     H 6008   0.062   2.158   1.273 -1.2333 -0.0779 -0.0498
  402TMC3    H1 6009   0.164   2.285   0.885  0.5533 -0.3039 -0.3452
  402TMC3    H2 6010   0.231   1.887   0.997  1.8891  0.7965  1.5382
  402TMC3    C7 6011   0.294   2.092   0.819 -1.3125  0.5508  0.6457
  402TMC3    C8 6012   0.251   1.970   1.231  0.2586 -0.1139  0.0585
  402TMC3    O1 6013   0.279   2.175   0.724 -0.0605 -0.5732  0.1462
  402TMC3    O2 6014   0.364   1.967   1.178 -0.2572  0.3737 -0.3152
  403MPD2     C 6015   2.880   1.268  13.638  0.0007 -0.9642  0.8987
  403MPD2    C1 6016   2.958   1.176  13.576 -0.2899  0.0594 -0.2458
  403MPD2    C2 6017   3.073   1.132  13.639 -0.7698 -0.6229 -0.2563
  403MPD2    C3 6018   3.102   1.178  13.764  0.9711 -0.5449 -0.5981
  403MPD2    C4 6019   3.022   1.279  13.825 -0.5985  0.3396 -0.3104
  403MPD2    C5 6020   2.913   1.323  13.758  0.3295  1.4218  0.1269
  403MPD2     H 6021   3.145   1.065  13.594  1.1590  1.7133 -0.6603
  403MPD2    H1 6022   3.048   1.330  13.917  0.9776  1.5554 -1.4407
  403MPD2    H2 6023   2.790   1.300  13.587  0.8495  1.5951  0.9638
  403MPD2    H3 6024   2.844   1.394  13.802  2.9925  2.1207  3.1902
  403MPD2     N 6025   3.214   1.118  13.834 -0.2006  0.0827  0.5225
  403MPD2    H5 6026   3.250   1.032  13.796  0.4178  0.4929  0.1743
  403MPD2    N1 6027   2.934   1.120  13.451 -0.5393  0.1183  0.0175
  403MPD2    H7 6028   2.978   1.031  13.427  0.3092  1.2716 -2.7066
  404TMC3    C1 6029   2.817   1.084  13.255 -1.0086  0.1715 -0.5638
  404TMC3    C2 6030   2.810   0.953  13.294  0.2684  0.5039  0.2607
  404TMC3    C3 6031   2.757   0.859  13.203 -0.3846 -0.5654  0.3506
  404TMC3    C4 6032   2.798   1.125  13.129  0.6660 -0.8887  0.3774
  404TMC3    C5 6033   2.760   1.029  13.039  1.0304 -0.4614  0.0243
  404TMC3    C6 6034   2.744   0.893  13.069  0.4008  0.3790 -0.1048
  404TMC3     C 6035   2.860   1.181  13.355 -1.0715 -0.4177  0.5326
  404TMC3     O 6036   2.834   1.305  13.349 -0.0760  0.2161 -0.0038
  404TMC3     H 6037   2.825   0.927  13.398  1.4645  1.7834  0.4082
  404TMC3    H1 6038   2.809   1.230  13.105 -0.6958 -0.5211  1.3578
  404TMC3    H2 6039   2.718   0.816  12.997 -1.4179 -1.5325  2.6039
  404TMC3    C7 6040   2.741   1.079  12.908 -0.6059 -0.4181  0.0654
  404TMC3    C8 6041   2.782   0.715  13.234 -0.1431  0.5452  0.5028
  404TMC3    O1 6042   2.776   1.193  12.879 -0.1254 -0.1425 -0.1192
  404TMC3    O2 6043   2.827   0.643  13.145 -0.0507 -0.4710 -0.0443
  405MPD2     C 6044   3.095   1.309  15.003 -0.4839 -0.3225  0.0122
  405MPD2    C1 6045   3.093   1.271  14.873 -0.1484 -0.2299 -0.0314
  405MPD2    C2 6046   3.106   1.367  14.769  0.3211  0.1657  0.3502
  405MPD2    C3 6047   3.115   1.500  14.797  0.6371 -0.2743 -0.1083
  405MPD2    C4 6048   3.113   1.539  14.930 -0.8859  0.6850  0.0259
  405MPD2    C5 6049   3.119   1.442  15.032 -0.2712 -0.6418 -0.5894
  405MPD2     H 6050   3.102   1.332  14.666 -0.3921 -0.7710  0.6951
  405MPD2    H1 6051   3.111   1.643  14.958  3.6128  1.1757 -1.4492
  405MPD2    H2 6052   3.101   1.237  15.084  0.5847 -1.2514 -0.8985
  405MPD2    H3 6053   3.118   1.476  15.135  0.2824 -1.3222 -0.3566
  405MPD2     N 6054   3.134   1.588  14.694 -0.1426  0.2002  0.2728
  405MPD2    H5 6055   3.136   1.544  14.603  0.4922  2.1777 -0.6491
  405MPD2    N1 6056   3.067   1.139  14.833  0.1257  0.3226 -0.2771
  405MPD2    H7 6057   3.069   1.114  14.735  1.6821  2.2986 -0.7532
  406TMC3    C1 6058   3.083   1.960  14.434  0.7407  0.1126 -0.1803
  406TMC3    C2 6059   3.095   1.873  14.325  0.8551  0.1741  0.7125
  406TMC3    C3 6060   3.145   1.746  14.339  0.1911  0.2868  0.5303
  406TMC3    C4 6061   3.114   1.920  14.560  0.1001 -0.6930  0.3479
  406TMC3    C5 6062   3.154   1.784  14.573  0.6749 -0.2554  0.4289
  406TMC3    C6 6063   3.183   1.709  14.463  0.9396 -0.1848  0.1221
  406TMC3     C 6064   2.963   2.043  14.444 -0.4255 -0.2074  0.0148
  406TMC3     O 6065   2.950   2.121  14.535 -0.2849 -0.1076 -0.1300
  406TMC3     H 6066   3.067   1.902  14.224 -0.5838 -0.1605  1.0191
  406TMC3    H1 6067   3.092   1.975  14.651 -0.8333  0.0845 -0.3436
  406TMC3    H2 6068   3.243   1.620  14.478 -0.4025 -1.0333  0.4644
  406TMC3    C7 6069   3.145   1.725  14.706  0.3262 -0.2811 -0.5746
  406TMC3    C8 6070   3.059   1.654  14.277 -1.0259 -0.0669  0.4634
  406TMC3    O1 6071   3.152   1.800  14.803 -0.4016  0.3872  0.3288
  406TMC3    O2 6072   2.973   1.707  14.213  0.3061 -0.3925 -0.0621
  407MPD2     C 6073   1.168   3.147   9.383  0.4198  0.4022 -0.7405
  407MPD2    C1 6074   1.258   3.169   9.483 -0.4150 -0.2685 -0.2464
  407MPD2    C2 6075   1.232   3.255   9.588 -0.9187 -0.0246  0.0512
  407MPD2    C3 6076   1.113   3.325   9.595 -0.1381  0.0752  0.1035
  407MPD2    C4 6077   1.021   3.293   9.497  0.6487  0.1100 -0.6081
  407MPD2    C5 6078   1.039   3.191   9.399 -0.2628 -0.3963 -0.1083
  407MPD2     H 6079   1.316   3.270   9.655 -0.8853  0.5171 -0.1104
  407MPD2    H1 6080   0.925   3.343   9.500 -0.8347 -2.6341 -3.0471
  407MPD2    H2 6081   1.177   3.082   9.296  0.1902 -0.6520  0.0238
  407MPD2    H3 6082   0.958   3.164   9.332 -0.1372 -0.1044 -0.3817
  407MPD2     N 6083   1.098   3.420   9.698 -0.2066 -0.3870  0.3376
  407MPD2    H5 6084   1.169   3.435   9.770  1.2503  1.1421 -1.4371
  407MPD2    N1 6085   1.396   3.139   9.463 -0.3879  0.5931  0.2498
  407MPD2    H7 6086   1.457   3.189   9.527 -0.6394 -0.8288  1.5999
  408TMC3    C1 6087   1.579   3.056   9.365  0.0176 -0.0759 -0.0314
  408TMC3    C2 6088   1.642   2.938   9.351 -0.7516  0.3831  0.2421
  408TMC3    C3 6089   1.777   2.939   9.352  0.2132  0.3260 -0.0600
  408TMC3    C4 6090   1.643   3.171   9.388  0.2459  0.3691 -0.5611
  408TMC3    C5 6091   1.776   3.169   9.381  0.0745 -0.4300  1.2840
  408TMC3    C6 6092   1.841   3.056   9.353 -0.4192 -0.4911  0.5919
  408TMC3     C 6093   1.440   3.050   9.373  0.2276 -0.5544  0.1687
  408TMC3     O 6094   1.392   2.949   9.323 -0.5437 -0.8355  0.1243
  408TMC3     H 6095   1.585   2.845   9.351 -1.5168  0.8687 -2.2927
  408TMC3    H1 6096   1.598   3.269   9.398 -0.7454 -0.5163  3.5083
  408TMC3    H2 6097   1.949   3.054   9.342 -0.7469 -1.3336 -2.3550
  408TMC3    C7 6098   1.852   3.275   9.449  0.6999 -0.1346 -1.1506
  408TMC3    C8 6099   1.847   2.821   9.400 -0.4273 -0.1557  0.1107
  408TMC3    O1 6100   1.960   3.228   9.486  0.1717  0.4417  0.0245
  408TMC3    O2 6101   1.796   2.708   9.393 -0.3032 -0.2163 -0.1638
  409MPD2     C 6102   0.406   3.767  16.632 -0.4461  0.2883 -0.2165
  409MPD2    C1 6103   0.513   3.701  16.687 -0.5338  0.2521  0.1954
  409MPD2    C2 6104   0.643   3.748  16.663  0.4682 -0.2203 -0.0232
  409MPD2    C3 6105   0.666   3.868  16.591 -0.1395 -0.6569 -0.3480
  409MPD2    C4 6106   0.558   3.925  16.538  0.4537 -0.2287 -0.0106
  409MPD2    C5 6107   0.432   3.876  16.558 -0.7029  0.3233  1.1994
  409MPD2     H 6108   0.725   3.686  16.698 -0.4487 -0.7094  1.2560
  409MPD2    H1 6109   0.564   4.015  16.477 -1.3670 -0.5737 -0.6919
  409MPD2    H2 6110   0.304   3.731  16.635  0.7006 -2.8247  0.8649
  409MPD2    H3 6111   0.352   3.933  16.512  0.6255  2.6043  1.7261
  409MPD2     N 6112   0.795   3.917  16.559 -0.1303 -0.1069 -0.0002
  409MPD2    H5 6113   0.787   4.005  16.509  0.4383  0.0648  0.2114
  409MPD2    N1 6114   0.496   3.583  16.758 -0.6551  0.1391  0.6808
  409MPD2    H7 6115   0.575   3.520  16.766 -0.4845  0.2292 -0.3299
  410TMC3    C1 6116   1.027   3.934  16.546 -0.1189 -0.1376  0.3174
  410TMC3    C2 6117   1.126   3.977  16.634 -0.1475 -0.9370 -0.4045
  410TMC3    C3 6118   1.228   4.057  16.593 -0.6828  0.6326 -0.2363
  410TMC3    C4 6119   1.029   3.964  16.414  0.8555 -0.4206 -0.5447
  410TMC3    C5 6120   1.141   4.036  16.371 -0.1647 -0.3306 -0.3562
  410TMC3    C6 6121   1.240   4.073  16.460 -0.4475 -0.3742  0.2399
  410TMC3     C 6122   0.912   3.865  16.601  0.0780 -0.4926  0.2361
  410TMC3     O 6123   0.932   3.774  16.683  0.4139 -0.1062 -0.1846
  410TMC3     H 6124   1.110   3.940  16.734  2.0699 -0.6201  0.0789
  410TMC3    H1 6125   0.947   3.937  16.348 -0.6197 -1.5044  1.7357
  410TMC3    H2 6126   1.327   4.130  16.431 -0.2416 -0.2103  1.1710
  410TMC3    C7 6127   1.142   4.092  16.238 -0.3428  0.1171 -0.2471
  410TMC3    C8 6128   1.349   4.066  16.681  0.0668  0.1437  0.9768
  410TMC3    O1 6129   1.067   4.037  16.155  0.0868 -0.1470  0.0496
  410TMC3    O2 6130   1.394   4.178  16.692  0.1187  0.6454 -0.0934
  411MPD2     C 6131   4.408   4.359  14.053 -0.1268  0.2761 -0.2588
  411MPD2    C1 6132   4.497   4.282  14.125 -0.0385  0.3233  0.6184
  411MPD2    C2 6133   4.459   4.156  14.173  0.0610 -0.8367  0.0471
  411MPD2    C3 6134   4.331   4.103  14.138  0.0152  0.2713  0.3601
  411MPD2    C4 6135   4.253   4.182  14.056 -0.2309 -0.0818 -0.3250
  411MPD2    C5 6136   4.286   4.308  14.023 -0.3190 -0.4120  0.2306
  411MPD2     H 6137   4.516   4.110  14.252  1.0364  0.8787  0.3361
  411MPD2    H1 6138   4.156   4.147  14.021 -1.5694  2.9486  0.3543
  411MPD2    H2 6139   4.427   4.463  14.030 -0.9404 -0.1146 -2.7305
  411MPD2    H3 6140   4.214   4.366  13.966  1.0794 -0.1418 -1.2603
  411MPD2     N 6141   4.287   3.974  14.175  0.0928  0.2710  0.2115
  411MPD2    H5 6142   4.193   3.946  14.150 -0.6164  1.7230  1.2468
  411MPD2    N1 6143   4.620   4.350  14.153  0.1618  0.2854 -0.0231
  411MPD2    H7 6144   4.636   4.438  14.106 -0.2173  1.0386  1.2604
  412TMC3    C1 6145   4.295   3.756  14.263  0.4928 -1.1879  0.5936
  412TMC3    C2 6146   4.156   3.782  14.267  0.3984  0.2249  0.6505
  412TMC3    C3 6147   4.071   3.709  14.184 -0.5935  0.2001  0.3783
  412TMC3    C4 6148   4.345   3.664  14.175  0.2585  0.2488 -0.4852
  412TMC3    C5 6149   4.256   3.600  14.086 -0.2253  0.0459  0.1143
  412TMC3    C6 6150   4.122   3.606  14.107 -0.1345 -0.6092  0.7961
  412TMC3     C 6151   4.361   3.876  14.240  0.4165 -0.5824 -0.0477
  412TMC3     O 6152   4.478   3.885  14.276 -0.0950 -0.0129 -0.0671
  412TMC3     H 6153   4.118   3.869  14.320 -2.8838  0.4347 -2.0553
  412TMC3    H1 6154   4.452   3.645  14.169  0.6902  2.1665  1.0864
  412TMC3    H2 6155   4.055   3.561  14.034 -0.2342 -2.5888  2.1163
  412TMC3    C7 6156   4.274   3.662  13.960  0.6934  0.2437  0.2782
  412TMC3    C8 6157   3.963   3.787  14.133  0.4814  0.2346 -0.4489
  412TMC3    O1 6158   4.177   3.686  13.892 -0.1801  0.2488 -0.5769
  412TMC3    O2 6159   3.979   3.905  14.135  0.1550  0.2199 -0.1717
  413MPD2     C 6160   2.667   2.820  14.743 -0.0742 -0.2317  0.5302
  413MPD2    C1 6161   2.579   2.720  14.751 -0.8471  0.1413  0.5055
  413MPD2    C2 6162   2.623   2.591  14.760  0.5257 -0.3165  0.8246
  413MPD2    C3 6163   2.759   2.556  14.758 -0.4839  0.1796  0.4571
  413MPD2    C4 6164   2.852   2.662  14.750  0.1566  0.1288 -0.0223
  413MPD2    C5 6165   2.798   2.787  14.727 -0.5587 -0.4701 -0.2498
  413MPD2     H 6166   2.553   2.509  14.772  0.6620 -0.7982 -1.6234
  413MPD2    H1 6167   2.956   2.648  14.722 -0.2610 -0.6774 -1.2086
  413MPD2    H2 6168   2.646   2.926  14.740  0.4201 -0.1308  0.6773
  413MPD2    H3 6169   2.866   2.867  14.700 -0.0702 -0.2339  1.6508
  413MPD2     N 6170   2.809   2.424  14.762  0.1146  0.2737  0.2024
  413MPD2    H5 6171   2.909   2.425  14.745  0.0591 -0.3659 -0.1506
  413MPD2    N1 6172   2.441   2.763  14.771  0.5737 -0.0174  0.2618
  413MPD2    H7 6173   2.422   2.862  14.780 -2.5571 -0.7176  1.2751
  414TMC3    C1 6174   2.825   2.194  14.803 -0.3393 -0.3339 -0.0115
  414TMC3    C2 6175   2.771   2.067  14.799  0.5234 -0.4376  0.4159
  414TMC3    C3 6176   2.828   1.973  14.876 -0.0955  1.0913  0.0792
  414TMC3    C4 6177   2.928   2.221  14.889  0.6610 -0.0175 -0.1262
  414TMC3    C5 6178   2.987   2.119  14.956 -0.2482  0.2986 -1.0735
  414TMC3    C6 6179   2.948   1.988  14.943  0.1526 -0.6917 -0.2057
  414TMC3     C 6180   2.743   2.303  14.774 -0.2587  0.3058 -0.1737
  414TMC3     O 6181   2.624   2.291  14.803  0.6044  0.1923 -0.0026
  414TMC3     H 6182   2.675   2.051  14.752 -0.3222  0.4568  1.8560
  414TMC3    H1 6183   2.969   2.317  14.918  0.6299  0.0871 -0.4301
  414TMC3    H2 6184   2.978   1.910  15.012  1.2959  0.1530  0.2492
  414TMC3    C7 6185   3.114   2.142  15.020  0.2898  0.5653 -0.2378
  414TMC3    C8 6186   2.783   1.838  14.853 -0.8046 -0.3571 -0.0664
  414TMC3    O1 6187   3.133   2.257  15.060  0.5118  0.2952 -0.4222
  414TMC3    O2 6188   2.771   1.769  14.956  0.3082 -0.3244  0.3456
  415TMC3    C1 6189   3.443   4.535   9.749 -0.0018 -0.8055 -0.1812
  415TMC3    C2 6190   3.546   4.478   9.681  0.1905 -0.3680  0.0338
  415TMC3    C3 6191   3.658   4.450   9.752 -0.4773  0.3549 -0.1752
  415TMC3    C4 6192   3.447   4.566   9.882  0.2063 -0.2619 -0.1527
  415TMC3    C5 6193   3.565   4.540   9.947 -0.9842  0.2997 -0.1650
  415TMC3    C6 6194   3.668   4.480   9.887  0.0190 -0.2167  0.0527
  415TMC3     C 6195   3.327   4.576   9.674 -0.0458  0.7430 -0.1315
  415TMC3     O 6196   3.226   4.592   9.735 -0.6211  0.2238 -0.0751
  415TMC3     H 6197   3.547   4.452   9.576 -0.6985 -0.6340  0.0888
  415TMC3    H1 6198   3.360   4.603   9.935  1.8125  0.7969  1.7196
  415TMC3    H2 6199   3.767   4.492   9.930  0.4908 -0.9479 -0.8327
  415TMC3    C7 6200   3.586   4.579  10.082  0.0197 -0.3140 -0.4041
  415TMC3    C8 6201   3.775   4.455   9.670 -1.0857  0.3109 -0.5436
  415TMC3    O1 6202   3.674   4.517  10.142 -0.6322  0.6748  0.5515
  415TMC3    O2 6203   3.784   4.376   9.574 -0.0766  0.3595 -0.1373
  416MPD2     C 6204   0.100   4.554  11.027  0.3992  0.3457 -0.2494
  416MPD2    C1 6205   4.714   4.510  11.082  0.1927  0.0725 -0.6251
  416MPD2    C2 6206   4.652   4.387  11.041  0.1137  0.6718 -0.3035
  416MPD2    C3 6207   4.703   4.320  10.928 -0.2055  0.1277  0.4006
  416MPD2    C4 6208   0.093   4.374  10.867  0.1062 -0.6615  0.0958
  416MPD2    C5 6209   0.159   4.486  10.923  0.3189  0.4079 -0.3881
  416MPD2     H 6210   4.560   4.354  11.087 -0.6030 -0.0484 -2.2737
  416MPD2    H1 6211   0.129   4.340  10.771 -0.0727 -0.5567 -0.0074
  416MPD2    H2 6212   0.149   4.646  11.056 -0.9302  0.8277  0.4506
  416MPD2    H3 6213   0.246   4.536  10.883  0.7017  0.5486  0.6006
  416MPD2     N 6214   4.637   4.208  10.868 -0.2090 -0.0752 -0.2403
  416MPD2    H5 6215   4.666   4.178  10.776 -1.0834 -0.2807 -0.4477
  416MPD2    N1 6216   4.656   4.599  11.167 -0.1338  0.3804 -0.7080
  416MPD2    H7 6217   4.693   4.693  11.169  1.6178 -0.2771 -1.9773
  417TMC3    C1 6218   4.492   4.679  11.305  0.6190 -0.6636 -0.2768
  417TMC3    C2 6219   4.488   4.698  11.438  0.0470  0.4894 -0.0690
  417TMC3    C3 6220   4.395   0.055  11.483 -1.1641 -0.1310 -0.4741
  417TMC3    C4 6221   4.420   0.022  11.211 -0.1193  0.6534  0.2240
  417TMC3    C5 6222   4.337   0.116  11.266  0.5810 -0.1164  0.0257
  417TMC3    C6 6223   4.325   0.131  11.397 -0.0463 -0.4181 -0.1588
  417TMC3     C 6224   4.562   4.566  11.259 -0.4712 -0.1565  0.1899
  417TMC3     O 6225   4.519   4.456  11.293  0.0954  0.0570 -0.0270
  417TMC3     H 6226   4.566   4.650  11.496  0.8428  1.1336 -0.6087
  417TMC3    H1 6227   4.418   4.724  11.105  1.5643 -2.1383  0.8527
  417TMC3    H2 6228   4.254   0.202  11.436 -0.6712 -0.3870 -1.3535
  417TMC3    C7 6229   4.261   0.202  11.174  0.1268  0.2947 -0.2148
  417TMC3    C8 6230   4.349   0.054  11.624 -0.0600 -0.5354  0.4384
  417TMC3    O1 6231   4.308   0.204  11.065 -0.1010  1.0312  0.2512
  417TMC3    O2 6232   4.238   0.101  11.645  0.2082 -0.1953  0.0946
  418TMC3    C1 6233   3.681   0.578   0.206 -0.4623 -0.3418 -0.1763
  418TMC3    C2 6234   3.566   0.582   0.137 -0.3573  0.3588  0.0488
  418TMC3    C3 6235   3.512   0.701   0.112  0.5998  0.2936 -0.4557
  418TMC3    C4 6236   3.762   0.689   0.218 -0.4515 -0.0120 -0.3730
  418TMC3    C5 6237   3.700   0.811   0.199 -0.6068  0.6057  0.1964
  418TMC3    C6 6238   3.573   0.816   0.147  0.5487 -0.0851  0.2728
  418TMC3     C 6239   3.682   0.465   0.294 -0.4447 -0.7449  0.1210
  418TMC3     O 6240   3.643   0.356   0.270 -0.1687  0.8423  0.2200
  418TMC3     H 6241   3.505   0.495   0.116  0.8623 -0.3478 -0.5773
  418TMC3    H1 6242   3.852   0.685   0.278 -1.0087 -2.1607  0.3196
  418TMC3    H2 6243   3.534   0.915   0.124  1.1634 -0.1954 -1.2450
  418TMC3    C7 6244   3.771   0.929   0.226  0.3968 -0.2346  0.7242
  418TMC3    C8 6245   3.371   0.706   0.083 -0.3971  0.5224 -0.4439
  418TMC3    O1 6246   3.707   1.032   0.236  0.4375 -0.4487 -0.0089
  418TMC3    O2 6247   3.321   0.789   0.007 -0.1807  0.4361 -0.1174
  419MPD2     C 6248   2.033   4.364  12.361 -0.2654 -0.8706  0.3157
  419MPD2    C1 6249   1.986   4.492  12.379  0.1692  0.6745 -0.4710
  419MPD2    C2 6250   1.959   4.549  12.506  0.1436  0.6691  0.4204
  419MPD2    C3 6251   1.974   4.468  12.620  0.6634  0.6946 -0.3986
  419MPD2    C4 6252   2.028   4.341  12.600  1.0077 -0.0825  0.4402
  419MPD2    C5 6253   2.049   4.292  12.473  0.2675  0.2522  0.8593
  419MPD2     H 6254   1.914   4.648  12.515  1.9323  1.6780 -1.7263
  419MPD2    H1 6255   2.038   4.269  12.681  0.7696 -1.7398 -0.9924
  419MPD2    H2 6256   2.039   4.317  12.264  1.2198  1.1323 -0.5486
  419MPD2    H3 6257   2.082   4.189  12.467 -2.0691 -0.5421  1.7930
  419MPD2     N 6258   1.933   4.519  12.747 -0.6232 -0.3953 -0.1193
  419MPD2    H5 6259   1.893   4.612  12.751  3.9373  1.4711  1.8136
  419MPD2    N1 6260   1.945   4.571  12.268  0.2826 -0.1625 -0.2218
  419MPD2    H7 6261   1.911   4.662  12.295 -0.8663 -1.2177  1.8390
  420TMC3    C1 6262   1.866   4.543  12.965  0.0200  0.2688 -0.5625
  420TMC3    C2 6263   1.776   4.635  12.925  0.1891 -0.6890  0.3154
  420TMC3    C3 6264   1.733   0.009  13.005 -1.4473 -1.1282  0.2948
  420TMC3    C4 6265   1.893   4.530  13.101  0.1718 -0.3309 -0.2617
  420TMC3    C5 6266   1.854   4.631  13.180  0.4803 -0.6119 -0.3408
  420TMC3    C6 6267   1.773   0.010  13.136  0.4973 -0.1962  0.4707
  420TMC3     C 6268   1.934   4.461  12.873  0.0683  0.0406 -0.4897
  420TMC3     O 6269   1.991   4.361  12.915 -0.2058  0.2738  0.3107
  420TMC3     H 6270   1.741   4.638  12.822  1.3315 -1.3612 -0.0958
  420TMC3    H1 6271   1.948   4.446  13.141  1.0883  0.7268  0.6963
  420TMC3    H2 6272   1.763   0.094  13.203 -1.3235 -0.7605  0.9186
  420TMC3    C7 6273   1.915   4.626  13.317  0.4628 -0.8908  0.4235
  420TMC3    C8 6274   1.616   0.081  12.970  0.3684  0.0269 -0.6022
  420TMC3    O1 6275   1.940   4.519  13.369 -0.4046 -0.2395  0.7406
  420TMC3    O2 6276   1.596   0.080  12.845  0.7236 -0.3852  0.5221
  421TMC3    C1 6277   3.384   1.078  14.008 -0.0471  0.3489 -0.5092
  421TMC3    C2 6278   3.441   1.122  14.124 -0.0177  0.2483  0.0736
  421TMC3    C3 6279   3.570   1.167  14.114  0.2535 -0.9116  0.1638
  421TMC3    C4 6280   3.462   1.039  13.902  0.1700 -0.3273 -0.5557
  421TMC3    C5 6281   3.590   1.070  13.902 -0.2049 -0.5156 -0.4540
  421TMC3    C6 6282   3.650   1.129  14.007 -0.3060  0.4719  0.9510
  421TMC3     C 6283   3.265   1.152  13.957  0.1578 -0.8754 -0.1789
  421TMC3     O 6284   3.224   1.242  14.033  0.0986  0.7024  0.4377
  421TMC3     H 6285   3.372   1.168  14.193 -0.6135 -1.6996  0.7738
  421TMC3    H1 6286   3.416   1.018  13.806  2.5529 -1.2443 -1.5155
  421TMC3    H2 6287   3.754   1.158  13.996 -0.7762  1.9953  0.5553
  421TMC3    C7 6288   3.676   1.026  13.788 -0.5254 -0.2961  0.8287
  421TMC3    C8 6289   3.606   1.282  14.196 -0.2253 -0.1453  0.2450
  421TMC3    O1 6290   3.791   1.072  13.784 -0.0003  0.4910 -0.0503
  421TMC3    O2 6291   3.530   1.295  14.294  0.3847  0.4393  0.0868
  422TMC3    C1 6292   0.658   2.436  12.589 -0.2598  0.1153  0.3918
  422TMC3    C2 6293   0.630   2.548  12.661  0.9570  0.4790 -0.4523
  422TMC3    C3 6294   0.505   2.568  12.719 -0.0305 -0.4082  0.7312
  422TMC3    C4 6295   0.556   2.344  12.567  0.0369  0.1537  0.7821
  422TMC3    C5 6296   0.439   2.360  12.633 -0.2709  0.4717 -0.4967
  422TMC3    C6 6297   0.408   2.470  12.712  0.1371  0.6606 -1.4522
  422TMC3     C 6298   0.755   2.461  12.485  0.1330  0.0626  0.3648
  422TMC3     O 6299   0.778   2.574  12.445 -0.2028 -0.3671 -0.4748
  422TMC3     H 6300   0.709   2.622  12.660 -0.6334  2.1587 -1.2456
  422TMC3    H1 6301   0.569   2.255  12.506  1.0284  1.1256 -0.4257
  422TMC3    H2 6302   0.312   2.480  12.762 -0.6887 -1.5134 -2.5949
  422TMC3    C7 6303   0.337   2.282  12.566 -0.2861 -0.0713 -0.0607
  422TMC3    C8 6304   0.485   2.696  12.794 -0.1217  0.1853  0.4792
  422TMC3    O1 6305   0.359   2.227  12.462  0.3861  0.3041 -0.9068
  422TMC3    O2 6306   0.589   2.764  12.808  0.5302  0.7451 -0.1715
  423MPD2     C 6307   2.893   3.436   0.626 -0.4062 -0.7686 -0.2960
  423MPD2    C1 6308   2.952   3.314   0.641 -0.0872  0.4094 -0.4637
  423MPD2    C2 6309   2.917   3.208   0.555 -0.6213 -0.3901 -0.2237
  423MPD2    C3 6310   2.838   3.227   0.449 -1.1021  0.4143 -0.0667
  423MPD2    C4 6311   2.765   3.348   0.447  0.2509  0.4767 -0.3765
  423MPD2    C5 6312   2.804   3.453   0.524 -0.1602 -0.2394  0.6645
  423MPD2     H 6313   2.961   3.110   0.571 -1.5042 -0.8081 -0.3620
  423MPD2    H1 6314   2.682   3.368   0.379  0.2922 -1.5409 -1.0236
  423MPD2    H2 6315   2.920   3.524   0.684  0.6270 -1.1103 -0.2510
  423MPD2    H3 6316   2.756   3.547   0.499  0.9889  0.2162  0.1688
  423MPD2     N 6317   2.813   3.134   0.342 -0.1460  0.1172  0.2150
  423MPD2    H5 6318   2.754   3.170   0.267 -1.6499 -1.0507  0.8487
  423MPD2    N1 6319   3.041   3.277   0.743  0.2146  0.1439 -0.0901
  423MPD2    H7 6320   3.061   3.179   0.759  0.7988  0.0328 -1.5634
  424TMC3    C1 6321   3.133   3.299   0.967 -0.6537  0.1295 -0.1709
  424TMC3    C2 6322   3.222   3.201   0.941 -0.0051 -0.0909  0.8927
  424TMC3    C3 6323   3.269   3.135   1.054 -0.1901 -0.2130  0.1484
  424TMC3    C4 6324   3.102   3.352   1.093  0.1283  0.2156 -0.1128
  424TMC3    C5 6325   3.145   3.275   1.197 -0.5962 -0.0351 -0.5347
  424TMC3    C6 6326   3.235   3.165   1.182  0.3463 -0.6718  0.3455
  424TMC3     C 6327   3.066   3.359   0.852  0.9845  0.4145  0.3013
  424TMC3     O 6328   3.031   3.477   0.880  0.1175  0.1214  0.3368
  424TMC3     H 6329   3.241   3.158   0.843 -0.0972  2.9328 -0.4518
  424TMC3    H1 6330   3.031   3.433   1.105 -0.2902 -0.3122  1.0062
  424TMC3    H2 6331   3.269   3.104   1.265  1.5492  0.3565  0.5998
  424TMC3    C7 6332   3.090   3.301   1.329  0.4217 -0.0706 -0.5578
  424TMC3    C8 6333   3.333   3.006   1.033 -0.0716 -0.1900 -0.3040
  424TMC3    O1 6334   3.037   3.412   1.345 -0.0030 -0.0877  0.2229
  424TMC3    O2 6335   3.323   2.920   1.120 -0.1037  0.6058 -0.5035
  425MPD2     C 6336   1.684   2.578  17.489  0.1475 -0.0010 -0.8373
  425MPD2    C1 6337   1.624   2.488  17.400  0.3407  0.0724  0.9667
  425MPD2    C2 6338   1.488   2.504  17.373 -0.0010 -0.8331  0.3390
  425MPD2    C3 6339   1.414   2.606  17.435  0.0354 -0.4287 -0.8442
  425MPD2    C4 6340   1.477   2.696  17.518 -0.0260 -0.1304 -0.3535
  425MPD2    C5 6341   1.609   2.678  17.549  0.2823  0.7010  0.3690
  425MPD2     H 6342   1.435   2.427  17.318 -2.8482  0.9352  0.5602
  425MPD2    H1 6343   1.426   2.778  17.568  0.0876 -0.9459  1.1033
  425MPD2    H2 6344   1.790   2.577  17.512  0.0000 -1.0423 -0.2076
  425MPD2    H3 6345   1.656   2.746  17.618 -0.0085  1.7863 -0.4947
  425MPD2     N 6346   1.272   2.597  17.413  0.3970  0.4693 -0.6687
  425MPD2    H5 6347   1.230   2.524  17.357 -1.6359 -0.4019  1.9951
  425MPD2    N1 6348   1.706   2.377  17.361  0.0818  0.7637 -0.0093
  425MPD2    H7 6349   1.798   2.372  17.403 -0.2219  0.5698  0.6357
  426TMC3    C1 6350   1.766   2.179  17.244  0.7547 -0.7515 -0.1549
  426TMC3    C2 6351   1.741   2.098  17.141  0.8799  0.1153  0.4146
  426TMC3    C3 6352   1.830   1.997  17.117 -0.4610  0.3158 -0.1379
  426TMC3    C4 6353   1.859   2.149  17.339 -0.3104 -0.1381 -0.3756
  426TMC3    C5 6354   1.944   2.038  17.317  0.5345 -0.3083  0.0301
  426TMC3    C6 6355   1.935   1.973  17.200  0.2361  0.3852  0.0170
  426TMC3     C 6356   1.666   2.284  17.274 -0.5282  0.1438  0.1346
  426TMC3     O 6357   1.571   2.278  17.195  0.3687 -0.3096 -0.1325
  426TMC3     H 6358   1.668   2.122  17.064  0.3854  1.9430  1.4666
  426TMC3    H1 6359   1.866   2.209  17.429  0.0153 -2.0555  0.8944
  426TMC3    H2 6360   1.990   1.880  17.194 -0.8257 -0.3023  0.9259
  426TMC3    C7 6361   2.063   2.021  17.396  0.1636  0.4028  0.4745
  426TMC3    C8 6362   1.803   1.904  17.006  0.4259 -0.6600 -0.1953
  426TMC3    O1 6363   2.176   1.996  17.348  0.0129  0.1873 -0.1646
  426TMC3    O2 6364   1.706   1.935  16.941  0.0291  0.0356  0.0848
  427MPD2     C 6365   4.361   4.198  14.782  0.5739 -0.4906  0.9404
  427MPD2    C1 6366   4.377   4.235  14.912  0.3023 -0.6165  0.2808
  427MPD2    C2 6367   4.299   4.333  14.971  0.2411  0.2120 -0.3948
  427MPD2    C3 6368   4.209   4.401  14.892 -0.1262 -0.2754 -0.1071
  427MPD2    C4 6369   4.201   4.368  14.754 -0.1133  0.5851  0.6626
  427MPD2    C5 6370   4.277   4.270  14.700 -0.3516  0.1700 -0.6152
  427MPD2     H 6371   4.321   4.358  15.075 -0.5863  0.5783 -0.3089
  427MPD2    H1 6372   4.141   4.417  14.678 -1.5173 -0.9162  0.7850
  427MPD2    H2 6373   4.423   4.120  14.741  0.7346 -0.2810  0.7885
  427MPD2    H3 6374   4.270   4.254  14.593  0.3239 -0.5446 -0.5553
  427MPD2     N 6375   4.127   4.510  14.943  0.2459 -0.0926 -0.0125
  427MPD2    H5 6376   4.088   4.573  14.873 -2.3306 -1.0973  0.5410
  427MPD2    N1 6377   4.479   4.181  14.996  0.1946 -0.0013 -0.1583
  427MPD2    H7 6378   4.510   4.223  15.083 -0.4118  0.1372 -0.0064
  428TMC3    C1 6379   4.676   4.044  15.014 -0.0252  0.4306  0.2629
  428TMC3    C2 6380   4.693   3.914  15.042 -0.0711  0.3997 -0.1122
  428TMC3    C3 6381   0.096   3.874  15.067 -0.3115  0.5328  0.0244
  428TMC3    C4 6382   0.040   4.141  15.009 -0.5251 -0.9365  0.4751
  428TMC3    C5 6383   0.171   4.092  15.021 -0.2716 -0.0180 -0.0885
  428TMC3    C6 6384   0.195   3.966  15.060 -0.2656  0.0734 -0.7145
  428TMC3     C 6385   4.542   4.067  14.958 -0.1434  0.6656 -0.1664
  428TMC3     O 6386   4.502   3.974  14.890 -0.1028  0.0112 -0.6001
  428TMC3     H 6387   4.611   3.845  15.053 -0.1909  0.7615  1.2804
  428TMC3    H1 6388   0.012   4.237  14.969  0.6408 -0.1287  1.5946
  428TMC3    H2 6389   0.295   3.927  15.076 -1.3249 -1.8294  1.3200
  428TMC3    C7 6390   0.288   4.173  15.012 -0.7461  0.0272 -0.2816
  428TMC3    C8 6391   0.130   3.731  15.079 -0.3344  0.4161 -0.1883
  428TMC3    O1 6392   0.360   4.180  15.114  0.1916 -0.0613 -0.2750
  428TMC3    O2 6393   0.231   3.692  15.024  0.1014 -0.2971 -0.3955
  429MPD2     C 6394   0.696   4.481  17.522  0.5782  0.5461 -0.1376
  429MPD2    C1 6395   0.793   4.401  17.461 -0.5965  0.1307  0.1065
  429MPD2    C2 6396   0.888   4.454  17.370 -0.6303  0.4944 -0.1682
  429MPD2    C3 6397   0.876   4.595  17.348 -1.1065  0.3687  0.2803
  429MPD2    C4 6398   0.773   4.671  17.401  0.3888  0.3214  0.4525
  429MPD2    C5 6399   0.684   4.613  17.483  0.7491  0.2443 -0.2874
  429MPD2     H 6400   0.967   4.400  17.319 -0.0686  0.8311  0.3552
  429MPD2    H1 6401   0.763   0.050  17.377 -1.8765 -0.2243 -1.0074
  429MPD2    H2 6402   0.627   4.437  17.593 -0.4452  0.5721 -1.0992
  429MPD2    H3 6403   0.605   4.669  17.533  1.3894 -0.2119  1.2361
  429MPD2     N 6404   0.971   4.651  17.258 -0.0766 -0.1068 -0.2667
  429MPD2    H5 6405   1.047   4.588  17.232  1.6921  1.4597  1.0911
  429MPD2    N1 6406   0.796   4.257  17.479 -0.5642  0.7002  0.2929
  429MPD2    H7 6407   0.882   4.211  17.449 -1.3188 -1.7508  1.8839
  430TMC3    C1 6408   1.060   0.088  17.096  0.9107  0.2258  0.5004
  430TMC3    C2 6409   1.034   0.199  17.013 -0.3419 -0.4605  0.4039
  430TMC3    C3 6410   1.126   0.231  16.921  0.4369 -0.2794  0.0781
  430TMC3    C4 6411   1.178   0.024  17.092  0.4023 -0.2205  0.9145
  430TMC3    C5 6412   1.271   0.066  17.004 -0.5545 -0.2367  0.0535
  430TMC3    C6 6413   1.244   0.168  16.920  0.1067 -0.5149 -0.4814
  430TMC3     C 6414   0.950   0.046  17.190  0.3757  0.0694  0.6489
  430TMC3     O 6415   0.859   0.125  17.206 -0.6599 -0.1411 -0.3492
  430TMC3     H 6416   0.939   0.250  17.004 -0.2554 -0.4058 -0.1996
  430TMC3    H1 6417   1.202   4.677  17.169  1.0212  0.1150  1.0375
  430TMC3    H2 6418   1.318   0.197  16.847  0.6393  0.6571  0.5117
  430TMC3    C7 6419   1.404   0.010  17.022  0.2283  0.8210  0.5223
  430TMC3    C8 6420   1.092   0.334  16.824  0.4010 -0.0442  0.3886
  430TMC3    O1 6421   1.413   4.625  17.073 -0.3359 -0.5131  0.5830
  430TMC3    O2 6422   0.996   0.405  16.851  0.7586 -0.3685 -0.0029
  431MPD2     C 6423   1.693   0.571  12.403  0.1435  0.3065 -0.5945
  431MPD2    C1 6424   1.792   0.571  12.305 -0.0525 -0.4583  0.0887
  431MPD2    C2 6425   1.800   0.467  12.215 -0.5804  0.4822  0.2683
  431MPD2    C3 6426   1.708   0.364  12.219 -0.1552  0.1341 -0.0020
  431MPD2    C4 6427   1.611   0.364  12.321  0.6559 -0.5887  0.1373
  431MPD2    C5 6428   1.603   0.464  12.409  1.1924  0.8648 -0.4773
  431MPD2     H 6429   1.891   0.457  12.155 -0.9730  2.1254 -0.5857
  431MPD2    H1 6430   1.545   0.281  12.345  0.7540 -0.0220  2.3441
  431MPD2    H2 6431   1.689   0.643  12.484 -1.0084 -0.0742 -0.3170
  431MPD2    H3 6432   1.539   0.460  12.496 -0.2981  1.8038 -1.5238
  431MPD2     N 6433   1.721   0.253  12.130 -0.1325 -0.3255  0.3445
  431MPD2    H5 6434   1.666   0.170  12.149 -1.5998  0.6098  0.1899
  431MPD2    N1 6435   1.888   0.669  12.289  0.2721 -0.1580 -0.3247
  431MPD2    H7 6436   1.945   0.659  12.205  1.0339 -1.3078  0.3138
  432TMC3    C1 6437   1.815   0.109  11.971 -0.2943 -0.0780  0.6507
  432TMC3    C2 6438   1.884   0.109  11.847  0.1718  0.2706 -0.2499
  432TMC3    C3 6439   1.960   4.726  11.815 -1.1924  0.4469 -0.1444
  432TMC3    C4 6440   1.831   0.012  12.072  0.2435  0.0865  0.5192
  432TMC3    C5 6441   1.918   4.630  12.035  0.0071 -0.0582  0.3202
  432TMC3    C6 6442   1.977   4.624  11.908  0.3176  0.7568  0.3152
  432TMC3     C 6443   1.811   0.247  12.028  0.8472  0.3570 -0.0567
  432TMC3     O 6444   1.873   0.328  11.963 -0.1984  0.0078 -0.1735
  432TMC3     H 6445   1.869   0.187  11.773 -1.4570 -1.2054 -1.4973
  432TMC3    H1 6446   1.788   0.025  12.171 -0.4432  4.2529 -0.3480
  432TMC3    H2 6447   2.039   4.542  11.875 -0.6538  0.7629 -1.5312
  432TMC3    C7 6448   1.973   4.541  12.136  0.6180  0.4027 -0.6825
  432TMC3    C8 6449   2.051   0.012  11.705 -0.9581 -0.3273 -0.3869
  432TMC3    O1 6450   2.043   4.450  12.096  0.0356 -0.3849  0.2268
  432TMC3    O2 6451   2.088   0.130  11.685 -0.2580 -0.1610 -0.2287
  433MPD2     C 6452   0.917   3.959  10.628  0.2785  0.4909 -0.3178
  433MPD2    C1 6453   0.837   3.859  10.668 -0.2327  0.4234 -0.9142
  433MPD2    C2 6454   0.779   3.867  10.797  0.0403  0.3538  0.2508
  433MPD2    C3 6455   0.802   3.976  10.881 -0.1816  0.3414  0.1224
  433MPD2    C4 6456   0.879   4.083  10.833 -0.0722  0.5673 -0.3257
  433MPD2    C5 6457   0.933   4.068  10.706 -0.2402 -0.5063 -0.9643
  433MPD2     H 6458   0.711   3.793  10.838  0.1429 -0.1619 -0.5109
  433MPD2    H1 6459   0.916   4.165  10.893 -2.6988  1.7121 -0.2858
  433MPD2    H2 6460   0.974   3.951  10.536  0.5866  0.4319 -0.1250
  433MPD2    H3 6461   1.005   4.141  10.671  0.1465 -0.8670 -0.9258
  433MPD2     N 6462   0.742   3.983  11.007  0.0933 -0.1207 -0.2672
  433MPD2    H5 6463   0.702   3.895  11.038 -0.2228 -0.1394 -0.7251
  433MPD2    N1 6464   0.810   3.749  10.580  0.4979 -0.0033  0.1136
  433MPD2    H7 6465   0.860   3.739  10.492  0.9342 -1.6616  0.5568
  434TMC3    C1 6466   0.763   3.525  10.528 -0.2603 -0.2563 -0.0422
  434TMC3    C2 6467   0.771   3.423  10.611  0.7403  0.6750 -0.3841
  434TMC3    C3 6468   0.824   3.306  10.570  0.2607  0.0738 -0.3025
  434TMC3    C4 6469   0.821   3.527  10.406  0.3851  0.1390 -0.7916
  434TMC3    C5 6470   0.875   3.405  10.360  0.1842 -0.3795  0.2364
  434TMC3    C6 6471   0.884   3.299  10.446 -0.3914  0.3456 -0.0039
  434TMC3     C 6472   0.724   3.645  10.607 -0.4300  0.6547 -0.3293
  434TMC3     O 6473   0.632   3.644  10.686  0.5069  0.2276  0.4805
  434TMC3     H 6474   0.723   3.425  10.709  2.4429  0.3191  0.4504
  434TMC3    H1 6475   0.816   3.615  10.343 -0.2417 -0.1115 -1.0897
  434TMC3    H2 6476   0.927   3.202  10.424  0.3205  1.1030 -1.8829
  434TMC3    C7 6477   0.879   3.383  10.215  0.5157  0.5965  0.0696
  434TMC3    C8 6478   0.899   3.245  10.675 -0.8851 -0.7737 -0.2067
  434TMC3    O1 6479   0.855   3.474  10.140  0.1377  0.5063  0.1777
  434TMC3    O2 6480   0.920   3.313  10.773  0.4648  0.0349 -0.0927
  435MPD2     C 6481   2.999   3.492  15.308  0.3393  0.4903  0.1422
  435MPD2    C1 6482   2.986   3.562  15.424  0.0943  0.8316  0.0213
  435MPD2    C2 6483   3.076   3.532  15.527 -0.0515 -0.3948  0.7181
  435MPD2    C3 6484   3.167   3.431  15.526 -0.3116  0.1243  0.3716
  435MPD2    C4 6485   3.166   3.356  15.413 -0.7376 -0.1671 -0.0975
  435MPD2    C5 6486   3.090   3.389  15.304 -0.6375 -0.1645  0.5052
  435MPD2     H 6487   3.061   3.589  15.618 -1.6923  3.3465 -1.9010
  435MPD2    H1 6488   3.221   3.263  15.408  0.8490  0.7834 -0.4713
  435MPD2    H2 6489   2.930   3.511  15.227  0.4017 -1.6414 -0.4228
  435MPD2    H3 6490   3.082   3.322  15.219 -0.0245 -1.4180  1.4378
  435MPD2     N 6491   3.232   3.394  15.644  0.1594 -0.2191 -0.5519
  435MPD2    H5 6492   3.211   3.448  15.727  1.7721 -0.4706  0.0287
  435MPD2    N1 6493   2.891   3.670  15.421 -0.7454  0.2984  0.2716
  435MPD2    H7 6494   2.848   3.684  15.331 -1.0892 -0.3418  0.3324
  436TMC3    C1 6495   2.551   3.938  15.536  0.1361 -0.2066 -0.5996
  436TMC3    C2 6496   2.667   3.867  15.579  0.5677  0.3425  0.8370
  436TMC3    C3 6497   2.761   3.856  15.482  0.3720 -0.2514 -0.4640
  436TMC3    C4 6498   2.539   3.997  15.409  0.4400 -0.1791 -0.5085
  436TMC3    C5 6499   2.647   3.989  15.324  0.3639 -0.5782  0.4630
  436TMC3    C6 6500   2.759   3.914  15.356 -0.3026  0.2498  0.4244
  436TMC3     C 6501   2.445   3.946  15.628 -0.8800  0.4396  0.1495
  436TMC3     O 6502   2.479   3.941  15.742  0.0238 -0.2803 -0.5685
  436TMC3     H 6503   2.678   3.812  15.671 -1.3377 -0.3087  0.6819
  436TMC3    H1 6504   2.461   4.063  15.374  0.9669  0.2847 -0.8040
  436TMC3    H2 6505   2.852   3.932  15.305  0.1672 -3.3107  0.0714
  436TMC3    C7 6506   2.635   4.069  15.201  0.3692 -0.0244  0.0375
  436TMC3    C8 6507   2.862   3.755  15.523 -0.3202 -0.8015 -0.1206
  436TMC3    O1 6508   2.559   4.163  15.199  0.2520 -0.0991  0.1971
  436TMC3    O2 6509   2.891   3.756  15.642 -0.1971  0.3426  0.2494
  437TMC3    C1 6510   1.060   1.019  12.513  0.3047 -0.0581 -0.1435
  437TMC3    C2 6511   0.932   1.041  12.469  0.2095  0.1305 -0.4201
  437TMC3    C3 6512   0.902   1.143  12.379 -0.4014 -0.5281 -0.6948
  437TMC3    C4 6513   1.169   1.073  12.444  0.7818 -0.7285 -1.1538
  437TMC3    C5 6514   1.134   1.158  12.338 -0.1464  0.0395  0.7262
  437TMC3    C6 6515   1.007   1.205  12.315 -0.6057  0.3911 -0.6343
  437TMC3     C 6516   1.085   0.924  12.623 -0.5073  0.0669 -0.9397
  437TMC3     O 6517   1.199   0.872  12.631 -0.0088 -0.4958 -0.3658
  437TMC3     H 6518   0.846   1.002  12.522 -2.5805  2.2708 -3.4107
  437TMC3    H1 6519   1.270   1.056  12.479  1.1023  0.5958 -1.4285
  437TMC3    H2 6520   0.989   1.278  12.237  2.1288  2.0957  0.3333
  437TMC3    C7 6521   1.238   1.218  12.256  0.0028  0.1066  0.3125
  437TMC3    C8 6522   0.760   1.163  12.350  0.1547 -0.0885  0.7496
  437TMC3    O1 6523   1.198   1.276  12.155 -0.3570 -0.5922 -0.0860
  437TMC3    O2 6524   0.684   1.070  12.363  0.6033 -0.6076 -0.0722
  438MPD2     C 6525   3.913   1.284  16.477  0.2624  0.0160  0.2048
  438MPD2    C1 6526   3.993   1.227  16.574 -0.2405 -0.2222 -0.1904
  438MPD2    C2 6527   3.965   1.255  16.708  0.5693  0.0958 -0.5511
  438MPD2    C3 6528   3.874   1.355  16.739 -0.1121  0.2502 -0.2443
  438MPD2    C4 6529   3.779   1.397  16.641 -0.2808 -0.5770 -0.2293
  438MPD2    C5 6530   3.807   1.359  16.509  0.5338 -0.3820  0.0387
  438MPD2     H 6531   4.029   1.213  16.784  0.8455  1.2233 -0.1481
  438MPD2    H1 6532   3.703   1.472  16.654  0.7996  0.4548  0.0775
  438MPD2    H2 6533   3.927   1.269  16.371  1.0930 -0.8894  0.4450
  438MPD2    H3 6534   3.733   1.393  16.438  0.8653 -2.6124 -1.3690
  438MPD2     N 6535   3.854   1.387  16.874 -0.3503  0.0810  0.7876
  438MPD2    H5 6536   3.776   1.446  16.902  1.0026  1.9031  0.7255
  438MPD2    N1 6537   4.102   1.147  16.546  0.6842 -0.2549 -0.0067
  438MPD2    H7 6538   4.143   1.097  16.625  1.1045  0.3421  0.1561
  439TMC3    C1 6539   4.287   1.040  16.430 -0.2640  0.4539 -0.5921
  439TMC3    C2 6540   4.339   1.005  16.309  0.3116 -0.4058  0.1645
  439TMC3    C3 6541   4.466   0.956  16.302 -0.4383  0.0604 -0.0974
  439TMC3    C4 6542   4.358   1.014  16.545  0.4474 -0.1750  0.6272
  439TMC3    C5 6543   4.484   0.958  16.531 -0.2303  0.2139  0.3346
  439TMC3    C6 6544   4.538   0.940  16.415  0.1319 -0.1415  0.6350
  439TMC3     C 6545   4.164   1.125  16.426  0.1849 -0.4436  0.6610
  439TMC3     O 6546   4.138   1.167  16.315  0.6030  0.2003 -0.1747
  439TMC3     H 6547   4.292   1.038  16.217  1.3863 -1.3909 -0.7401
  439TMC3    H1 6548   4.321   1.041  16.643  1.1516  2.0231  0.2934
  439TMC3    H2 6549   4.643   0.916  16.400  0.4923  1.3837  0.6797
  439TMC3    C7 6550   4.550   0.890  16.639 -0.0667 -0.3576  0.7066
  439TMC3    C8 6551   4.505   0.878  16.190  0.2827  0.3526  0.3372
  439TMC3    O1 6552   4.666   0.856  16.626  0.3984  0.1559 -0.1703
  439TMC3    O2 6553   4.587   0.788  16.206 -0.2893 -0.0536 -0.4275
  440MPD2     C 6554   2.099   1.660  14.525 -0.1837  0.6468 -0.2664
  440MPD2    C1 6555   2.114   1.700  14.657 -0.2137  0.3576  0.5441
  440MPD2    C2 6556   2.145   1.600  14.749  0.0449  0.0188 -0.3112
  440MPD2    C3 6557   2.182   1.468  14.705  0.2123 -0.3361  0.4589
  440MPD2    C4 6558   2.161   1.429  14.576 -0.1821 -0.1304  0.1615
  440MPD2    C5 6559   2.122   1.530  14.488 -0.1291 -1.0594  0.9564
  440MPD2     H 6560   2.142   1.630  14.853  2.9065  0.2372 -0.2817
  440MPD2    H1 6561   2.176   1.330  14.536  1.8067  1.0681 -2.0898
  440MPD2    H2 6562   2.062   1.730  14.451  0.4449  0.0617 -1.1271
  440MPD2    H3 6563   2.096   1.497  14.388  0.9138 -0.4403  0.4826
  440MPD2     N 6564   2.223   1.362  14.786 -0.7260 -0.1440  0.9230
  440MPD2    H5 6565   2.250   1.275  14.742  0.1353  0.1114  0.9431
  440MPD2    N1 6566   2.088   1.835  14.692 -0.7061 -0.1663  0.2159
  440MPD2    H7 6567   2.068   1.845  14.791 -1.7843  3.1670 -0.3273
  441TMC3    C1 6568   2.340   1.254  14.960 -0.3039  0.3526  0.4594
  441TMC3    C2 6569   2.426   1.203  14.868  0.2402  0.4007  0.2027
  441TMC3    C3 6570   2.559   1.167  14.901 -0.3978 -0.7185  0.3514
  441TMC3    C4 6571   2.386   1.245  15.089 -0.3954 -1.1194 -0.0479
  441TMC3    C5 6572   2.516   1.213  15.119 -0.4774 -0.0598 -0.9198
  441TMC3    C6 6573   2.606   1.179  15.026  0.0385 -0.3238  0.3421
  441TMC3     C 6574   2.264   1.369  14.918  0.3279  0.0379 -0.0394
  441TMC3     O 6575   2.283   1.469  14.987 -0.0372  0.0783 -0.3159
  441TMC3     H 6576   2.408   1.202  14.761 -0.5261  0.9382  0.3252
  441TMC3    H1 6577   2.317   1.276  15.166 -0.3316 -1.6109  0.2092
  441TMC3    H2 6578   2.712   1.159  15.039 -0.0087 -1.1636 -0.5846
  441TMC3    C7 6579   2.529   1.175  15.263  0.3172 -0.3134  0.4367
  441TMC3    C8 6580   2.638   1.206  14.788  0.3129  0.0490 -0.1513
  441TMC3    O1 6581   2.442   1.213  15.343 -0.4015  0.1340 -0.6696
  441TMC3    O2 6582   2.612   1.151  14.682 -0.6540  0.3333  0.1225
  442MPD2     C 6583   1.358   2.375  16.502 -0.4814 -0.1508  0.0348
  442MPD2    C1 6584   1.255   2.301  16.545 -0.6881  0.5561  0.3666
  442MPD2    C2 6585   1.219   2.185  16.475  0.2320  0.3271 -0.0439
  442MPD2    C3 6586   1.288   2.147  16.362  0.7981  0.0073  0.1438
  442MPD2    C4 6587   1.390   2.228  16.311 -0.1202 -0.4813  0.3851
  442MPD2    C5 6588   1.406   2.347  16.381  0.1625  0.1603 -0.9456
  442MPD2     H 6589   1.132   2.132  16.513  1.1417 -2.3249 -1.7112
  442MPD2    H1 6590   1.446   2.201  16.223 -1.1107  0.1093 -0.4163
  442MPD2    H2 6591   1.388   2.469  16.547  0.0394 -1.1558  1.7981
  442MPD2    H3 6592   1.478   2.417  16.341  1.3340  0.4413  1.6980
  442MPD2     N 6593   1.269   2.029  16.301 -0.0144 -1.0626  0.4491
  442MPD2    H5 6594   1.342   2.001  16.236  1.4725  2.9654  0.3866
  442MPD2    N1 6595   1.168   2.335  16.654 -0.2311  0.1189 -0.0149
  442MPD2    H7 6596   1.102   2.267  16.691 -2.1260  0.8639 -2.0106
  443TMC3    C1 6597   1.013   2.481  16.749 -0.0061 -0.0423  0.2918
  443TMC3    C2 6598   0.921   2.548  16.676 -0.0182 -0.1312 -0.1384
  443TMC3    C3 6599   0.788   2.513  16.694  0.1195  1.1561  0.1846
  443TMC3    C4 6600   0.982   2.406  16.857  0.4036 -0.2870 -0.5377
  443TMC3    C5 6601   0.850   2.384  16.879 -0.3988 -0.3258 -0.3342
  443TMC3    C6 6602   0.752   2.438  16.800  0.1477 -0.6742 -0.1786
  443TMC3     C 6603   1.138   2.464  16.683 -0.0039  0.2403 -0.4091
  443TMC3     O 6604   1.183   2.556  16.622  0.4336 -0.2347 -0.6235
  443TMC3     H 6605   0.955   2.601  16.587  0.0780 -2.4301 -1.4597
  443TMC3    H1 6606   1.061   2.352  16.908  0.5992  1.3241  0.8815
  443TMC3    H2 6607   0.652   2.395  16.801  0.0892 -0.5478 -0.5725
  443TMC3    C7 6608   0.814   2.258  16.941 -0.2833 -0.3630  0.2598
  443TMC3    C8 6609   0.725   2.488  16.570 -0.1960  0.0986  0.0530
  443TMC3    O1 6610   0.889   2.163  16.933  0.1431  0.4537  0.5042
  443TMC3    O2 6611   0.682   2.371  16.551  0.0180 -0.4061 -0.5944
  444MPD2     C 6612   1.067   1.477  16.797 -0.4639  0.6971  0.3856
  444MPD2    C1 6613   1.119   1.458  16.924  0.0703  0.7434 -0.4869
  444MPD2    C2 6614   1.248   1.403  16.933  0.1516 -0.4368 -0.1113
  444MPD2    C3 6615   1.327   1.371  16.826 -0.1824  0.0588 -0.6957
  444MPD2    C4 6616   1.266   1.384  16.699 -0.3276 -0.4770 -0.2983
  444MPD2    C5 6617   1.137   1.439  16.683 -0.8751 -0.1504 -0.4452
  444MPD2     H 6618   1.288   1.399  17.033  0.9847 -0.6463 -0.4572
  444MPD2    H1 6619   1.311   1.340  16.611 -0.5748 -0.0276 -0.6448
  444MPD2    H2 6620   0.962   1.502  16.784 -0.3129  0.6629 -0.8942
  444MPD2    H3 6621   1.091   1.453  16.586 -0.0124  0.0824 -0.8201
  444MPD2     N 6622   1.462   1.319  16.855 -0.5071 -0.1511 -0.2534
  444MPD2    H5 6623   1.488   1.314  16.953 -1.5348 -2.3674 -0.1112
  444MPD2    N1 6624   1.044   1.485  17.044 -0.6931  0.2200 -0.0087
  444MPD2    H7 6625   1.068   1.450  17.136  1.2948 -0.0197 -0.6222
  445TMC3    C1 6626   1.687   1.252  16.821 -0.0164 -0.2216  1.1547
  445TMC3    C2 6627   1.696   1.158  16.928 -0.0099 -0.0716  0.4612
  445TMC3    C3 6628   1.810   1.081  16.937 -0.1769  0.4900 -0.2861
  445TMC3    C4 6629   1.791   1.253  16.732 -0.3788  0.0902  0.4644
  445TMC3    C5 6630   1.906   1.182  16.753 -0.3715  0.1262  0.4400
  445TMC3    C6 6631   1.918   1.089  16.855  0.3254 -0.0628  0.5267
  445TMC3     C 6632   1.553   1.281  16.761  0.5447  0.3825  0.5226
  445TMC3     O 6633   1.543   1.268  16.641 -0.2412  0.7612 -0.2607
  445TMC3     H 6634   1.605   1.147  16.985  1.0282 -5.0225  1.1878
  445TMC3    H1 6635   1.786   1.315  16.643 -0.2514  1.8135  1.6522
  445TMC3    H2 6636   1.997   1.015  16.865 -0.5907 -0.6546  3.6021
  445TMC3    C7 6637   2.010   1.199  16.651 -0.3149  0.1975 -0.6962
  445TMC3    C8 6638   1.806   0.976  17.034 -0.3229 -0.4945  0.2091
  445TMC3    O1 6639   1.989   1.267  16.548  0.4433 -0.4391  0.2101
  445TMC3    O2 6640   1.758   0.993  17.143  0.4353 -0.0632 -0.6292
  446MPD2     C 6641   0.670   2.992  11.199  0.7223 -0.1677  0.1304
  446MPD2    C1 6642   0.660   3.032  11.072  1.0892  0.1479  0.0284
  446MPD2    C2 6643   0.729   3.144  11.027  0.8404  0.1484  0.4699
  446MPD2    C3 6644   0.805   3.227  11.106 -0.0201  0.1071  0.2069
  446MPD2    C4 6645   0.808   3.190  11.235  0.6863  0.8146  0.2872
  446MPD2    C5 6646   0.742   3.076  11.278  0.4292  0.3354 -0.2791
  446MPD2     H 6647   0.729   3.174  10.922  0.5513 -2.8992 -0.4079
  446MPD2    H1 6648   0.830   3.264  11.311  1.3180 -0.3799  1.2741
  446MPD2    H2 6649   0.615   2.912  11.246  1.0077 -0.7315 -0.4931
  446MPD2    H3 6650   0.746   3.060  11.386 -2.5072  1.3154 -0.0234
  446MPD2     N 6651   0.876   3.341  11.053 -0.5421 -0.2147  0.1595
  446MPD2    H5 6652   0.854   3.362  10.956 -0.4021 -1.5176 -0.1476
  446MPD2    N1 6653   0.571   2.962  10.980 -0.2124  0.4815 -0.5817
  446MPD2    H7 6654   0.573   3.003  10.887  1.6830 -0.3119 -0.8880
  447TMC3    C1 6655   0.983   3.555  11.079 -0.0433  0.2734  0.0410
  447TMC3    C2 6656   0.978   3.573  10.945 -0.3279 -0.4352  0.1730
  447TMC3    C3 6657   1.065   3.667  10.899 -0.9648 -0.0619  0.5400
  447TMC3    C4 6658   1.071   3.622  11.156  0.0468  0.5606  0.4605
  447TMC3    C5 6659   1.149   3.724  11.108  0.4116 -0.4521  0.2097
  447TMC3    C6 6660   1.147   3.744  10.974 -0.4456 -0.3814  0.7595
  447TMC3     C 6661   0.953   3.421  11.126 -0.7158  0.6679  0.3318
  447TMC3     O 6662   1.015   3.383  11.223  0.5296  0.1388  0.7909
  447TMC3     H 6663   0.900   3.541  10.877 -0.3750  0.4212 -0.1751
  447TMC3    H1 6664   1.077   3.604  11.263 -2.1273 -1.2569  0.2885
  447TMC3    H2 6665   1.203   3.828  10.933  1.5435 -1.3516  1.4787
  447TMC3    C7 6666   1.264   3.764  11.187 -0.3729 -0.3537  0.0804
  447TMC3    C8 6667   1.113   3.664  10.762 -0.6579  0.0096 -0.3984
  447TMC3    O1 6668   1.372   3.779  11.131  0.1633 -0.2543  0.1376
  447TMC3    O2 6669   1.143   3.768  10.716  0.4621  0.0127  0.6873
  448TMC3    C1 6670   4.269   2.618  16.586  1.0182 -0.1981  0.2075
  448TMC3    C2 6671   4.251   2.497  16.524  0.3834  0.2776 -0.2994
  448TMC3    C3 6672   4.305   2.387  16.592  0.1335 -0.0440 -0.2977
  448TMC3    C4 6673   4.310   2.623  16.716  0.1992 -0.1687  0.1735
  448TMC3    C5 6674   4.346   2.514  16.784 -0.8795 -0.1339  0.4608
  448TMC3    C6 6675   4.348   2.390  16.724  0.2115  0.1494  0.2857
  448TMC3     C 6676   4.243   2.737  16.514 -0.0894  0.0543 -0.0834
  448TMC3     O 6677   4.185   2.723  16.405 -0.2764  0.2692 -0.2009
  448TMC3     H 6678   4.219   2.495  16.421 -0.4060  0.6605 -0.0586
  448TMC3    H1 6679   4.312   2.714  16.775  0.4017 -0.0311 -0.0490
  448TMC3    H2 6680   4.378   2.301  16.779 -1.2893  0.2016  1.2075
  448TMC3    C7 6681   4.428   2.529  16.910 -0.0004  0.6225 -0.8317
  448TMC3    C8 6682   4.310   2.259  16.521 -0.3746  0.1162 -0.0033
  448TMC3    O1 6683   4.482   2.637  16.922  0.2195 -0.0650 -0.1127
  448TMC3    O2 6684   4.330   2.162  16.598 -0.0990 -0.0737 -0.0657
  449MPD2     C 6685   0.367   1.385  13.747  0.2814  0.4870 -0.0689
  449MPD2    C1 6686   0.277   1.363  13.644  0.1246  0.6999  0.8174
  449MPD2    C2 6687   0.235   1.235  13.612 -0.4904  0.0568 -0.3708
  449MPD2    C3 6688   0.276   1.133  13.687 -0.4958  0.3343  0.4575
  449MPD2    C4 6689   0.352   1.153  13.797 -0.8314  0.0097 -0.0482
  449MPD2    C5 6690   0.400   1.276  13.827  0.7590  0.7835  0.3249
  449MPD2     H 6691   0.183   1.224  13.518  1.2928 -0.4537 -1.3014
  449MPD2    H1 6692   0.381   1.072  13.863  1.2570  1.0605  0.3451
  449MPD2    H2 6693   0.406   1.483  13.772 -0.1220  0.3663  1.0517
  449MPD2    H3 6694   0.452   1.287  13.921  0.7679 -3.5008  0.8207
  449MPD2     N 6695   0.241   1.006  13.630 -0.3423  0.3123  0.1136
  449MPD2    H5 6696   0.191   1.003  13.542 -0.1108 -1.8685  0.0472
  449MPD2    N1 6697   0.235   1.472  13.563  0.0494  0.5066 -0.0773
  449MPD2    H7 6698   0.183   1.449  13.479 -0.5556 -1.6536  0.8893
  450TMC3    C1 6699   0.222   1.688  13.471  0.1283  0.0416  0.1011
  450TMC3    C2 6700   0.332   1.747  13.416  0.1373 -0.1194  0.0934
  450TMC3    C3 6701   0.358   1.728  13.285  0.1720 -0.3947 -0.2649
  450TMC3    C4 6702   0.129   1.618  13.397 -0.4067  0.4360 -0.7462
  450TMC3    C5 6703   0.159   1.597  13.263  1.0916  0.4850 -0.0227
  450TMC3    C6 6704   0.272   1.650  13.206  0.2657 -0.1758 -0.3456
  450TMC3     C 6705   0.255   1.607  13.586  0.1355  0.5335 -0.1531
  450TMC3     O 6706   0.307   1.665  13.679 -0.3553 -0.3190 -0.7125
  450TMC3     H 6707   0.411   1.785  13.479 -2.0388  2.4109  1.2840
  450TMC3    H1 6708   0.032   1.599  13.441  0.4162  2.0588  1.7997
  450TMC3    H2 6709   0.300   1.629  13.103  0.3200  0.7055 -0.5144
  450TMC3    C7 6710   0.125   1.459  13.229 -0.5275 -0.0782 -0.8332
  450TMC3    C8 6711   0.490   1.765  13.241 -0.3069  0.0955 -0.6202
  450TMC3    O1 6712   0.059   1.400  13.311  0.7178 -0.2215 -0.1666
  450TMC3    O2 6713   0.552   1.859  13.285  0.1121 -0.2674  0.2165
  451MPD2     C 6714   1.518   3.846   1.546 -0.0856 -0.2567  0.8864
  451MPD2    C1 6715   1.599   3.884   1.442 -0.1518  0.5084  0.9620
  451MPD2    C2 6716   1.713   3.809   1.417  0.1235 -0.3580  0.2254
  451MPD2    C3 6717   1.755   3.719   1.511 -0.5348  0.4573  0.7264
  451MPD2    C4 6718   1.678   3.687   1.615 -0.9873  0.1073  0.3733
  451MPD2    C5 6719   1.558   3.744   1.629 -0.2389 -0.3352 -0.0368
  451MPD2     H 6720   1.781   3.827   1.335  0.3478  0.5235  0.6053
  451MPD2    H1 6721   1.702   3.601   1.677 -1.9212  0.7904  1.6899
  451MPD2    H2 6722   1.424   3.886   1.582  0.4879  1.3780  0.5306
  451MPD2    H3 6723   1.504   3.724   1.721 -1.9108  1.6506 -0.5867
  451MPD2     N 6724   1.881   3.655   1.508  0.3851 -0.1176 -0.0655
  451MPD2    H5 6725   1.910   3.602   1.589 -1.4432 -0.5667  0.3025
  451MPD2    N1 6726   1.558   3.997   1.377 -0.4658  0.0865 -0.8532
  451MPD2    H7 6727   1.479   4.048   1.415  0.6934  0.9348  0.4620
  452TMC3    C1 6728   2.106   3.605   1.483 -0.6398  0.0304 -0.0675
  452TMC3    C2 6729   2.096   3.483   1.542 -0.3589  0.6278 -0.4684
  452TMC3    C3 6730   2.204   3.394   1.528  0.0006  0.5574  0.2322
  452TMC3    C4 6731   2.224   3.641   1.419 -0.7405  0.0196  0.1765
  452TMC3    C5 6732   2.329   3.558   1.408  0.2772  0.0655  0.3580
  452TMC3    C6 6733   2.320   3.432   1.463  0.2055  0.0801 -0.5651
  452TMC3     C 6734   1.986   3.670   1.421  0.5269 -0.6263 -0.5775
  452TMC3     O 6735   2.004   3.730   1.313 -0.4704  0.3757 -0.0395
  452TMC3     H 6736   2.003   3.443   1.580  0.8732 -1.4354  0.4216
  452TMC3    H1 6737   2.220   3.747   1.395  0.4577 -0.7410 -3.3518
  452TMC3    H2 6738   2.405   3.368   1.439  0.5676  0.5101 -0.4260
  452TMC3    C7 6739   2.402   3.565   1.285 -0.0445  0.0811  0.5714
  452TMC3    C8 6740   2.205   3.270   1.612 -0.8124 -0.2320  0.2130
  452TMC3    O1 6741   2.345   3.590   1.179 -1.3425 -0.0813 -1.2100
  452TMC3    O2 6742   2.138   3.264   1.710  0.0520 -0.1228  0.4467
  453TMC3    C1 6743   2.851   2.169  11.595 -0.5239  0.4143  0.6551
  453TMC3    C2 6744   2.790   2.066  11.663 -0.2562  0.4220  0.1523
  453TMC3    C3 6745   2.720   1.977  11.583 -0.7202 -0.2938  0.1016
  453TMC3    C4 6746   2.844   2.182  11.456 -0.1330  0.2907 -0.1254
  453TMC3    C5 6747   2.772   2.089  11.387  0.3208  0.4818  0.0715
  453TMC3    C6 6748   2.709   1.986  11.446  0.1228 -0.0542  0.9576
  453TMC3     C 6749   2.914   2.282  11.668  0.1296 -0.5236  0.1625
  453TMC3     O 6750   2.992   2.353  11.601 -0.3750  0.2982  0.1058
  453TMC3     H 6751   2.821   2.041  11.764 -0.3953 -0.9954 -0.1604
  453TMC3    H1 6752   2.877   2.273  11.408  2.6646 -1.4285 -1.4823
  453TMC3    H2 6753   2.645   1.917  11.392  1.0093 -0.6447  0.6825
  453TMC3    C7 6754   2.783   2.078  11.240 -0.4892 -0.0172 -0.3880
  453TMC3    C8 6755   2.636   1.882  11.640  0.4557 -0.1514  0.2763
  453TMC3    O1 6756   2.709   1.991  11.192  0.5051 -0.2865 -0.3076
  453TMC3    O2 6757   2.537   1.848  11.575 -0.0042 -0.0078 -0.1084
  454MPD2     C 6758   1.763   1.987  15.734  0.0230  0.4970  0.7658
  454MPD2    C1 6759   1.836   1.881  15.784 -0.0542  0.7208  0.5419
  454MPD2    C2 6760   1.801   1.834  15.910  0.5309  0.1031 -0.4979
  454MPD2    C3 6761   1.695   1.885  15.979  0.2260  0.7748  0.3150
  454MPD2    C4 6762   1.618   1.982  15.926  0.1395  0.2878 -0.1181
  454MPD2    C5 6763   1.657   2.041  15.803 -0.6754  0.0853  0.0264
  454MPD2     H 6764   1.863   1.755  15.952  1.8082  2.3620  1.8700
  454MPD2    H1 6765   1.527   2.012  15.978 -0.1858 -1.0236  0.0731
  454MPD2    H2 6766   1.792   2.028  15.637 -0.3605 -2.0542 -0.4218
  454MPD2    H3 6767   1.598   2.123  15.765 -1.1789 -0.1310  0.3394
  454MPD2     N 6768   1.666   1.812  16.095 -0.1633 -0.1027 -0.0164
  454MPD2    H5 6769   1.729   1.734  16.114  0.8599  0.7753  0.1829
  454MPD2    N1 6770   1.935   1.805  15.716  0.3196  0.5745 -1.0952
  454MPD2    H7 6771   1.965   1.726  15.772 -1.0417  0.4657 -0.5224
  455TMC3    C1 6772   1.526   1.717  16.257 -0.3929 -0.4558 -0.5386
  455TMC3    C2 6773   1.514   1.738  16.391 -0.8483  0.1883 -0.4296
  455TMC3    C3 6774   1.515   1.631  16.473  0.0501 -0.2994 -0.2314
  455TMC3    C4 6775   1.533   1.593  16.201 -0.0059  0.0140  0.2188
  455TMC3    C5 6776   1.531   1.481  16.280  0.1012  0.2483 -0.5535
  455TMC3    C6 6777   1.524   1.503  16.421 -0.2050 -0.1322  0.2497
  455TMC3     C 6778   1.554   1.830  16.170  0.2231  0.7174  0.2596
  455TMC3     O 6779   1.497   1.932  16.189 -0.2421 -0.7556  0.3432
  455TMC3     H 6780   1.522   1.839  16.431 -0.0085  0.2953 -0.8514
  455TMC3    H1 6781   1.556   1.584  16.095 -0.3365 -1.7433  0.2972
  455TMC3    H2 6782   1.520   1.421  16.491 -1.2668  0.1551  0.5215
  455TMC3    C7 6783   1.571   1.349  16.222  0.0520  0.1896 -0.4455
  455TMC3    C8 6784   1.584   1.657  16.596  0.1626  0.1086  0.0669
  455TMC3    O1 6785   1.559   1.336  16.098 -0.1293 -0.5239  0.2515
  455TMC3    O2 6786   1.530   1.738  16.670  1.0533  0.2328  0.5844
  456MPD2     C 6787   0.135   0.971  15.946 -0.0057  0.3256 -0.2381
  456MPD2    C1 6788   0.160   0.949  16.081 -0.4761  0.1529  0.3550
  456MPD2    C2 6789   0.105   1.027  16.184 -0.5996  0.0859  0.4854
  456MPD2    C3 6790   0.031   1.141  16.148 -0.3285  0.9369  0.1616
  456MPD2    C4 6791   4.718   1.156  16.016  0.5203  0.5659 -0.1448
  456MPD2    C5 6792   0.046   1.079  15.915 -0.7998  0.6108  0.4315
  456MPD2     H 6793   0.125   0.998  16.287  2.1428  0.8284  0.1694
  456MPD2    H1 6794   4.655   1.235  15.977 -0.1081  0.9090  1.5813
  456MPD2    H2 6795   0.189   0.912  15.873 -1.8748 -1.2870 -0.3085
  456MPD2    H3 6796   0.014   1.092  15.813 -2.6621 -5.1358  0.2637
  456MPD2     N 6797   4.718   1.233  16.248  0.2964 -0.4497 -0.5178
  456MPD2    H5 6798   0.024   1.216  16.343 -1.9851  0.4513  0.4192
  456MPD2    N1 6799   0.246   0.840  16.105  0.3581 -0.3173  0.1074
  456MPD2    H7 6800   0.294   0.802  16.025  0.6703 -1.2517  0.7304
  457TMC3    C1 6801   4.616   1.431  16.338  0.4307 -0.0475 -1.0167
  457TMC3    C2 6802   4.537   1.546  16.320 -0.0973  0.2445 -0.7131
  457TMC3    C3 6803   4.513   1.624  16.430  0.0642 -0.4327 -0.2603
  457TMC3    C4 6804   4.672   1.402  16.461 -0.1174 -0.4292 -0.0945
  457TMC3    C5 6805   4.648   1.486  16.564 -0.7033 -0.1472 -0.4396
  457TMC3    C6 6806   4.567   1.592  16.555  0.0402 -0.1507 -0.3393
  457TMC3     C 6807   4.642   1.345  16.219 -0.1256 -0.6339  0.1872
  457TMC3     O 6808   4.575   1.380  16.120 -0.0759  0.1220  0.3369
  457TMC3     H 6809   4.492   1.573  16.225 -2.0651  1.9568  0.6815
  457TMC3    H1 6810   0.025   1.330  16.479 -1.5329 -2.1851 -1.0044
  457TMC3    H2 6811   4.546   1.650  16.644  1.2758 -0.3506  0.0787
  457TMC3    C7 6812   0.013   1.491  16.685 -0.1444  0.3269  0.7543
  457TMC3    C8 6813   4.441   1.752  16.422  0.1785 -0.3961  0.6622
  457TMC3    O1 6814   0.055   1.379  16.726 -0.2582 -0.2432  0.1664
  457TMC3    O2 6815   4.445   1.813  16.527 -0.1900 -0.0232  0.0129
  458MPD2     C 6816   1.723   1.283  12.106 -0.0047 -0.3369 -0.1002
  458MPD2    C1 6817   1.725   1.252  12.245  0.6031  0.7205  0.0791
  458MPD2    C2 6818   1.602   1.222  12.302 -0.1083 -0.8192 -0.2074
  458MPD2    C3 6819   1.482   1.233  12.231 -1.3577 -0.4228  0.1964
  458MPD2    C4 6820   1.485   1.276  12.096  0.6605  0.0318 -0.0411
  458MPD2    C5 6821   1.609   1.290  12.037 -0.3962  0.2421  0.0749
  458MPD2     H 6822   1.609   1.198  12.408  0.8967  1.5315  0.2440
  458MPD2    H1 6823   1.399   1.285  12.031 -0.5707 -0.4186  1.5423
  458MPD2    H2 6824   1.816   1.307  12.056  0.5020 -1.9209  0.0762
  458MPD2    H3 6825   1.610   1.318  11.933 -0.3189  1.0083  0.2789
  458MPD2     N 6826   1.364   1.209  12.304 -0.5531 -0.4215  0.1670
  458MPD2    H5 6827   1.374   1.155  12.389 -0.2824 -0.5444  0.0545
  458MPD2    N1 6828   1.853   1.235  12.309  0.7533 -0.5029  0.5270
  458MPD2    H7 6829   1.933   1.263  12.252  0.1877  0.6450  0.2856
  459TMC3    C1 6830   2.010   1.196  12.475  0.6821  0.1322  0.6148
  459TMC3    C2 6831   2.097   1.283  12.409 -0.5210 -0.0009  0.2176
  459TMC3    C3 6832   2.230   1.280  12.450  0.2601 -0.2419 -0.0298
  459TMC3    C4 6833   2.064   1.107  12.565 -0.8499 -0.2530  0.1321
  459TMC3    C5 6834   2.190   1.116  12.605  0.6031  0.1086 -0.5542
  459TMC3    C6 6835   2.281   1.197  12.549  0.6862  0.7412 -0.3236
  459TMC3     C 6836   1.878   1.173  12.430  1.0249  0.1377  0.2610
  459TMC3     O 6837   1.802   1.101  12.488  0.1830 -0.3840 -0.8944
  459TMC3     H 6838   2.064   1.369  12.351  1.5593 -0.5722 -1.8170
  459TMC3    H1 6839   1.995   1.037  12.612 -0.1071 -2.2171 -1.7169
  459TMC3    H2 6840   2.384   1.191  12.581 -0.1076 -0.9135  1.9340
  459TMC3    C7 6841   2.248   1.020  12.702 -0.3618  0.1749  0.6536
  459TMC3    C8 6842   2.329   1.358  12.379 -0.4357 -0.0201  0.6003
  459TMC3    O1 6843   2.201   0.910  12.726 -0.7562  0.1236  0.0517
  459TMC3    O2 6844   2.439   1.302  12.379 -0.0240 -0.5405  0.3004
  460MPD2     C 6845   1.215   3.355  10.584 -0.1114 -0.2268  0.0557
  460MPD2    C1 6846   1.178   3.489  10.599  0.1041  0.2483  0.1894
  460MPD2    C2 6847   1.171   3.564  10.482 -0.6968  0.1836 -0.0976
  460MPD2    C3 6848   1.205   3.513  10.358  0.3133  0.3566 -0.2236
  460MPD2    C4 6849   1.258   3.386  10.356  0.6538 -0.6295  0.6335
  460MPD2    C5 6850   1.250   3.299  10.466 -0.0530 -0.3639  0.0767
  460MPD2     H 6851   1.132   3.665  10.489 -0.6808  0.1631  0.2883
  460MPD2    H1 6852   1.303   3.347  10.266 -0.3079  0.7015 -0.4217
  460MPD2    H2 6853   1.227   3.287  10.667 -1.6245 -0.4427  0.0913
  460MPD2    H3 6854   1.305   3.206  10.466 -2.2337 -1.6562  2.0384
  460MPD2     N 6855   1.199   3.590  10.234 -0.4388 -0.6704  0.3303
  460MPD2    H5 6856   1.153   3.680  10.232  0.2610 -0.2892  1.7162
  460MPD2    N1 6857   1.144   3.535  10.727  0.5701 -0.4183  0.2634
  460MPD2    H7 6858   1.144   3.466  10.801 -3.4735 -0.2893  0.3381
  461TMC3    C1 6859   1.142   3.619  10.011  0.0791  0.1661 -0.6682
  461TMC3    C2 6860   1.082   3.532   9.926 -0.0657  0.3442  0.3533
  461TMC3    C3 6861   1.021   3.596   9.819  0.0565  0.4936  0.4721
  461TMC3    C4 6862   1.152   3.755   9.993  0.2168  0.5414 -0.6903
  461TMC3    C5 6863   1.081   3.804   9.888  0.1514  0.0977  0.1423
  461TMC3    C6 6864   1.007   3.723   9.803 -0.2161 -0.5885 -0.1599
  461TMC3     C 6865   1.229   3.550  10.108 -0.3593  1.2098  0.3898
  461TMC3     O 6866   1.289   3.457  10.058  0.1666 -0.2020  0.1911
  461TMC3     H 6867   1.082   3.426   9.948  0.4149  0.7851  2.5248
  461TMC3    H1 6868   1.222   3.815  10.050  0.2666  1.6187 -1.8833
  461TMC3    H2 6869   0.959   3.760   9.714 -0.5490 -1.0055 -0.1514
  461TMC3    C7 6870   1.108   3.938   9.832 -0.5267  0.5395  0.4817
  461TMC3    C8 6871   0.997   3.515   9.703 -0.5293 -0.7800  0.0137
  461TMC3    O1 6872   1.033   3.981   9.746  0.1193  0.6255 -0.5065
  461TMC3    O2 6873   0.899   3.536   9.631  0.3986 -0.0440  0.6252
  462TMC3    C1 6874   1.289   4.607  17.585 -0.0632 -0.4236 -0.0363
  462TMC3    C2 6875   1.328   4.535  17.472  0.3770  0.0047 -0.1599
  462TMC3    C3 6876   1.337   4.398  17.477  0.0810 -0.3607  0.2040
  462TMC3    C4 6877   1.239   4.536  17.698 -0.4407  0.3022  0.3007
  462TMC3    C5 6878   1.241   4.399  17.694 -0.3460 -0.6834 -0.3669
  462TMC3    C6 6879   1.301   4.328  17.594 -0.2637 -0.7209  0.6686
  462TMC3     C 6880   1.242   0.015  17.559 -0.9791 -0.1622  0.1945
  462TMC3     O 6881   1.128   0.033  17.596 -0.3114  0.0226 -0.1028
  462TMC3     H 6882   1.342   4.577  17.373  0.9732  1.5059  0.5670
  462TMC3    H1 6883   1.182   4.584   0.071 -0.2430  1.9051 -0.5176
  462TMC3    H2 6884   1.274   4.223  17.589 -0.1417 -0.7278  0.2363
  462TMC3    C7 6885   1.198   4.333   0.101  0.0411  0.3392 -1.1967
  462TMC3    C8 6886   1.312   4.313  17.362 -0.1017  0.2961 -0.0629
  462TMC3    O1 6887   1.263   4.233   0.122  0.5468 -0.5289  0.2499
  462TMC3    O2 6888   1.240   4.352  17.274 -0.1491  0.3959 -0.2153
  463MPD2     C 6889   3.627   2.078   1.449  0.3126  0.3890 -0.5968
  463MPD2    C1 6890   3.538   2.187   1.442  0.3372 -0.4728 -0.9959
  463MPD2    C2 6891   3.571   2.309   1.383  0.4380 -0.7050 -0.2570
  463MPD2    C3 6892   3.705   2.328   1.335 -0.2016 -0.6894  0.3105
  463MPD2    C4 6893   3.792   2.220   1.351 -0.5268  0.1075  0.6855
  463MPD2    C5 6894   3.755   2.101   1.406 -0.3150  0.0039  0.1984
  463MPD2     H 6895   3.492   2.384   1.384 -1.4698 -2.7305 -0.1572
  463MPD2    H1 6896   3.892   2.232   1.312 -0.7180  0.0883  0.1945
  463MPD2    H2 6897   3.601   1.981   1.490  0.6880  0.6921  0.3429
  463MPD2    H3 6898   3.835   2.030   1.422 -0.9558 -0.7573 -0.0024
  463MPD2     N 6899   3.747   2.446   1.273  0.5183 -0.1194  0.6624
  463MPD2    H5 6900   3.837   2.450   1.227  1.3241  0.0847  2.2444
  463MPD2    N1 6901   3.403   2.177   1.492 -0.4393 -0.0786 -0.5328
  463MPD2    H7 6902   3.338   2.254   1.483 -1.5469 -0.6487  2.4199
  464TMC3    C1 6903   3.206   2.080   1.585 -0.0006  0.2570  0.2837
  464TMC3    C2 6904   3.168   2.204   1.635  0.1412 -0.0949 -0.6007
  464TMC3    C3 6905   3.041   2.208   1.688  0.2089 -0.2227 -0.1272
  464TMC3    C4 6906   3.121   1.972   1.599  0.4118  0.5896  0.4474
  464TMC3    C5 6907   2.997   1.989   1.656 -0.1158 -0.3985 -0.2165
  464TMC3    C6 6908   2.951   2.109   1.693  0.0362  0.5359  0.6716
  464TMC3     C 6909   3.341   2.061   1.536 -0.2727 -0.4149  0.2284
  464TMC3     O 6910   3.380   1.947   1.522  0.2121  0.0075  0.2931
  464TMC3     H 6911   3.241   2.283   1.648  0.3110 -0.1601 -1.1917
  464TMC3    H1 6912   3.149   1.880   1.549  0.0543  1.5997 -1.5968
  464TMC3    H2 6913   2.852   2.108   1.737  1.0156 -1.0551  2.8271
  464TMC3    C7 6914   2.914   1.866   1.669 -0.1893 -0.0609  0.0935
  464TMC3    C8 6915   2.994   2.339   1.722 -0.4203  0.1517 -0.9195
  464TMC3    O1 6916   2.981   1.765   1.654 -0.6776  0.2866 -0.3963
  464TMC3    O2 6917   3.055   2.425   1.654 -0.7484  0.1094 -0.1651
  465MPD2     C 6918   4.054   1.485  15.982  0.8887 -0.7100 -0.6751
  465MPD2    C1 6919   3.999   1.576  16.071  0.0163  0.0367  0.1934
  465MPD2    C2 6920   3.894   1.663  16.036  0.4558  0.2159  0.5029
  465MPD2    C3 6921   3.848   1.655  15.908 -0.2305  1.0813  0.7675
  465MPD2    C4 6922   3.903   1.565  15.816  0.4106  0.1840  0.2157
  465MPD2    C5 6923   4.004   1.480  15.851  0.1483 -0.4388 -0.0881
  465MPD2     H 6924   3.851   1.735  16.105 -1.6354 -1.9235  1.4135
  465MPD2    H1 6925   3.873   1.566  15.712  2.2694  1.5575 -0.3195
  465MPD2    H2 6926   4.129   1.412  16.009  2.4730  1.9375  2.1820
  465MPD2    H3 6927   4.049   1.414  15.778  1.4345  1.7220 -1.2518
  465MPD2     N 6928   3.732   1.733  15.872  0.7230  0.2689  0.1411
  465MPD2    H5 6929   3.698   1.809  15.930  1.7567  0.2767  0.7422
  465MPD2    N1 6930   4.046   1.573  16.206  0.1251  0.0326 -0.0689
  465MPD2    H7 6931   3.977   1.616  16.266  1.6286  1.2171  0.8268
  466TMC3    C1 6932   3.320   1.813  15.810 -0.4739 -0.0674 -0.5105
  466TMC3    C2 6933   3.327   1.941  15.852  0.7652  0.7247 -0.6709
  466TMC3    C3 6934   3.452   1.993  15.864  0.5470 -0.8599  0.0243
  466TMC3    C4 6935   3.421   1.745  15.759  0.1487 -0.1400  0.3905
  466TMC3    C5 6936   3.545   1.798  15.759 -0.6035 -0.3948 -0.4058
  466TMC3    C6 6937   3.557   1.921  15.817  0.0045 -0.2793  0.1663
  466TMC3     C 6938   3.207   1.735  15.866  0.1164 -0.2128  0.0057
  466TMC3     O 6939   3.233   1.633  15.933  0.0769 -0.4766  0.2321
  466TMC3     H 6940   3.241   2.000  15.881 -0.2071 -1.0380  0.0241
  466TMC3    H1 6941   3.408   1.647  15.715  0.2046  0.0599 -0.0644
  466TMC3    H2 6942   3.654   1.968  15.820  1.2015 -2.8362  1.2528
  466TMC3    C7 6943   3.662   1.705  15.758  0.1764 -0.7037 -0.2754
  466TMC3    C8 6944   3.486   2.116  15.938  0.3368  0.5727  0.5284
  466TMC3    O1 6945   3.660   1.616  15.678 -1.0408  0.1872 -1.1590
  466TMC3    O2 6946   3.587   2.183  15.913  0.2543 -0.1598  0.9411
  467TMC3    C1 6947   4.096   0.512  13.535  0.9453  0.0499  0.0217
  467TMC3    C2 6948   4.067   0.504  13.405  0.8025 -0.3144 -0.0289
  467TMC3    C3 6949   3.942   0.477  13.368  0.0946 -0.1209  0.3214
  467TMC3    C4 6950   3.997   0.516  13.633  1.3274  0.4151 -0.0184
  467TMC3    C5 6951   3.868   0.503  13.588  0.0912 -0.2555 -0.4685
  467TMC3    C6 6952   3.834   0.480  13.458 -0.1547 -0.2816  0.3137
  467TMC3     C 6953   4.227   0.571  13.578 -0.0035 -0.1964  0.4060
  467TMC3     O 6954   4.326   0.561  13.508 -0.9160  0.1178  0.3461
  467TMC3     H 6955   4.148   0.525  13.336 -0.0779  1.5385 -0.4891
  467TMC3    H1 6956   4.033   0.486  13.731  0.1668 -1.0919 -0.0643
  467TMC3    H2 6957   3.730   0.469  13.431  0.2451 -2.3800 -0.3867
  467TMC3    C7 6958   3.778   0.544  13.696  0.1639  0.2896 -0.1485
  467TMC3    C8 6959   3.913   0.479  13.225 -0.2390 -0.7398  0.5499
  467TMC3    O1 6960   3.812   0.639  13.764  0.4076  0.4410  0.3686
  467TMC3    O2 6961   3.815   0.537  13.174 -0.1276 -0.0389  0.4936
  468MPD2     C 6962   2.762   3.351  10.637  0.0565 -0.1992  0.2294
  468MPD2    C1 6963   2.876   3.292  10.690  0.0875  0.5648  0.2457
  468MPD2    C2 6964   2.899   3.162  10.664  0.2303 -0.3892 -1.0164
  468MPD2    C3 6965   2.799   3.085  10.607  0.6793  0.6112 -0.3425
  468MPD2    C4 6966   2.672   3.143  10.590 -0.2233  0.6442  0.2287
  468MPD2    C5 6967   2.660   3.278  10.601  0.4452  0.1749 -0.0813
  468MPD2     H 6968   2.997   3.123  10.687 -0.1227  0.1977  1.4422
  468MPD2    H1 6969   2.584   3.095  10.548  2.4099 -3.1223 -1.0557
  468MPD2    H2 6970   2.752   3.458  10.623  0.8068 -0.1589 -0.0059
  468MPD2    H3 6971   2.566   3.327  10.578  0.7452  1.1089  0.6717
  468MPD2     N 6972   2.814   2.941  10.594 -0.7529  0.4763 -0.2037
  468MPD2    H5 6973   2.906   2.901  10.611 -0.8222  0.1201 -0.6560
  468MPD2    N1 6974   2.973   3.369  10.755 -0.1807 -0.4030 -0.5734
  468MPD2    H7 6975   3.062   3.326  10.777 -0.9666 -1.1400  1.1215
  469TMC3    C1 6976   3.065   3.547  10.878 -0.2872  0.1010 -0.2838
  469TMC3    C2 6977   3.198   3.523  10.850 -0.4942 -0.1365 -0.0625
  469TMC3    C3 6978   3.294   3.600  10.902 -1.2100  0.5819  1.1736
  469TMC3    C4 6979   3.029   3.641  10.966  0.1304  0.5632 -0.3243
  469TMC3    C5 6980   3.128   3.715  11.027  0.2288  0.5102 -0.0707
  469TMC3    C6 6981   3.260   3.693  10.999  0.1099 -0.0765  0.0127
  469TMC3     C 6982   2.955   3.500  10.796 -0.2435  0.4723 -1.1755
  469TMC3     O 6983   2.856   3.569  10.794  0.5704  0.2997 -0.5471
  469TMC3     H 6984   3.229   3.450  10.776  1.0318 -0.3289  0.7840
  469TMC3    H1 6985   2.927   3.661  11.000 -0.3954 -3.1987  0.2941
  469TMC3    H2 6986   3.336   3.743  11.058 -0.6938  0.1653  0.8513
  469TMC3    C7 6987   3.103   3.718  11.169  0.1252  0.0010  0.7784
  469TMC3    C8 6988   3.413   3.530  10.933 -0.2534 -0.2261  0.6960
  469TMC3    O1 6989   3.175   3.647  11.235 -0.0147 -0.6210  0.0488
  469TMC3    O2 6990   3.471   3.478  10.838  0.2740  0.2100 -0.0100
  470TMC3    C1 6991   0.931   4.040   0.549 -0.7837  0.7007  0.4853
  470TMC3    C2 6992   0.867   4.163   0.535 -0.0577  0.0434 -0.0923
  470TMC3    C3 6993   0.943   4.276   0.530  0.2429  0.3024  0.2544
  470TMC3    C4 6994   1.060   4.030   0.577 -0.4176 -0.6155 -0.8777
  470TMC3    C5 6995   1.138   4.146   0.555  0.9336  0.2249  0.1787
  470TMC3    C6 6996   1.079   4.268   0.525  0.1134  0.1277  0.2504
  470TMC3     C 6997   0.851   3.928   0.589  0.7635  0.5304 -0.1872
  470TMC3     O 6998   0.731   3.934   0.571  0.4232 -0.3500  0.1457
  470TMC3     H 6999   0.761   4.168   0.515 -0.3996  0.0118  1.6564
  470TMC3    H1 7000   1.112   3.935   0.581 -1.1482 -1.0261 -1.2288
  470TMC3    H2 7001   1.142   4.355   0.538  0.5025 -0.1239  0.0411
  470TMC3    C7 7002   1.267   4.150   0.610  0.0490 -0.4001  0.8021
  470TMC3    C8 7003   0.875   4.402   0.550 -0.1507  0.1374  0.5774
  470TMC3    O1 7004   1.344   4.241   0.572  0.4354 -0.2917  0.3608
  470TMC3    O2 7005   0.959   4.481   0.593  0.2523 -0.1265 -0.1013
  471MPD2     C 7006   1.150   0.581  16.375  0.2626 -0.1147  0.1740
  471MPD2    C1 7007   1.203   0.455  16.365 -0.0103  0.4719  0.6804
  471MPD2    C2 7008   1.212   0.374  16.478  0.9299  0.2802 -0.1283
  471MPD2    C3 7009   1.165   0.418  16.605  0.9399 -0.4132 -0.4597
  471MPD2    C4 7010   1.100   0.544  16.603  0.4939 -0.3226  0.6953
  471MPD2    C5 7011   1.095   0.628  16.490 -0.0669  0.3196  0.4634
  471MPD2     H 7012   1.261   0.278  16.468 -0.2446 -0.0449 -2.8202
  471MPD2    H1 7013   1.050   0.587  16.689 -0.0067  0.5316 -0.0297
  471MPD2    H2 7014   1.127   0.630  16.281 -1.3990 -0.7503  0.2519
  471MPD2    H3 7015   1.036   0.719  16.496  0.9615  1.0647 -0.7199
  471MPD2     N 7016   1.175   0.331  16.715  0.3351 -0.7317  0.1307
  471MPD2    H5 7017   1.230   0.246  16.701  0.1759 -0.9583  0.9144
  471MPD2    N1 7018   1.234   0.399  16.234  0.3465  0.2876 -0.2683
  471MPD2    H7 7019   1.244   0.298  16.235 -1.5934  0.1004 -0.1764
  472TMC3    C1 7020   1.236   0.351  16.005  0.3114 -0.4394 -0.0831
  472TMC3    C2 7021   1.163   0.367  15.894 -0.0483 -0.0861  0.2325
  472TMC3    C3 7022   1.133   0.257  15.825  0.3642 -0.1958 -0.1682
  472TMC3    C4 7023   1.292   0.228  16.039  0.9083 -0.1138 -0.2038
  472TMC3    C5 7024   1.269   0.113  15.960  0.2031  0.0859 -0.4096
  472TMC3    C6 7025   1.183   0.135  15.854  0.1614  0.2652  0.2501
  472TMC3     C 7026   1.235   0.452  16.108  0.0252 -0.1853 -0.1156
  472TMC3     O 7027   1.225   0.568  16.074 -0.3868 -0.0375  0.2380
  472TMC3     H 7028   1.094   0.449  15.878  1.3297  1.4033  1.8982
  472TMC3    H1 7029   1.359   0.211  16.123 -0.3088  0.6387  0.9062
  472TMC3    H2 7030   1.144   0.052  15.796 -0.5485 -0.7693  2.1597
  472TMC3    C7 7031   1.297   4.709  16.018  0.2102 -0.3019 -0.2377
  472TMC3    C8 7032   1.017   0.248  15.742  0.0718 -0.2214 -0.3133
  472TMC3    O1 7033   1.294   4.695  16.139 -0.2715  0.2016 -0.0303
  472TMC3    O2 7034   1.012   0.302  15.632  0.1957 -0.5694 -0.3136
  473MPD2     C 7035   0.596   2.379  13.575 -0.0242  0.4342  0.1312
  473MPD2    C1 7036   0.664   2.482  13.516 -1.0326 -0.7343  0.5364
  473MPD2    C2 7037   0.756   2.554  13.591  0.5097 -0.5135  0.2136
  473MPD2    C3 7038   0.785   2.521  13.720  0.0810  0.1876 -0.1896
  473MPD2    C4 7039   0.716   2.419  13.775 -0.3040 -0.0669 -0.3062
  473MPD2    C5 7040   0.618   2.355  13.709  0.4296 -0.5498  1.0538
  473MPD2     H 7041   0.804   2.637  13.542  0.9029  0.0106  1.4842
  473MPD2    H1 7042   0.740   2.380  13.874 -0.1627 -0.2735 -0.4222
  473MPD2    H2 7043   0.513   2.331  13.524  0.3851  0.4634 -0.5615
  473MPD2    H3 7044   0.556   2.280  13.757 -2.1842  0.2786 -0.9993
  473MPD2     N 7045   0.876   2.601  13.790 -0.3881  0.4296 -0.1573
  473MPD2    H5 7046   0.865   2.599  13.891  1.3624 -3.2393 -0.0348
  473MPD2    N1 7047   0.641   2.510  13.383  0.7847 -0.1283  0.5961
  473MPD2    H7 7048   0.701   2.583  13.348  2.8944 -1.8029  0.7189
  474TMC3    C1 7049   1.014   2.786  13.834 -0.4572 -0.5391  0.2630
  474TMC3    C2 7050   1.065   2.900  13.784  0.7363 -0.2599 -0.2423
  474TMC3    C3 7051   1.079   3.006  13.869  0.6057  0.3380 -0.1370
  474TMC3    C4 7052   0.978   2.776  13.967  0.5613  0.3703  0.2557
  474TMC3    C5 7053   0.979   2.890  14.040 -0.1113  0.6489 -0.6174
  474TMC3    C6 7054   1.028   3.011  13.997  0.1210 -0.3605 -0.2675
  474TMC3     C 7055   0.964   2.695  13.738 -0.1071 -1.1225  0.1574
  474TMC3     O 7056   0.995   2.714  13.625 -0.1081  0.0050  0.0667
  474TMC3     H 7057   1.099   2.907  13.681  1.3982  0.2938  0.0172
  474TMC3    H1 7058   0.939   2.687  14.014  0.7531  0.0274 -0.2369
  474TMC3    H2 7059   0.996   3.102  14.045  0.7769 -0.3630  0.1780
  474TMC3    C7 7060   0.923   2.883  14.174 -0.1879  0.0214  0.0125
  474TMC3    C8 7061   1.094   3.138  13.802  0.0212 -0.6228 -1.2459
  474TMC3    O1 7062   0.843   2.795  14.199 -0.9447  0.1322 -0.7324
  474TMC3    O2 7063   1.107   3.133  13.680  0.4274 -0.3897 -0.0812
  475MPD2     C 7064   4.369   1.305  10.343 -0.2131 -0.3364  0.3143
  475MPD2    C1 7065   4.247   1.237  10.312  0.7873  0.7730 -0.1032
  475MPD2    C2 7066   4.127   1.291  10.344  0.8276  0.1726  0.3723
  475MPD2    C3 7067   4.118   1.409  10.414  0.0800 -0.2881 -0.5416
  475MPD2    C4 7068   4.239   1.467  10.450 -0.7097  0.4649 -0.4658
  475MPD2    C5 7069   4.364   1.425  10.406  0.7587  0.1817 -0.3161
  475MPD2     H 7070   4.034   1.236  10.327 -1.1444  3.1009  1.6536
  475MPD2    H1 7071   4.240   1.561  10.504 -1.4402  1.2079 -1.7228
  475MPD2    H2 7072   4.463   1.260  10.315  0.9137  1.1949  1.6592
  475MPD2    H3 7073   4.451   1.480  10.440  1.2172 -0.7701  0.0539
  475MPD2     N 7074   3.994   1.466  10.447  0.1402 -0.5376  0.3555
  475MPD2    H5 7075   3.910   1.411  10.431 -2.0992  2.9819 -0.1665
  475MPD2    N1 7076   4.264   1.124  10.230 -0.5751  0.4067  0.6514
  475MPD2    H7 7077   4.364   1.110  10.215 -0.7337 -0.7264  0.7031
  476TMC3    C1 7078   4.246   1.003  10.036  0.3211 -0.4010  0.1099
  476TMC3    C2 7079   4.210   1.065   9.914  0.3949  0.1032  0.3532
  476TMC3    C3 7080   4.317   1.088   9.831 -0.1420 -0.1589 -0.6057
  476TMC3    C4 7081   4.376   0.960  10.068  0.0242 -0.0863  0.8782
  476TMC3    C5 7082   4.472   0.976   9.971 -0.0170 -0.1558 -0.0760
  476TMC3    C6 7083   4.443   1.042   9.856  0.4179  0.0686 -0.1583
  476TMC3     C 7084   4.173   1.064  10.145  0.0752 -0.8318 -0.0235
  476TMC3     O 7085   4.051   1.085  10.143 -0.0327  0.1431  0.0686
  476TMC3     H 7086   4.113   1.110   9.897 -0.0497 -1.4319 -1.1852
  476TMC3    H1 7087   4.399   0.930  10.170  1.4134  1.6881  1.1003
  476TMC3    H2 7088   4.534   1.076   9.808  1.1057 -1.4487  0.0663
  476TMC3    C7 7089   4.604   0.998  10.028 -0.0762  0.1808  0.1615
  476TMC3    C8 7090   4.303   1.199   9.739  0.2963  0.6627  0.1005
  476TMC3    O1 7091   4.687   0.908  10.023  0.3483  0.1899  0.6625
  476TMC3    O2 7092   4.201   1.269   9.755  0.1730 -0.0628 -0.0404
  477MPD2     C 7093   1.689   2.969  11.820 -0.2062  0.4532 -0.5159
  477MPD2    C1 7094   1.586   2.899  11.757 -0.0322  0.0478 -0.4894
  477MPD2    C2 7095   1.542   2.772  11.798  0.2827  0.0611 -0.0792
  477MPD2    C3 7096   1.608   2.710  11.900 -0.5122 -0.0403  0.2135
  477MPD2    C4 7097   1.712   2.782  11.969  0.0626 -0.0647  0.4684
  477MPD2    C5 7098   1.749   2.902  11.926 -0.1754 -0.2072 -0.6031
  477MPD2     H 7099   1.449   2.726  11.766  0.3411 -0.4225  0.4423
  477MPD2    H1 7100   1.772   2.741  12.049 -2.1345 -0.6614  1.8061
  477MPD2    H2 7101   1.715   3.071  11.794  0.1867 -0.3313 -3.2378
  477MPD2    H3 7102   1.828   2.962  11.970  0.5547 -1.0571 -0.7666
  477MPD2     N 7103   1.576   2.581  11.942  0.6717  0.2142 -0.3439
  477MPD2    H5 7104   1.487   2.547  11.907  1.6340 -2.1248 -0.5383
  477MPD2    N1 7105   1.532   2.966  11.643 -0.1884 -0.3125 -0.1923
  477MPD2    H7 7106   1.557   3.064  11.647 -0.6356 -0.1578 -1.1680
  478TMC3    C1 7107   1.388   3.008  11.464 -0.3754 -0.2648  0.1117
  478TMC3    C2 7108   1.325   3.110  11.522  0.7942  0.2554  0.5261
  478TMC3    C3 7109   1.208   3.160  11.473  0.1340  0.5626 -0.3414
  478TMC3    C4 7110   1.326   2.948  11.358 -0.8466  0.6416  0.2745
  478TMC3    C5 7111   1.214   3.002  11.310 -0.2832 -0.5834  0.8012
  478TMC3    C6 7112   1.151   3.109  11.362 -0.4118 -0.3568  0.1312
  478TMC3     C 7113   1.447   2.911  11.554 -0.6943  0.1150  0.1421
  478TMC3     O 7114   1.420   2.794  11.533 -0.6489  0.1151 -0.0928
  478TMC3     H 7115   1.359   3.156  11.614  3.7428 -0.2025 -0.3369
  478TMC3    H1 7116   1.366   2.862  11.304  1.3783  0.6983  1.8301
  478TMC3    H2 7117   1.047   3.122  11.333 -0.5512 -0.5739  0.5308
  478TMC3    C7 7118   1.147   2.929  11.208  0.9422 -0.3952 -0.0619
  478TMC3    C8 7119   1.131   3.243  11.561 -0.0445  0.4282 -0.0212
  478TMC3    O1 7120   1.167   2.807  11.209 -0.6752  0.4943 -0.0906
  478TMC3    O2 7121   1.151   3.220  11.680  0.4048 -0.0427 -0.4602
  479MPD2     C 7122   0.389   4.365  14.722 -0.4641 -0.5158  0.1981
  479MPD2    C1 7123   0.391   4.328  14.851  0.1509 -0.1387 -0.5842
  479MPD2    C2 7124   0.498   4.365  14.937  0.2838 -0.3692 -0.3549
  479MPD2    C3 7125   0.583   4.465  14.889 -0.5089 -0.0428  0.1250
  479MPD2    C4 7126   0.581   4.498  14.754  0.3123  0.1195  0.2745
  479MPD2    C5 7127   0.484   4.446  14.673  0.6036 -0.0063 -0.4722
  479MPD2     H 7128   0.490   4.342  15.043  1.8874 -0.9757 -0.3779
  479MPD2    H1 7129   0.647   4.573  14.713  0.4974  0.4173  1.1140
  479MPD2    H2 7130   0.311   4.321  14.661 -0.3088  0.1416 -0.4776
  479MPD2    H3 7131   0.485   4.465  14.566 -1.4265 -0.1551 -0.5200
  479MPD2     N 7132   0.675   4.547  14.967 -0.2470 -0.2315  0.6906
  479MPD2    H5 7133   0.733   4.604  14.906 -0.9585  0.3084  0.5234
  479MPD2    N1 7134   0.295   4.239  14.894 -0.4259 -0.0880 -0.8436
  479MPD2    H7 7135   0.232   4.210  14.820 -2.0126 -0.2550  0.5769
  480TMC3    C1 7136   0.536   4.426  15.400  0.5775  0.2647 -1.2258
  480TMC3    C2 7137   0.410   4.472  15.377  0.3004 -0.3045  0.6623
  480TMC3    C3 7138   0.381   4.541  15.265  0.3297  0.2987  0.3531
  480TMC3    C4 7139   0.637   4.445  15.310  0.5936  0.7377 -0.2319
  480TMC3    C5 7140   0.603   4.512  15.197  0.5218  0.0722  0.3799
  480TMC3    C6 7141   0.481   4.565  15.174  0.1865  0.7908  0.7471
  480TMC3     C 7142   0.558   4.359  15.524  0.0671  0.8114 -0.2448
  480TMC3     O 7143   0.667   4.360  15.571 -0.6308  0.2486  0.0840
  480TMC3     H 7144   0.333   4.470  15.453  1.2711 -2.2982  1.6079
  480TMC3    H1 7145   0.738   4.416  15.335  0.8734  2.3077  0.4669
  480TMC3    H2 7146   0.464   4.635  15.092  1.5357 -1.2357 -1.2751
  480TMC3    C7 7147   0.710   4.531  15.100 -0.0895 -0.1835 -0.3702
  480TMC3    C8 7148   0.243   4.543  15.223  0.4874  0.1804  0.4985
  480TMC3    O1 7149   0.819   4.553  15.151 -0.0763  0.6822  0.7178
  480TMC3    O2 7150   0.157   4.528  15.309 -0.2622 -0.2620  0.1896
  481MPD2     C 7151   2.423   4.543  14.549 -0.5531  0.2406  0.7856
  481MPD2    C1 7152   2.309   4.468  14.530  0.1255  0.3214  0.2827
  481MPD2    C2 7153   2.254   4.408  14.644  0.4017 -0.1488  0.2841
  481MPD2    C3 7154   2.300   4.440  14.769 -0.8037 -0.2692 -0.3666
  481MPD2    C4 7155   2.409   4.520  14.787 -0.0012  0.2562 -0.3841
  481MPD2    C5 7156   2.479   4.552  14.676  0.0138  1.3698 -0.5367
  481MPD2     H 7157   2.178   4.332  14.634  0.4865 -0.3646  1.3260
  481MPD2    H1 7158   2.465   4.541  14.877  1.7821 -0.4974 -1.3035
  481MPD2    H2 7159   2.482   4.571  14.462 -2.1400 -0.2789 -0.4593
  481MPD2    H3 7160   2.577   4.598  14.687  1.4541 -2.3991  2.1411
  481MPD2     N 7161   2.258   4.365  14.880  0.2680 -0.0762  0.3889
  481MPD2    H5 7162   2.307   4.395  14.964  0.8827 -2.4945  0.9090
  481MPD2    N1 7163   2.267   4.452  14.395 -0.1879 -0.3925 -0.1506
  481MPD2    H7 7164   2.317   4.500  14.321  0.5545  0.7258  1.0801
  482TMC3    C1 7165   2.116   4.367  14.220 -0.7666 -0.4380  0.3870
  482TMC3    C2 7166   2.025   4.272  14.184  0.4145 -0.2477 -0.6136
  482TMC3    C3 7167   1.932   4.306  14.091 -0.9967  0.0893 -1.3360
  482TMC3    C4 7168   2.126   4.487  14.155 -0.1521  1.4066  0.2462
  482TMC3    C5 7169   2.046   4.508  14.045  0.6146 -0.7685 -0.4998
  482TMC3    C6 7170   1.948   4.418  14.016 -0.1975  0.4317 -0.0320
  482TMC3     C 7171   2.162   4.367  14.358 -0.1543  0.4180 -0.0581
  482TMC3     O 7172   2.103   4.287  14.425 -0.3681  0.5106  0.1094
  482TMC3     H 7173   2.014   4.177  14.236 -1.3741 -0.9236 -2.2202
  482TMC3    H1 7174   2.209   4.552  14.182  0.5418  0.3154  0.7319
  482TMC3    H2 7175   1.884   4.438  13.930 -0.9940 -0.7763  0.2780
  482TMC3    C7 7176   2.075   4.616  13.960 -0.3947 -0.3027 -0.6295
  482TMC3    C8 7177   1.849   4.196  14.045 -0.0207 -0.3434  0.1665
  482TMC3    O1 7178   2.163   4.688  13.997  0.5072 -0.0705 -0.2184
  482TMC3    O2 7179   1.889   4.079  14.050  0.0129 -0.6263 -0.6379
  483TMC3    C1 7180   0.655   2.954   1.174 -0.3707 -1.0217  0.2304
  483TMC3    C2 7181   0.697   3.050   1.083  0.6748  0.0498 -0.2921
  483TMC3    C3 7182   0.832   3.067   1.085 -0.0918  0.3969 -1.0012
  483TMC3    C4 7183   0.730   2.892   1.267  0.0737 -0.7202 -0.1483
  483TMC3    C5 7184   0.858   2.923   1.266 -0.4210 -0.5954 -0.0905
  483TMC3    C6 7185   0.918   3.008   1.175 -0.8383  0.7925 -0.1722
  483TMC3     C 7186   0.510   2.933   1.183 -0.7787 -0.5411 -0.5838
  483TMC3     O 7187   0.445   3.034   1.159 -0.1473  0.3167 -0.1619
  483TMC3     H 7188   0.632   3.088   1.005  1.8447  0.7880 -0.9058
  483TMC3    H1 7189   0.690   2.810   1.326  1.4962 -1.2515  0.0655
  483TMC3    H2 7190   1.025   3.026   1.180 -0.6385 -0.2990 -0.4403
  483TMC3    C7 7191   0.950   2.837   1.336 -0.7862  0.1849  0.3629
  483TMC3    C8 7192   0.886   3.146   0.978 -0.0455 -0.1484 -0.0912
  483TMC3    O1 7193   1.064   2.829   1.297  0.1032 -0.0341  0.2388
  483TMC3    O2 7194   0.812   3.175   0.883 -0.3186  1.5388 -0.1656
  484MPD2     C 7195   2.274   1.646  12.174  0.5151 -0.2260  0.3374
  484MPD2    C1 7196   2.357   1.553  12.232  0.8631  0.1061 -0.4361
  484MPD2    C2 7197   2.496   1.564  12.243  0.9277 -0.1166 -0.1967
  484MPD2    C3 7198   2.550   1.670  12.173  0.9224  0.5874  0.0401
  484MPD2    C4 7199   2.470   1.758  12.107  0.0225 -0.0394 -0.3812
  484MPD2    C5 7200   2.333   1.747  12.102 -0.2986 -0.3290  0.5312
  484MPD2     H 7201   2.552   1.506  12.316 -0.5521 -1.8499 -0.4217
  484MPD2    H1 7202   2.522   1.838  12.055  0.4299 -0.9598 -1.3890
  484MPD2    H2 7203   2.167   1.642  12.185  0.4076  2.5239  0.4048
  484MPD2    H3 7204   2.281   1.828  12.053 -0.4784 -0.6461  0.1986
  484MPD2     N 7205   2.687   1.697  12.176  0.1123 -0.1302  1.0021
  484MPD2    H5 7206   2.719   1.783  12.132  2.5446 -1.9199 -0.7230
  484MPD2    N1 7207   2.279   1.463  12.306  0.4147  0.0171 -0.2653
  484MPD2    H7 7208   2.177   1.472  12.308  0.5019  1.4326 -1.5921
  485TMC3    C1 7209   2.908   1.685  12.230 -0.6387  0.1911 -0.8846
  485TMC3    C2 7210   3.020   1.609  12.246 -0.2398  0.3282 -0.1484
  485TMC3    C3 7211   3.139   1.679  12.250 -0.1698  0.2100 -0.2544
  485TMC3    C4 7212   2.912   1.817  12.201 -0.5198 -1.3201 -0.2262
  485TMC3    C5 7213   3.034   1.887  12.219 -0.3823 -0.1639  0.2200
  485TMC3    C6 7214   3.149   1.815  12.253  0.4848  0.2140 -0.2611
  485TMC3     C 7215   2.786   1.609  12.213  0.3739  0.0071  0.9191
  485TMC3     O 7216   2.783   1.489  12.234  0.4859  0.1507  0.5157
  485TMC3     H 7217   3.013   1.501  12.238 -0.4883  0.4114 -1.0808
  485TMC3    H1 7218   2.825   1.881  12.196  0.9242  0.9521  3.8454
  485TMC3    H2 7219   3.234   1.876  12.282 -0.4930  0.7441  1.4828
  485TMC3    C7 7220   3.071   1.991  12.124  0.0312 -0.5558 -0.4522
  485TMC3    C8 7221   3.256   1.622  12.192 -0.1154  0.5511  0.2368
  485TMC3    O1 7222   2.988   2.073  12.087  0.5765  0.7758 -0.2456
  485TMC3    O2 7223   3.325   1.713  12.146 -0.0946  0.3484  0.1369
  486MPD2     C 7224   4.477   0.375  12.740  0.2067  0.6827 -0.1781
  486MPD2    C1 7225   4.423   0.333  12.623  0.1595  0.6904  0.5388
  486MPD2    C2 7226   4.399   0.431  12.524 -0.0593 -0.3232 -0.0124
  486MPD2    C3 7227   4.429   0.567  12.545  0.4820  0.1952 -0.5051
  486MPD2    C4 7228   4.484   0.600  12.668  0.2585  0.4695  0.4717
  486MPD2    C5 7229   4.507   0.507  12.758 -0.0917 -0.2095  0.3870
  486MPD2     H 7230   4.348   0.414  12.430  0.9138  0.1995 -0.6286
  486MPD2    H1 7231   4.514   0.703  12.686 -3.0280  1.4613  0.2149
  486MPD2    H2 7232   4.493   0.313  12.827 -1.4173  0.5165 -0.0010
  486MPD2    H3 7233   4.537   0.541  12.856 -0.6407  1.7512 -0.1416
  486MPD2     N 7234   4.377   0.660  12.458 -0.2105  0.3335  0.3959
  486MPD2    H5 7235   4.330   0.619  12.378 -1.9202  3.4067 -0.1872
  486MPD2    N1 7236   4.381   0.200  12.615 -0.4848 -0.4244 -0.5605
  486MPD2    H7 7237   4.420   0.147  12.692 -0.9854 -1.2081 -0.8439
  487TMC3    C1 7238   4.324   4.716  12.519  0.2604  0.5827  0.3658
  487TMC3    C2 7239   4.281   4.653  12.408  0.2961  0.2779  0.4697
  487TMC3    C3 7240   4.306   4.523  12.399 -1.1054 -0.1755  0.3900
  487TMC3    C4 7241   4.402   4.662  12.620 -0.4326 -0.9302  0.2519
  487TMC3    C5 7242   4.404   4.523  12.620  0.3457 -0.0445 -0.0225
  487TMC3    C6 7243   4.361   4.459  12.505 -1.2741  0.0602  0.2941
  487TMC3     C 7244   4.323   0.134  12.503  0.2104  0.4657  0.2260
  487TMC3     O 7245   4.305   0.182  12.394 -0.1735  0.3331 -1.0179
  487TMC3     H 7246   4.230   4.701  12.325 -0.7716 -2.4482 -0.4544
  487TMC3    H1 7247   4.450   4.712  12.704  1.3990 -2.1707 -0.0597
  487TMC3    H2 7248   4.395   4.357  12.491  0.8019  0.6931  0.7471
  487TMC3    C7 7249   4.328   4.474  12.735  0.2546  0.5831  0.0769
  487TMC3    C8 7250   4.213   4.440  12.335  0.0794 -0.5377 -0.6976
  487TMC3    O1 7251   4.319   4.558  12.823 -0.3822 -0.3293  0.2564
  487TMC3    O2 7252   4.262   4.334  12.299  0.0954 -0.4816 -0.2469
  488MPD2     C 7253   0.384   1.544  16.138 -0.9261 -0.5897 -0.7202
  488MPD2    C1 7254   0.431   1.650  16.203 -0.6196 -0.5218  0.0990
  488MPD2    C2 7255   0.443   1.644  16.340  1.2193 -1.0278  0.4473
  488MPD2    C3 7256   0.402   1.537  16.411  0.3214  0.1337 -0.3739
  488MPD2    C4 7257   0.335   1.440  16.343 -0.2479 -0.4717 -0.6152
  488MPD2    C5 7258   0.337   1.435  16.204  0.2397  0.0856 -0.0263
  488MPD2     H 7259   0.484   1.732  16.388  2.0656  0.0966 -2.2952
  488MPD2    H1 7260   0.294   1.352  16.391  0.0238 -1.7294 -2.6455
  488MPD2    H2 7261   0.376   1.535  16.030 -2.2711 -2.0572 -0.5120
  488MPD2    H3 7262   0.276   1.355  16.165  2.0577 -1.3496  0.1020
  488MPD2     N 7263   0.426   1.537  16.551  0.3555 -0.0619  0.0523
  488MPD2    H5 7264   0.493   1.604  16.588  0.3967 -0.1095  0.0651
  488MPD2    N1 7265   0.457   1.765  16.126 -0.2294 -0.7163 -0.5118
  488MPD2    H7 7266   0.485   1.847  16.178 -2.9652  0.2791 -0.6010
  489TMC3    C1 7267   0.407   1.474  16.779  0.0515 -0.7992 -0.2014
  489TMC3    C2 7268   0.438   1.607  16.803  0.0318  0.0132 -0.4487
  489TMC3    C3 7269   0.508   1.630  16.922  0.1039  0.3268  0.1798
  489TMC3    C4 7270   0.416   1.370  16.877  0.1739 -0.3537  0.0514
  489TMC3    C5 7271   0.474   1.410  16.997 -0.2826 -0.8141 -0.1925
  489TMC3    C6 7272   0.536   1.533  17.009 -0.7116 -0.7798 -0.2831
  489TMC3     C 7273   0.395   1.438  16.637 -0.8484  0.1906 -0.5813
  489TMC3     O 7274   0.367   1.319  16.620  0.3990  0.4709  0.3974
  489TMC3     H 7275   0.416   1.694  16.742  0.8311 -0.0947 -0.8933
  489TMC3    H1 7276   0.390   1.266  16.858 -0.7758 -0.0896 -0.1118
  489TMC3    H2 7277   0.588   1.564  17.099  0.0642 -0.4708 -0.8374
  489TMC3    C7 7278   0.478   1.322  17.120 -0.3142 -0.1177  0.3860
  489TMC3    C8 7279   0.549   1.771  16.938 -0.3214  0.0198 -0.6157
  489TMC3    O1 7280   0.546   1.349  17.221 -0.5222  0.9228 -0.1380
  489TMC3    O2 7281   0.554   1.827  16.831 -0.5024 -0.0359  0.0685
  490MPD2     C 7282   1.306   1.618  17.383  0.4670 -0.2686 -0.0331
  490MPD2    C1 7283   1.380   1.513  17.432  0.2522  0.1234 -0.0209
  490MPD2    C2 7284   1.501   1.548  17.499  0.1438  1.1000 -0.0837
  490MPD2    C3 7285   1.547   1.680  17.508  0.0851 -0.0855 -0.2006
  490MPD2    C4 7286   1.468   1.782  17.462  0.0596  0.3017  0.5509
  490MPD2    C5 7287   1.349   1.746  17.393 -0.2609  0.4731 -0.1905
  490MPD2     H 7288   1.551   1.461  17.541 -0.1463  0.5084 -0.9738
  490MPD2    H1 7289   1.491   1.888  17.462  0.2916  0.2461 -2.1359
  490MPD2    H2 7290   1.212   1.602  17.331  0.2302 -0.8740  0.5832
  490MPD2    H3 7291   1.282   1.828  17.371 -2.0599 -0.6611  1.0498
  490MPD2     N 7292   1.680   1.715  17.536 -0.5774  0.8751 -0.6990
  490MPD2    H5 7293   1.702   1.814  17.539 -1.6275  0.9847  3.9002
  490MPD2    N1 7294   1.341   1.377  17.414 -0.0861  0.0996  0.6295
  490MPD2    H7 7295   1.404   1.306  17.451  1.1560  1.3058  0.8406
  491TMC3    C1 7296   1.225   1.189  17.349 -0.4378 -0.2372 -0.6584
  491TMC3    C2 7297   1.286   1.110  17.444 -0.2764 -0.2618  0.4393
  491TMC3    C3 7298   1.278   0.977  17.425 -0.0408  0.2895 -0.2833
  491TMC3    C4 7299   1.174   1.136  17.226 -0.7482  0.1108 -0.0442
  491TMC3    C5 7300   1.182   0.995  17.214  0.9425 -0.5330  0.0501
  491TMC3    C6 7301   1.221   0.918  17.318  0.0207  0.1855 -0.2347
  491TMC3     C 7302   1.224   1.331  17.353  0.1122  1.3763 -0.8875
  491TMC3     O 7303   1.152   1.389  17.272  0.4221 -0.5317  0.1585
  491TMC3     H 7304   1.337   1.149  17.532 -1.9368  1.2096  0.7445
  491TMC3    H1 7305   1.122   1.200  17.156 -1.9498  0.0543  0.7963
  491TMC3    H2 7306   1.210   0.811  17.303 -2.1463  0.2806  0.6374
  491TMC3    C7 7307   1.088   0.936  17.122 -0.3936  0.5785  0.2335
  491TMC3    C8 7308   1.305   0.889  17.533 -0.2005 -0.4367  0.3620
  491TMC3    O1 7309   1.039   0.823  17.138 -0.2428 -0.1081 -0.3202
  491TMC3    O2 7310   1.290   0.937  17.642 -0.6792  0.3894 -0.8010
  492MPD2     C 7311   1.248   1.300  11.151  0.1893 -0.5436 -0.0235
  492MPD2    C1 7312   1.215   1.209  11.050  0.0753 -0.3547 -0.0500
  492MPD2    C2 7313   1.120   1.114  11.071 -0.4221 -0.2127  0.3136
  492MPD2    C3 7314   1.040   1.109  11.187  1.2163 -0.6025  0.0403
  492MPD2    C4 7315   1.066   1.216  11.281  0.2125 -0.5584 -0.4616
  492MPD2    C5 7316   1.174   1.301  11.263  0.0899 -0.0937 -1.1639
  492MPD2     H 7317   1.096   1.046  10.990 -1.0503 -1.1619  1.2905
  492MPD2    H1 7318   0.998   1.228  11.364 -1.2548 -3.0463 -1.2928
  492MPD2    H2 7319   1.319   1.381  11.144 -0.2009 -0.0587  1.8139
  492MPD2    H3 7320   1.201   1.382  11.330 -2.5892  0.8171 -1.1996
  492MPD2     N 7321   0.951   1.006  11.219  0.4725 -0.4320 -0.4716
  492MPD2    H5 7322   0.904   1.008  11.309  0.3541 -2.5763 -0.4913
  492MPD2    N1 7323   1.287   1.231  10.929 -0.5167  0.2690 -0.2872
  492MPD2    H7 7324   1.355   1.306  10.923 -0.5060  0.2898  0.0790
  493TMC3    C1 7325   1.389   1.175  10.723  0.4476  0.3969  0.0975
  493TMC3    C2 7326   1.394   1.304  10.669  0.5794 -0.1947  0.6876
  493TMC3    C3 7327   1.411   1.327  10.539  0.1837  0.6143 -0.4240
  493TMC3    C4 7328   1.417   1.069  10.644  0.1015  0.2095 -0.6607
  493TMC3    C5 7329   1.418   1.094  10.504  0.5221 -0.5124 -0.2959
  493TMC3    C6 7330   1.408   1.219  10.456  0.5332 -0.2542  0.2039
  493TMC3     C 7331   1.277   1.151  10.811 -0.5791  0.2144  0.0777
  493TMC3     O 7332   1.202   1.059  10.779 -0.0931 -0.2165 -0.4931
  493TMC3     H 7333   1.369   1.384  10.736 -0.6485  1.4800 -1.7585
  493TMC3    H1 7334   1.414   0.972  10.691  0.0222  0.8525  0.6631
  493TMC3    H2 7335   1.399   1.226  10.348  2.3254  1.1953  0.1508
  493TMC3    C7 7336   1.356   0.997  10.420  0.0934  0.0204  0.0518
  493TMC3    C8 7337   1.365   1.449  10.473  0.0193  0.5543  0.0285
  493TMC3    O1 7338   1.309   1.034  10.314 -0.0878  0.0383  0.4919
  493TMC3    O2 7339   1.292   1.446  10.374 -0.4020  0.0196 -0.0493
  494TMC3    C1 7340   2.674   2.729   0.721 -0.4117 -0.2477 -0.0125
  494TMC3    C2 7341   2.660   2.595   0.754  0.3370  0.2644 -0.5585
  494TMC3    C3 7342   2.637   2.506   0.656 -0.4670 -0.1751 -0.5560
  494TMC3    C4 7343   2.654   2.772   0.591 -0.2988 -0.4858  0.3823
  494TMC3    C5 7344   2.629   2.678   0.502  0.0075  0.2058  0.9323
  494TMC3    C6 7345   2.626   2.540   0.522  0.4430 -0.1385 -0.1325
  494TMC3     C 7346   2.710   2.815   0.827 -0.5009  0.0325  0.5513
  494TMC3     O 7347   2.747   2.766   0.933  0.0384 -0.2991 -0.4199
  494TMC3     H 7348   2.678   2.559   0.855  0.2952 -1.0175 -1.0088
  494TMC3    H1 7349   2.673   2.874   0.562  0.9122 -0.6115  0.7479
  494TMC3    H2 7350   2.603   2.468   0.444 -1.1438 -0.1072  0.3079
  494TMC3    C7 7351   2.570   2.716   0.374 -1.2452  0.2481 -0.5125
  494TMC3    C8 7352   2.605   2.370   0.693 -0.2967  0.3703  0.1079
  494TMC3    O1 7353   2.559   2.629   0.284  0.3963  0.0025  0.0463
  494TMC3    O2 7354   2.569   2.360   0.808 -0.2253 -0.0864  0.2697
  495TMC3    C1 7355   0.104   4.393  14.256  0.3386 -0.2240 -0.3400
  495TMC3    C2 7356   0.119   4.494  14.166 -0.0235  0.9425 -0.1162
  495TMC3    C3 7357   0.170   4.610  14.212  0.3698  0.1078 -0.2137
  495TMC3    C4 7358   0.100   4.412  14.392  0.4867 -0.2199  0.8080
  495TMC3    C5 7359   0.139   4.536  14.440  0.2499 -0.5769 -0.0304
  495TMC3    C6 7360   0.181   4.629  14.347 -0.1114 -0.3438 -0.5317
  495TMC3     C 7361   4.725   4.298  14.227 -0.7160 -0.3084  0.9466
  495TMC3     O 7362   4.720   4.200  14.300 -0.5591  0.3652  0.0744
  495TMC3     H 7363   0.122   4.473  14.059  0.3485 -2.0847  0.5068
  495TMC3    H1 7364   0.094   4.331  14.464  0.6833 -0.6057  0.3887
  495TMC3    H2 7365   0.222   4.720  14.387 -1.8554 -0.1251  0.7277
  495TMC3    C7 7366   0.146   4.565  14.579 -1.0004 -0.4821 -0.2663
  495TMC3    C8 7367   0.136   4.723  14.138  0.0731  0.3424  0.9169
  495TMC3    O1 7368   0.237   4.635  14.625  0.5714 -0.6486 -1.0128
  495TMC3    O2 7369   0.039   4.719  14.068 -0.3907 -0.6998  0.3062
  496MPD2     C 7370   3.250   0.119  15.586  0.2282 -0.1862  0.9523
  496MPD2    C1 7371   3.147   0.078  15.504 -0.4130 -0.1542  0.1124
  496MPD2    C2 7372   3.022   0.137  15.519 -0.2905  0.1791 -1.0241
  496MPD2    C3 7373   2.996   0.220  15.624 -0.0701 -0.1532  0.2672
  496MPD2    C4 7374   3.095   0.261  15.706  0.3451  0.3860  0.1533
  496MPD2    C5 7375   3.222   0.211  15.681  0.0618 -0.3409 -1.0314
  496MPD2     H 7376   2.944   0.125  15.444  0.2181  0.1941 -1.5545
  496MPD2    H1 7377   3.086   0.320  15.797 -3.2136  0.3741 -0.2209
  496MPD2    H2 7378   3.349   0.074  15.576  0.3577  1.1088 -3.6538
  496MPD2    H3 7379   3.306   0.240  15.744  0.8380 -2.7346 -0.9807
  496MPD2     N 7380   2.868   0.265  15.652  0.4098  0.3121  0.2451
  496MPD2    H5 7381   2.862   0.327  15.733 -1.8331 -0.9051  1.0212
  496MPD2    N1 7382   3.173   4.711  15.395  0.2805 -0.4633  0.6416
  496MPD2    H7 7383   3.269   4.677  15.400  0.1700 -0.9532 -0.6438
  497TMC3    C1 7384   2.630   0.287  15.650 -0.6272  0.6258  0.6865
  497TMC3    C2 7385   2.514   0.303  15.577  0.1478  0.3291  0.1123
  497TMC3    C3 7386   2.399   0.332  15.648  0.1447 -0.0690 -0.2888
  497TMC3    C4 7387   2.626   0.279  15.789 -0.0807 -0.4595 -0.3846
  497TMC3    C5 7388   2.514   0.317  15.851 -0.2792 -0.1470 -0.0495
  497TMC3    C6 7389   2.400   0.347  15.782 -0.4306  0.0632  0.2039
  497TMC3     C 7390   2.750   0.249  15.575  0.2726 -0.2546 -0.5020
  497TMC3     O 7391   2.735   0.195  15.465 -0.1116 -0.0704 -0.0312
  497TMC3     H 7392   2.519   0.299  15.468  1.2044  1.1267  0.1361
  497TMC3    H1 7393   2.716   0.264  15.848  0.0080  2.7779  0.3140
  497TMC3    H2 7394   2.315   0.370  15.844 -0.6875  1.4774 -0.6700
  497TMC3    C7 7395   2.511   0.328  15.997  0.3228  0.2130 -0.0997
  497TMC3    C8 7396   2.268   0.332  15.592 -0.5952 -0.7690 -0.5653
  497TMC3    O1 7397   2.398   0.318  16.043  0.4510 -0.6704  0.1390
  497TMC3    O2 7398   2.172   0.345  15.671 -0.0542 -0.0099 -0.3304
  498MPD2     C 7399   4.167   0.005   9.479 -0.0565  0.4134 -0.2311
  498MPD2    C1 7400   4.074   0.092   9.531 -1.2544 -0.3810  0.6217
  498MPD2    C2 7401   3.961   0.041   9.591  0.1256  0.6730  0.1023
  498MPD2    C3 7402   3.948   4.632   9.606 -0.4718 -0.3354  0.4576
  498MPD2    C4 7403   4.037   4.548   9.551  0.8833 -0.4093 -0.4921
  498MPD2    C5 7404   4.154   4.595   9.502  0.5918 -0.1114 -0.8847
  498MPD2     H 7405   3.878   0.107   9.613  0.5867  1.2967 -0.0349
  498MPD2    H1 7406   4.027   4.441   9.565  1.3277 -0.5437 -1.2490
  498MPD2    H2 7407   4.259   0.039   9.433 -0.0051  2.5001  1.3747
  498MPD2    H3 7408   4.230   4.523   9.474  0.8591  0.0026 -0.4496
  498MPD2     N 7409   3.832   4.584   9.686  0.2933  0.4079  0.4206
  498MPD2    H5 7410   3.780   4.643   9.749  0.6814  1.3116 -0.1079
  498MPD2    N1 7411   4.087   0.229   9.509 -0.1000 -0.3055 -0.2526
  498MPD2    H7 7412   4.017   0.288   9.552 -0.4056  0.4035 -1.7216
  499TMC3    C1 7413   4.114   0.422   9.405 -0.4749  0.3652  0.6195
  499TMC3    C2 7414   3.983   0.448   9.427  0.3941  0.4026 -0.3369
  499TMC3    C3 7415   3.936   0.567   9.373  0.1269  0.5607 -0.5883
  499TMC3    C4 7416   4.200   0.511   9.348  0.4893  0.2847 -0.1593
  499TMC3    C5 7417   4.155   0.633   9.314  0.2373 -0.3545  0.9663
  499TMC3    C6 7418   4.022   0.661   9.321 -0.7809  0.0171 -0.0535
  499TMC3     C 7419   4.169   0.290   9.421  0.2731  0.0369 -0.6012
  499TMC3     O 7420   4.272   0.256   9.362 -0.0660 -0.1536  0.0115
  499TMC3     H 7421   3.912   0.380   9.472  0.9260  1.9999  2.8921
  499TMC3    H1 7422   4.296   0.462   9.334  0.5959 -0.3760  3.0659
  499TMC3    H2 7423   3.987   0.755   9.281  0.3610 -0.0709 -1.2586
  499TMC3    C7 7424   4.250   0.743   9.299  0.7360 -0.0570  0.5347
  499TMC3    C8 7425   3.798   0.612   9.385  0.3563  0.0716 -0.2065
  499TMC3    O1 7426   4.205   0.853   9.264 -0.0668  0.7180  0.1132
  499TMC3    O2 7427   3.776   0.732   9.363 -0.2640 -0.8987  0.0763
  500MPD2     C 7428   0.928   2.207   9.609 -0.2438  0.1406  0.1320
  500MPD2    C1 7429   0.846   2.300   9.674 -0.8956  0.8085  0.6123
  500MPD2    C2 7430   0.724   2.333   9.611 -0.2807 -1.3340  0.2852
  500MPD2    C3 7431   0.689   2.280   9.487 -0.2425 -1.0375  0.7259
  500MPD2    C4 7432   0.771   2.190   9.427  1.3903 -0.1457 -0.5376
  500MPD2    C5 7433   0.893   2.155   9.487 -0.7466 -0.3029 -0.9114
  500MPD2     H 7434   0.658   2.406   9.658  2.0121  0.5084  0.6333
  500MPD2    H1 7435   0.760   2.166   9.321 -0.2232  2.3255 -0.9139
  500MPD2    H2 7436   1.032   2.190   9.636  0.3467  0.8824 -1.6475
  500MPD2    H3 7437   0.972   2.108   9.430 -1.2727 -0.5219 -1.4569
  500MPD2     N 7438   0.572   2.309   9.417 -0.2073 -0.3888  0.6994
  500MPD2    H5 7439   0.561   2.269   9.324 -0.6383 -0.4576  0.7790
  500MPD2    N1 7440   0.884   2.367   9.795 -0.2389 -0.0018  0.1251
  500MPD2    H7 7441   0.810   2.419   9.841  1.0474  0.7564  1.3371
  501TMC3    C1 7442   1.017   2.415   9.988 -0.0105 -0.0523 -0.9460
  501TMC3    C2 7443   0.996   2.550   9.971 -0.0888  0.4034  0.2228
  501TMC3    C3 7444   1.073   2.627  10.054 -0.0998 -0.3079  0.2224
  501TMC3    C4 7445   1.097   2.358  10.089 -0.4983  0.0204  0.8405
  501TMC3    C5 7446   1.164   2.447  10.171 -0.1176  0.2140 -0.0779
  501TMC3    C6 7447   1.157   2.581  10.148  0.6296 -0.0140  0.1634
  501TMC3     C 7448   0.997   2.337   9.867 -0.1873  0.1307  0.5076
  501TMC3     O 7449   1.083   2.251   9.860  0.7035 -0.0216  0.3942
  501TMC3     H 7450   0.927   2.591   9.898 -0.5061 -0.7840 -0.0356
  501TMC3    H1 7451   1.090   2.250  10.093  0.1136 -0.0043  1.2751
  501TMC3    H2 7452   1.215   2.649  10.210 -1.0373  2.1764 -0.7136
  501TMC3    C7 7453   1.245   2.391  10.273  0.0800  0.8871  0.0225
  501TMC3    C8 7454   1.027   2.767  10.078 -0.1627  0.0280  0.1152
  501TMC3    O1 7455   1.218   2.275  10.311 -0.9988 -0.3237  0.2081
  501TMC3    O2 7456   1.071   2.810  10.185  0.1432 -0.5748 -0.3091
  502TMC3    C1 7457   0.195   0.972  14.896 -0.1485  0.2705 -0.4727
  502TMC3    C2 7458   0.189   1.106  14.873 -0.0857 -0.3978 -0.0352
  502TMC3    C3 7459   0.062   1.156  14.864  0.1819  0.2442 -0.1616
  502TMC3    C4 7460   0.090   0.890  14.903  0.3051 -0.5957  0.4399
  502TMC3    C5 7461   4.691   0.936  14.893 -0.3181 -0.2758  0.2780
  502TMC3    C6 7462   4.675   1.075  14.877  0.4328 -0.7403 -0.2219
  502TMC3     C 7463   0.322   0.923  14.920  0.6574  0.3312  0.1572
  502TMC3     O 7464   0.426   0.982  14.880 -0.3867 -0.6177  0.1020
  502TMC3     H 7465   0.277   1.168  14.864  0.4357 -1.0869  0.3350
  502TMC3    H1 7466   0.107   0.783  14.908  0.9131 -0.4992  0.4902
  502TMC3    H2 7467   4.578   1.111  14.843  0.5815  1.1748  1.3321
  502TMC3    C7 7468   4.577   0.850  14.904 -0.1803  0.3155  0.4228
  502TMC3    C8 7469   0.061   1.300  14.843  0.0434 -0.9414  0.1253
  502TMC3    O1 7470   4.595   0.732  14.875 -0.3951  0.2951 -0.1928
  502TMC3    O2 7471   0.167   1.365  14.843 -0.2993 -0.4659  0.6567
  503MPD2     C 7472   2.344   1.757  16.727 -0.0917  0.5360  0.1963
  503MPD2    C1 7473   2.366   1.749  16.866 -0.2015 -0.1415  0.5303
  503MPD2    C2 7474   2.417   1.629  16.913 -0.2776 -0.2570  1.3521
  503MPD2    C3 7475   2.446   1.522  16.830 -0.5874  0.5618  0.6355
  503MPD2    C4 7476   2.414   1.532  16.703  0.6465 -0.5293  0.7549
  503MPD2    C5 7477   2.363   1.644  16.648  0.6919  0.0030 -0.0499
  503MPD2     H 7478   2.447   1.620  17.017 -1.6181  1.5678  1.8928
  503MPD2    H1 7479   2.419   1.446  16.638 -0.3267  1.4173 -1.8815
  503MPD2    H2 7480   2.302   1.841  16.673 -1.7155  0.1178  0.8305
  503MPD2    H3 7481   2.343   1.652  16.541  0.6413  1.7489  0.1011
  503MPD2     N 7482   2.513   1.411  16.881 -0.0183 -0.1803  0.8163
  503MPD2    H5 7483   2.530   1.407  16.981 -1.5490 -0.3481  1.0792
  503MPD2    N1 7484   2.331   1.854  16.959 -0.2655 -0.4795  0.1077
  503MPD2    H7 7485   2.355   1.848  17.057 -1.6199 -1.3109  0.3925
  504TMC3    C1 7486   2.590   1.183  16.888 -0.3249  0.7786 -1.1974
  504TMC3    C2 7487   2.557   1.176  17.021  0.1181 -0.0819 -0.3073
  504TMC3    C3 7488   2.632   1.091  17.097  0.4126 -0.0453 -0.8911
  504TMC3    C4 7489   2.705   1.128  16.837  0.0694  0.2951 -0.6023
  504TMC3    C5 7490   2.782   1.051  16.919 -0.1950 -0.4825  0.1576
  504TMC3    C6 7491   2.748   1.029  17.049 -0.2995 -0.0667 -0.3964
  504TMC3     C 7492   2.548   1.298  16.809  0.0157 -0.1621  0.7894
  504TMC3     O 7493   2.565   1.284  16.688  0.0566  0.1902 -0.8544
  504TMC3     H 7494   2.470   1.225  17.062  0.9368 -0.2077  1.5527
  504TMC3    H1 7495   2.730   1.139  16.732 -0.1913 -3.6897 -1.1016
  504TMC3    H2 7496   2.810   0.968  17.115 -1.9001 -1.6309 -0.3488
  504TMC3    C7 7497   2.875   0.967  16.847  0.0134 -0.1307  0.9400
  504TMC3    C8 7498   2.593   1.060  17.232  0.2338  0.1320 -0.5927
  504TMC3    O1 7499   2.905   1.003  16.737 -0.4381 -0.2512  0.0223
  504TMC3    O2 7500   2.474   1.057  17.256  0.1418  0.6567  0.0799
  505MPD2     C 7501   2.657   0.157  10.328 -0.0812  0.4398 -1.0077
  505MPD2    C1 7502   2.734   0.269  10.282  0.3958 -0.4664  0.2754
  505MPD2    C2 7503   2.728   0.313  10.152 -0.0283  0.2555  0.8717
  505MPD2    C3 7504   2.666   0.235  10.057 -0.2389  0.3379  0.1970
  505MPD2    C4 7505   2.598   0.127  10.095 -0.4776 -0.6999 -0.5999
  505MPD2    C5 7506   2.593   0.082  10.228  0.2456 -0.2993  0.3178
  505MPD2     H 7507   2.780   0.406  10.131 -1.3818  0.5375 -1.1788
  505MPD2    H1 7508   2.542   0.069  10.023 -1.2535 -1.8451  0.9342
  505MPD2    H2 7509   2.653   0.129  10.433 -1.4311 -0.1632 -1.2131
  505MPD2    H3 7510   2.533   4.724  10.258  2.6553 -2.2583 -0.3663
  505MPD2     N 7511   2.655   0.276   9.920  0.1393  0.3392 -0.2410
  505MPD2    H5 7512   2.612   0.222   9.847  1.7124 -1.6974  0.3467
  505MPD2    N1 7513   2.800   0.333  10.388  0.3431 -0.2379 -0.1274
  505MPD2    H7 7514   2.791   0.298  10.483 -0.2950  0.4253  0.0502
  506TMC3    C1 7515   2.948   0.482  10.485  0.1733 -0.2631 -0.1194
  506TMC3    C2 7516   3.022   0.380  10.525 -0.0467 -0.3126  0.4173
  506TMC3    C3 7517   3.158   0.402  10.548  1.2358 -0.7352  0.2493
  506TMC3    C4 7518   2.999   0.607  10.479 -0.3109 -0.8592  0.5436
  506TMC3    C5 7519   3.137   0.618  10.464 -0.0032 -0.0828 -0.0793
  506TMC3    C6 7520   3.214   0.512  10.498 -0.3815 -0.1391  0.6149
  506TMC3     C 7521   2.857   0.456  10.377  0.3505 -0.1349  0.6715
  506TMC3     O 7522   2.851   0.538  10.286  0.1644 -0.8034  0.1539
  506TMC3     H 7523   2.979   0.285  10.553 -0.8974 -0.2338 -0.6065
  506TMC3    H1 7524   2.937   0.685  10.436  2.0445 -0.9477 -3.0021
  506TMC3    H2 7525   3.322   0.514  10.490 -0.4737 -1.1604 -0.8518
  506TMC3    C7 7526   3.190   0.682  10.341  0.5044  0.1591  0.3593
  506TMC3    C8 7527   3.242   0.285  10.560  0.3621 -0.0037  1.2929
  506TMC3    O1 7528   3.310   0.699  10.327  0.3454  0.4894  0.2629
  506TMC3    O2 7529   3.236   0.226  10.663 -0.0942  0.1522  0.1649
  507TMC3    C1 7530   2.779   0.885  14.715 -0.4342  0.0026  0.0282
  507TMC3    C2 7531   2.837   0.897  14.591  0.0482  0.2568 -0.0107
  507TMC3    C3 7532   2.963   0.935  14.587 -1.0085  0.7057  0.3206
  507TMC3    C4 7533   2.847   0.889  14.828 -0.2235 -0.5966  0.0951
  507TMC3    C5 7534   2.975   0.932  14.820 -0.2927 -0.2165 -0.9614
  507TMC3    C6 7535   3.036   0.937  14.704 -0.0068  0.2584  0.0255
  507TMC3     C 7536   2.657   0.809  14.715  0.5933 -0.0892 -0.0367
  507TMC3     O 7537   2.594   0.816  14.608 -0.1722 -0.6818  0.1724
  507TMC3     H 7538   2.783   0.881  14.498  1.8270  0.0036 -0.9962
  507TMC3    H1 7539   2.790   0.898  14.920 -1.0072  1.5546 -0.6179
  507TMC3    H2 7540   3.142   0.952  14.683  0.0437  1.2256  0.9730
  507TMC3    C7 7541   3.004   1.046  14.912 -0.7745  0.2045 -0.0715
  507TMC3    C8 7542   2.999   1.053  14.507 -0.2797 -0.5979  0.3101
  507TMC3    O1 7543   2.938   1.056  15.016 -1.0465  0.0396 -0.3058
  507TMC3    O2 7544   3.093   1.118  14.541 -0.2508 -0.2651 -0.3558
  508MPD2     C 7545   4.503   3.696  15.953 -0.1816  0.3899 -0.0192
  508MPD2    C1 7546   4.512   3.745  16.081 -0.5489  0.1305 -0.2392
  508MPD2    C2 7547   4.539   3.882  16.093  0.7338  0.0277  0.0997
  508MPD2    C3 7548   4.548   3.958  15.984  0.2724  0.2776  0.5888
  508MPD2    C4 7549   4.539   3.911  15.856 -0.2935 -0.1117 -0.3139
  508MPD2    C5 7550   4.521   3.778  15.841 -0.1048  0.1795  0.4214
  508MPD2     H 7551   4.548   3.936  16.187  1.2815  0.6013 -0.2839
  508MPD2    H1 7552   4.534   3.962  15.761 -3.4782 -1.0849 -0.6736
  508MPD2    H2 7553   4.476   3.594  15.931  0.2349 -0.0488  1.4826
  508MPD2    H3 7554   4.510   3.730  15.745  3.1812 -0.6892  0.4773
  508MPD2     N 7555   4.557   4.100  15.999  0.8375 -0.2993  0.3112
  508MPD2    H5 7556   4.560   4.144  16.091 -0.5874 -0.6250  0.5092
  508MPD2    N1 7557   4.489   3.661  16.195 -0.1102  0.0324 -0.1486
  508MPD2    H7 7558   4.478   3.562  16.177 -0.2823 -0.3125  1.8600
  509TMC3    C1 7559   4.438   4.492  16.004 -0.1511 -0.1798 -0.1336
  509TMC3    C2 7560   4.506   4.582  15.928  0.0793 -0.0131 -0.5725
  509TMC3    C3 7561   4.620   4.543  15.864 -0.3173 -0.1595 -0.4284
  509TMC3    C4 7562   4.486   4.365  16.033 -0.4050 -0.5551 -0.7809
  509TMC3    C5 7563   4.598   4.323  15.958 -0.3835 -0.4053 -0.2412
  509TMC3    C6 7564   4.674   4.416  15.887  0.0955 -0.5280  0.3560
  509TMC3     C 7565   4.302   4.531  16.007  0.2015 -0.3237 -0.8260
  509TMC3     O 7566   4.247   4.532  16.115  0.1743 -0.0068  0.0880
  509TMC3     H 7567   4.457   4.679  15.921  1.7999  0.9479  0.8787
  509TMC3    H1 7568   4.416   4.301  16.086  1.1392 -0.9115  0.8035
  509TMC3    H2 7569   0.035   4.384  15.831 -1.2716  0.0808 -2.1328
  509TMC3    C7 7570   4.597   4.186  15.904  0.8350  0.8148 -0.5617
  509TMC3    C8 7571   4.627   4.594  15.730  0.7560 -0.1235 -0.2660
  509TMC3    O1 7572   4.656   4.165  15.798 -0.5053 -0.4429  0.0999
  509TMC3    O2 7573   4.713   4.538  15.664  0.2128  0.3884  0.8991
  510MPD2     C 7574   1.857   0.620  14.183 -0.2342  0.0165 -0.4040
  510MPD2    C1 7575   1.925   0.593  14.299  0.1977  0.0681 -0.3998
  510MPD2    C2 7576   2.062   0.563  14.295  0.4305  1.1314  0.1955
  510MPD2    C3 7577   2.129   0.561  14.173 -0.9231 -0.9996 -0.2462
  510MPD2    C4 7578   2.063   0.597  14.057 -0.4587  0.3756  0.3549
  510MPD2    C5 7579   1.930   0.627  14.065 -0.3632  0.9539  0.7447
  510MPD2     H 7580   2.115   0.525  14.382 -0.9777 -0.4221  0.3731
  510MPD2    H1 7581   2.103   0.575  13.959 -1.3573  2.9798 -0.5663
  510MPD2    H2 7582   1.755   0.657  14.188 -1.1557 -2.2705 -1.9249
  510MPD2    H3 7583   1.868   0.654  13.980 -0.5033 -0.3596  0.4267
  510MPD2     N 7584   2.266   0.526  14.170 -0.7153  0.5674 -0.3414
  510MPD2    H5 7585   2.301   0.511  14.264 -0.5318  2.6912 -0.0728
  510MPD2    N1 7586   1.848   0.576  14.417  0.2985 -0.2903  0.7963
  510MPD2    H7 7587   1.749   0.579  14.396  1.0608 -0.4309 -2.9071
  511TMC3    C1 7588   1.772   0.457  14.605 -0.9789  0.1164  0.8284
  511TMC3    C2 7589   1.764   0.444  14.739 -0.2284  0.5643 -0.3801
  511TMC3    C3 7590   1.681   0.354  14.800  0.1051  0.4808 -0.0180
  511TMC3    C4 7591   1.697   0.376  14.522 -1.0173 -0.2149  0.4943
  511TMC3    C5 7592   1.615   0.294  14.587 -0.6578 -0.5175 -0.4173
  511TMC3    C6 7593   1.606   0.273  14.727  0.0392  0.5481  0.6660
  511TMC3     C 7594   1.885   0.534  14.541 -0.0315 -0.7723 -0.0115
  511TMC3     O 7595   1.996   0.538  14.594  0.8604 -0.2536 -0.1225
  511TMC3     H 7596   1.838   0.494  14.801 -1.4455  2.5243 -0.5242
  511TMC3    H1 7597   1.700   0.368  14.414 -1.3308  0.1602  0.4544
  511TMC3    H2 7598   1.535   0.207  14.775 -2.2332  2.1811 -0.4748
  511TMC3    C7 7599   1.554   0.200  14.493  0.1667  0.4165 -0.6414
  511TMC3    C8 7600   1.643   0.382  14.940  0.0232  0.4363 -0.3327
  511TMC3    O1 7601   1.528   0.235  14.383  0.2397  0.0225 -0.1622
  511TMC3    O2 7602   1.680   0.493  14.985  0.0254 -0.3001  0.0791
  512TMC3    C1 7603   1.145   4.496  13.205 -0.2399  0.1509  0.2865
  512TMC3    C2 7604   1.200   4.502  13.331  0.2637 -0.8199 -0.0778
  512TMC3    C3 7605   1.226   4.376  13.395 -0.1143  0.1742 -0.7119
  512TMC3    C4 7606   1.102   4.380  13.146 -0.1528 -0.4985 -0.3542
  512TMC3    C5 7607   1.111   4.269  13.228 -0.4195 -0.2656  0.1997
  512TMC3    C6 7608   1.185   4.256  13.343  0.3302  0.6192  0.3459
  512TMC3     C 7609   1.100   4.606  13.126  0.0825  0.2681 -0.2326
  512TMC3     O 7610   1.096   4.587  13.008 -0.9636 -0.1822 -0.2344
  512TMC3     H 7611   1.235   4.599  13.365 -0.0671 -0.3689 -1.0129
  512TMC3    H1 7612   1.051   4.373  13.051  3.6912 -3.4290 -2.2281
  512TMC3    H2 7613   1.185   4.159  13.392  2.2171  0.6202  0.3397
  512TMC3    C7 7614   1.009   4.169  13.221  0.0215  0.1316 -0.1942
  512TMC3    C8 7615   1.234   4.387  13.542  0.4437  0.2600  0.0782
  512TMC3    O1 7616   1.018   4.052  13.267 -0.2431  0.1691  0.2805
  512TMC3    O2 7617   1.166   4.309  13.611  0.4325  0.1792  0.0058
  513MPD2     C 7618   2.179   3.901  13.244 -0.3853  0.3848  0.3917
  513MPD2    C1 7619   2.232   4.023  13.195  0.1994  0.6345  0.5199
  513MPD2    C2 7620   2.238   4.134  13.275 -0.0924 -0.1133  0.2122
  513MPD2    C3 7621   2.200   4.123  13.410 -0.2877 -0.4699  0.0927
  513MPD2    C4 7622   2.141   4.008  13.453  0.1481 -0.5850  0.5889
  513MPD2    C5 7623   2.120   3.900  13.368 -0.0104  0.0821  0.1593
  513MPD2     H 7624   2.292   4.224  13.247  0.8883 -0.9465 -0.6208
  513MPD2    H1 7625   2.089   4.011  13.548  1.2343  2.6092  1.0768
  513MPD2    H2 7626   2.178   3.814  13.180  0.4507 -0.0801  0.9971
  513MPD2    H3 7627   2.056   3.818  13.398 -0.4083 -0.3241 -1.7921
  513MPD2     N 7628   2.207   4.241  13.482 -0.3758 -0.0856  0.6770
  513MPD2    H5 7629   2.249   4.320  13.435 -1.1205  0.3533  0.7571
  513MPD2    N1 7630   2.273   4.052  13.059  0.5064 -0.1790 -0.1503
  513MPD2    H7 7631   2.307   4.147  13.046  0.2046 -0.3107 -1.9639
  514TMC3    C1 7632   2.332   4.046  12.838 -0.3088  0.4821 -0.0133
  514TMC3    C2 7633   2.405   3.979  12.743  0.1731 -0.3800  0.2458
  514TMC3    C3 7634   2.442   4.057  12.634 -0.7120 -0.7412  0.0167
  514TMC3    C4 7635   2.282   4.173  12.818  0.0317 -0.5876  0.6286
  514TMC3    C5 7636   2.328   4.249  12.715 -0.0736 -0.2522  0.1051
  514TMC3    C6 7637   2.408   4.193  12.620 -0.1388 -0.1409  0.1919
  514TMC3     C 7638   2.308   3.966  12.959 -0.9673 -0.4351  0.4689
  514TMC3     O 7639   2.325   3.846  12.970  0.1722  0.0097 -0.0666
  514TMC3     H 7640   2.420   3.872  12.757  0.8277 -0.5433 -1.7210
  514TMC3    H1 7641   2.213   4.217  12.889  0.1271  1.1505 -0.3516
  514TMC3    H2 7642   2.455   4.255  12.545 -0.8405  0.6452  0.3941
  514TMC3    C7 7643   2.359   4.387  12.743 -0.1895  0.2604  0.0790
  514TMC3    C8 7644   2.571   4.028  12.581 -0.0237  0.4401  0.3536
  514TMC3    O1 7645   2.437   4.445  12.672 -0.2024 -0.1910  0.2396
  514TMC3    O2 7646   2.659   3.982  12.654  0.2178  0.1104 -0.4157
  515MPD2     C 7647   1.092   1.193  14.810 -0.5174 -0.3857 -0.3976
  515MPD2    C1 7648   1.027   1.295  14.731 -0.9127  0.2918 -0.0609
  515MPD2    C2 7649   1.066   1.429  14.733  0.1741 -0.3729 -0.4245
  515MPD2    C3 7650   1.160   1.474  14.822 -0.0171  0.8362  0.5614
  515MPD2    C4 7651   1.229   1.379  14.892  0.3739  0.3159 -0.4821
  515MPD2    C5 7652   1.198   1.239  14.884  0.2679 -0.1988 -0.2982
  515MPD2     H 7653   1.007   1.499  14.675 -1.0505 -1.0757 -0.0269
  515MPD2    H1 7654   1.299   1.417  14.966  1.0916 -1.3887 -0.2809
  515MPD2    H2 7655   1.072   1.087  14.810  1.3549 -0.7195 -1.5838
  515MPD2    H3 7656   1.260   1.173  14.944  0.5092  0.0597 -0.2609
  515MPD2     N 7657   1.200   1.604  14.842  1.3932  0.7583  0.5041
  515MPD2    H5 7658   1.278   1.628  14.902  0.6912  0.2176  1.6146
  515MPD2    N1 7659   0.926   1.254  14.635 -0.3343 -0.2389 -0.4697
  515MPD2    H7 7660   0.870   1.331  14.600 -0.8996 -0.0940  0.7366
  516TMC3    C1 7661   0.763   1.113  14.546  0.4617  0.0330  0.0098
  516TMC3    C2 7662   0.720   1.198  14.451  0.2524  0.3409 -0.3022
  516TMC3    C3 7663   0.604   1.175  14.389  0.2141  0.1816  0.5874
  516TMC3    C4 7664   0.691   1.000  14.586  0.0440  0.1396  0.7907
  516TMC3    C5 7665   0.569   0.983  14.524 -0.2306  0.0960 -0.5447
  516TMC3    C6 7666   0.530   1.064  14.421 -0.2018  0.1421  0.5351
  516TMC3     C 7667   0.892   1.120  14.611  0.3355  0.4073  0.4056
  516TMC3     O 7668   0.928   1.009  14.651  0.0259 -0.5795 -0.5278
  516TMC3     H 7669   0.782   1.281  14.419  2.5088 -2.1042 -2.1507
  516TMC3    H1 7670   0.719   0.932  14.666 -3.4362 -0.1739  1.7260
  516TMC3    H2 7671   0.448   1.047  14.353 -1.1139  0.5365  1.5242
  516TMC3    C7 7672   0.509   0.851  14.558 -0.4890 -0.2286 -0.4131
  516TMC3    C8 7673   0.535   1.272  14.303 -0.0288  0.4346 -0.6082
  516TMC3    O1 7674   0.582   0.762  14.601  0.0546 -0.1298 -0.0658
  516TMC3    O2 7675   0.435   1.240  14.239 -0.1536 -0.1238 -0.0799
  517MPD2     C 7676   0.608   3.091  17.496  0.2345 -0.8400  0.0024
  517MPD2    C1 7677   0.720   3.050  17.568 -0.3266 -0.5620  0.4909
  517MPD2    C2 7678   0.781   3.133  17.655  0.3121 -0.1083 -0.2305
  517MPD2    C3 7679   0.715   3.253  17.689 -0.5793 -0.4746 -0.2527
  517MPD2    C4 7680   0.608   3.303  17.622  0.0195  0.4309 -0.2028
  517MPD2    C5 7681   0.561   3.224  17.519  0.0447  0.5872 -0.2255
  517MPD2     H 7682   0.868   3.092  17.704  0.3263  3.3557  2.6239
  517MPD2    H1 7683   0.564   3.400  17.642 -0.6360 -0.3887  2.3646
  517MPD2    H2 7684   0.561   3.035  17.416  2.5047 -2.1602 -0.3955
  517MPD2    H3 7685   0.471   3.264  17.475  0.4271  0.6754 -0.9400
  517MPD2     N 7686   0.754   3.337   0.084  0.3155 -0.8190 -0.4121
  517MPD2    H5 7687   0.695   3.419   0.092 -0.2214 -1.4236  1.9626
  517MPD2    N1 7688   0.776   2.922  17.557  0.7176  0.4413 -0.9051
  517MPD2    H7 7689   0.863   2.903  17.605 -1.8124  0.6693  3.8115
  518TMC3    C1 7690   0.818   2.718  17.460 -0.1855  0.3079 -0.5967
  518TMC3    C2 7691   0.781   2.589  17.450  0.2454 -0.5317  0.5622
  518TMC3    C3 7692   0.879   2.498  17.417  0.2489  0.2905  0.0143
  518TMC3    C4 7693   0.956   2.752  17.461  0.0069  0.4169  0.2753
  518TMC3    C5 7694   1.045   2.648  17.442  0.6747 -0.9329  0.4086
  518TMC3    C6 7695   1.012   2.517  17.405 -0.1909  0.0326 -0.1690
  518TMC3     C 7696   0.719   2.821  17.489 -1.1398 -0.5953 -0.4387
  518TMC3     O 7697   0.606   2.808  17.441 -0.6364  0.0914 -0.0140
  518TMC3     H 7698   0.672   2.581  17.450  0.2391 -0.5454 -1.4536
  518TMC3    H1 7699   0.994   2.854  17.469  2.3913 -0.3940 -0.5440
  518TMC3    H2 7700   1.078   2.432  17.418  2.7950  2.0990 -1.6781
  518TMC3    C7 7701   1.184   2.684  17.466 -0.4324  0.9081 -0.5668
  518TMC3    C8 7702   0.834   2.359  17.410  0.2941 -0.1587 -0.4796
  518TMC3    O1 7703   1.207   2.791  17.522 -0.3493  0.4039 -0.1586
  518TMC3    O2 7704   0.916   2.286  17.358  0.1633 -0.2876  0.0854
  519MPD2     C 7705   1.786   1.374  14.460 -0.0754 -0.3133  0.0898
  519MPD2    C1 7706   1.795   1.391  14.324  0.3753 -0.0477 -1.3608
  519MPD2    C2 7707   1.881   1.319  14.253 -0.9428  0.3262 -0.2443
  519MPD2    C3 7708   1.960   1.226  14.315  0.7456 -0.1048 -0.1849
  519MPD2    C4 7709   1.955   1.210  14.453  0.3354 -0.0282  0.1850
  519MPD2    C5 7710   1.864   1.284  14.526 -0.3593  0.4671 -0.0295
  519MPD2     H 7711   1.903   1.340  14.149  0.3089  0.2335 -0.0024
  519MPD2    H1 7712   2.018   1.142  14.509  2.0200 -0.5717 -2.3250
  519MPD2    H2 7713   1.717   1.433  14.520 -0.7333 -1.8697  0.8753
  519MPD2    H3 7714   1.870   1.278  14.634 -0.8545  1.9949  0.0936
  519MPD2     N 7715   2.052   1.147  14.237 -0.0578  0.1625  0.3608
  519MPD2    H5 7716   2.128   1.098  14.284  0.8769  1.3948  0.1180
  519MPD2    N1 7717   1.701   1.475  14.256 -0.1128 -0.1984 -0.0561
  519MPD2    H7 7718   1.622   1.512  14.308  0.3320  0.2678  0.2831
  520TMC3    C1 7719   2.130   1.039  14.038 -0.4769 -0.2961 -0.1476
  520TMC3    C2 7720   2.118   1.022  13.902 -0.2565 -0.0712 -0.6444
  520TMC3    C3 7721   2.206   0.930  13.847  0.7543 -0.6337  0.1503
  520TMC3    C4 7722   2.214   0.967  14.110  0.0864 -0.1864  0.8409
  520TMC3    C5 7723   2.307   0.895  14.048 -0.7444 -0.1177  0.6451
  520TMC3    C6 7724   2.305   0.870  13.911 -0.8450 -0.5168  1.2480
  520TMC3     C 7725   2.037   1.131  14.097 -0.5900  0.1022  0.2698
  520TMC3     O 7726   1.945   1.170  14.026  0.1284 -0.1646  0.5359
  520TMC3     H 7727   2.041   1.069  13.842  0.5625  0.5627 -1.1985
  520TMC3    H1 7728   2.222   0.981  14.217 -1.3936  1.8645  0.6815
  520TMC3    H2 7729   2.367   0.800  13.856 -0.8406 -1.1739  2.0879
  520TMC3    C7 7730   2.421   0.848  14.126  0.6132  0.1834 -0.1527
  520TMC3    C8 7731   2.180   0.872  13.721 -0.0317  0.2443  0.2511
  520TMC3    O1 7732   2.407   0.812  14.244  0.6852 -0.0420  0.3738
  520TMC3    O2 7733   2.272   0.828  13.654  0.6520 -0.4547  0.6760
  521MPD2     C 7734   3.267   4.254  17.597 -0.5900  0.7494 -0.8565
  521MPD2    C1 7735   3.241   4.122  17.567  0.4318  0.8586 -0.1309
  521MPD2    C2 7736   3.337   4.037  17.523  0.0227 -0.3749 -0.0893
  521MPD2    C3 7737   3.468   4.088  17.515  0.5799 -0.4003 -0.3078
  521MPD2    C4 7738   3.499   4.220  17.541 -0.0746 -0.6424 -1.4977
  521MPD2    C5 7739   3.398   4.293  17.594 -0.9932 -0.2383 -0.2284
  521MPD2     H 7740   3.315   3.932  17.509 -1.7197 -0.2801  1.7758
  521MPD2    H1 7741   3.601   4.256  17.539  0.2432 -1.5067 -1.0253
  521MPD2    H2 7742   3.198   4.331  17.631 -1.2170 -0.1250 -0.1643
  521MPD2    H3 7743   3.430   4.391  17.629 -1.7058 -0.5884  1.4228
  521MPD2     N 7744   3.574   4.001  17.475  0.1064  0.6152  0.1192
  521MPD2    H5 7745   3.551   3.902  17.465  1.1687  0.2808  0.8891
  521MPD2    N1 7746   3.103   4.089  17.578  0.0378 -0.9257 -0.9459
  521MPD2    H7 7747   3.037   4.164  17.591  2.7105  1.0247  1.4903
  522TMC3    C1 7748   3.770   3.924  17.391  0.0183  0.6230 -0.1457
  522TMC3    C2 7749   3.904   3.908  17.411 -0.3827 -0.0318  0.0334
  522TMC3    C3 7750   3.969   3.804  17.345 -0.3338 -0.0356 -0.0251
  522TMC3    C4 7751   3.698   3.843  17.309 -0.0716  0.0030 -0.0784
  522TMC3    C5 7752   3.769   3.739  17.257 -0.1445 -0.6877  0.6296
  522TMC3    C6 7753   3.904   3.725  17.260  0.4852  0.3347  0.1627
  522TMC3     C 7754   3.703   4.039  17.460  0.1787 -0.4930  0.0497
  522TMC3     O 7755   3.782   4.121  17.503 -0.2392  0.2716 -0.4569
  522TMC3     H 7756   3.965   3.971  17.476 -2.0459 -0.4366  1.9999
  522TMC3    H1 7757   3.593   3.854  17.287 -0.0748 -1.7164 -0.8901
  522TMC3    H2 7758   3.957   3.643  17.211 -0.1399  0.1070 -0.1334
  522TMC3    C7 7759   3.703   3.629  17.188  0.5238 -0.5238  0.0421
  522TMC3    C8 7760   4.110   3.824  17.325 -0.1862  0.9729 -0.0552
  522TMC3    O1 7761   3.781   3.544  17.139  0.1862  0.7506 -0.7006
  522TMC3    O2 7762   4.172   3.858  17.427 -0.8712 -0.0978  0.1098
  523MPD2     C 7763   1.384   4.177   9.914  0.6325  0.2005  0.0883
  523MPD2    C1 7764   1.256   4.136   9.871 -0.6592  0.2362  0.2848
  523MPD2    C2 7765   1.179   4.233   9.809 -0.1192 -0.6288  1.1634
  523MPD2    C3 7766   1.229   4.360   9.786  0.1190 -0.2007  0.3865
  523MPD2    C4 7767   1.357   4.391   9.821 -0.4572 -0.3507  0.3308
  523MPD2    C5 7768   1.435   4.299   9.892 -0.3495 -0.3888 -0.5992
  523MPD2     H 7769   1.078   4.207   9.779 -0.2183 -2.1643  2.7693
  523MPD2    H1 7770   1.409   4.483   9.795  0.4992 -0.7156  0.9998
  523MPD2    H2 7771   1.455   4.110   9.961 -0.1027 -0.9306 -0.4092
  523MPD2    H3 7772   1.534   4.333   9.918 -1.2629  1.7143  0.1770
  523MPD2     N 7773   1.149   4.452   9.721 -0.8569 -0.5583 -0.1945
  523MPD2    H5 7774   1.191   4.543   9.703  3.4323 -2.5878 -0.1849
  523MPD2    N1 7775   1.220   3.997   9.888 -0.2575  0.4294 -0.1825
  523MPD2    H7 7776   1.281   3.932   9.936 -0.9011 -0.0038  0.0492
  524TMC3    C1 7777   0.980   4.552   9.601 -0.9642 -0.1229 -0.3220
  524TMC3    C2 7778   0.847   4.576   9.583 -0.8424 -0.6692 -0.6147
  524TMC3    C3 7779   0.819   4.674   9.500  0.3127  0.0369 -0.7053
  524TMC3    C4 7780   1.080   4.626   9.540  0.6143  0.1548 -0.4311
  524TMC3    C5 7781   1.042   0.005   9.464 -0.7217 -0.7725  0.7059
  524TMC3    C6 7782   0.910   0.032   9.443 -0.4510  0.1767 -0.4198
  524TMC3     C 7783   1.021   4.440   9.679  0.2324  0.0647  0.7491
  524TMC3     O 7784   0.929   4.369   9.717  0.2889  0.4002  0.0168
  524TMC3     H 7785   0.780   4.517   9.644 -0.7888 -0.8791 -0.7553
  524TMC3    H1 7786   1.183   4.596   9.525  1.3272  0.2405  4.3244
  524TMC3    H2 7787   0.875   0.121   9.392  0.7914  0.6841 -0.3952
  524TMC3    C7 7788   1.147   0.098   9.426 -0.4324 -0.3509  0.8487
  524TMC3    C8 7789   0.677   4.707   9.465  0.4429 -0.7261  0.5426
  524TMC3    O1 7790   1.260   0.087   9.472  0.1970  0.4253  0.3792
  524TMC3    O2 7791   0.648   0.064   9.378  0.5689 -0.1908  0.2960
  525MPD2     C 7792   3.410   0.794  14.606  0.8420 -0.6714  0.1146
  525MPD2    C1 7793   3.538   0.781  14.646 -0.5787  0.5533  0.5963
  525MPD2    C2 7794   3.627   0.876  14.596  0.2240 -0.6041 -0.1124
  525MPD2    C3 7795   3.591   0.990  14.524  0.0784  0.2704  0.1456
  525MPD2    C4 7796   3.458   1.002  14.491 -0.1527 -0.0152 -0.3141
  525MPD2    C5 7797   3.366   0.901  14.531 -0.8145  0.2190 -0.0323
  525MPD2     H 7798   3.723   0.870  14.646 -0.3602  4.3224  1.6390
  525MPD2    H1 7799   3.418   1.097  14.455 -2.4842 -1.2986 -1.1105
  525MPD2    H2 7800   3.339   0.723  14.647  2.1953 -1.9569  0.2373
  525MPD2    H3 7801   3.260   0.922  14.523 -0.4370  1.7906 -0.9826
  525MPD2     N 7802   3.675   1.093  14.476  0.5909  0.4426 -0.4421
  525MPD2    H5 7803   3.641   1.182  14.442  0.9304  0.8310  0.2392
  525MPD2    N1 7804   3.582   0.694  14.748 -0.3120 -0.1509  0.7268
  525MPD2    H7 7805   3.681   0.700  14.767 -0.2975  0.3281  0.5182
  526TMC3    C1 7806   3.576   0.535  14.923 -0.3755 -0.3770 -0.6601
  526TMC3    C2 7807   3.508   0.512  15.040  0.0895 -0.2030  0.7729
  526TMC3    C3 7808   3.573   0.474  15.155  0.2817  1.0511  0.1586
  526TMC3    C4 7809   3.715   0.526  14.926  0.6852  0.2276  0.6122
  526TMC3    C5 7810   3.780   0.493  15.044 -0.0655  0.7686  0.2671
  526TMC3    C6 7811   3.712   0.463  15.161 -0.0688  0.4949  0.5371
  526TMC3     C 7812   3.507   0.607  14.816 -0.5395  0.1222  0.3179
  526TMC3     O 7813   3.387   0.593  14.826  0.1779 -0.2402 -0.3416
  526TMC3     H 7814   3.402   0.533  15.034 -0.0284 -1.4242 -1.3466
  526TMC3    H1 7815   3.759   0.535  14.828 -0.3086 -2.3144 -0.0853
  526TMC3    H2 7816   3.763   0.439  15.253  3.0619  0.2141 -1.2554
  526TMC3    C7 7817   3.919   0.444  15.031 -0.5536  0.4120  0.0912
  526TMC3    C8 7818   3.518   0.536  15.276 -0.1352  0.4786  0.2132
  526TMC3    O1 7819   3.971   0.370  15.115  0.0103  1.2396 -0.3045
  526TMC3    O2 7820   3.600   0.575  15.356 -0.5124  0.4670  0.4653
  527MPD2     C 7821   3.015   3.197   1.825 -0.0045 -0.3679  0.1879
  527MPD2    C1 7822   3.071   3.083   1.775 -0.7731 -0.3226 -0.3294
  527MPD2    C2 7823   3.097   3.087   1.637  0.0370 -0.0642  0.0521
  527MPD2    C3 7824   3.072   3.204   1.560  0.4439  0.2159 -0.1550
  527MPD2    C4 7825   3.032   3.317   1.625  0.5762 -0.5930  0.2867
  527MPD2    C5 7826   2.984   3.303   1.750  0.2471 -0.4769 -0.3990
  527MPD2     H 7827   3.133   3.000   1.584  0.0170 -2.0143  3.2259
  527MPD2    H1 7828   3.002   3.406   1.571  0.2871 -0.8255  0.0637
  527MPD2    H2 7829   2.997   3.204   1.932  0.3034  1.1131  0.1454
  527MPD2    H3 7830   2.947   3.394   1.796 -1.2469 -0.1546 -2.2266
  527MPD2     N 7831   3.106   3.197   1.416 -0.6191 -0.1340 -0.1810
  527MPD2    H5 7832   3.117   3.107   1.370 -1.2373  0.1754 -0.9406
  527MPD2    N1 7833   3.091   2.965   1.854 -0.5570 -0.8751 -0.0704
  527MPD2    H7 7834   3.060   2.973   1.951  2.0350  1.5032  0.5403
  528TMC3    C1 7835   3.128   2.733   1.902 -0.6077  0.7492  0.7902
  528TMC3    C2 7836   3.030   2.744   1.996  0.1138  0.2681 -0.0378
  528TMC3    C3 7837   3.035   2.652   2.099 -0.1026 -0.0822  1.4437
  528TMC3    C4 7838   3.224   2.637   1.914  0.0965 -0.1218 -0.4998
  528TMC3    C5 7839   3.218   2.542   2.008  0.0407  0.3637 -0.5861
  528TMC3    C6 7840   3.129   2.554   2.110  0.0423 -0.6408  0.8981
  528TMC3     C 7841   3.140   2.841   1.811 -0.2528  0.0111 -0.1755
  528TMC3     O 7842   3.206   2.822   1.708 -0.6862 -0.1292 -0.4245
  528TMC3     H 7843   2.951   2.818   1.991 -0.9826 -0.7688  1.8034
  528TMC3    H1 7844   3.301   2.631   1.839 -0.6721  0.9281 -1.3730
  528TMC3    H2 7845   3.119   2.477   2.185  0.2641 -1.0610  0.5015
  528TMC3    C7 7846   3.282   2.417   1.972  0.2633 -0.7664  0.2831
  528TMC3    C8 7847   2.932   2.658   2.193 -0.1442  0.0888 -0.7008
  528TMC3    O1 7848   3.374   2.426   1.898 -0.3595  0.1100 -0.5289
  528TMC3    O2 7849   2.888   2.771   2.208  0.0155  0.1689  0.0211
  529MPD2     C 7850   0.201   1.834   0.579  0.1555 -0.0594 -0.1884
  529MPD2    C1 7851   0.080   1.768   0.567 -0.3427  0.1004  0.1785
  529MPD2    C2 7852   0.009   1.785   0.452  0.4408  0.2033  0.7634
  529MPD2    C3 7853   0.057   1.858   0.345  0.6075 -0.4719  0.7774
  529MPD2    C4 7854   0.184   1.916   0.356  0.3097 -0.4624 -0.8074
  529MPD2    C5 7855   0.253   1.895   0.475  0.2100  0.1810  0.6453
  529MPD2     H 7856   4.633   1.753   0.437  0.4392  1.1207 -1.1658
  529MPD2    H1 7857   0.234   1.975   0.280 -0.3884 -0.0184 -0.9217
  529MPD2    H2 7858   0.258   1.835   0.672 -1.6762 -0.5596  0.9489
  529MPD2    H3 7859   0.357   1.928   0.474  0.1747  0.2791  0.2158
  529MPD2     N 7860   4.720   1.881   0.223  0.2421 -0.4775 -0.1888
  529MPD2    H5 7861   0.047   1.933   0.153 -0.7036 -1.1313 -1.4063
  529MPD2    N1 7862   0.024   1.687   0.670 -0.3666  0.1923  0.4019
  529MPD2    H7 7863   4.654   1.663   0.649  0.9076 -1.5337 -3.5192
  530TMC3    C1 7864   4.724   1.583   0.886  0.6463  0.1518 -0.0466
  530TMC3    C2 7865   0.031   1.617   1.016 -0.5933  0.2559 -0.6998
  530TMC3    C3 7866   4.669   1.576   1.108  0.0843  1.0735 -0.1788
  530TMC3    C4 7867   4.610   1.512   0.852 -0.2607  0.0697 -0.8197
  530TMC3    C5 7868   4.534   1.468   0.951  0.2722 -0.1225  0.1099
  530TMC3    C6 7869   4.567   1.495   1.080  0.5414  0.4872  0.4424
  530TMC3     C 7870   0.085   1.652   0.783 -0.4495  0.2409 -0.1381
  530TMC3     O 7871   0.191   1.684   0.824 -0.2174 -0.5379  0.9326
  530TMC3     H 7872   0.110   1.689   1.038 -1.5925  0.9534  0.6365
  530TMC3    H1 7873   4.588   1.486   0.750 -1.9810  1.8844 -0.9193
  530TMC3    H2 7874   4.506   1.460   1.162  0.2145  0.4468  0.1834
  530TMC3    C7 7875   4.464   1.346   0.914 -0.0461  0.7607 -0.1742
  530TMC3    C8 7876   4.702   1.595   1.251  0.1954  0.3712 -0.0832
  530TMC3    O1 7877   4.405   1.346   0.805  0.0871 -0.1428 -0.2227
  530TMC3    O2 7878   4.617   1.620   1.337 -0.6164 -0.0725 -0.1470
  531MPD2     C 7879   2.450   4.698  13.144 -0.3195 -0.3375 -0.8901
  531MPD2    C1 7880   2.345   4.615  13.170  0.7072 -0.2027  0.1706
  531MPD2    C2 7881   2.287   4.542  13.076 -0.5798 -0.0673 -0.1758
  531MPD2    C3 7882   2.345   4.529  12.950  0.2656 -0.1160 -0.0640
  531MPD2    C4 7883   2.454   4.605  12.920 -0.1450  0.5893 -0.2928
  531MPD2    C5 7884   2.496   4.703  13.015  1.0918 -0.6672 -0.0638
  531MPD2     H 7885   2.197   4.488  13.102 -0.4674 -0.4630 -0.5941
  531MPD2    H1 7886   2.505   4.605  12.824  0.2792  2.2568 -0.0787
  531MPD2    H2 7887   2.498   0.035  13.218 -1.1759  1.7681 -2.1262
  531MPD2    H3 7888   2.579   0.038  12.980  0.6198  0.3536  0.5916
  531MPD2     N 7889   2.303   4.423  12.870  0.5186 -0.5627 -0.1468
  531MPD2    H5 7890   2.231   4.361  12.907 -0.5888  0.5720 -0.4081
  531MPD2    N1 7891   2.304   4.588  13.300  0.9130  0.0987 -0.4483
  531MPD2    H7 7892   2.238   4.513  13.314 -0.9052  1.1857 -3.1677
  532TMC3    C1 7893   2.314   4.595  13.538 -0.6144 -0.7572  0.3330
  532TMC3    C2 7894   2.226   4.493  13.538 -0.0105 -0.4571  0.4319
  532TMC3    C3 7895   2.220   4.405  13.644  0.3365 -0.7354 -0.7111
  532TMC3    C4 7896   2.402   4.602  13.633 -0.2147  0.0388 -0.4765
  532TMC3    C5 7897   2.385   4.530  13.744  0.1676  0.1137  0.0913
  532TMC3    C6 7898   2.304   4.420  13.741  0.0324 -0.7643 -0.5486
  532TMC3     C 7899   2.346   4.657  13.414  0.5640 -0.4167 -0.3353
  532TMC3     O 7900   2.417   0.032  13.418 -0.4588  0.1097  0.3979
  532TMC3     H 7901   2.146   4.487  13.464  0.9140 -1.0331 -0.5112
  532TMC3    H1 7902   2.474   4.683  13.628 -0.8447  0.5546 -1.1433
  532TMC3    H2 7903   2.314   4.345  13.818 -1.7577  0.5002  0.9201
  532TMC3    C7 7904   2.502   4.506  13.829 -0.0803 -0.8461 -0.2837
  532TMC3    C8 7905   2.178   4.266  13.616  0.2557 -0.0629  0.2238
  532TMC3    O1 7906   2.466   4.477  13.942 -0.4944  0.2913 -0.0568
  532TMC3    O2 7907   2.154   4.196  13.713  0.3704 -0.0299 -0.0458
  533TMC3    C1 7908   3.879   1.201  14.439 -0.8098  0.2476 -0.1725
  533TMC3    C2 7909   4.012   1.189  14.410  0.0558 -0.1245  0.8886
  533TMC3    C3 7910   4.091   1.300  14.436 -0.1358  0.3390 -0.0829
  533TMC3    C4 7911   3.831   1.320  14.482  0.2790 -0.0722  0.3996
  533TMC3    C5 7912   3.912   1.431  14.497  0.1660  0.1377  0.7060
  533TMC3    C6 7913   4.038   1.418  14.463  0.0704 -0.1767  0.0638
  533TMC3     C 7914   3.809   1.077  14.452  0.2400  0.7178 -0.2238
  533TMC3     O 7915   3.872   0.970  14.440 -0.1614  0.4806  0.3675
  533TMC3     H 7916   4.057   1.095  14.380 -2.6076 -1.6007  1.6104
  533TMC3    H1 7917   3.729   1.323  14.518  0.0101 -0.2904 -0.3454
  533TMC3    H2 7918   4.106   1.497  14.490  0.7390 -0.6070 -0.3688
  533TMC3    C7 7919   3.892   1.478  14.632 -0.0050 -0.3672 -0.4233
  533TMC3    C8 7920   4.237   1.293  14.437  0.5884 -0.1442 -0.0071
  533TMC3    O1 7921   3.979   1.451  14.716 -0.4227 -0.7946  0.0192
  533TMC3    O2 7922   4.301   1.390  14.394  0.0073 -0.1638  0.9414
  534MPD2     C 7923   2.695   1.669   1.645  0.1926  0.3908  0.5483
  534MPD2    C1 7924   2.672   1.803   1.633 -0.2811  0.4321 -0.7286
  534MPD2    C2 7925   2.546   1.843   1.586  0.0974 -0.2216  0.0890
  534MPD2    C3 7926   2.453   1.748   1.565  0.3142 -0.0598 -0.4557
  534MPD2    C4 7927   2.480   1.612   1.579  0.5345  0.3909 -0.1586
  534MPD2    C5 7928   2.600   1.575   1.624  0.7656 -0.3943 -0.9258
  534MPD2     H 7929   2.529   1.949   1.571  0.5398  0.0106  1.1592
  534MPD2    H1 7930   2.407   1.532   1.569  2.4110 -1.5661  2.0887
  534MPD2    H2 7931   2.790   1.622   1.667 -0.0583  0.3058  1.4375
  534MPD2    H3 7932   2.627   1.473   1.646 -0.4466 -0.6951 -0.8447
  534MPD2     N 7933   2.330   1.785   1.510 -0.4418  0.0295 -0.0781
  534MPD2    H5 7934   2.273   1.709   1.474  0.0304  1.2476 -3.3431
  534MPD2    N1 7935   2.779   1.903   1.650  0.2678  0.4690 -0.0435
  534MPD2    H7 7936   2.764   2.001   1.625  2.8778  0.6628 -0.9046
  535TMC3    C1 7937   2.136   1.888   1.432 -0.0916 -0.5702  0.5442
  535TMC3    C2 7938   2.027   1.954   1.474 -0.3974  0.3700 -0.1229
  535TMC3    C3 7939   1.924   1.965   1.391 -0.6997 -0.5258  0.1868
  535TMC3    C4 7940   2.147   1.828   1.310  0.2185 -0.5178 -0.6071
  535TMC3    C5 7941   2.037   1.839   1.226 -0.1715  0.1712 -0.4586
  535TMC3    C6 7942   1.927   1.902   1.265 -0.3372  0.1424  0.7051
  535TMC3     C 7943   2.260   1.897   1.510 -0.1649 -0.4559 -0.3773
  535TMC3     O 7944   2.278   1.993   1.584  0.2366 -0.0336  0.4520
  535TMC3     H 7945   2.039   2.031   1.550 -1.1051  1.6111 -1.2598
  535TMC3    H1 7946   2.242   1.808   1.263 -0.5047 -0.8571 -1.9368
  535TMC3    H2 7947   1.843   1.912   1.197 -0.6170  0.1309  1.0480
  535TMC3    C7 7948   2.062   1.788   1.090 -0.0799  0.1495 -0.1178
  535TMC3    C8 7949   1.793   1.995   1.447 -0.5061  1.1814 -0.3057
  535TMC3    O1 7950   2.170   1.740   1.061 -0.3662  0.2137 -0.2826
  535TMC3    O2 7951   1.705   1.993   1.359  0.4767  0.0172  0.0408
  536MPD2     C 7952   0.842   0.544  16.113 -0.3440  0.5715 -0.2687
  536MPD2    C1 7953   0.723   0.492  16.169 -1.4550 -0.5233 -1.3482
  536MPD2    C2 7954   0.635   0.429  16.079  0.5658 -0.1140 -0.1022
  536MPD2    C3 7955   0.656   0.432  15.945  0.1852  0.5683 -0.0897
  536MPD2    C4 7956   0.766   0.490  15.888 -0.2214 -0.1461 -0.4228
  536MPD2    C5 7957   0.858   0.542  15.976  0.3319  0.5695 -0.5381
  536MPD2     H 7958   0.545   0.382  16.117  1.0940 -0.4512  0.7294
  536MPD2    H1 7959   0.780   0.505  15.782  0.5875  0.7743 -0.1889
  536MPD2    H2 7960   0.923   0.572  16.180 -0.4189  1.1240 -0.4157
  536MPD2    H3 7961   0.949   0.588  15.938  0.0582  0.3851 -1.4115
  536MPD2     N 7962   0.563   0.385  15.844 -0.7407  0.2356  0.2310
  536MPD2    H5 7963   0.592   0.415  15.751  0.5265 -2.3066 -0.1838
  536MPD2    N1 7964   0.704   0.501  16.305 -0.3125 -0.5960  0.4849
  536MPD2    H7 7965   0.772   0.553  16.359 -0.2355  1.3274 -1.4974
  537TMC3    C1 7966   0.587   0.488  16.509  0.4574 -0.1707 -0.1142
  537TMC3    C2 7967   0.688   0.559  16.565  0.3117  0.1513  0.7179
  537TMC3    C3 7968   0.671   0.581  16.702 -0.1509 -0.4824 -0.3738
  537TMC3    C4 7969   0.471   0.455  16.578  0.3288  0.1435 -0.2641
  537TMC3    C5 7970   0.465   0.469  16.715 -0.2458  0.8079  0.1060
  537TMC3    C6 7971   0.566   0.533  16.778 -0.2140 -0.2864 -1.0448
  537TMC3     C 7972   0.595   0.447  16.368 -0.4170  0.1500 -0.3958
  537TMC3     O 7973   0.516   0.361  16.326 -0.0583 -0.0264  0.0626
  537TMC3     H 7974   0.783   0.585  16.521 -0.7509 -0.0713 -1.7274
  537TMC3    H1 7975   0.393   0.401  16.525  0.7295 -1.2319  0.5661
  537TMC3    H2 7976   0.575   0.537  16.886  0.5147 -0.7543 -1.0894
  537TMC3    C7 7977   0.372   0.396  16.795  0.6080 -0.6046 -0.3963
  537TMC3    C8 7978   0.760   0.675  16.772 -0.8372  0.7890  0.9722
  537TMC3    O1 7979   0.257   0.391  16.755  0.2312 -0.4103  0.2559
  537TMC3    O2 7980   0.787   0.644  16.884  0.3679 -0.0968  0.1389
  538TMC3    C1 7981   1.272   4.258  10.893 -0.7019 -0.2543 -0.3130
  538TMC3    C2 7982   1.349   4.140  10.909 -0.4951 -0.2906 -0.5695
  538TMC3    C3 7983   1.420   4.108  10.792  0.7381 -0.4267  0.1164
  538TMC3    C4 7984   1.260   4.331  10.779 -0.0716  0.4633 -0.1796
  538TMC3    C5 7985   1.328   4.292  10.667 -0.3592  0.0821 -0.2090
  538TMC3    C6 7986   1.405   4.173  10.668 -0.0382 -0.4203  0.1186
  538TMC3     C 7987   1.178   4.292  10.999 -0.4184  0.3623 -0.0543
  538TMC3     O 7988   1.081   4.363  10.979 -0.0011 -0.0344 -0.7091
  538TMC3     H 7989   1.375   4.090  11.001  0.2970 -0.0065 -0.6400
  538TMC3    H1 7990   1.191   4.415  10.782 -1.2197 -0.5341  1.3145
  538TMC3    H2 7991   1.429   4.124  10.575  2.4934  0.1279  0.4891
  538TMC3    C7 7992   1.241   4.300  10.554 -0.0288 -0.0258  0.3065
  538TMC3    C8 7993   1.504   3.981  10.783  0.9732  0.2972  0.2363
  538TMC3    O1 7994   1.190   4.198  10.512 -0.0082  0.4420 -0.2018
  538TMC3    O2 7995   1.472   3.894  10.862  0.4312  0.2230 -0.0189
  539MPD2     C 7996   0.925   3.404  11.706  0.2215 -0.4411 -0.4123
  539MPD2    C1 7997   0.964   3.430  11.583  0.5703 -0.0911 -0.2331
  539MPD2    C2 7998   0.919   3.542  11.524 -0.3908 -0.6444 -0.4092
  539MPD2    C3 7999   0.837   3.630  11.605  0.0294  0.4031  0.2616
  539MPD2    C4 8000   0.795   3.591  11.730 -0.2672 -0.6271 -0.0546
  539MPD2    C5 8001   0.846   3.479  11.781  0.0476 -0.7101 -1.1135
  539MPD2     H 8002   0.947   3.570  11.423  0.6649 -0.1366  0.0265
  539MPD2    H1 8003   0.736   3.653  11.797 -1.0570 -0.5917 -0.7904
  539MPD2    H2 8004   0.952   3.311  11.754  2.9644  0.4859 -0.1421
  539MPD2    H3 8005   0.808   3.446  11.876 -0.3237 -0.9940 -1.3611
  539MPD2     N 8006   0.794   3.757  11.560  0.2061  0.6009  1.0636
  539MPD2    H5 8007   0.723   3.808  11.611  0.2578 -1.0820  2.8251
  539MPD2    N1 8008   1.048   3.341  11.512  0.0902 -0.1492  0.3309
  539MPD2    H7 8009   1.050   3.358  11.412 -1.9806 -0.0181  0.3139
  540TMC3    C1 8010   0.759   3.928  11.403  0.0495  0.4234 -0.1947
  540TMC3    C2 8011   0.766   3.941  11.271 -0.2243  0.2502  0.1068
  540TMC3    C3 8012   0.688   4.042  11.219 -0.5844  0.2981  0.4944
  540TMC3    C4 8013   0.692   4.011  11.488  0.0494 -0.5153 -0.3923
  540TMC3    C5 8014   0.621   4.105  11.428  0.1701 -0.0273 -0.3890
  540TMC3    C6 8015   0.614   4.124  11.294  0.6090 -0.2646 -0.3458
  540TMC3     C 8016   0.847   3.822  11.452 -0.1623  0.3283 -0.0988
  540TMC3     O 8017   0.946   3.792  11.391 -0.0614  0.1317 -0.0639
  540TMC3     H 8018   0.821   3.871  11.210 -0.2959 -0.9602  1.4207
  540TMC3    H1 8019   0.669   3.988  11.592  1.7154 -0.4428  0.0101
  540TMC3    H2 8020   0.550   4.199  11.250 -1.2501 -2.7279 -1.8053
  540TMC3    C7 8021   0.505   4.161  11.500 -0.3606 -0.2862  0.3878
  540TMC3    C8 8022   0.725   4.090  11.089 -0.5912 -0.0483 -0.4666
  540TMC3    O1 8023   0.466   4.102  11.599 -0.1918  0.3344 -0.5504
  540TMC3    O2 8024   0.733   4.209  11.057 -0.1561 -0.0502 -0.4171
  541MPD2     C 8025   3.681   0.330  12.878 -0.7025  0.4570  0.5098
  541MPD2    C1 8026   3.696   0.220  12.793  0.6961  0.5854 -0.3154
  541MPD2    C2 8027   3.750   0.242  12.670 -0.0702 -0.1500  0.5500
  541MPD2    C3 8028   3.795   0.370  12.636  0.3678  0.4173  0.1969
  541MPD2    C4 8029   3.775   0.479  12.717 -0.3905 -0.3681 -0.0852
  541MPD2    C5 8030   3.717   0.460  12.841 -0.1774  0.0779  0.0330
  541MPD2     H 8031   3.768   0.163  12.598 -1.6667 -0.3837  0.4162
  541MPD2    H1 8032   3.814   0.578  12.699  0.3213 -0.8947 -1.4526
  541MPD2    H2 8033   3.653   0.307  12.980  0.5356 -1.4747  0.4299
  541MPD2    H3 8034   3.728   0.536  12.918 -3.0751 -0.7751  1.2724
  541MPD2     N 8035   3.864   0.399  12.515 -0.0669  0.3410 -0.1931
  541MPD2    H5 8036   3.874   0.499  12.500  1.0130  0.7261  3.2394
  541MPD2    N1 8037   3.645   0.095  12.845  0.2423  0.0449  0.5162
  541MPD2    H7 8038   3.596   0.095  12.934  1.4253  1.2352  1.1698
  542TMC3    C1 8039   3.992   0.391  12.319 -0.1848  0.1919 -0.5714
  542TMC3    C2 8040   4.080   0.318  12.243  0.3479  0.3669  0.8056
  542TMC3    C3 8041   4.142   0.388  12.140 -1.6036 -0.0121  0.1107
  542TMC3    C4 8042   3.971   0.533  12.307  0.1169 -0.8140  0.6962
  542TMC3    C5 8043   4.030   0.587  12.191  0.1195  0.1472  0.4564
  542TMC3    C6 8044   4.120   0.519  12.113 -1.0009  0.4752 -0.0054
  542TMC3     C 8045   3.934   0.314  12.428 -0.2510  0.4909  0.1034
  542TMC3     O 8046   3.945   0.191  12.432  0.6803 -0.0670 -0.2192
  542TMC3     H 8047   4.090   0.211  12.261 -2.4584 -0.1087 -0.3198
  542TMC3    H1 8048   3.896   0.596  12.353  1.6424  1.9916 -0.6443
  542TMC3    H2 8049   4.177   0.571  12.037  1.9664 -1.0624  1.1606
  542TMC3    C7 8050   3.938   0.670  12.118 -0.0695 -0.2569 -1.4594
  542TMC3    C8 8051   4.216   0.315  12.051 -0.5465 -0.0765  0.1084
  542TMC3    O1 8052   3.843   0.721  12.176  0.3696 -0.3570 -0.0591
  542TMC3    O2 8053   4.230   0.365  11.943 -0.0466  0.1028  0.0197
  543TMC3    C1 8054   3.905   1.423  17.098  0.3861 -0.6225  0.5018
  543TMC3    C2 8055   3.818   1.343  17.157  0.6910 -0.0305 -0.3916
  543TMC3    C3 8056   3.842   1.300  17.282  0.4874 -0.2417 -0.0767
  543TMC3    C4 8057   4.017   1.457  17.160  0.3559 -0.2619  0.8017
  543TMC3    C5 8058   4.037   1.413  17.290 -0.5640  1.1996 -0.5632
  543TMC3    C6 8059   3.954   1.334  17.354 -0.2861 -0.8364 -0.5523
  543TMC3     C 8060   3.952   1.381  16.965 -0.2722  0.1276  0.1532
  543TMC3     O 8061   4.070   1.348  16.949  0.7833 -0.8310 -1.0115
  543TMC3     H 8062   3.730   1.313  17.103  0.1477 -2.0181  1.5703
  543TMC3    H1 8063   4.092   1.512  17.104 -0.6747 -1.5658 -1.8565
  543TMC3    H2 8064   3.966   1.285  17.450 -2.3906 -0.0269  0.1302
  543TMC3    C7 8065   4.158   1.455  17.345 -0.1784 -0.1277  0.9566
  543TMC3    C8 8066   3.768   1.180  17.328  0.0156 -0.2268 -0.1167
  543TMC3    O1 8067   4.205   1.556  17.291 -0.0864 -0.1085 -0.5007
  543TMC3    O2 8068   3.830   1.097  17.393  0.1635  0.3837 -0.2449
  544MPD2     C 8069   3.456   0.816  17.142  0.1307  0.2389  0.4193
  544MPD2    C1 8070   3.591   0.817  17.157 -0.1343 -0.4709 -0.4064
  544MPD2    C2 8071   3.650   0.928  17.219  0.0521 -0.2906 -0.3466
  544MPD2    C3 8072   3.575   1.047  17.254 -0.3302 -0.3669  0.2882
  544MPD2    C4 8073   3.438   1.044  17.228 -0.0394 -0.1261 -0.2039
  544MPD2    C5 8074   3.378   0.927  17.179 -0.0461 -0.1680  0.4304
  544MPD2     H 8075   3.758   0.929  17.221  0.0797  0.7027 -1.9986
  544MPD2    H1 8076   3.368   1.121  17.258 -0.0656 -0.6584  1.1369
  544MPD2    H2 8077   3.401   0.731  17.103  0.9282  0.4366 -1.1508
  544MPD2    H3 8078   3.270   0.919  17.174  0.2799 -5.5362  2.2408
  544MPD2     N 8079   3.641   1.171  17.283 -0.2731  0.3801 -0.1121
  544MPD2    H5 8080   3.597   1.261  17.262  0.2697  0.9901  1.3298
  544MPD2    N1 8081   3.650   0.695  17.114 -0.3588  0.1600 -0.3621
  544MPD2    H7 8082   3.587   0.620  17.088  2.4268 -3.1389  2.3608
  545TMC3    C1 8083   3.831   0.532  17.108  0.7326 -0.0849  0.4322
  545TMC3    C2 8084   3.960   0.519  17.073 -0.5021 -0.2570 -0.0166
  545TMC3    C3 8085   4.036   0.423  17.136  0.0088  0.4421 -0.0879
  545TMC3    C4 8086   3.783   0.465  17.215  0.4629 -0.6046  0.2774
  545TMC3    C5 8087   3.871   0.382  17.284 -0.6824  0.2465  0.5393
  545TMC3    C6 8088   3.998   0.356  17.248 -0.3794 -0.8523  0.7874
  545TMC3     C 8089   3.786   0.675  17.101 -0.4463 -0.0084 -0.8610
  545TMC3     O 8090   3.879   0.757  17.117  0.2485  0.0394 -0.5229
  545TMC3     H 8091   3.999   0.578  16.991  1.3730 -1.3533  0.0699
  545TMC3    H1 8092   3.685   0.499  17.248 -0.0980  0.7531 -2.6921
  545TMC3    H2 8093   4.070   0.302  17.309 -0.1495 -0.3136  0.9962
  545TMC3    C7 8094   3.824   0.344  17.412 -0.6423  0.1231  0.7207
  545TMC3    C8 8095   4.168   0.410  17.076  0.2911  0.5527  0.3177
  545TMC3    O1 8096   3.722   0.400  17.454 -0.1234 -0.0146  0.2689
  545TMC3    O2 8097   4.185   0.479  16.975  0.6163 -0.2698  0.5227
  546MPD2     C 8098   0.850   0.763  17.433  0.5734  0.0480 -0.5521
  546MPD2    C1 8099   0.759   0.806  17.340  0.4760  0.0234 -0.1306
  546MPD2    C2 8100   0.748   0.944  17.311 -0.0311 -0.7368 -0.2351
  546MPD2    C3 8101   0.815   1.037  17.385  0.5502 -0.2358  0.1606
  546MPD2    C4 8102   0.905   0.992  17.478 -0.2041  0.1593  0.9184
  546MPD2    C5 8103   0.917   0.860  17.506  0.3056  0.4155  0.0598
  546MPD2     H 8104   0.684   0.995  17.241 -1.1096  1.5131  2.3823
  546MPD2    H1 8105   0.973   1.052  17.538 -1.8500  1.6433  1.2915
  546MPD2    H2 8106   0.862   0.657  17.453 -1.1043  0.1872  1.1672
  546MPD2    H3 8107   0.994   0.830  17.577  0.7842  1.1046 -0.1749
  546MPD2     N 8108   0.798   1.175  17.360 -0.2083 -0.0918  0.2680
  546MPD2    H5 8109   0.746   1.199  17.276  2.6935  0.6962 -1.3272
  546MPD2    N1 8110   0.661   0.713  17.290  0.0502  0.2683  0.3009
  546MPD2    H7 8111   0.668   0.616  17.320  1.0078 -0.0602 -0.9343
  547TMC3    C1 8112   0.463   0.640  17.191  0.0092 -0.1494  0.3033
  547TMC3    C2 8113   0.379   0.664  17.084 -0.3089 -0.4079 -0.0834
  547TMC3    C3 8114   0.261   0.588  17.079 -0.6352  0.2056 -0.4830
  547TMC3    C4 8115   0.425   0.560  17.297 -0.2971 -1.4737 -0.6024
  547TMC3    C5 8116   0.309   0.483  17.276 -0.2146  0.4532 -0.1316
  547TMC3    C6 8117   0.232   0.484  17.162  0.1771  0.1171  0.2466
  547TMC3     C 8118   0.563   0.746  17.204  0.1883  0.0658 -0.3621
  547TMC3     O 8119   0.547   0.841  17.135  0.0073  0.1494 -0.7339
  547TMC3     H 8120   0.395   0.744  17.013  1.4754 -1.9476 -1.4223
  547TMC3    H1 8121   0.487   0.556  17.386 -2.6759 -0.4787  1.1200
  547TMC3    H2 8122   0.144   0.422  17.152 -0.3300  0.7914  0.5123
  547TMC3    C7 8123   0.254   0.430  17.401  0.4824  0.2836  0.0788
  547TMC3    C8 8124   0.153   0.647  17.000 -0.3063 -0.3001 -0.4200
  547TMC3    O1 8125   0.307   0.451  17.508 -0.2716  0.4064  0.2673
  547TMC3    O2 8126   0.183   0.724  16.912  0.5717 -0.5229 -0.4569
  548MPD2     C 8127   4.615   2.150  11.830 -0.8986  0.2547  0.6360
  548MPD2    C1 8128   4.590   2.064  11.929  0.1794 -0.1860  0.1536
  548MPD2    C2 8129   4.693   1.966  11.955 -0.4870  0.5547  0.4583
  548MPD2    C3 8130   0.083   1.956  11.879  0.0543 -0.2007  0.0974
  548MPD2    C4 8131   0.101   2.046  11.774  0.2595 -0.4567  0.0184
  548MPD2    C5 8132   0.004   2.145  11.755 -0.3649 -0.5524 -0.3115
  548MPD2     H 8133   4.668   1.892  12.030  0.6726  1.0943  1.3968
  548MPD2    H1 8134   0.194   2.048  11.718 -0.5893  0.8166 -1.3393
  548MPD2    H2 8135   4.547   2.228  11.800  0.5206  1.2823  0.0986
  548MPD2    H3 8136   0.008   2.218  11.675  3.6632 -1.5183 -1.0080
  548MPD2     N 8137   0.172   1.851  11.895 -0.2421 -0.1045  0.1982
  548MPD2    H5 8138   0.142   1.781  11.962 -1.1173 -1.2919 -1.4484
  548MPD2    N1 8139   4.478   2.094  12.005 -0.0832  0.2763  0.1540
  548MPD2    H7 8140   4.424   2.178  11.984 -0.2411  0.0868 -0.1863
  549TMC3    C1 8141   4.307   2.041  12.155  0.2126  0.0294 -0.3973
  549TMC3    C2 8142   4.259   2.175  12.154  0.6130  0.9392  0.6351
  549TMC3    C3 8143   4.130   2.192  12.205 -0.2194  0.0190 -0.1732
  549TMC3    C4 8144   4.235   1.931  12.204 -0.1461  0.1070  0.4332
  549TMC3    C5 8145   4.108   1.958  12.241 -0.1348 -0.3475 -0.0149
  549TMC3    C6 8146   4.060   2.086  12.251 -0.5499 -1.3078  0.2437
  549TMC3     C 8147   4.440   2.015  12.107 -0.6363  0.2584  0.8415
  549TMC3     O 8148   4.489   1.908  12.142  0.4173  0.6480 -0.3501
  549TMC3     H 8149   4.316   2.256  12.110  0.4446 -0.6811 -2.5964
  549TMC3    H1 8150   4.264   1.827  12.189  0.5447  0.1529  1.4877
  549TMC3    H2 8151   3.958   2.097  12.288 -0.4603 -0.6574  0.3049
  549TMC3    C7 8152   4.008   1.845  12.231  0.2189 -0.2658  0.2401
  549TMC3    C8 8153   4.057   2.310  12.193 -0.0458  0.0440  0.3885
  549TMC3    O1 8154   3.891   1.880  12.219 -0.2718 -0.0066  0.1161
  549TMC3    O2 8155   3.944   2.301  12.151 -0.2457 -0.3740 -0.2314
  550TMC3    C1 8156   3.859   4.219  11.917 -0.1373  0.5931 -0.2037
  550TMC3    C2 8157   3.816   4.256  12.034  0.6702 -0.6207  0.4928
  550TMC3    C3 8158   3.704   4.194  12.077  0.2724 -0.3679  0.1239
  550TMC3    C4 8159   3.800   4.126  11.838  0.5187 -0.8287  0.3374
  550TMC3    C5 8160   3.698   4.053  11.892 -0.2991 -0.4585 -0.1418
  550TMC3    C6 8161   3.639   4.103  12.006 -0.0358  0.0875 -0.5302
  550TMC3     C 8162   3.955   4.312  11.859  0.4985  0.3438 -0.0764
  550TMC3     O 8163   4.034   4.370  11.936 -0.4809 -0.1506  0.2296
  550TMC3     H 8164   3.856   4.331  12.101  0.1258  0.0730  0.0519
  550TMC3    H1 8165   3.844   4.097  11.744  1.9702  1.4705  0.3064
  550TMC3    H2 8166   3.561   4.044  12.052 -0.2203 -0.3805 -1.4338
  550TMC3    C7 8167   3.631   3.964  11.810  0.1231 -0.1936  0.0265
  550TMC3    C8 8168   3.620   4.266  12.167  0.5841  0.7310 -0.4509
  550TMC3    O1 8169   3.701   3.908  11.729 -0.3040  0.0010 -0.1595
  550TMC3    O2 8170   3.621   4.387  12.162 -0.9478  0.1662 -0.3345
  551TMC3    C1 8171   0.823   2.248  13.095 -0.1136 -0.0448 -0.7497
  551TMC3    C2 8172   0.917   2.292  13.014  0.1410  0.1234 -0.2571
  551TMC3    C3 8173   1.028   2.344  13.066  0.4352  0.1052 -0.0964
  551TMC3    C4 8174   0.815   2.259  13.231 -0.3131  1.0040 -0.5429
  551TMC3    C5 8175   0.921   2.326  13.277  0.1708 -0.4289 -0.3989
  551TMC3    C6 8176   1.027   2.366  13.197 -0.9077 -0.0496 -0.5292
  551TMC3     C 8177   0.715   2.180  13.015 -0.6952  0.3433 -0.1638
  551TMC3     O 8178   0.744   2.135  12.905  0.1861 -0.5625 -0.1965
  551TMC3     H 8179   0.910   2.286  12.906 -1.7843 -2.0053 -0.0079
  551TMC3    H1 8180   0.733   2.222  13.291  0.7625  0.6213  0.6843
  551TMC3    H2 8181   1.120   2.405  13.238 -1.2439  1.7570 -1.4391
  551TMC3    C7 8182   0.957   2.336  13.415  0.7367 -0.0208  0.3515
  551TMC3    C8 8183   1.139   2.383  12.980 -0.4215  0.6587  0.6945
  551TMC3    O1 8184   1.031   2.433  13.444  0.3481 -0.6316 -0.2191
  551TMC3    O2 8185   1.191   2.309  12.895  0.2766 -0.7671 -0.1453
  552MPD2     C 8186   2.718   4.338  14.389 -0.1611 -0.7475  0.2266
  552MPD2    C1 8187   2.789   4.268  14.297  0.1880  0.8985  0.9779
  552MPD2    C2 8188   2.928   4.271  14.305  0.1881 -0.3931 -0.0551
  552MPD2    C3 8189   2.988   4.351  14.393 -0.3549  0.2398  0.4553
  552MPD2    C4 8190   2.917   4.413  14.480 -0.2484 -0.1418  0.3038
  552MPD2    C5 8191   2.782   4.421  14.475  0.7679  0.4535 -0.5527
  552MPD2     H 8192   2.991   4.223  14.231 -0.3747  0.7598 -1.2836
  552MPD2    H1 8193   2.969   4.469  14.557 -0.7977  0.3040  0.3491
  552MPD2    H2 8194   2.609   4.338  14.393 -0.1565 -0.4141  0.3302
  552MPD2    H3 8195   2.721   4.483  14.540  1.9371  0.4206  0.5789
  552MPD2     N 8196   3.132   4.367  14.399 -0.6883  0.0079  0.6624
  552MPD2    H5 8197   3.161   4.422  14.479 -1.3835 -0.5992  1.3298
  552MPD2    N1 8198   2.737   4.185  14.199  0.2848  0.9943 -0.1821
  552MPD2    H7 8199   2.801   4.124  14.148 -1.5982 -0.7981 -0.4245
  553TMC3    C1 8200   2.589   4.096  14.050 -0.8234  0.2881  0.5116
  553TMC3    C2 8201   2.499   4.133  13.951  0.5616  0.2409  0.6566
  553TMC3    C3 8202   2.447   4.028  13.868  0.5075 -0.2808 -0.1434
  553TMC3    C4 8203   2.632   3.971  14.067 -0.4820  0.7063  0.5202
  553TMC3    C5 8204   2.575   3.872  13.996  0.4540 -0.2808 -0.1523
  553TMC3    C6 8205   2.481   3.898  13.899 -0.1549 -0.0305 -0.5347
  553TMC3     C 8206   2.607   4.193  14.152 -0.1003 -0.2343 -1.3512
  553TMC3     O 8207   2.515   4.273  14.176  0.2512  0.0991 -0.1975
  553TMC3     H 8208   2.467   4.236  13.942 -1.0095 -0.2728  0.2943
  553TMC3    H1 8209   2.705   3.940  14.140 -0.3120 -1.7761 -0.7165
  553TMC3    H2 8210   2.468   3.808  13.840 -0.5564 -1.0028  1.0186
  553TMC3    C7 8211   2.649   3.748  13.999 -0.1270  0.3459  0.2561
  553TMC3    C8 8212   2.472   4.064  13.730 -0.5713 -0.2407  0.1528
  553TMC3    O1 8213   2.597   3.647  14.048  0.2080 -0.0176  0.3193
  553TMC3    O2 8214   2.507   4.180  13.712 -0.2535 -0.1615  0.7920
  554TMC3    C1 8215   0.028   3.523  11.444 -0.0598 -0.0467  0.1103
  554TMC3    C2 8216   0.013   3.413  11.360  0.2991 -0.1650 -0.2834
  554TMC3    C3 8217   0.084   3.410  11.242 -1.0915  0.0872  0.3966
  554TMC3    C4 8218   0.101   3.625  11.402  0.0312  0.1666 -0.4270
  554TMC3    C5 8219   0.177   3.614  11.288  0.3183  0.2071 -0.8383
  554TMC3    C6 8220   0.174   3.503  11.213 -0.0569 -0.2943 -0.5230
  554TMC3     C 8221   4.704   3.518  11.579  0.4885  0.5311 -0.4065
  554TMC3     O 8222   4.690   3.626  11.633  0.1649 -0.1199 -0.2939
  554TMC3     H 8223   4.684   3.324  11.389 -1.1979  1.2176  1.1914
  554TMC3    H1 8224   0.133   3.707  11.465 -0.2668 -0.5444  0.6663
  554TMC3    H2 8225   0.228   3.495  11.120  2.0538  1.6327  0.5373
  554TMC3    C7 8226   0.252   3.721  11.237 -0.1255 -0.0198  0.1950
  554TMC3    C8 8227   0.018   3.360  11.130 -0.0610 -0.0908  0.1181
  554TMC3    O1 8228   0.336   3.696  11.151  0.0068 -0.1057  0.1223
  554TMC3    O2 8229   0.082   3.357  11.028  0.7254 -0.5068 -0.6415
  555TMC3    C1 8230   4.311   2.548  14.663 -0.4410  0.5309  0.4167
  555TMC3    C2 8231   4.282   2.665  14.725 -0.4416  0.1298 -0.3918
  555TMC3    C3 8232   4.294   2.670  14.857  0.4889 -1.0789 -0.0196
  555TMC3    C4 8233   4.338   2.431  14.726  0.5304  0.5782 -0.5711
  555TMC3    C5 8234   4.350   2.442  14.861 -0.5461 -0.5924 -0.1782
  555TMC3    C6 8235   4.327   2.557  14.929  0.2280  0.4809  0.3505
  555TMC3     C 8236   4.316   2.543  14.520 -0.1707  0.1942  0.0003
  555TMC3     O 8237   4.376   2.448  14.471  0.2051 -0.0297 -0.2201
  555TMC3     H 8238   4.279   2.757  14.669 -1.4445 -0.0421 -0.6137
  555TMC3    H1 8239   4.343   2.335  14.677 -0.8426 -0.4435  1.3113
  555TMC3    H2 8240   4.309   2.550  15.035 -1.1448  0.8330  0.1460
  555TMC3    C7 8241   4.356   2.326  14.944  0.0601  0.5681 -0.4692
  555TMC3    C8 8242   4.274   2.801  14.926 -0.5479 -0.9427 -0.4845
  555TMC3    O1 8243   4.306   2.319  15.054 -0.4931  0.1814 -0.8955
  555TMC3    O2 8244   4.205   2.885  14.871 -0.1091 -0.4208  0.6561
  556MPD2     C 8245   2.460   4.240  11.099 -0.1828 -0.0704  0.5129
  556MPD2    C1 8246   2.338   4.261  11.045 -0.0204 -0.2728  0.0512
  556MPD2    C2 8247   2.303   4.191  10.932  0.8803 -0.1044 -0.4004
  556MPD2    C3 8248   2.397   4.114  10.862 -0.2148 -0.0760 -0.1487
  556MPD2    C4 8249   2.520   4.097  10.917  0.0065 -0.3359 -0.5954
  556MPD2    C5 8250   2.543   4.150  11.045 -0.0459  0.2691 -0.1062
  556MPD2     H 8251   2.205   4.211  10.891  1.2084 -0.0801 -1.1920
  556MPD2    H1 8252   2.595   4.028  10.879  1.8623  1.0680  0.5010
  556MPD2    H2 8253   2.491   4.304  11.181  2.9625  0.1615 -0.8486
  556MPD2    H3 8254   2.638   4.141  11.097 -0.3803  1.6123  0.7495
  556MPD2     N 8255   2.366   4.061  10.733  0.0588  0.2852  0.5968
  556MPD2    H5 8256   2.271   4.059  10.698  0.3466  0.5929 -0.1884
  556MPD2    N1 8257   2.265   4.369  11.099  0.3462 -0.3869 -0.0815
  556MPD2    H7 8258   2.321   4.412  11.172 -0.2019  0.8176 -0.3564
  557TMC3    C1 8259   2.409   3.971  10.522 -1.0891 -0.5210 -0.1258
  557TMC3    C2 8260   2.499   3.955  10.418  0.1596 -0.3267 -0.5346
  557TMC3    C3 8261   2.464   3.878  10.309 -0.0101 -0.2900 -0.4282
  557TMC3    C4 8262   2.275   3.948  10.503  0.3246  0.1515 -0.2647
  557TMC3    C5 8263   2.245   3.862  10.401 -0.6373 -0.2290 -0.9113
  557TMC3    C6 8264   2.342   3.822  10.309 -0.8944  0.8505 -0.5455
  557TMC3     C 8265   2.458   4.022  10.642  0.0992  0.1778  0.1950
  557TMC3     O 8266   2.578   4.044  10.646 -0.5004  0.4626  0.1138
  557TMC3     H 8267   2.604   3.979  10.430 -0.2987  1.5556 -0.3255
  557TMC3    H1 8268   2.206   3.981  10.580 -0.2757 -0.5574 -0.4891
  557TMC3    H2 8269   2.307   3.754  10.232 -1.6783  1.3191 -0.5985
  557TMC3    C7 8270   2.113   3.792  10.396 -0.4816  0.0057  0.0049
  557TMC3    C8 8271   2.567   3.852  10.213  0.2858 -0.1306 -0.0990
  557TMC3    O1 8272   2.100   3.685  10.341 -0.4731  0.0620 -0.2924
  557TMC3    O2 8273   2.656   3.933  10.195 -0.2795 -0.0092  0.1229
  558TMC3    C1 8274   0.355   2.366   9.372 -0.5108 -0.1709 -0.0670
  558TMC3    C2 8275   0.230   2.358   9.425  0.0485  0.4357 -0.2627
  558TMC3    C3 8276   0.129   2.313   9.348 -0.0369  0.4373 -0.4522
  558TMC3    C4 8277   0.377   2.343   9.240  0.0381  0.6623 -0.2472
  558TMC3    C5 8278   0.275   2.295   9.160 -0.0644 -0.2774 -0.3776
  558TMC3    C6 8279   0.148   2.268   9.214 -1.1474  0.2502  0.3241
  558TMC3     C 8280   0.465   2.381   9.462  0.5815  0.1170  0.0351
  558TMC3     O 8281   0.451   2.417   9.577  0.4123 -0.9371  0.7689
  558TMC3     H 8282   0.222   2.382   9.530 -2.0066 -1.9168  0.1189
  558TMC3    H1 8283   0.474   2.362   9.195  0.2385 -1.3509 -0.6892
  558TMC3    H2 8284   0.060   2.230   9.163 -0.3623 -1.2134  0.0730
  558TMC3    C7 8285   0.313   2.212   9.048  0.3773 -0.6077  0.1046
  558TMC3    C8 8286   0.012   2.254   9.420  0.0388  0.1975  0.3094
  558TMC3    O1 8287   0.422   2.237   8.998  0.0110  0.2228  0.4807
  558TMC3    O2 8288   4.643   2.236   9.346 -0.7704  0.2240 -0.9257
  559MPD2     C 8289   4.476   2.909  10.343 -0.9841 -0.0589  0.0786
  559MPD2    C1 8290   4.435   2.895  10.475  0.3228 -0.9118 -0.2998
  559MPD2    C2 8291   4.532   2.894  10.577 -0.2501 -0.1311  0.8162
  559MPD2    C3 8292   4.665   2.884  10.549 -0.9855 -0.2813 -0.2003
  559MPD2    C4 8293   4.704   2.882  10.415 -0.1999 -0.7962 -0.5927
  559MPD2    C5 8294   4.604   2.907  10.314 -0.3079 -0.1232  0.0310
  559MPD2     H 8295   4.496   2.873  10.677  2.8206 -2.1691  1.5099
  559MPD2    H1 8296   0.082   2.874  10.385 -0.1203 -2.1594  0.0429
  559MPD2    H2 8297   4.404   2.911  10.262 -0.0079  0.5813 -0.7697
  559MPD2    H3 8298   4.642   2.897  10.213  0.4670  0.4191  0.2600
  559MPD2     N 8299   0.028   2.864  10.659  0.0496  0.0138 -0.8024
  559MPD2    H5 8300   4.713   2.865  10.752  0.0693  0.7189 -0.8079
  559MPD2    N1 8301   4.307   2.898  10.515 -0.5235  0.0509 -0.5746
  559MPD2    H7 8302   4.291   2.906  10.615  0.3899 -1.1582 -0.3332
  560TMC3    C1 8303   0.228   2.821  10.778  0.3996  0.0949  0.1284
  560TMC3    C2 8304   0.209   2.690  10.782 -0.2629 -0.2820  0.8284
  560TMC3    C3 8305   0.304   2.607  10.822 -0.3328  0.0706 -0.1338
  560TMC3    C4 8306   0.344   2.872  10.825  1.0805  0.5194  0.8506
  560TMC3    C5 8307   0.434   2.793  10.895 -1.0851 -0.0019  0.4840
  560TMC3    C6 8308   0.413   2.660  10.887 -0.2145  0.3913  0.3382
  560TMC3     C 8309   0.168   2.888  10.658 -0.1560  0.3840  0.8874
  560TMC3     O 8310   0.240   2.938  10.573  0.4182  0.1205  0.3678
  560TMC3     H 8311   0.121   2.648  10.736 -1.6209  2.6528  0.7378
  560TMC3    H1 8312   0.364   2.977  10.805 -2.9887  1.3834  1.3138
  560TMC3    H2 8313   0.474   2.589  10.943  1.2665  0.4841 -1.1656
  560TMC3    C7 8314   0.505   2.847  11.009 -0.3196 -0.7657 -0.0234
  560TMC3    C8 8315   0.328   2.491  10.735  0.3920 -0.2753 -0.2294
  560TMC3    O1 8316   0.516   2.770  11.100 -0.0837  0.0547 -0.0295
  560TMC3    O2 8317   0.259   2.482  10.635  0.1070 -0.0821 -0.3560
  561TMC3    C1 8318   2.368   1.794  11.255  0.3267 -0.0134  0.6575
  561TMC3    C2 8319   2.290   1.755  11.360 -0.5074  0.1791  0.3673
  561TMC3    C3 8320   2.236   1.851  11.440 -0.4983 -0.9805 -0.4571
  561TMC3    C4 8321   2.381   1.930  11.215  0.5829 -0.0425 -0.0583
  561TMC3    C5 8322   2.340   2.027  11.309 -0.0580 -0.8155  0.1205
  561TMC3    C6 8323   2.259   1.990  11.420  0.4705  0.4423  0.9363
  561TMC3     C 8324   2.434   1.692  11.186 -0.0404  0.2990 -0.4783
  561TMC3     O 8325   2.382   1.582  11.188  0.1717  0.6534 -0.2574
  561TMC3     H 8326   2.285   1.650  11.388  1.9881  0.3279  1.3499
  561TMC3    H1 8327   2.445   1.959  11.132 -1.7716 -1.4456 -2.3522
  561TMC3    H2 8328   2.234   2.060  11.498 -0.7834 -0.0531  0.9780
  561TMC3    C7 8329   2.395   2.154  11.306 -0.7632 -0.3423 -0.6436
  561TMC3    C8 8330   2.174   1.802  11.567  0.3582 -0.6879  0.0208
  561TMC3    O1 8331   2.368   2.220  11.404 -0.0034 -0.2838  0.3899
  561TMC3    O2 8332   2.200   1.684  11.590 -0.5725  0.5707  0.0265
  562TMC3    C1 8333   4.292   3.132  15.929 -0.0855  0.4654  0.3664
  562TMC3    C2 8334   4.239   3.264  15.933  0.3003  0.8493  0.2026
  562TMC3    C3 8335   4.155   3.295  15.827 -0.3596 -0.2669 -0.2709
  562TMC3    C4 8336   4.244   3.034  15.852 -0.1027 -0.1172 -0.2259
  562TMC3    C5 8337   4.153   3.065  15.752 -0.0746  0.2306 -0.1288
  562TMC3    C6 8338   4.124   3.199  15.736  0.2766 -0.4210 -0.0357
  562TMC3     C 8339   4.395   3.089  16.023 -0.3634  0.6806 -0.6449
  562TMC3     O 8340   4.404   2.969  16.057 -0.0853  0.2019 -0.4210
  562TMC3     H 8341   4.269   3.340  16.005  0.9855  0.9404 -0.1815
  562TMC3    H1 8342   4.285   2.934  15.864 -0.4145 -0.1433  0.6166
  562TMC3    H2 8343   4.043   3.217  15.665 -0.2201 -0.5504  0.4945
  562TMC3    C7 8344   4.150   2.980  15.634 -0.1583 -0.2100  0.3690
  562TMC3    C8 8345   4.042   3.380  15.874  0.0658 -0.1887 -0.1633
  562TMC3    O1 8346   4.078   3.023  15.545  0.6440  0.0439 -0.1185
  562TMC3    O2 8347   4.036   3.400  15.996  0.3459 -0.0802  0.0738
  563MPD2     C 8348   2.215   4.324  15.464 -0.5716 -0.1373  0.3639
  563MPD2    C1 8349   2.133   4.358  15.574  0.0882 -0.6369  0.4998
  563MPD2    C2 8350   2.192   4.371  15.699  0.1183 -1.5447 -0.4405
  563MPD2    C3 8351   2.319   4.346  15.722 -0.5076  0.0636 -0.0062
  563MPD2    C4 8352   2.403   4.322  15.615 -0.8153  0.1865 -0.0589
  563MPD2    C5 8353   2.350   4.312  15.491 -0.2789  0.4264 -0.4839
  563MPD2     H 8354   2.120   4.376  15.780  0.2076 -0.2382 -0.4406
  563MPD2    H1 8355   2.509   4.298  15.613 -0.6636  1.1461 -3.3965
  563MPD2    H2 8356   2.183   4.282  15.370  1.2819  2.8128 -1.5563
  563MPD2    H3 8357   2.421   4.284  15.415 -0.9555 -0.5067 -0.7742
  563MPD2     N 8358   2.364   4.340  15.861 -0.0275  0.2277 -0.3174
  563MPD2    H5 8359   2.302   4.366  15.936  0.1943  1.3172 -0.5077
  563MPD2    N1 8360   1.994   4.362  15.574 -0.1684 -0.6150  0.0425
  563MPD2    H7 8361   1.945   4.369  15.663  0.3406  1.4476  0.1628
  564TMC3    C1 8362   1.781   4.289  15.505  0.1897 -0.9991 -0.6785
  564TMC3    C2 8363   1.719   4.193  15.434  0.1867  0.5543 -0.2146
  564TMC3    C3 8364   1.594   4.153  15.478  0.5579 -0.3226  0.6821
  564TMC3    C4 8365   1.722   4.376  15.593  0.4550 -0.5576  0.1494
  564TMC3    C5 8366   1.598   4.336  15.631 -0.2623  0.8660  0.4482
  564TMC3    C6 8367   1.532   4.233  15.568  0.0164  0.5934  0.2822
  564TMC3     C 8368   1.920   4.324  15.469  0.4311 -0.6673 -0.2124
  564TMC3     O 8369   1.951   4.318  15.352 -0.3007  0.5391 -0.3690
  564TMC3     H 8370   1.763   4.146  15.347 -0.8896 -2.1315  0.6963
  564TMC3    H1 8371   1.781   4.451  15.644 -1.3408  0.0767  1.2575
  564TMC3    H2 8372   1.434   4.214  15.609  0.8100 -2.8799  0.6010
  564TMC3    C7 8373   1.576   4.339  15.772 -0.5279  0.9418  0.0629
  564TMC3    C8 8374   1.561   4.016  15.494 -0.1843  0.1503 -0.4854
  564TMC3    O1 8375   1.580   4.229  15.824 -0.1117 -0.1235  0.0829
  564TMC3    O2 8376   1.485   3.992  15.587 -0.5705  0.6657  0.0424
  565TMC3    C1 8377   2.108   1.186  10.474  0.5892  0.5887 -0.6067
  565TMC3    C2 8378   2.067   1.203  10.599 -0.1265 -0.1004  0.7255
  565TMC3    C3 8379   1.931   1.182  10.624  0.2646  0.0081  0.5102
  565TMC3    C4 8380   2.019   1.159  10.372  0.2624 -0.5029 -0.0666
  565TMC3    C5 8381   1.886   1.142  10.401  0.1525 -0.0309 -0.2578
  565TMC3    C6 8382   1.844   1.143  10.530 -0.5343  1.1237  0.0439
  565TMC3     C 8383   2.242   1.208  10.423 -0.1345  0.7461  0.1476
  565TMC3     O 8384   2.264   1.226  10.306 -0.4029  0.4076  0.5128
  565TMC3     H 8385   2.123   1.245  10.681  0.5870 -1.6964  1.0462
  565TMC3    H1 8386   2.063   1.148  10.273  0.6443 -0.6758  0.1243
  565TMC3    H2 8387   1.739   1.139  10.556 -0.7687 -1.4166 -1.3444
  565TMC3    C7 8388   1.790   1.133  10.297  0.0694 -0.5257  0.2727
  565TMC3    C8 8389   1.904   1.156  10.765 -0.8393  0.1779  0.2842
  565TMC3    O1 8390   1.672   1.148  10.328  0.5856  0.4335 -0.2294
  565TMC3    O2 8391   1.788   1.177  10.797  0.5647  0.5797 -0.4518
  566MPD2     C 8392   3.285   2.743  14.418  0.3429  1.0105 -0.5105
  566MPD2    C1 8393   3.347   2.651  14.339  0.0638  0.2643  0.4830
  566MPD2    C2 8394   3.287   2.533  14.297  0.5669  0.1659  0.7648
  566MPD2    C3 8395   3.159   2.501  14.336  0.1203  0.2021 -0.3830
  566MPD2    C4 8396   3.089   2.597  14.398 -0.3012  0.4738 -0.1421
  566MPD2    C5 8397   3.150   2.718  14.443  0.2769 -0.7245  0.3741
  566MPD2     H 8398   3.354   2.466  14.246 -0.6757 -0.5411  0.0691
  566MPD2    H1 8399   2.983   2.581  14.416 -0.0888 -2.2498 -1.3002
  566MPD2    H2 8400   3.324   2.837  14.455 -0.4005  0.7997  0.8099
  566MPD2    H3 8401   3.090   2.792  14.494 -1.4377 -2.0577  0.3128
  566MPD2     N 8402   3.082   2.394  14.282 -0.2299 -0.2816 -0.6925
  566MPD2    H5 8403   2.980   2.395  14.286 -0.2178 -0.0286 -0.4198
  566MPD2    N1 8404   3.484   2.660  14.303  0.0098 -0.5392 -0.2399
  566MPD2    H7 8405   3.514   2.590  14.235 -0.4060 -0.9962  0.0467
  567TMC3    C1 8406   3.688   2.748  14.264  0.0061 -0.1013  0.3577
  567TMC3    C2 8407   3.678   2.734  14.126 -0.4537 -0.3567  0.4825
  567TMC3    C3 8408   3.787   2.667  14.065  0.2551 -0.1724 -0.4741
  567TMC3    C4 8409   3.797   2.702  14.337 -0.4578 -0.6073  0.6384
  567TMC3    C5 8410   3.895   2.628  14.268  0.0088 -0.3666  0.0310
  567TMC3    C6 8411   3.894   2.614  14.132 -0.6459 -0.0551  1.0058
  567TMC3     C 8412   3.568   2.761  14.337  0.4778 -0.3400 -0.4165
  567TMC3     O 8413   3.566   2.826  14.438  0.4025 -0.2961 -0.1363
  567TMC3     H 8414   3.590   2.764  14.071 -0.7262 -1.6635  0.2080
  567TMC3    H1 8415   3.783   2.693  14.445 -0.5634 -0.4264  0.6399
  567TMC3    H2 8416   3.980   2.564  14.089 -0.9321 -1.1343  1.6846
  567TMC3    C7 8417   3.953   2.514  14.339 -0.2507  0.0291  0.0510
  567TMC3    C8 8418   3.767   2.650  13.918  0.1100 -0.2367 -0.6050
  567TMC3    O1 8419   3.977   2.412  14.275  0.1197  0.2844  0.4147
  567TMC3    O2 8420   3.666   2.701  13.877 -0.3545 -0.3407 -0.2965
  568MPD2     C 8421   1.207   2.727  16.342  0.4525  0.3516 -0.2527
  568MPD2    C1 8422   1.289   2.813  16.416 -0.0341  0.3611 -1.0213
  568MPD2    C2 8423   1.354   2.919  16.347 -0.4957  0.6703  0.0437
  568MPD2    C3 8424   1.328   2.948  16.212 -0.3760  0.0088  0.0029
  568MPD2    C4 8425   1.223   2.872  16.151 -0.1629  0.6894  0.0941
  568MPD2    C5 8426   1.169   2.763  16.213 -0.0063 -0.0588  0.2287
  568MPD2     H 8427   1.434   2.978  16.390  0.0077 -2.3505  3.2168
  568MPD2    H1 8428   1.187   2.879  16.049 -0.2514  2.0742  0.2215
  568MPD2    H2 8429   1.155   2.646  16.392  2.0899 -0.7867 -0.4146
  568MPD2    H3 8430   1.098   2.710  16.150  1.3807 -1.3771 -0.2235
  568MPD2     N 8431   1.398   3.053  16.143 -0.5897  0.2176 -0.3888
  568MPD2    H5 8432   1.460   3.113  16.197  0.1858 -0.5707 -0.3908
  568MPD2    N1 8433   1.303   2.796  16.552 -0.4779 -0.8709 -0.1130
  568MPD2    H7 8434   1.258   2.708  16.576 -0.1212 -0.5276  1.8281
  569TMC3    C1 8435   1.444   3.208  15.972  0.0670  0.0688 -0.3092
  569TMC3    C2 8436   1.467   3.299  16.071 -0.0025  0.2056 -0.5902
  569TMC3    C3 8437   1.486   3.426  16.026 -0.4091  0.0826  0.5985
  569TMC3    C4 8438   1.437   3.237  15.832  0.1136  0.1764 -0.1298
  569TMC3    C5 8439   1.472   3.363  15.797  0.6310 -0.2531  0.4827
  569TMC3    C6 8440   1.483   3.461  15.888  0.4378 -0.4101  0.0716
  569TMC3     C 8441   1.388   3.076  16.011 -0.3895  0.4385  0.2249
  569TMC3     O 8442   1.343   3.003  15.919  0.5769  0.1787 -0.0185
  569TMC3     H 8443   1.430   3.282  16.171 -2.7849  0.6130 -1.5715
  569TMC3    H1 8444   1.427   3.160  15.756  0.5469 -0.2116  0.2123
  569TMC3    H2 8445   1.514   3.557  15.850 -1.5045  0.2164  0.1201
  569TMC3    C7 8446   1.505   3.390  15.659  0.1618 -0.2172  0.2008
  569TMC3    C8 8447   1.503   3.532  16.130 -0.1707 -0.0684  0.2739
  569TMC3    O1 8448   1.569   3.306  15.594  0.0044 -0.5398  0.1771
  569TMC3    O2 8449   1.511   3.513  16.250 -0.0325  0.3659  0.2015
  570TMC3    C1 8450   0.509   1.915  15.950  0.2714 -0.7194 -0.7331
  570TMC3    C2 8451   0.600   1.924  15.852  0.1004 -0.5883  0.0022
  570TMC3    C3 8452   0.663   2.044  15.836 -0.3945 -0.1991 -0.2872
  570TMC3    C4 8453   0.484   2.008  16.040  0.4419 -0.1917  0.5408
  570TMC3    C5 8454   0.528   2.133  16.008  0.7510 -0.8095  0.7014
  570TMC3    C6 8455   0.613   2.150  15.901 -0.4364  0.0878  0.4703
  570TMC3     C 8456   0.471   1.776  15.993  0.6348  0.7323  0.3320
  570TMC3     O 8457   0.484   1.689  15.907 -0.4308  0.1430 -0.0404
  570TMC3     H 8458   0.601   1.846  15.776  0.8076  0.4085 -1.0236
  570TMC3    H1 8459   0.413   2.003  16.122 -0.3939 -0.9888 -0.2271
  570TMC3    H2 8460   0.671   2.240  15.881 -0.4992 -0.3896 -1.9581
  570TMC3    C7 8461   0.539   2.230  16.117  0.2050  0.0734  0.1560
  570TMC3    C8 8462   0.767   2.064  15.733 -0.0984  0.0380 -0.0067
  570TMC3    O1 8463   0.537   2.185  16.228 -0.2862  0.2879 -0.0909
  570TMC3    O2 8464   0.800   2.178  15.703 -0.7128  0.1605  0.0537
  571MPD2     C 8465   3.948   3.377  17.487 -0.7644 -0.5895  0.2691
  571MPD2    C1 8466   3.826   3.451  17.495  0.1103  0.5559 -0.6760
  571MPD2    C2 8467   3.820   3.560  17.577 -0.2731 -0.1851  0.5225
  571MPD2    C3 8468   3.939   3.615  17.641 -0.2243 -0.3191  0.0512
  571MPD2    C4 8469   4.052   3.535  17.640  0.5243  0.6118 -0.1914
  571MPD2    C5 8470   4.058   3.421  17.564  0.0483 -0.2808  0.8637
  571MPD2     H 8471   3.723   3.607  17.589 -0.2770 -0.1126  0.1959
  571MPD2    H1 8472   4.140   3.557  17.698  2.0337 -1.8372 -1.5564
  571MPD2    H2 8473   3.954   3.284  17.432  2.5431 -0.6674  0.7142
  571MPD2    H3 8474   4.147   3.359  17.572  0.9092  1.0207  1.3975
  571MPD2     N 8475   3.943   3.730   0.018 -0.1347 -0.0283 -0.2569
  571MPD2    H5 8476   4.033   3.746   0.061 -0.0135  1.3381 -1.0372
  571MPD2    N1 8477   3.710   3.397  17.420  0.5424  0.4594  0.7745
  571MPD2    H7 8478   3.722   3.322  17.353  0.7334  0.1715  1.1346
  572TMC3    C1 8479   3.860   3.920   0.124 -0.9668 -0.0732  0.6261
  572TMC3    C2 8480   3.970   3.921   0.209 -0.1793 -0.6731  0.0743
  572TMC3    C3 8481   3.962   4.005   0.316 -0.4688 -0.0671  0.1838
  572TMC3    C4 8482   3.761   4.009   0.141  0.2449 -0.3081 -0.0397
  572TMC3    C5 8483   3.759   4.100   0.240  0.1194  0.7789  1.4337
  572TMC3    C6 8484   3.864   4.103   0.325  0.1323 -0.4665 -0.0577
  572TMC3     C 8485   3.837   3.815   0.040 -0.9240 -0.7112  0.3975
  572TMC3     O 8486   3.729   3.813  17.689 -0.3552  0.5152  0.2139
  572TMC3     H 8487   4.038   3.837   0.216 -0.2268 -0.6850  0.4048
  572TMC3    H1 8488   3.682   4.023   0.068 -1.3047 -1.2081  1.4642
  572TMC3    H2 8489   3.880   4.185   0.394  0.2463 -1.1427  0.7119
  572TMC3    C7 8490   3.653   4.208   0.247  0.0730  0.6419 -0.0296
  572TMC3    C8 8491   4.034   3.979   0.441 -0.9678 -0.3720  0.1141
  572TMC3    O1 8492   3.569   4.201   0.156  0.0560 -0.1289  0.0580
  572TMC3    O2 8493   4.025   4.071   0.519  0.0798 -0.1641 -0.2150
  573MPD2     C 8494   4.557   3.833   0.478  0.3828 -0.0661  0.1658
  573MPD2    C1 8495   4.553   3.970   0.493 -0.2405 -0.7885 -0.5612
  573MPD2    C2 8496   4.488   4.048   0.397 -0.3816 -0.1729  0.1442
  573MPD2    C3 8497   4.421   3.979   0.294  0.1820 -0.0415  0.0593
  573MPD2    C4 8498   4.424   3.845   0.285  1.2599  0.2420 -0.5040
  573MPD2    C5 8499   4.497   3.771   0.375  0.5611  0.4232 -0.3289
  573MPD2     H 8500   4.473   4.154   0.413  0.5658  0.0970 -0.7363
  573MPD2    H1 8501   4.363   3.781   0.222 -0.9135  2.1392 -0.2838
  573MPD2    H2 8502   4.601   3.774   0.557  3.1382  0.8049 -0.7401
  573MPD2    H3 8503   4.497   3.663   0.363 -2.2950  0.4133 -0.4134
  573MPD2     N 8504   4.341   4.052   0.205  0.0361  0.5277  0.5781
  573MPD2    H5 8505   4.308   3.996   0.127 -0.7895 -0.4261  1.6196
  573MPD2    N1 8506   4.615   4.028   0.612  0.0732 -0.6386  0.8637
  573MPD2    H7 8507   4.653   3.953   0.668 -0.4143  0.6050  2.8512
  574TMC3    C1 8508   4.221   4.228   0.105  0.0596 -0.1574 -0.1907
  574TMC3    C2 8509   4.130   4.322   0.143 -0.4548 -0.1828  0.5366
  574TMC3    C3 8510   4.033   4.357   0.058 -0.1781 -1.0971 -0.4661
  574TMC3    C4 8511   4.220   4.183  17.678 -0.2225  0.5487  0.2466
  574TMC3    C5 8512   4.124   4.228  17.593  0.2780 -0.0026  0.1590
  574TMC3    C6 8513   4.030   4.315  17.634 -0.1230  0.7552 -0.3051
  574TMC3     C 8514   4.293   4.179   0.219  0.1576  0.5932 -0.1067
  574TMC3     O 8515   4.306   4.258   0.312 -0.2334  0.0704 -0.2444
  574TMC3     H 8516   4.121   4.361   0.244 -1.0992  3.4013 -0.9112
  574TMC3    H1 8517   4.297   4.117  17.640 -0.5384 -0.5651  1.5580
  574TMC3    H2 8518   3.958   4.353  17.562 -0.6141 -0.6280 -0.5374
  574TMC3    C7 8519   4.148   4.217  17.447 -0.6193  0.1138 -0.8065
  574TMC3    C8 8520   3.943   4.462   0.099 -0.0154  0.3893  0.8633
  574TMC3    O1 8521   4.264   4.208  17.417 -0.5317 -0.1372 -0.0008
  574TMC3    O2 8522   3.921   4.478   0.220 -0.2028  0.1689 -0.0885
  575TMC3    C1 8523   1.514   1.382  11.522 -0.0437  0.2835 -0.0900
  575TMC3    C2 8524   1.483   1.282  11.606 -0.1760  0.2201  0.2789
  575TMC3    C3 8525   1.535   1.158  11.595  0.1381  0.1180 -0.0952
  575TMC3    C4 8526   1.603   1.350  11.416  0.1579  0.1045 -0.5623
  575TMC3    C5 8527   1.655   1.221  11.401 -0.9844 -0.2598  0.1255
  575TMC3    C6 8528   1.618   1.123  11.490 -0.5655  0.1240  0.0515
  575TMC3     C 8529   1.446   1.513  11.548 -0.8717  0.7327 -0.5459
  575TMC3     O 8530   1.376   1.521  11.646 -0.0189 -0.5349 -0.3440
  575TMC3     H 8531   1.433   1.310  11.699  1.3624 -1.1007  1.5026
  575TMC3    H1 8532   1.634   1.425  11.343 -1.9547 -1.9039 -3.5222
  575TMC3    H2 8533   1.644   1.021  11.462 -0.3853  0.4451 -0.9707
  575TMC3    C7 8534   1.722   1.184  11.270  0.1375 -0.4373 -0.0772
  575TMC3    C8 8535   1.545   1.069  11.708 -0.4922 -0.4595 -0.4210
  575TMC3    O1 8536   1.690   1.255  11.174 -0.3740 -0.4820  0.9439
  575TMC3    O2 8537   1.475   1.095  11.804  0.4023 -0.0004  0.1341
  576MPD2     C 8538   1.171   2.304  12.520  0.1759  0.4467 -0.6841
  576MPD2    C1 8539   1.235   2.401  12.447  0.1701 -0.2960  0.6888
  576MPD2    C2 8540   1.209   2.530  12.477  0.2132  0.8477 -0.1432
  576MPD2    C3 8541   1.120   2.565  12.574  0.0817 -0.1369  0.1643
  576MPD2    C4 8542   1.047   2.468  12.642  0.5123 -0.0945 -0.1922
  576MPD2    C5 8543   1.073   2.335  12.619 -0.3971  0.5569 -0.0743
  576MPD2     H 8544   1.268   2.606  12.427  0.2042  0.1546 -1.2035
  576MPD2    H1 8545   0.974   2.494  12.717 -2.1451 -1.6455 -2.2650
  576MPD2    H2 8546   1.172   2.200  12.491 -0.4486  0.3825 -0.4770
  576MPD2    H3 8547   1.004   2.263  12.662 -0.8393  0.2988 -1.2152
  576MPD2     N 8548   1.098   2.704  12.601  0.3038  0.1548 -0.2667
  576MPD2    H5 8549   1.151   2.767  12.541  0.8105 -0.4605 -0.4637
  576MPD2    N1 8550   1.307   2.370  12.328  0.1806  0.3904 -0.0160
  576MPD2    H7 8551   1.329   2.448  12.267 -0.1336  1.5288  1.3268
  577TMC3    C1 8552   1.440   2.254  12.180 -0.5732 -0.1567  0.0891
  577TMC3    C2 8553   1.514   2.136  12.162 -0.3146 -0.0599  0.2460
  577TMC3    C3 8554   1.626   2.143  12.089  0.1417  0.8275  0.3130
  577TMC3    C4 8555   1.483   2.374  12.119  0.2094  0.3553  0.0243
  577TMC3    C5 8556   1.602   2.376  12.046  0.0238 -0.7498 -0.4640
  577TMC3    C6 8557   1.677   2.262  12.038 -0.2030 -0.2741  0.3704
  577TMC3     C 8558   1.363   2.246  12.298 -0.3045 -0.5933 -0.0090
  577TMC3     O 8559   1.381   2.150  12.375 -0.2211 -0.2018  0.8515
  577TMC3     H 8560   1.479   2.038  12.193  1.0085 -0.6671 -0.1473
  577TMC3    H1 8561   1.429   2.468  12.124 -1.2390 -0.6019  2.1850
  577TMC3    H2 8562   1.765   2.273  11.976 -1.1322  0.5517 -0.8038
  577TMC3    C7 8563   1.664   2.493  11.993 -0.0091  0.1549  0.0720
  577TMC3    C8 8564   1.702   2.023  12.073  0.4044 -0.0458  0.1384
  577TMC3    O1 8565   1.785   2.508  12.010  0.0514 -0.0178 -0.0788
  577TMC3    O2 8566   1.698   1.942  12.167 -0.3572 -1.0186  0.2693
  578MPD2     C 8567   0.235   1.946   1.603  0.6702 -0.0692 -0.7065
  578MPD2    C1 8568   0.285   1.941   1.477 -0.3872  0.3689 -0.0093
  578MPD2    C2 8569   0.417   1.892   1.463  0.1029 -0.3729  0.0787
  578MPD2    C3 8570   0.505   1.877   1.571  0.3087 -1.0209  0.1526
  578MPD2    C4 8571   0.444   1.884   1.700 -0.0314  0.6450  0.1318
  578MPD2    C5 8572   0.311   1.917   1.714 -0.5115 -0.0261  0.3937
  578MPD2     H 8573   0.453   1.871   1.363 -0.7100 -0.9436 -0.0896
  578MPD2    H1 8574   0.498   1.853   1.789 -1.4516  1.3279  1.2339
  578MPD2    H2 8575   0.131   1.974   1.616  0.6345 -0.6527  0.2434
  578MPD2    H3 8576   0.260   1.931   1.808  1.3894  0.2532  1.3761
  578MPD2     N 8577   0.642   1.857   1.547 -0.5204 -0.1897 -0.0701
  578MPD2    H5 8578   0.685   1.866   1.455  1.3049 -0.3377  0.7543
  578MPD2    N1 8579   0.208   1.972   1.363 -0.2112  0.2547  0.2711
  578MPD2    H7 8580   0.111   1.993   1.382  0.0350  0.3731  1.3998
  579TMC3    C1 8581   0.869   1.843   1.595 -0.0206 -0.3295  0.4263
  579TMC3    C2 8582   0.965   1.892   1.673 -0.3465  0.0822 -0.3957
  579TMC3    C3 8583   1.094   1.857   1.644 -0.5490 -1.3010 -0.6996
  579TMC3    C4 8584   0.888   1.753   1.503  0.4323 -0.1284 -0.1183
  579TMC3    C5 8585   1.019   1.717   1.486 -0.5178 -1.0096  0.1418
  579TMC3    C6 8586   1.126   1.763   1.547 -0.2949 -0.5998  0.5561
  579TMC3     C 8587   0.732   1.860   1.648 -0.2572  0.3399 -0.0155
  579TMC3     O 8588   0.724   1.876   1.768 -0.8734 -0.2038  0.4077
  579TMC3     H 8589   0.950   1.972   1.744  1.2092  0.3756 -0.3853
  579TMC3    H1 8590   0.806   1.702   1.455  2.0137 -1.2684 -1.6105
  579TMC3    H2 8591   1.230   1.737   1.529 -0.4870  0.5408 -2.1501
  579TMC3    C7 8592   1.050   1.617   1.386 -0.3769  0.0890  0.6275
  579TMC3    C8 8593   1.195   1.937   1.712  0.3991  0.7716 -0.1052
  579TMC3    O1 8594   1.153   1.554   1.401  0.6821 -0.5293 -0.0473
  579TMC3    O2 8595   1.164   2.006   1.808  0.2535 -0.1731 -0.4211
  580TMC3    C1 8596   3.997   1.589  11.368 -0.0907 -0.1028 -0.4741
  580TMC3    C2 8597   4.076   1.596  11.259  0.6880  0.3284  0.9554
  580TMC3    C3 8598   4.190   1.511  11.241 -0.1849  0.4540 -0.2187
  580TMC3    C4 8599   4.008   1.479  11.447 -0.1937  0.2348  0.0554
  580TMC3    C5 8600   4.108   1.392  11.428 -0.0803 -0.1642  0.0460
  580TMC3    C6 8601   4.211   1.412  11.336  0.2253  1.0026  0.0345
  580TMC3     C 8602   4.007   1.706  11.449 -0.3426  0.3174 -0.0599
  580TMC3     O 8603   3.958   1.705  11.559 -0.1380 -0.1000 -0.0560
  580TMC3     H 8604   4.057   1.681  11.195  0.4597  0.5753  1.3527
  580TMC3    H1 8605   3.930   1.467  11.522  0.9908  0.4832  1.3294
  580TMC3    H2 8606   4.306   1.361  11.343 -1.8522 -2.8359  0.3768
  580TMC3    C7 8607   4.128   1.282  11.522 -0.1446  0.0406  0.2402
  580TMC3    C8 8608   4.299   1.585  11.180  0.2267 -0.0907  0.6500
  580TMC3    O1 8609   4.071   1.301  11.630 -0.3140 -0.0718 -0.0157
  580TMC3    O2 8610   4.266   1.695  11.141 -0.0470  0.2685 -0.2410
  581MPD2     C 8611   1.915   0.897  14.470  0.1602  0.4704 -0.0169
  581MPD2    C1 8612   1.846   0.916  14.588  0.4100 -0.4951 -0.5227
  581MPD2    C2 8613   1.719   0.964  14.577  0.1665 -0.3827  0.2169
  581MPD2    C3 8614   1.663   0.999  14.455  0.1614  0.1368 -0.0232
  581MPD2    C4 8615   1.730   0.973  14.335  0.0696  0.4014  0.8439
  581MPD2    C5 8616   1.855   0.918  14.347  0.4667 -0.6504  0.9073
  581MPD2     H 8617   1.659   0.980  14.666 -1.6262  1.5709 -1.3386
  581MPD2    H1 8618   1.685   0.975  14.237  1.8180  1.5686  0.0737
  581MPD2    H2 8619   2.013   0.851  14.462  0.1879  0.5624 -0.2046
  581MPD2    H3 8620   1.911   0.894  14.257  0.2451 -0.2856  0.6726
  581MPD2     N 8621   1.529   1.046  14.457 -0.5343  0.4395 -0.2357
  581MPD2    H5 8622   1.471   1.048  14.540  0.5585 -1.5663  0.5687
  581MPD2    N1 8623   1.912   0.865  14.708  0.1544 -0.4042  0.5489
  581MPD2    H7 8624   2.008   0.829  14.709  0.0760 -0.5335  2.3231
  582TMC3    C1 8625   1.931   0.801  14.926 -0.5898 -0.2780 -0.0664
  582TMC3    C2 8626   2.069   0.810  14.930  0.3563 -0.1970 -0.0720
  582TMC3    C3 8627   2.137   0.724  15.015  0.3672 -0.3973 -0.2363
  582TMC3    C4 8628   1.860   0.722  15.005 -0.4704 -0.0859 -0.3585
  582TMC3    C5 8629   1.928   0.637  15.089  0.3235  0.0256  0.2295
  582TMC3    C6 8630   2.066   0.625  15.083 -0.7798 -0.1206  0.5767
  582TMC3     C 8631   1.855   0.873  14.833 -0.2782  1.0514  0.8565
  582TMC3     O 8632   1.742   0.902  14.867 -0.3717  0.3875 -0.0066
  582TMC3     H 8633   2.125   0.888  14.879 -1.0435  1.5031  0.9931
  582TMC3    H1 8634   1.751   0.718  15.000 -0.4908  0.5674 -0.3411
  582TMC3    H2 8635   2.116   0.559  15.152  0.0855 -1.2079 -1.0984
  582TMC3    C7 8636   1.867   0.632  15.221  0.5301 -0.4868 -0.6782
  582TMC3    C8 8637   2.247   0.781  15.090  0.2164  0.4934  0.0474
  582TMC3    O1 8638   1.760   0.696  15.239 -0.1948  0.3197 -0.5953
  582TMC3    O2 8639   2.260   0.901  15.087 -0.2295  0.4841 -0.4906
  583MPD2     C 8640   2.656   2.383  16.679 -0.4384  0.0670  0.3766
  583MPD2    C1 8641   2.668   2.517  16.655  0.4378  0.2502  0.1165
  583MPD2    C2 8642   2.638   2.602  16.755  0.1947  0.2242  0.7406
  583MPD2    C3 8643   2.599   2.560  16.881 -0.7761 -0.5457 -0.0034
  583MPD2    C4 8644   2.594   2.423  16.905 -0.2021 -0.8395 -0.9287
  583MPD2    C5 8645   2.606   2.339  16.801  0.4115 -0.3436  0.8509
  583MPD2     H 8646   2.644   2.707  16.731  3.4541 -0.1329  0.0975
  583MPD2    H1 8647   2.566   2.372  16.996 -1.9941 -0.5509 -1.3221
  583MPD2    H2 8648   2.663   2.301  16.608  0.5851 -0.7845  1.4571
  583MPD2    H3 8649   2.587   2.232  16.808  0.2273 -0.5057 -1.9697
  583MPD2     N 8650   2.578   2.662  16.982 -0.3921  0.7948 -0.3318
  583MPD2    H5 8651   2.569   2.758  16.949  1.3264  0.6064 -1.3517
  583MPD2    N1 8652   2.713   2.569  16.529 -0.2205  0.0763 -0.4029
  583MPD2    H7 8653   2.697   2.668  16.514  1.0827  0.0170 -2.2872
  584TMC3    C1 8654   2.544   2.758  17.197 -0.3985 -0.5551  0.3010
  584TMC3    C2 8655   2.584   2.881  17.152  0.2796  0.5379 -0.2178
  584TMC3    C3 8656   2.587   2.995  17.235  1.1810 -0.3423  0.3935
  584TMC3    C4 8657   2.516   2.752  17.328 -0.6843  0.3524 -0.3699
  584TMC3    C5 8658   2.523   2.865  17.413  0.2432  0.7770 -0.7292
  584TMC3    C6 8659   2.556   2.987  17.370 -0.1749 -0.0927  0.2532
  584TMC3     C 8660   2.543   2.639  17.115  0.5294  0.6645 -0.5804
  584TMC3     O 8661   2.539   2.528  17.166  0.1252 -0.8729 -0.5273
  584TMC3     H 8662   2.608   2.909  17.050  1.4999 -0.7987 -0.2952
  584TMC3    H1 8663   2.477   2.659  17.369 -1.6429  0.7102 -0.4572
  584TMC3    H2 8664   2.559   3.074  17.434 -2.0363  0.8917 -0.9872
  584TMC3    C7 8665   2.496   2.843  17.551 -0.0677 -0.2721 -0.7741
  584TMC3    C8 8666   2.564   3.124  17.174  0.1003 -0.0769  0.5338
  584TMC3    O1 8667   2.513   2.727  17.594  0.4351  0.4198  0.8526
  584TMC3    O2 8668   2.512   3.123  17.063 -0.6131 -0.3270 -0.0321
  585MPD2     C 8669   2.258   1.244   0.410  0.4072 -0.2166 -0.1942
  585MPD2    C1 8670   2.347   1.333   0.363 -0.1372  0.4686 -0.0830
  585MPD2    C2 8671   2.320   1.409   0.254 -0.1047  0.1480  0.5228
  585MPD2    C3 8672   2.188   1.411   0.206 -0.2364  0.2599  0.0569
  585MPD2    C4 8673   2.095   1.321   0.262 -0.3070  0.0430 -0.0225
  585MPD2    C5 8674   2.130   1.246   0.371  0.4226  0.0188 -0.2959
  585MPD2     H 8675   2.397   1.459   0.196  1.5028 -0.6082  2.0348
  585MPD2    H1 8676   1.994   1.317   0.225  0.3042 -0.1137 -1.6858
  585MPD2    H2 8677   2.279   1.171   0.487 -1.4438 -0.2499  0.2873
  585MPD2    H3 8678   2.056   1.188   0.424  0.2177  2.1591  1.7661
  585MPD2     N 8679   2.137   1.481   0.096 -0.4647 -0.1315 -0.3329
  585MPD2    H5 8680   2.037   1.477   0.077 -0.2929  2.2128 -1.7773
  585MPD2    N1 8681   2.480   1.326   0.420 -0.2101  0.4217  1.4049
  585MPD2    H7 8682   2.510   1.252   0.482  2.4482  1.5407  1.4466
  586TMC3    C1 8683   2.129   1.627  17.622 -0.0260  1.0685 -1.0417
  586TMC3    C2 8684   2.170   1.646  17.496 -0.1125  0.1796  0.5731
  586TMC3    C3 8685   2.079   1.677  17.402 -0.0785 -0.1049  0.1712
  586TMC3    C4 8686   1.998   1.655  17.662 -0.1088  0.3871  0.2634
  586TMC3    C5 8687   1.909   1.695  17.564  0.3232 -0.8125 -0.0313
  586TMC3    C6 8688   1.946   1.709  17.434 -0.5060 -0.0843  0.1450
  586TMC3     C 8689   2.213   1.555   0.006 -0.7643 -0.5402  0.8085
  586TMC3     O 8690   2.331   1.574   0.001 -0.6113 -0.3535  0.3772
  586TMC3     H 8691   2.271   1.620  17.466  0.0679  1.7289 -0.1519
  586TMC3    H1 8692   1.960   1.661   0.057  0.0878 -1.8567  0.4786
  586TMC3    H2 8693   1.874   1.725  17.354 -0.3324  0.1706  0.0402
  586TMC3    C7 8694   1.782   1.621  17.571  0.4032 -0.4055 -0.0726
  586TMC3    C8 8695   2.095   1.606  17.276 -0.8898  0.3312  0.1859
  586TMC3    O1 8696   1.782   1.500  17.601 -0.2257  0.1100 -0.9797
  586TMC3    O2 8697   2.050   1.660  17.175 -0.3202 -0.0331  0.1842
  587TMC3    C1 8698   4.316   0.217  16.627  0.5095 -0.1534 -0.5911
  587TMC3    C2 8699   4.316   0.342  16.559  1.1196 -0.2794  0.2543
  587TMC3    C3 8700   4.430   0.374  16.491  0.5096 -0.6486  0.1405
  587TMC3    C4 8701   4.427   0.137  16.629 -0.7325  0.1064  0.5791
  587TMC3    C5 8702   4.539   0.178  16.566 -0.8278 -0.4940 -0.1233
  587TMC3    C6 8703   4.547   0.293  16.492  0.1645  0.5937 -0.2591
  587TMC3     C 8704   4.202   0.163  16.704  0.7536  0.0106  0.4715
  587TMC3     O 8705   4.212   0.059  16.769 -0.6745  0.1650 -0.1533
  587TMC3     H 8706   4.228   0.405  16.565  1.3976  0.0978  0.3395
  587TMC3    H1 8707   4.430   0.052  16.696  1.0886 -0.6683 -0.5069
  587TMC3    H2 8708   4.637   0.326  16.442  1.7831 -2.4363  0.6347
  587TMC3    C7 8709   4.649   0.089  16.590  0.0335  0.0766  0.0415
  587TMC3    C8 8710   4.427   0.496  16.401  0.3290 -0.6472  0.0704
  587TMC3    O1 8711   4.634   4.722  16.669 -0.5038  0.0655 -0.2910
  587TMC3    O2 8712   4.493   0.487  16.297  0.8124 -0.0697  0.3165
  588TMC3    C1 8713   1.720   3.150   9.783  1.0157 -0.2103  0.0864
  588TMC3    C2 8714   1.690   3.016   9.799  0.2715  0.4492 -0.7344
  588TMC3    C3 8715   1.794   2.935   9.832 -0.3020  0.1479 -0.9467
  588TMC3    C4 8716   1.846   3.199   9.779 -0.4686 -0.6593  0.2909
  588TMC3    C5 8717   1.951   3.114   9.796 -0.3499 -0.3441 -0.9480
  588TMC3    C6 8718   1.925   2.981   9.828 -0.7475 -0.2123 -0.3044
  588TMC3     C 8719   1.614   3.246   9.755  0.0395  0.3305  0.7084
  588TMC3     O 8720   1.544   3.230   9.657 -0.0575  0.0425 -0.4484
  588TMC3     H 8721   1.586   2.987   9.799  0.6883 -1.0508 -1.6433
  588TMC3    H1 8722   1.860   3.303   9.752  0.9119 -1.2029 -1.0984
  588TMC3    H2 8723   2.008   2.912   9.835  1.0048  2.1383  2.1158
  588TMC3    C7 8724   2.080   3.181   9.818 -0.6279  0.1113 -0.3678
  588TMC3    C8 8725   1.761   2.792   9.809 -0.2858  0.2677 -0.2767
  588TMC3    O1 8726   2.181   3.131   9.770  0.1799  0.3804 -0.2943
  588TMC3    O2 8727   1.691   2.766   9.711  0.9900  0.5227 -0.2666
  589TMC3    C1 8728   0.563   0.309   1.079 -0.2936 -0.8555  0.1714
  589TMC3    C2 8729   0.643   0.294   1.185 -0.6582  0.3814  0.1218
  589TMC3    C3 8730   0.752   0.213   1.183 -1.0590  0.1405  0.5324
  589TMC3    C4 8731   0.584   0.229   0.965  0.9591  0.3586  0.2337
  589TMC3    C5 8732   0.688   0.151   0.957  0.9957 -0.1959 -0.9890
  589TMC3    C6 8733   0.775   0.140   1.067 -0.4802  0.0779  0.4108
  589TMC3     C 8734   0.509   0.444   1.044  0.0829  0.2382  0.1796
  589TMC3     O 8735   0.449   0.446   0.940  0.1518 -0.2753  0.0559
  589TMC3     H 8736   0.611   0.329   1.283  0.1333  1.9176 -0.1798
  589TMC3    H1 8737   0.510   0.234   0.886  1.2272  0.4771 -0.0091
  589TMC3    H2 8738   0.860   0.073   1.059 -0.7794  0.0715 -2.5200
  589TMC3    C7 8739   0.709   0.055   0.852 -0.0170  0.7762 -0.0024
  589TMC3    C8 8740   0.850   0.210   1.299 -0.2204 -0.7687  0.0721
  589TMC3    O1 8741   0.803   4.703   0.865  0.2620 -0.2396  0.0231
  589TMC3    O2 8742   0.824   0.266   1.403 -0.3964  0.5161 -0.4130
  590MPD2     C 8743   0.328   3.327  16.541 -0.1192  0.3570  0.2390
  590MPD2    C1 8744   0.271   3.444  16.485  0.2304 -0.1388 -0.4374
  590MPD2    C2 8745   0.351   3.528  16.407  0.1001 -0.0622  0.2969
  590MPD2    C3 8746   0.482   3.497  16.384  0.1448  0.2494  0.1750
  590MPD2    C4 8747   0.540   3.394  16.455  0.8749  0.1830 -0.1989
  590MPD2    C5 8748   0.459   3.302  16.522 -0.6740  0.1450  0.1852
  590MPD2     H 8749   0.310   3.622  16.373 -1.4841 -0.6853  0.4926
  590MPD2    H1 8750   0.642   3.358  16.452  1.0456  0.6145  0.3822
  590MPD2    H2 8751   0.274   3.258  16.604 -0.4237  1.2972  1.0131
  590MPD2    H3 8752   0.484   3.200  16.549 -1.7923 -0.0896  0.3596
  590MPD2     N 8753   0.558   3.593  16.312 -0.0082 -1.0108 -0.3614
  590MPD2    H5 8754   0.504   3.665  16.265 -0.7866 -1.4015 -0.0741
  590MPD2    N1 8755   0.134   3.470  16.495  0.2650 -0.9544 -0.2065
  590MPD2    H7 8756   0.101   3.552  16.444  0.2126 -0.4985  0.5622
  591TMC3    C1 8757   0.742   3.705  16.220 -0.7029 -0.2215 -0.4600
  591TMC3    C2 8758   0.846   3.676  16.129  0.6818 -0.1386  0.2181
  591TMC3    C3 8759   0.868   3.764  16.029 -0.5728 -0.2501 -0.3850
  591TMC3    C4 8760   0.664   3.813  16.210 -0.6129 -0.4195  0.2014
  591TMC3    C5 8761   0.691   3.905  16.111 -0.0733 -1.1377 -0.1324
  591TMC3    C6 8762   0.786   3.878  16.016 -0.3860  0.0495  0.7170
  591TMC3     C 8763   0.698   3.596  16.301  0.8717 -0.7750 -0.3608
  591TMC3     O 8764   0.784   3.510  16.331  0.2790  0.1852  0.0860
  591TMC3     H 8765   0.902   3.584  16.129  0.5843 -0.1973  0.4789
  591TMC3    H1 8766   0.601   3.846  16.292 -0.8253  0.6597 -0.3971
  591TMC3    H2 8767   0.802   3.943  15.931  0.7820 -1.3572 -0.1518
  591TMC3    C7 8768   0.580   3.993  16.087 -0.3757 -0.0115  0.4289
  591TMC3    C8 8769   0.936   3.714  15.913  0.7310  0.1714 -0.6313
  591TMC3    O1 8770   0.485   3.990  16.164  0.2044 -0.2226 -0.4593
  591TMC3    O2 8771   0.952   3.592  15.909  0.3205 -0.1643 -0.1711
  592MPD2     C 8772   0.543   0.963  11.046  0.3157  0.4239 -0.2416
  592MPD2    C1 8773   0.488   1.028  11.156 -0.7173  0.5992  1.0496
  592MPD2    C2 8774   0.398   0.966  11.234  1.1332  0.0379  0.7896
  592MPD2    C3 8775   0.365   0.831  11.216  0.7629  0.0916 -0.5405
  592MPD2    C4 8776   0.417   0.767  11.111 -0.2298 -0.2632 -0.3165
  592MPD2    C5 8777   0.504   0.833  11.027 -0.0671  0.2075 -0.3664
  592MPD2     H 8778   0.360   1.012  11.324  1.3718 -0.7856  1.3037
  592MPD2    H1 8779   0.394   0.664  11.085  1.2135  0.2470 -3.6095
  592MPD2    H2 8780   0.611   1.010  10.975 -0.3421  0.0379 -1.1206
  592MPD2    H3 8781   0.543   0.793  10.935 -1.0251  1.2015 -1.2165
  592MPD2     N 8782   0.277   0.769  11.307 -0.3337  0.1790 -0.5590
  592MPD2    H5 8783   0.232   0.833  11.371 -1.4827 -0.3442 -0.8383
  592MPD2    N1 8784   0.546   1.148  11.194 -0.0182 -0.2605  0.0892
  592MPD2    H7 8785   0.619   1.176  11.131 -2.0520  0.2904 -2.0147
  593TMC3    C1 8786   0.629   1.330  11.331 -0.4736  0.2508  0.1018
  593TMC3    C2 8787   0.603   1.421  11.429  0.3190 -0.0165 -0.3480
  593TMC3    C3 8788   0.685   1.526  11.443  0.0644 -0.1167 -0.0327
  593TMC3    C4 8789   0.734   1.343  11.241  0.6214  0.2311  0.3622
  593TMC3    C5 8790   0.807   1.459  11.255 -0.3166  0.4119  0.1547
  593TMC3    C6 8791   0.789   1.550  11.354 -0.3628  0.1337 -0.1493
  593TMC3     C 8792   0.534   1.219  11.318  0.5710  1.0075 -0.2490
  593TMC3     O 8793   0.446   1.216  11.401  0.1638  0.7932  0.1875
  593TMC3     H 8794   0.527   1.392  11.501 -0.0741  0.7370 -0.4620
  593TMC3    H1 8795   0.761   1.271  11.165  1.6766  0.7168  0.2774
  593TMC3    H2 8796   0.850   1.638  11.366 -0.2639  0.1749 -0.9787
  593TMC3    C7 8797   0.909   1.494  11.159  0.4540 -0.1600 -0.3183
  593TMC3    C8 8798   0.676   1.619  11.554  0.4881  0.2433  0.0945
  593TMC3    O1 8799   0.977   1.588  11.190  0.0145  0.3184 -0.3761
  593TMC3    O2 8800   0.574   1.683  11.572  0.0700 -0.3543 -0.5941
  594MPD2     C 8801   3.625   4.676  13.913  0.4053  0.3518  0.0132
  594MPD2    C1 8802   3.679   4.657  14.033  0.2002 -0.4822 -1.0379
  594MPD2    C2 8803   3.775   0.020  14.086  0.2660 -1.1480  0.0828
  594MPD2    C3 8804   3.826   0.123  14.006 -0.0266 -0.1596 -0.3138
  594MPD2    C4 8805   3.772   0.141  13.878 -0.7133 -1.1653 -0.5500
  594MPD2    C5 8806   3.676   0.051  13.835  0.0487 -0.3619  0.5538
  594MPD2     H 8807   3.809   0.011  14.188  2.1092  4.5989 -0.0195
  594MPD2    H1 8808   3.800   0.221  13.811  0.2247 -1.2168 -0.2162
  594MPD2    H2 8809   3.567   4.599  13.863 -1.2676  2.2417 -0.9711
  594MPD2    H3 8810   3.646   0.062  13.732 -0.7654 -0.3128  0.7987
  594MPD2     N 8811   3.921   0.211  14.067 -0.0722  0.4641 -0.6296
  594MPD2    H5 8812   3.939   0.199  14.166 -2.5083  1.0137 -0.1049
  594MPD2    N1 8813   3.618   4.549  14.108 -0.5291  0.1443 -0.1805
  594MPD2    H7 8814   3.540   4.497  14.069  1.6197 -0.4499 -3.6809
  595TMC3    C1 8815   4.344   0.410  14.100  0.1188 -0.2824 -0.1726
  595TMC3    C2 8816   4.244   0.343  14.027  0.4322 -0.2410  0.4967
  595TMC3    C3 8817   4.114   0.355  14.065  0.2838 -0.3166  0.7705
  595TMC3    C4 8818   4.317   0.457  14.229  0.7790 -0.6028 -0.2771
  595TMC3    C5 8819   4.179   0.458  14.264  0.2178 -0.3038 -0.0823
  595TMC3    C6 8820   4.079   0.419  14.181  0.3888  0.1230 -1.1359
  595TMC3     C 8821   4.474   0.350  14.086  0.3840  0.8217  0.6922
  595TMC3     O 8822   4.491   0.252  14.011 -0.1555 -0.2174  0.1599
  595TMC3     H 8823   4.263   0.309  13.926 -2.4753  2.9688 -1.1196
  595TMC3    H1 8824   4.389   0.493  14.302 -1.0106 -1.1685  1.7664
  595TMC3    H2 8825   3.976   0.423  14.213 -0.1119 -1.0968 -2.5990
  595TMC3    C7 8826   4.135   0.476  14.401  0.8690 -0.9930  0.5547
  595TMC3    C8 8827   4.009   0.288  13.990 -0.3917  0.5587  0.0180
  595TMC3    O1 8828   4.023   0.528  14.419 -0.4628 -0.2071 -0.0134
  595TMC3    O2 8829   4.026   0.277  13.866 -0.4290  0.1265 -0.5304
  596MPD2     C 8830   3.559   2.442  16.547 -0.2362  0.2491 -0.4242
  596MPD2    C1 8831   3.564   2.578  16.524 -0.2209  0.2233  0.3293
  596MPD2    C2 8832   3.588   2.619  16.392 -0.7408 -0.0758  0.2920
  596MPD2    C3 8833   3.605   2.527  16.290 -0.0244 -0.3646  0.1498
  596MPD2    C4 8834   3.603   2.389  16.320 -0.1106 -0.8019 -0.4346
  596MPD2    C5 8835   3.588   2.349  16.450  0.5792  0.3986  0.3634
  596MPD2     H 8836   3.579   2.725  16.372  0.0868  0.4139  2.5730
  596MPD2    H1 8837   3.611   2.319  16.237 -1.1951 -1.7127  0.2210
  596MPD2    H2 8838   3.545   2.396  16.645  1.3825  1.3291  0.3117
  596MPD2    H3 8839   3.584   2.243  16.474  0.7602  0.5421  1.0359
  596MPD2     N 8840   3.637   2.566  16.158  0.8192  0.4165  0.1003
  596MPD2    H5 8841   3.660   2.494  16.090  1.7694 -0.5327  1.4286
  596MPD2    N1 8842   3.533   2.677  16.619  0.6775  0.7143  0.1370
  596MPD2    H7 8843   3.531   2.777  16.600 -0.2294  0.2454 -2.2016
  597TMC3    C1 8844   3.467   2.761  16.827  0.4951 -0.7285 -0.6075
  597TMC3    C2 8845   3.567   2.849  16.811  0.1674  0.6367 -0.4554
  597TMC3    C3 8846   3.551   2.962  16.877  0.5862  0.0720 -0.8414
  597TMC3    C4 8847   3.357   2.772  16.904 -0.7728  0.2304 -0.0677
  597TMC3    C5 8848   3.347   2.893  16.969  0.3217 -0.1581 -0.0089
  597TMC3    C6 8849   3.439   2.992  16.956 -0.4927  0.5442 -0.4777
  597TMC3     C 8850   3.464   2.650  16.739 -0.3807  0.1304 -0.5777
  597TMC3     O 8851   3.412   2.552  16.776  0.1084  0.3117  0.3800
  597TMC3     H 8852   3.663   2.826  16.768  0.6170  1.0178  0.3411
  597TMC3    H1 8853   3.283   2.693  16.904 -0.6523  0.1114  1.3226
  597TMC3    H2 8854   3.429   3.083  17.015 -1.6351  0.1376 -0.0610
  597TMC3    C7 8855   3.238   2.913  17.059 -0.0032  0.7634 -0.3003
  597TMC3    C8 8856   3.654   3.057  16.883  0.1513  0.3138  0.1351
  597TMC3    O1 8857   3.189   2.820  17.118  0.5345  0.2631  0.1904
  597TMC3    O2 8858   3.657   3.130  16.981  0.1898 -0.1210  0.4248
  598TMC3    C1 8859   1.456   4.105  14.913 -0.1497  0.4241 -0.1463
  598TMC3    C2 8860   1.343   4.026  14.930  0.0919  0.2940  0.1539
  598TMC3    C3 8861   1.277   3.989  14.821 -0.2464 -0.0123  0.3497
  598TMC3    C4 8862   1.481   4.160  14.791  0.4247 -0.1508  0.3430
  598TMC3    C5 8863   1.397   4.134  14.689  0.1897  0.1698  0.5022
  598TMC3    C6 8864   1.301   4.040  14.698  0.1674 -0.1982 -0.1338
  598TMC3     C 8865   1.498   4.169  15.027 -0.8271 -0.4567 -0.2474
  598TMC3     O 8866   1.429   4.149  15.126 -0.9008  0.2887  0.5221
  598TMC3     H 8867   1.321   3.982  15.027  0.7614  1.9454  1.0552
  598TMC3    H1 8868   1.564   4.227  14.772 -1.3149  1.6179 -1.0368
  598TMC3    H2 8869   1.223   4.011  14.629 -1.1876 -0.1384  1.3583
  598TMC3    C7 8870   1.375   4.229  14.581  0.3242  0.0071 -0.0668
  598TMC3    C8 8871   1.154   3.910  14.837  0.2847 -1.0869  0.2021
  598TMC3    O1 8872   1.290   4.201  14.501  0.2474  0.7681  0.2806
  598TMC3    O2 8873   1.090   3.886  14.737 -0.3444 -0.1568 -0.0764
  599MPD2     C 8874   1.460   1.878  15.456 -0.0216  0.7761  0.5799
  599MPD2    C1 8875   1.517   1.785  15.547 -0.1151 -0.0523  0.1160
  599MPD2    C2 8876   1.458   1.766  15.676  0.0556  0.0142 -0.0023
  599MPD2    C3 8877   1.345   1.837  15.704  0.3943 -0.4274 -0.2326
  599MPD2    C4 8878   1.290   1.933  15.621  0.1141 -0.4854 -0.5540
  599MPD2    C5 8879   1.343   1.943  15.490  1.1577  0.2321  0.1539
  599MPD2     H 8880   1.504   1.702  15.751 -0.5521  0.1192  0.4625
  599MPD2    H1 8881   1.198   1.987  15.640  1.9862  2.1821  0.9822
  599MPD2    H2 8882   1.496   1.891  15.354 -1.8687 -0.1131 -0.1947
  599MPD2    H3 8883   1.293   2.010  15.420 -0.3396  0.3098  1.3114
  599MPD2     N 8884   1.286   1.822  15.832  0.5457  0.6374 -0.4426
  599MPD2    H5 8885   1.232   1.904  15.858 -0.2962 -0.3996  1.0326
  599MPD2    N1 8886   1.629   1.712  15.505  0.4503  0.2382 -1.1863
  599MPD2    H7 8887   1.665   1.749  15.418  2.8279  0.6289 -0.0344
  600TMC3    C1 8888   1.205   1.713  16.031 -0.3514  0.3416  0.3945
  600TMC3    C2 8889   1.162   1.596  16.079  0.4237 -0.6103 -0.0464
  600TMC3    C3 8890   1.126   1.596  16.207  0.3841  0.0642  0.3915
  600TMC3    C4 8891   1.212   1.826  16.108  0.1450 -0.2111 -0.0879
  600TMC3    C5 8892   1.174   1.822  16.242  0.5294 -0.7015  0.0865
  600TMC3    C6 8893   1.124   1.705  16.289 -0.4860 -0.6064 -0.2327
  600TMC3     C 8894   1.289   1.708  15.915  0.0445 -0.4472 -0.6863
  600TMC3     O 8895   1.346   1.597  15.895 -0.3216  0.3553 -0.2048
  600TMC3     H 8896   1.168   1.501  16.027 -0.1053 -0.1085 -1.0141
  600TMC3    H1 8897   1.258   1.917  16.071  0.6016 -0.8037 -0.9594
  600TMC3    H2 8898   1.109   1.678  16.393  0.2759  2.3040  0.6325
  600TMC3    C7 8899   1.175   1.932  16.331  0.4150 -0.1080  0.1482
  600TMC3    C8 8900   1.124   1.467  16.277 -1.2606 -0.6094  0.6131
  600TMC3    O1 8901   1.089   1.927  16.417  0.2106  0.1735  0.0532
  600TMC3    O2 8902   1.187   1.467  16.378  0.5031 -0.1094 -0.6060
  601MPD2     C 8903   3.473   4.669   0.382  0.1643 -0.2375  0.3550
  601MPD2    C1 8904   3.471   4.601   0.265 -0.4200 -0.3193  0.4618
  601MPD2    C2 8905   3.533   4.477   0.256  0.3659 -0.5235 -0.4076
  601MPD2    C3 8906   3.595   4.417   0.365 -0.2875 -0.7016 -0.0436
  601MPD2    C4 8907   3.594   4.492   0.479  0.4934 -0.4054 -0.1156
  601MPD2    C5 8908   3.525   4.603   0.490  0.2024 -0.3848 -1.1825
  601MPD2     H 8909   3.533   4.428   0.159 -0.4611  0.2844 -0.8193
  601MPD2    H1 8910   3.643   4.467   0.572 -0.5338 -2.0674 -0.0202
  601MPD2    H2 8911   3.432   0.041   0.404  0.0773 -0.4069  0.9333
  601MPD2    H3 8912   3.510   4.653   0.585 -1.6830 -2.1143 -0.5666
  601MPD2     N 8913   3.662   4.292   0.354  0.3419 -0.6984 -0.2049
  601MPD2    H5 8914   3.720   4.268   0.433  1.5254 -2.6512 -1.6667
  601MPD2    N1 8915   3.420   4.652   0.142  1.6869  0.3351 -0.5447
  601MPD2    H7 8916   3.446   4.606   0.055 -3.4622 -1.1614 -1.2660
  602TMC3    C1 8917   3.362   0.073  17.686 -0.6949  0.0618 -0.3284
  602TMC3    C2 8918   3.372   0.204  17.651  0.1968  0.3114 -0.5611
  602TMC3    C3 8919   3.288   0.242  17.552  0.6004 -0.3771  0.5031
  602TMC3    C4 8920   3.299   4.706  17.615  0.0664  0.1187  0.6950
  602TMC3    C5 8921   3.220   0.024  17.512 -0.2835 -0.2773 -0.4978
  602TMC3    C6 8922   3.216   0.155  17.478  0.2010  0.1766  0.0037
  602TMC3     C 8923   3.365   0.052   0.120 -0.6707  0.5079  0.2118
  602TMC3     O 8924   3.320   0.125   0.203 -0.3017  0.0106 -0.4951
  602TMC3     H 8925   3.411   0.282   0.008 -0.6753 -0.2258  0.6382
  602TMC3    H1 8926   3.306   4.603  17.647 -2.2120  0.3977  2.0498
  602TMC3    H2 8927   3.169   0.191  17.387 -1.3863 -0.6932  0.4842
  602TMC3    C7 8928   3.103   4.669  17.494  0.1593  0.6839 -1.1788
  602TMC3    C8 8929   3.271   0.385  17.529 -0.0332 -0.4901 -0.1304
  602TMC3    O1 8930   3.096   4.566  17.562  0.6168  0.2042 -0.1776
  602TMC3    O2 8931   3.368   0.458  17.548  0.3246 -0.4031 -0.4458
  603TMC3    C1 8932   1.819   0.502  10.902 -0.6271 -0.3729 -0.0301
  603TMC3    C2 8933   1.811   0.584  11.013 -0.4409 -1.1842  0.2968
  603TMC3    C3 8934   1.718   0.685  11.016  0.0653  0.5902 -0.5406
  603TMC3    C4 8935   1.753   0.536  10.786 -0.6173  0.0555 -0.2752
  603TMC3    C5 8936   1.679   0.650  10.788  0.2641 -0.3613 -0.2982
  603TMC3    C6 8937   1.663   0.724  10.900 -0.7331 -1.2579  0.4819
  603TMC3     C 8938   1.842   0.362  10.927 -0.2440 -0.8350 -0.3009
  603TMC3     O 8939   1.846   0.323  11.045  0.0494  0.4793 -0.0263
  603TMC3     H 8940   1.870   0.559  11.100 -0.8478  0.1721  0.9625
  603TMC3    H1 8941   1.772   0.471  10.701  1.2993 -1.5946  1.4116
  603TMC3    H2 8942   1.590   0.803  10.890 -0.1714 -0.6995  0.7736
  603TMC3    C7 8943   1.649   0.712  10.667 -0.3353  0.0371  0.3658
  603TMC3    C8 8944   1.645   0.690  11.141  0.1267 -0.2824 -0.1855
  603TMC3    O1 8945   1.537   0.760  10.646  0.1910  0.2583 -0.4774
  603TMC3    O2 8946   1.688   0.617  11.231  0.1962  0.8091 -0.8430
  604MPD2     C 8947   1.963   4.043  15.756 -0.6586 -0.7779 -0.0517
  604MPD2    C1 8948   2.077   4.045  15.833  0.1825 -0.6299 -0.2031
  604MPD2    C2 8949   2.197   4.014  15.771  0.1048  0.4616  0.2181
  604MPD2    C3 8950   2.205   3.986  15.634  0.6208  0.2805  0.1185
  604MPD2    C4 8951   2.089   3.983  15.565  0.1948  0.4429 -0.1267
  604MPD2    C5 8952   1.969   4.008  15.626 -1.0496 -0.2979  0.7040
  604MPD2     H 8953   2.287   4.028  15.828  2.2158 -2.9910 -2.2429
  604MPD2    H1 8954   2.091   3.958  15.460 -0.1974  0.0973 -0.0514
  604MPD2    H2 8955   1.865   4.061  15.800  0.0560  1.8413  0.4489
  604MPD2    H3 8956   1.877   4.002  15.569 -1.3042 -1.6220  1.2486
  604MPD2     N 8957   2.322   3.962  15.564  0.1093  0.2328  0.3940
  604MPD2    H5 8958   2.321   3.942  15.464  1.1308 -1.7078  0.7696
  604MPD2    N1 8959   2.063   4.061  15.974  0.0554  0.1680  0.1120
  604MPD2    H7 8960   1.970   4.083  16.007 -0.7126 -1.1544 -1.1979
  605TMC3    C1 8961   2.121   4.125  16.186 -0.0771 -0.0562  0.6928
  605TMC3    C2 8962   2.198   4.091  16.301 -0.0725 -0.0441  0.0357
  605TMC3    C3 8963   2.167   4.159  16.418 -0.2543 -0.9048 -0.0295
  605TMC3    C4 8964   2.023   4.222  16.190 -0.2068 -0.0444  0.8094
  605TMC3    C5 8965   1.999   4.275  16.314 -0.0795 -1.0834  0.1413
  605TMC3    C6 8966   2.069   4.249  16.428 -0.1754 -0.3708 -0.7402
  605TMC3     C 8967   2.169   4.079  16.061  0.3103  0.1590 -0.6377
  605TMC3     O 8968   2.287   4.054  16.052  0.2985  0.3405 -0.1987
  605TMC3     H 8969   2.280   4.020  16.299  0.9528  1.1696 -1.7171
  605TMC3    H1 8970   1.974   4.252  16.097  0.1760 -0.1596  0.5690
  605TMC3    H2 8971   2.045   4.311  16.514 -0.4566  0.6084 -1.5251
  605TMC3    C7 8972   1.900   4.378  16.322  0.3885 -0.3741  0.8029
  605TMC3    C8 8973   2.233   4.103  16.534  0.6960  0.7452 -0.0990
  605TMC3    O1 8974   1.900   4.450  16.423 -0.4949 -0.0864  0.5719
  605TMC3    O2 8975   2.246   3.979  16.540 -0.1714 -0.0202 -0.7085
  606TMC3    C1 8976   3.440   1.890  17.283  0.6122  0.1748  0.0329
  606TMC3    C2 8977   3.536   1.887  17.376 -0.3581  0.6178  0.6196
  606TMC3    C3 8978   3.594   1.773  17.412 -0.2456  0.1871  0.1342
  606TMC3    C4 8979   3.395   1.779  17.213  0.0595 -0.1927  0.2248
  606TMC3    C5 8980   3.451   1.659  17.262  0.5248 -0.3834  0.2518
  606TMC3    C6 8981   3.552   1.655  17.350 -0.3987  0.1102 -0.5899
  606TMC3     C 8982   3.391   2.016  17.226  0.1840 -0.6797 -0.2480
  606TMC3     O 8983   3.318   2.009  17.129  0.2167  0.2716 -0.6570
  606TMC3     H 8984   3.586   1.979  17.404  2.4236 -1.1069  1.3044
  606TMC3    H1 8985   3.332   1.777  17.124 -0.7397 -1.7175  0.8204
  606TMC3    H2 8986   3.574   1.563  17.403  0.3383  0.8500  0.3830
  606TMC3    C7 8987   3.414   1.524  17.214  0.8455 -0.0649 -0.1162
  606TMC3    C8 8988   3.723   1.786  17.477  0.2739  0.5231  1.0360
  606TMC3    O1 8989   3.458   1.423  17.270  0.2079  0.3843 -0.1323
  606TMC3    O2 8990   3.806   1.874  17.452 -0.4460  0.2100  0.5695
  607MPD2     C 8991   0.868   0.139  11.232 -0.1902 -0.7605 -0.3794
  607MPD2    C1 8992   0.773   0.220  11.300  0.5162 -0.8683 -0.1435
  607MPD2    C2 8993   0.697   0.155  11.394  0.1264  0.6076 -0.4045
  607MPD2    C3 8994   0.711   0.023  11.422  0.3843  0.2438 -0.2105
  607MPD2    C4 8995   0.810   4.671  11.372 -0.1867 -0.2883 -1.3459
  607MPD2    C5 8996   0.894   0.010  11.281  0.2398 -0.1497 -0.2319
  607MPD2     H 8997   0.621   0.209  11.449 -0.5675 -0.7941  0.0268
  607MPD2    H1 8998   0.826   4.564  11.381  0.8872 -0.1223 -1.3029
  607MPD2    H2 8999   0.950   0.174  11.170  0.1185 -0.3221  0.2687
  607MPD2    H3 9000   0.980   4.689  11.236 -0.3426 -0.6341 -0.8466
  607MPD2     N 9001   0.620   4.705  11.515 -0.2583 -0.2125  0.0053
  607MPD2    H5 9002   0.554   0.052  11.537  1.0325  0.8923  0.2306
  607MPD2    N1 9003   0.741   0.354  11.266 -0.3882 -0.4514 -0.0738
  607MPD2    H7 9004   0.678   0.398  11.332  0.6444  1.1092 -0.1189
  608TMC3    C1 9005   0.770   0.566  11.183 -0.4910  0.6361 -0.2782
  608TMC3    C2 9006   0.666   0.593  11.263 -0.1546 -0.4189  0.6670
  608TMC3    C3 9007   0.660   0.729  11.310  0.6182 -0.0047 -0.6049
  608TMC3    C4 9008   0.854   0.665  11.140 -0.0524  0.4911 -0.2968
  608TMC3    C5 9009   0.856   0.786  11.196  0.4945 -0.0736  0.6246
  608TMC3    C6 9010   0.759   0.820  11.287  0.2040  0.7135  0.1188
  608TMC3     C 9011   0.799   0.425  11.165  0.0649  0.0495 -0.4418
  608TMC3     O 9012   0.878   0.396  11.075  0.1335 -0.5197  0.3050
  608TMC3     H 9013   0.575   0.536  11.249 -0.7032  0.4734  0.5910
  608TMC3    H1 9014   0.927   0.641  11.063  0.7016  0.2499  0.4908
  608TMC3    H2 9015   0.743   0.917  11.333 -0.5812  0.3592  0.5925
  608TMC3    C7 9016   0.946   0.886  11.142  0.5029  0.0460  0.6843
  608TMC3    C8 9017   0.600   0.744  11.445 -1.0052  0.3099  0.3730
  608TMC3    O1 9018   1.005   0.858  11.035 -0.3200 -0.1780 -0.4512
  608TMC3    O2 9019   0.591   0.856  11.487 -0.4806 -0.0372 -0.0555
  609TMC3    C1 9020   0.084   4.044   9.501 -0.6388 -0.2960  0.6615
  609TMC3    C2 9021   0.123   3.939   9.424 -0.0706  0.5160 -0.1842
  609TMC3    C3 9022   0.257   3.909   9.417  0.3178  0.5196 -0.2011
  609TMC3    C4 9023   0.168   4.090   9.597 -0.1435  0.0166 -0.0813
  609TMC3    C5 9024   0.298   4.049   9.599 -0.4991 -0.1123  0.2396
  609TMC3    C6 9025   0.351   3.965   9.501  0.2068  0.3006 -0.9750
  609TMC3     C 9026   4.669   4.046   9.528 -0.3482  0.6544 -0.3366
  609TMC3     O 9027   4.636   4.055   9.648  0.1938  0.1752 -0.2239
  609TMC3     H 9028   0.060   3.906   9.341 -2.2625  0.8068  1.3580
  609TMC3    H1 9029   0.121   4.160   9.666 -2.4988 -2.4704  0.8844
  609TMC3    H2 9030   0.453   3.929   9.487  0.7110  0.8666  1.1811
  609TMC3    C7 9031   0.386   4.069   9.716 -0.1071 -0.1832 -0.3469
  609TMC3    C8 9032   0.293   3.845   9.292 -0.2235  0.6719 -0.5524
  609TMC3    O1 9033   0.367   4.161   9.792 -0.1931  0.2973  0.2551
  609TMC3    O2 9034   0.210   3.782   9.231 -0.2301 -0.2529  0.2624
  610TMC3    C1 9035   0.841   0.491  12.653  0.5296  0.2209 -0.5836
  610TMC3    C2 9036   0.856   0.510  12.515 -0.1534 -0.0841  0.3103
  610TMC3    C3 9037   0.978   0.477  12.461  0.4553  0.7061  0.3135
  610TMC3    C4 9038   0.939   0.424  12.731 -0.4920 -0.2914  0.2770
  610TMC3    C5 9039   1.055   0.381  12.663  0.5601 -0.3118  0.0399
  610TMC3    C6 9040   1.073   0.404  12.534 -0.3634  0.7508  0.4661
  610TMC3     C 9041   0.746   0.571  12.731 -0.5304 -0.0736 -0.2614
  610TMC3     O 9042   0.720   0.528  12.844  0.1561  0.0217  0.0767
  610TMC3     H 9043   0.774   0.552  12.458 -0.1262  1.9440  1.7723
  610TMC3    H1 9044   0.939   0.437  12.839  1.7918  0.4317  0.1753
  610TMC3    H2 9045   1.164   0.379  12.481 -0.6882  1.4718 -0.4399
  610TMC3    C7 9046   1.174   0.335  12.732 -0.6526 -0.9142 -0.6876
  610TMC3    C8 9047   1.008   0.543  12.335  0.7328 -0.3857 -0.5189
  610TMC3    O1 9048   1.275   0.309  12.662 -0.1886  0.2878  1.1331
  610TMC3    O2 9049   0.913   0.566  12.260  0.0493 -0.0133  0.0843
  611MPD2     C 9050   0.818   0.204  10.164  1.1022 -0.1078  0.2766
  611MPD2    C1 9051   0.764   0.316  10.099 -0.4290 -0.2958 -0.2741
  611MPD2    C2 9052   0.858   0.406  10.042  0.1176 -0.0104  0.6978
  611MPD2    C3 9053   0.996   0.377  10.059  0.4768 -0.5513 -0.6753
  611MPD2    C4 9054   1.040   0.272  10.136 -0.0345  0.3846  0.3600
  611MPD2    C5 9055   0.953   0.188  10.187  0.2640  0.8184 -0.1823
  611MPD2     H 9056   0.829   0.499   9.995  1.5928 -0.2282 -0.6423
  611MPD2    H1 9057   1.143   0.251  10.162  0.1554 -0.5467 -1.1142
  611MPD2    H2 9058   0.755   0.122  10.196  0.8010  0.4904  1.2376
  611MPD2    H3 9059   0.988   0.102  10.243 -1.0753  0.0598 -0.4889
  611MPD2     N 9060   1.101   0.450  10.014 -0.4925  0.4523 -0.4374
  611MPD2    H5 9061   1.192   0.419  10.048 -0.3200  2.0780  0.5894
  611MPD2    N1 9062   0.620   0.326  10.098 -0.1037  0.3975 -0.2718
  611MPD2    H7 9063   0.574   0.250  10.146 -0.5400  0.3112 -0.8251
  612TMC3    C1 9064   1.214   0.614   9.889  0.2456  0.1203  0.8054
  612TMC3    C2 9065   1.311   0.629   9.983  0.2013 -0.3758 -0.0499
  612TMC3    C3 9066   1.417   0.699   9.942 -0.4181 -0.1549  0.5728
  612TMC3    C4 9067   1.215   0.664   9.764 -0.6052  0.4722  0.0942
  612TMC3    C5 9068   1.331   0.726   9.720  0.7168 -0.0453 -0.0796
  612TMC3    C6 9069   1.430   0.745   9.808  0.3799  0.4191  0.4407
  612TMC3     C 9070   1.091   0.557   9.929  0.3650  0.0747 -0.0499
  612TMC3     O 9071   0.994   0.603   9.872 -0.1060  0.2764  0.4034
  612TMC3     H 9072   1.309   0.591  10.085  1.0924 -0.3919 -0.0325
  612TMC3    H1 9073   1.132   0.667   9.694  0.0234  1.6082 -0.5988
  612TMC3    H2 9074   1.519   0.802   9.784  0.0599  0.5880 -0.3354
  612TMC3    C7 9075   1.313   0.847   9.658 -0.8709 -0.2807  0.5551
  612TMC3    C8 9076   1.546   0.684  10.012 -0.3106 -0.1587  0.7894
  612TMC3    O1 9077   1.405   0.881   9.588 -0.1357  0.0939  0.0163
  612TMC3    O2 9078   1.642   0.673   9.933 -0.1008  0.3536 -0.5314
  613MPD2     C 9079   0.243   2.749  16.097  0.1057  0.2207  0.1844
  613MPD2    C1 9080   0.140   2.773  16.009 -0.2348 -0.0164 -0.3833
  613MPD2    C2 9081   0.071   2.665  15.955 -0.0895 -0.0169  0.1904
  613MPD2    C3 9082   0.115   2.535  15.980  0.4924  1.0186  0.5349
  613MPD2    C4 9083   0.220   2.510  16.077  0.3113  0.6213 -0.4147
  613MPD2    C5 9084   0.278   2.625  16.133 -0.1502 -0.1977 -0.2103
  613MPD2     H 9085   4.718   2.671  15.881 -0.3455  0.3757  0.5037
  613MPD2    H1 9086   0.262   2.413  16.097  2.3493  1.3587 -1.1397
  613MPD2    H2 9087   0.303   2.830  16.137 -1.4939  0.1549  2.6841
  613MPD2    H3 9088   0.374   2.610  16.181  0.8418  2.1305 -1.4930
  613MPD2     N 9089   0.077   2.412  15.910  0.0463 -0.7320 -0.5282
  613MPD2    H5 9090   0.135   2.330  15.922 -0.4194 -1.2484 -1.8093
  613MPD2    N1 9091   0.116   2.907  15.968 -0.2371 -0.7664 -0.0742
  613MPD2    H7 9092   0.183   2.981  15.989  0.3416 -1.2043 -0.3750
  614TMC3    C1 9093   0.045   3.073  15.819  0.2969 -0.2094 -0.8855
  614TMC3    C2 9094   0.161   3.050  15.755  0.5567  0.3595 -0.2867
  614TMC3    C3 9095   0.172   3.041  15.618 -0.0353 -0.2608 -0.8070
  614TMC3    C4 9096   4.660   3.110  15.743 -0.0289 -0.6327 -0.1060
  614TMC3    C5 9097   4.676   3.116  15.610 -0.0390 -0.2744  0.6542
  614TMC3    C6 9098   0.063   3.076  15.543 -0.1249 -0.3802  0.4468
  614TMC3     C 9099   0.010   2.949  15.884  0.3353 -0.7669 -0.4076
  614TMC3     O 9100   4.632   2.892  15.842 -0.0209 -0.2378  0.2642
  614TMC3     H 9101   0.250   3.023  15.811  1.0196 -2.5122 -2.4091
  614TMC3    H1 9102   4.569   3.143  15.791  2.0569  1.7523  2.1730
  614TMC3    H2 9103   0.074   3.085  15.435 -0.2677 -0.4088  0.4292
  614TMC3    C7 9104   4.550   3.119  15.539  0.0360  0.4978 -0.5875
  614TMC3    C8 9105   0.267   2.930  15.571  0.5371 -0.4252 -0.7464
  614TMC3    O1 9106   4.483   3.217  15.570 -0.0126 -0.2337 -0.9050
  614TMC3    O2 9107   0.305   2.854  15.659  0.3635  0.1360 -0.2687
  615MPD2     C 9108   4.150   4.113  16.386  0.0166  0.1599 -0.3325
  615MPD2    C1 9109   4.172   4.214  16.292 -0.2620 -0.4023  0.0759
  615MPD2    C2 9110   4.194   4.177  16.162 -0.6184  0.4454 -0.2905
  615MPD2    C3 9111   4.183   4.044  16.122  0.4021 -0.6423  0.7162
  615MPD2    C4 9112   4.163   3.945  16.218  0.8798 -0.8152  0.2787
  615MPD2    C5 9113   4.156   3.980  16.353  0.6270  0.7314  0.0056
  615MPD2     H 9114   4.197   4.260  16.092 -0.5025 -0.7046 -1.6393
  615MPD2    H1 9115   4.168   3.839  16.194  1.9647 -0.3058 -1.7999
  615MPD2    H2 9116   4.131   4.132  16.491  1.4851 -0.2659  0.0034
  615MPD2    H3 9117   4.153   3.901  16.428 -1.4461 -0.1999 -1.0604
  615MPD2     N 9118   4.180   3.996  15.985 -0.3248 -0.4805  0.4688
  615MPD2    H5 9119   4.148   3.901  15.969  2.4991 -0.7936 -3.3298
  615MPD2    N1 9120   4.139   4.344  16.321  0.0430  0.0197  0.4462
  615MPD2    H7 9121   4.178   4.418  16.262  2.4596  0.3198  2.4362
  616TMC3    C1 9122   4.097   4.520  16.459  0.0972  0.3473  0.0618
  616TMC3    C2 9123   4.203   4.582  16.398 -0.5400 -0.3403  0.7518
  616TMC3    C3 9124   4.192   4.713  16.372  0.0635  0.5146 -0.2849
  616TMC3    C4 9125   3.981   4.587  16.483  0.0543  0.1019  0.1936
  616TMC3    C5 9126   3.967   4.717  16.436  1.2051 -0.3289 -0.0119
  616TMC3    C6 9127   4.074   0.059  16.385 -0.1570  0.0678  0.0308
  616TMC3     C 9128   4.088   4.383  16.435 -0.2490 -0.4546  0.1612
  616TMC3     O 9129   4.003   4.325  16.495 -0.6156 -0.7185 -0.0375
  616TMC3     H 9130   4.289   4.516  16.401  0.3148  0.7321  0.0092
  616TMC3    H1 9131   3.892   4.530  16.506 -0.7170  1.3467  0.3009
  616TMC3    H2 9132   4.060   0.160  16.348 -0.2236  0.8161  2.0967
  616TMC3    C7 9133   3.830   0.041  16.407  0.2022 -0.4477  0.3227
  616TMC3    C8 9134   4.295   0.056  16.299  0.0701  0.4208 -0.0447
  616TMC3    O1 9135   3.816   0.133  16.323  0.6205 -0.1287 -0.3153
  616TMC3    O2 9136   4.279   0.179  16.287 -0.4272 -0.4412  0.4871
  617MPD2     C 9137   1.946   2.273  13.603 -0.3507  0.3510 -0.1995
  617MPD2    C1 9138   1.923   2.162  13.681  0.2720 -0.0848 -0.3578
  617MPD2    C2 9139   1.793   2.129  13.708  0.3601 -0.2406 -0.2911
  617MPD2    C3 9140   1.689   2.191  13.656 -0.7451 -0.2785  0.7591
  617MPD2    C4 9141   1.713   2.291  13.568 -0.4339  0.3724  0.8084
  617MPD2    C5 9142   1.840   2.328  13.545 -0.9521  0.4551 -0.5269
  617MPD2     H 9143   1.767   2.052  13.780  1.1627  0.2564  0.5270
  617MPD2    H1 9144   1.642   2.342  13.505  1.1638 -0.5732 -1.7712
  617MPD2    H2 9145   2.047   2.309  13.584 -0.1496 -0.5503 -0.8303
  617MPD2    H3 9146   1.863   2.406  13.473  1.6783  0.5518  0.4494
  617MPD2     N 9147   1.562   2.137  13.678 -0.1510  0.0557 -0.2939
  617MPD2    H5 9148   1.566   2.057  13.740  0.5760  0.1457 -0.2245
  617MPD2    N1 9149   2.033   2.093  13.743  0.6684  0.7315  0.3901
  617MPD2    H7 9150   2.123   2.138  13.742 -0.2139  2.5151  1.3017
  618TMC3    C1 9151   2.176   1.916  13.806  0.5918  0.4823 -0.4849
  618TMC3    C2 9152   2.206   1.794  13.757 -0.4612 -0.7350 -0.4352
  618TMC3    C3 9153   2.326   1.740  13.795  0.0351  0.3740 -0.4510
  618TMC3    C4 9154   2.244   1.973  13.903 -0.0625  0.5474 -0.3257
  618TMC3    C5 9155   2.370   1.915  13.943 -0.2982  0.2929 -0.0345
  618TMC3    C6 9156   2.410   1.801  13.884  0.4789 -0.3769 -0.6543
  618TMC3     C 9157   2.037   1.960  13.785 -0.0577 -0.2149  0.1939
  618TMC3     O 9158   1.954   1.871  13.771  0.2354  0.0626 -0.3813
  618TMC3     H 9159   2.145   1.744  13.682  0.2331 -2.4194  0.1315
  618TMC3    H1 9160   2.213   2.063  13.953 -0.3397  1.0014 -1.3205
  618TMC3    H2 9161   2.497   1.762  13.936 -0.6553 -0.7280  0.9887
  618TMC3    C7 9162   2.468   2.016  13.997  0.4351 -1.0296  0.0172
  618TMC3    C8 9163   2.397   1.699  13.680 -1.2761 -0.9344  0.7608
  618TMC3    O1 9164   2.422   2.085  14.085  0.0336 -0.1374 -0.0992
  618TMC3    O2 9165   2.336   1.685  13.574  0.4652 -0.0685 -0.7740
  619MPD2     C 9166   3.245   3.744  13.616  0.3080 -0.4094 -0.4992
  619MPD2    C1 9167   3.124   3.790  13.580  0.4818 -0.0932  0.6273
  619MPD2    C2 9168   3.007   3.720  13.616  0.0148  0.3221 -0.6915
  619MPD2    C3 9169   3.016   3.603  13.689 -0.0284  0.1033  0.4930
  619MPD2    C4 9170   3.138   3.553  13.724 -0.2841 -0.0919 -0.2002
  619MPD2    C5 9171   3.254   3.625  13.689  0.4090  0.5773  0.4079
  619MPD2     H 9172   2.908   3.755  13.592 -0.9009 -1.4905  0.4594
  619MPD2    H1 9173   3.159   3.462  13.779  1.6685 -0.3059 -1.2807
  619MPD2    H2 9174   3.341   3.795  13.604  1.7751 -3.1571 -0.3445
  619MPD2    H3 9175   3.354   3.586  13.702  1.1280  2.5736  0.9321
  619MPD2     N 9176   2.910   3.516  13.726 -0.2591  0.2123  0.2912
  619MPD2    H5 9177   2.936   3.433  13.778  0.9152  0.1933 -0.3251
  619MPD2    N1 9178   3.105   3.920  13.521  0.3532 -0.2211  0.3921
  619MPD2    H7 9179   3.009   3.939  13.495  0.7637  0.0905 -0.9072
  620TMC3    C1 9180   3.136   4.131  13.440  0.1462  0.2169  0.0449
  620TMC3    C2 9181   3.021   4.110  13.364  0.0718  0.4463 -0.5228
  620TMC3    C3 9182   2.953   4.219  13.328 -0.1679 -0.4404  0.1206
  620TMC3    C4 9183   3.184   4.256  13.485 -0.1999 -0.0414 -0.5438
  620TMC3    C5 9184   3.106   4.358  13.444  0.4595 -0.1384  0.0227
  620TMC3    C6 9185   2.996   4.342  13.364 -0.0324  0.5629 -1.0911
  620TMC3     C 9186   3.192   4.020  13.513 -0.0288 -0.2938 -0.5737
  620TMC3     O 9187   3.306   4.022  13.560  0.1941 -0.2457 -0.4008
  620TMC3     H 9188   2.996   4.009  13.335 -0.6977 -0.2148  2.4157
  620TMC3    H1 9189   3.268   4.261  13.554 -0.7628  0.3860  0.1196
  620TMC3    H2 9190   2.936   4.429  13.338 -2.5040 -0.2875  1.7299
  620TMC3    C7 9191   3.083   4.459  13.544  0.0814 -0.9061  0.2146
  620TMC3    C8 9192   2.809   4.213  13.338  0.2597 -1.0353 -0.3933
  620TMC3    O1 9193   3.019   4.557  13.506  0.1946  0.4203  0.2880
  620TMC3    O2 9194   2.762   4.298  13.411 -0.0839  0.1873  0.6274
  621MPD2     C 9195   3.841   4.137  10.314  0.6496 -0.1767 -0.3029
  621MPD2    C1 9196   3.963   4.077  10.311  0.2035  0.0755  0.1430
  621MPD2    C2 9197   4.041   4.111  10.203  0.2895 -0.1899 -0.6284
  621MPD2    C3 9198   4.002   4.194  10.098  0.9544 -0.6999  0.0128
  621MPD2    C4 9199   3.881   4.247  10.100  0.3546  0.4760  0.3297
  621MPD2    C5 9200   3.805   4.228  10.212  0.0170  0.7580 -0.0916
  621MPD2     H 9201   4.134   4.056  10.192 -0.3715 -1.4610  0.3012
  621MPD2    H1 9202   3.840   4.312  10.024  0.2329  2.1276  1.7993
  621MPD2    H2 9203   3.765   4.114  10.387  0.9910  0.2593  0.1868
  621MPD2    H3 9204   3.705   4.270  10.222 -1.2085 -1.9532 -1.0269
  621MPD2     N 9205   4.100   4.198   9.996 -0.1708 -0.3261  0.1735
  621MPD2    H5 9206   4.187   4.145  10.008  0.0927  0.0307 -0.1762
  621MPD2    N1 9207   4.010   3.979  10.399  0.4371  0.0174 -0.0268
  621MPD2    H7 9208   4.094   3.930  10.371  0.7855  2.7679 -3.8344
  622TMC3    C1 9209   3.990   3.790  10.527  0.2988 -0.0735 -0.2900
  622TMC3    C2 9210   3.881   3.717  10.527 -0.0609  0.2017 -0.2364
  622TMC3    C3 9211   3.885   3.600  10.451 -0.3181 -0.0449  0.8530
  622TMC3    C4 9212   4.111   3.760  10.467  0.1313 -0.1478  0.0240
  622TMC3    C5 9213   4.105   3.648  10.392  0.0365 -0.1857  0.4072
  622TMC3    C6 9214   3.995   3.570  10.375  0.7283 -0.5507 -1.2582
  622TMC3     C 9215   3.944   3.924  10.507 -0.3700 -0.0093 -0.2370
  622TMC3     O 9216   3.851   3.970  10.568  0.0384 -0.6253 -0.2801
  622TMC3     H 9217   3.806   3.735  10.604  0.6688 -0.2804  0.5835
  622TMC3    H1 9218   4.198   3.818  10.494 -0.6117  0.3191  1.4450
  622TMC3    H2 9219   3.996   3.481  10.314 -1.5607 -0.4984 -1.3924
  622TMC3    C7 9220   4.233   3.613  10.346 -0.1639 -0.2125 -0.3384
  622TMC3    C8 9221   3.761   3.521  10.422 -0.0124  0.1508  0.2569
  622TMC3    O1 9222   4.325   3.631  10.427  0.3455  0.2651  0.4434
  622TMC3    O2 9223   3.767   3.437  10.334  0.1248 -0.5887 -0.1579
  623MPD2     C 9224   2.646   3.742  16.240  0.0096 -0.0410  0.1339
  623MPD2    C1 9225   2.635   3.845  16.324  0.4281 -0.2288  0.3757
  623MPD2    C2 9226   2.653   3.809  16.458 -0.6655  0.3102  0.4014
  623MPD2    C3 9227   2.668   3.678  16.503  0.7464  0.1178  0.2679
  623MPD2    C4 9228   2.679   3.581  16.407 -0.0493 -0.0211 -0.3207
  623MPD2    C5 9229   2.663   3.616  16.279  0.6400 -0.3026  0.3355
  623MPD2     H 9230   2.660   3.896  16.522  0.2785  0.6641 -0.1877
  623MPD2    H1 9231   2.696   3.476  16.429  1.1088  0.5361  1.4188
  623MPD2    H2 9232   2.633   3.755  16.133 -2.7127  2.4433  0.7783
  623MPD2    H3 9233   2.668   3.535  16.207  2.6241  0.5825 -0.5069
  623MPD2     N 9234   2.699   3.653  16.640  0.1612  0.1092  0.0752
  623MPD2    H5 9235   2.720   3.735  16.695  0.1991  0.4360 -0.4299
  623MPD2    N1 9236   2.598   3.976  16.279 -0.2352 -0.2889  1.0823
  623MPD2    H7 9237   2.580   3.974  16.179  0.6953 -2.9371  0.9848
  624TMC3    C1 9238   2.911   3.641  16.999 -0.0590  0.5881 -0.4400
  624TMC3    C2 9239   2.822   3.735  17.044 -0.1240  0.4165 -0.0140
  624TMC3    C3 9240   2.701   3.746  16.993 -0.5863  0.5186 -0.1671
  624TMC3    C4 9241   2.878   3.553  16.900 -0.0963 -0.6257  0.1915
  624TMC3    C5 9242   2.751   3.572  16.841 -0.0416  0.3422 -0.4535
  624TMC3    C6 9243   2.662   3.673  16.880 -0.0418  0.1600 -0.5492
  624TMC3     C 9244   3.049   3.645  17.058  0.1947 -0.0703 -0.9134
  624TMC3     O 9245   3.079   3.704  17.163  0.7144  0.1234  0.2260
  624TMC3     H 9246   2.847   3.795  17.130  2.1976 -0.6811  0.0869
  624TMC3    H1 9247   2.937   3.468  16.867  1.3598  0.2253  0.6010
  624TMC3    H2 9248   2.563   3.676  16.837 -0.9334 -0.1637  1.4626
  624TMC3    C7 9249   2.732   3.534  16.698  0.3936  0.1257 -0.1697
  624TMC3    C8 9250   2.636   3.877  17.004  0.5264 -0.3964 -0.0288
  624TMC3    O1 9251   2.759   3.424  16.646  0.0897  0.1239  0.1822
  624TMC3    O2 9252   2.676   3.950  17.096 -0.3936  0.1112  0.2305
  625MPD2     C 9253   3.238   1.387   0.634  0.0536  0.1987 -0.4800
  625MPD2    C1 9254   3.327   1.335   0.538 -0.6337 -0.2117  0.2516
  625MPD2    C2 9255   3.460   1.379   0.526  0.1051 -0.4877  0.3886
  625MPD2    C3 9256   3.502   1.477   0.609  0.3900 -0.3459  0.0931
  625MPD2    C4 9257   3.411   1.538   0.691  0.4662  0.8577  0.6204
  625MPD2    C5 9258   3.280   1.497   0.700  0.2489 -0.1331  0.4002
  625MPD2     H 9259   3.535   1.318   0.477 -0.4365 -0.3097 -0.6627
  625MPD2    H1 9260   3.434   1.608   0.771  1.5313 -1.8530  2.6866
  625MPD2    H2 9261   3.136   1.352   0.648  0.1538  0.0260 -0.1759
  625MPD2    H3 9262   3.212   1.540   0.773 -1.6074 -1.9522 -0.2524
  625MPD2     N 9263   3.640   1.503   0.620  0.0580  0.7327 -0.3047
  625MPD2    H5 9264   3.706   1.442   0.573 -2.6365 -1.6561 -0.9847
  625MPD2    N1 9265   3.288   1.229   0.459 -0.3231 -0.3715 -0.2453
  625MPD2    H7 9266   3.205   1.179   0.490 -0.2628  0.5734  1.4588
  626TMC3    C1 9267   3.266   1.076   0.280 -0.3811  0.1869  0.4720
  626TMC3    C2 9268   3.185   1.098   0.169  0.0425  0.3897  0.0349
  626TMC3    C3 9269   3.074   1.012   0.158 -0.0398 -0.5732  0.1014
  626TMC3    C4 9270   3.235   0.981   0.375 -0.0557  0.0760 -0.7564
  626TMC3    C5 9271   3.124   0.909   0.366  0.1840  0.2310  0.2916
  626TMC3    C6 9272   3.041   0.920   0.254  1.0668 -1.6933  0.5639
  626TMC3     C 9273   3.334   1.189   0.331  0.3339  0.3279 -0.2294
  626TMC3     O 9274   3.429   1.228   0.267 -0.3549  0.4316 -0.0629
  626TMC3     H 9275   3.199   1.188   0.110 -2.6139  1.5472  1.1940
  626TMC3    H1 9276   3.300   0.975   0.462  0.8254  1.6496 -1.2894
  626TMC3    H2 9277   2.967   0.844   0.232 -1.9217  1.2170  0.4913
  626TMC3    C7 9278   3.085   0.833   0.487  0.7092  0.6099  0.1516
  626TMC3    C8 9279   2.979   1.042   0.051 -0.5697 -0.7906  0.4931
  626TMC3    O1 9280   3.169   0.803   0.569  0.1602 -0.3372  0.4438
  626TMC3    O2 9281   3.013   1.126  17.673  0.2266 -0.4376  0.1671
  627MPD2     C 9282   0.760   1.002  14.142 -0.8165  0.4779  0.4454
  627MPD2    C1 9283   0.855   0.956  14.224 -0.1577 -0.0938 -0.3006
  627MPD2    C2 9284   0.839   0.829  14.286  1.2450  0.2734  0.1126
  627MPD2    C3 9285   0.728   0.745  14.260 -0.5498 -0.4944  0.0643
  627MPD2    C4 9286   0.633   0.792  14.169  0.6913  0.0818 -0.0507
  627MPD2    C5 9287   0.647   0.918  14.113 -0.4245  0.4954  0.5504
  627MPD2     H 9288   0.914   0.804  14.360 -2.1495 -0.2332  3.3567
  627MPD2    H1 9289   0.547   0.733  14.139  2.9108 -3.0242 -0.4017
  627MPD2    H2 9290   0.772   1.102  14.102 -2.8329  0.4898 -0.1279
  627MPD2    H3 9291   0.571   0.952  14.045  0.5074 -1.5539 -1.5044
  627MPD2     N 9292   0.711   0.623  14.320  0.2002  0.1446 -0.5156
  627MPD2    H5 9293   0.780   0.598  14.391  0.0045  0.7068 -0.1285
  627MPD2    N1 9294   0.970   1.021  14.255  0.2479 -0.2274 -0.0698
  627MPD2    H7 9295   1.038   0.968  14.309  0.1031 -0.3754 -0.0318
  628TMC3    C1 9296   1.124   1.192  14.292 -0.0207  0.4849 -0.0253
  628TMC3    C2 9297   1.217   1.096  14.318 -0.3154 -0.3781  0.8508
  628TMC3    C3 9298   1.320   1.131  14.399  0.3037  0.3033 -0.2786
  628TMC3    C4 9299   1.135   1.317  14.350 -0.7346  0.4360  0.2882
  628TMC3    C5 9300   1.236   1.346  14.435 -0.0453  0.9190  0.1556
  628TMC3    C6 9301   1.329   1.251  14.467 -1.0483 -0.3479 -0.8640
  628TMC3     C 9302   0.996   1.158  14.237  0.1159 -0.4372 -0.1250
  628TMC3     O 9303   0.913   1.245  14.220  0.9305 -0.0643  0.0839
  628TMC3     H 9304   1.205   0.999  14.272  3.3735  0.4676 -1.9397
  628TMC3    H1 9305   1.054   1.389  14.352 -0.4754  0.7347 -0.2569
  628TMC3    H2 9306   1.427   1.278  14.507 -1.6957 -1.2454  1.3248
  628TMC3    C7 9307   1.290   1.485  14.448  0.0277  0.2974 -0.7247
  628TMC3    C8 9308   1.450   1.083  14.351 -0.5920 -0.0419  0.4564
  628TMC3    O1 9309   1.384   1.506  14.515 -0.4511  0.2406 -0.0883
  628TMC3    O2 9310   1.484   1.106  14.235 -0.2855 -0.1142 -0.1513
  629MPD2     C 9311   0.045   0.100  16.098 -0.0188 -0.3991  0.0784
  629MPD2    C1 9312   0.024   4.701  16.141  0.5165  0.9926 -0.3903
  629MPD2    C2 9313   4.627   4.662  16.197 -0.5693 -0.7462  0.6604
  629MPD2    C3 9314   4.529   0.032  16.226  0.4248  0.2352 -1.0398
  629MPD2    C4 9315   4.556   0.161  16.193  0.0133 -0.6383 -0.3913
  629MPD2    C5 9316   4.669   0.194  16.126  1.2285  0.5064 -0.1620
  629MPD2     H 9317   4.613   4.559  16.228 -0.3805 -0.4282  1.8043
  629MPD2    H1 9318   4.491   0.240  16.229 -0.9265 -1.3494 -0.5318
  629MPD2    H2 9319   0.135   0.122  16.043  0.5027 -1.7541  0.3776
  629MPD2    H3 9320   4.678   0.298  16.094  1.2121  0.5868  0.0918
  629MPD2     N 9321   4.405   4.710  16.282  0.7769 -0.2816  0.5429
  629MPD2    H5 9322   4.407   4.614  16.318  2.0510 -0.6049 -0.3950
  629MPD2    N1 9323   0.134   4.613  16.126  0.8440  0.0067 -0.3875
  629MPD2    H7 9324   0.213   4.654  16.077 -0.5441  3.7589  0.5539
  630TMC3    C1 9325   0.261   4.417  16.112 -0.1807  0.2261  0.3151
  630TMC3    C2 9326   0.342   4.467  16.014  0.0245  0.4167 -0.3606
  630TMC3    C3 9327   0.476   4.447  16.019 -0.9148  0.1906 -0.1237
  630TMC3    C4 9328   0.312   4.323  16.197  0.0589  0.2419  0.2103
  630TMC3    C5 9329   0.448   4.301  16.201 -0.6028 -0.8816 -0.1358
  630TMC3    C6 9330   0.533   4.362  16.114 -0.3683 -0.5496 -0.1170
  630TMC3     C 9331   0.140   4.474  16.160 -0.5313 -0.4884  0.2259
  630TMC3     O 9332   0.062   4.413  16.227 -0.4394 -0.5430  0.5260
  630TMC3     H 9333   0.299   4.541  15.947  0.2616  1.7846  0.9937
  630TMC3    H1 9334   0.259   4.290  16.286 -0.9640 -1.4225 -1.0177
  630TMC3    H2 9335   0.634   4.322  16.105 -0.3931 -0.4166 -0.9920
  630TMC3    C7 9336   0.507   4.268  16.330 -0.2793 -0.7062 -0.6410
  630TMC3    C8 9337   0.577   4.534  15.954  0.2660  0.1100 -0.0661
  630TMC3    O1 9338   0.432   4.251  16.425 -0.0437 -0.0343 -0.6190
  630TMC3    O2 9339   0.688   4.523  15.998 -0.2202  0.0029 -0.0784
  631MPD2     C 9340   3.330   4.118  15.580  0.2471  0.0813  0.1832
  631MPD2    C1 9341   3.406   4.168  15.476 -0.4093  0.3424  0.0472
  631MPD2    C2 9342   3.545   4.141  15.480  0.2042 -0.1064  0.0767
  631MPD2    C3 9343   3.609   4.065  15.585  0.3215 -0.8881  0.3556
  631MPD2    C4 9344   3.523   4.015  15.683  0.4560 -0.0016  0.0080
  631MPD2    C5 9345   3.391   4.052  15.682  0.6434 -0.3505 -0.7486
  631MPD2     H 9346   3.608   4.178  15.400 -0.9543  0.1942 -0.6926
  631MPD2    H1 9347   3.571   3.969  15.769 -1.9881 -1.3408  0.6485
  631MPD2    H2 9348   3.225   4.144  15.574  0.4070  0.5626 -0.5910
  631MPD2    H3 9349   3.325   4.022  15.762  1.3691  1.3723  0.5081
  631MPD2     N 9350   3.750   4.043  15.578  0.2572 -0.3794  0.5898
  631MPD2    H5 9351   3.798   4.092  15.503 -0.3653 -0.3532  0.2160
  631MPD2    N1 9352   3.344   4.250  15.375  0.3964 -0.5410 -0.1144
  631MPD2    H7 9353   3.243   4.246  15.385  0.1494  0.8503 -2.1435
  632TMC3    C1 9354   3.295   4.391  15.194 -0.0006 -0.5919 -0.2854
  632TMC3    C2 9355   3.218   4.466  15.273 -0.1491 -0.2739 -0.0199
  632TMC3    C3 9356   3.148   4.567  15.211  0.6280  0.1146  0.3896
  632TMC3    C4 9357   3.312   4.412  15.060  0.0006 -0.5437 -0.7696
  632TMC3    C5 9358   3.232   4.506  15.004 -0.0325  0.9527 -0.2079
  632TMC3    C6 9359   3.139   4.580  15.075  0.5255 -0.4037 -0.0539
  632TMC3     C 9360   3.395   4.306  15.259 -0.1543 -0.2937  0.2474
  632TMC3     O 9361   3.505   4.295  15.207  0.0308  0.0170 -0.3951
  632TMC3     H 9362   3.221   4.466  15.381 -2.2587 -0.7259  0.0457
  632TMC3    H1 9363   3.381   4.351  15.002  1.2167 -2.6814  2.8945
  632TMC3    H2 9364   3.083   4.658  15.026  1.2423 -0.0828 -0.3650
  632TMC3    C7 9365   3.248   4.554  14.866 -0.0311 -0.1460 -0.2321
  632TMC3    C8 9366   3.093   4.683  15.283 -0.2615 -0.5795 -0.0123
  632TMC3    O1 9367   3.163   4.622  14.815  0.0052  0.2291  0.6876
  632TMC3    O2 9368   2.995   0.017  15.240  0.8235 -0.2806 -0.5244
  633MPD2     C 9369   2.815   2.039  17.042 -0.3075 -0.2630 -0.0612
  633MPD2    C1 9370   2.837   2.043  16.905 -0.4880  0.1352 -0.1240
  633MPD2    C2 9371   2.815   1.931  16.822  0.2583 -0.1325  0.2711
  633MPD2    C3 9372   2.768   1.817  16.871 -0.5338 -1.3304 -0.1053
  633MPD2    C4 9373   2.750   1.806  17.005  0.0896 -0.3404 -0.6490
  633MPD2    C5 9374   2.766   1.917  17.087  0.3419  0.1486  0.5533
  633MPD2     H 9375   2.841   1.945  16.718  0.1072  0.3527  0.2992
  633MPD2    H1 9376   2.712   1.713  17.046  1.6957 -0.2960  0.8999
  633MPD2    H2 9377   2.841   2.121  17.107  1.8925 -0.0626 -1.1866
  633MPD2    H3 9378   2.749   1.910  17.194 -0.5402 -0.7595  0.3586
  633MPD2     N 9379   2.752   1.713  16.784 -0.5524  0.4171  0.6592
  633MPD2    H5 9380   2.709   1.629  16.822  1.0400 -0.3763  0.7219
  633MPD2    N1 9381   2.891   2.152  16.836  0.2016 -0.0333 -0.0520
  633MPD2    H7 9382   2.898   2.140  16.735  0.1629  0.2180 -0.0844
  634TMC3    C1 9383   3.014   2.337  16.798 -0.6191  0.5726  0.3158
  634TMC3    C2 9384   3.085   2.279  16.698 -0.1718  1.1239  0.2684
  634TMC3    C3 9385   3.135   2.366  16.606 -0.0892  0.5637 -0.1002
  634TMC3    C4 9386   3.002   2.471  16.818 -0.2671 -0.1712 -0.2010
  634TMC3    C5 9387   3.068   2.555  16.737 -0.3923 -0.2962  0.3731
  634TMC3    C6 9388   3.131   2.500  16.628  0.3583 -0.9309 -0.1476
  634TMC3     C 9389   2.952   2.257  16.901  0.3283 -0.2385 -0.4019
  634TMC3     O 9390   2.912   2.312  17.000 -0.6229 -0.3133 -0.2178
  634TMC3     H 9391   3.094   2.171  16.691 -2.4401  0.9847 -0.4869
  634TMC3    H1 9392   2.926   2.502  16.890  1.2018  3.0239 -0.0281
  634TMC3    H2 9393   3.187   2.564  16.561 -1.1761 -1.2048 -1.6745
  634TMC3    C7 9394   3.008   2.679  16.697  1.0253 -0.3449 -0.6559
  634TMC3    C8 9395   3.175   2.304  16.476  0.1108  0.3132 -0.6824
  634TMC3    O1 9396   3.012   2.697  16.575  0.5517 -0.3582 -0.9231
  634TMC3    O2 9397   3.210   2.184  16.479 -0.1014 -0.2230 -0.2780
  635TMC3    C1 9398   3.491   3.309  17.404  0.1395 -0.7840 -0.1224
  635TMC3    C2 9399   3.540   3.181  17.410  0.2759  0.1434  0.5402
  635TMC3    C3 9400   3.445   3.083  17.419 -0.3924  0.0622  0.1329
  635TMC3    C4 9401   3.361   3.340  17.418 -0.2938  0.4125 -0.0215
  635TMC3    C5 9402   3.269   3.244  17.436  0.7405  0.0709  0.0032
  635TMC3    C6 9403   3.315   3.111  17.430 -0.2344  0.6910 -0.0133
  635TMC3     C 9404   3.579   3.422  17.447  0.3256 -0.1349 -0.0560
  635TMC3     O 9405   3.526   3.488  17.535 -0.6470  0.6114  0.4400
  635TMC3     H 9406   3.645   3.166  17.432  0.0135 -2.3399  0.0396
  635TMC3    H1 9407   3.346   3.447  17.426 -0.5228  0.4299 -0.6916
  635TMC3    H2 9408   3.242   3.035  17.453 -1.1368  1.5240 -0.1527
  635TMC3    C7 9409   3.186   3.267  17.553  0.0716 -0.0198  0.2457
  635TMC3    C8 9410   3.471   2.956  17.356 -0.5166 -0.5763 -0.3324
  635TMC3    O1 9411   3.143   3.167  17.608  0.9846  0.6567 -0.2551
  635TMC3    O2 9412   3.386   2.866  17.356  0.2543  0.4474  0.0891
  636MPD2     C 9413   4.191   2.769  15.425  0.5928  0.3814  0.2732
  636MPD2    C1 9414   4.261   2.769  15.547 -0.7282  0.1888  0.0109
  636MPD2    C2 9415   4.349   2.673  15.582 -0.1820  0.8933 -0.0053
  636MPD2    C3 9416   4.378   2.576  15.489  0.0116  1.2541 -0.2873
  636MPD2    C4 9417   4.318   2.579  15.366 -0.3618 -0.2340  0.4874
  636MPD2    C5 9418   4.223   2.674  15.330  0.2282 -0.0825  0.3012
  636MPD2     H 9419   4.387   2.665  15.683 -0.1919  0.0204 -0.0682
  636MPD2    H1 9420   4.331   2.501  15.292 -2.8663 -0.3579  0.1515
  636MPD2    H2 9421   4.120   2.844  15.394 -0.6125 -0.1694  1.7014
  636MPD2    H3 9422   4.184   2.687  15.230 -0.9756  0.8814  0.8858
  636MPD2     N 9423   4.472   2.471  15.526  0.3437  0.3567 -0.3814
  636MPD2    H5 9424   4.501   2.471  15.623 -0.0426 -2.0846 -0.2582
  636MPD2    N1 9425   4.236   2.870  15.639  0.0672 -0.0880 -0.1299
  636MPD2    H7 9426   4.292   2.853  15.722 -1.2178 -0.0864  0.7437
  637TMC3    C1 9427   4.635   2.321  15.512 -0.2409  0.6709  0.9656
  637TMC3    C2 9428   4.609   2.310  15.645  0.4049  0.2582  0.2640
  637TMC3    C3 9429   4.716   2.305  15.730 -0.5075 -0.2560  0.9139
  637TMC3    C4 9430   0.032   2.328  15.459 -0.4177 -0.2426 -0.2562
  637TMC3    C5 9431   0.142   2.309  15.540  0.2157  0.4120  0.0687
  637TMC3    C6 9432   0.118   2.300  15.674  0.9227  0.0544  0.2192
  637TMC3     C 9433   4.536   2.392  15.438 -0.5638 -0.3312 -0.0777
  637TMC3     O 9434   4.554   2.403  15.319 -0.7293  0.0431 -0.2870
  637TMC3     H 9435   4.511   2.316  15.690 -1.4880  0.2367 -3.8515
  637TMC3    H1 9436   0.048   2.347  15.353 -0.8347  0.3436 -0.2144
  637TMC3    H2 9437   0.202   2.283  15.740  0.9030 -0.1337  0.1955
  637TMC3    C7 9438   0.234   2.416  15.526  0.4984  0.3347  0.5272
  637TMC3    C8 9439   4.705   2.412  15.813  0.7836 -0.2030 -0.0747
  637TMC3    O1 9440   0.234   2.489  15.624 -0.1055  0.0820 -0.0960
  637TMC3    O2 9441   4.626   2.494  15.776 -0.3796 -0.2913  0.7542
  638MPD2     C 9442   3.576   1.595  14.760  0.3186  0.1255 -0.7169
  638MPD2    C1 9443   3.699   1.536  14.770 -0.1561  0.7515  0.2411
  638MPD2    C2 9444   3.727   1.450  14.880 -0.0374 -0.1754 -0.0994
  638MPD2    C3 9445   3.640   1.440  14.986  0.1215  0.2550  0.2471
  638MPD2    C4 9446   3.523   1.518  14.975  0.0971 -0.2814 -0.1467
  638MPD2    C5 9447   3.489   1.581  14.860  0.3935 -0.0353 -0.5397
  638MPD2     H 9448   3.818   1.392  14.875  0.2677  0.5800 -3.5559
  638MPD2    H1 9449   3.446   1.514  15.051  1.9478  1.4296  1.7987
  638MPD2    H2 9450   3.549   1.646  14.668  3.0955 -1.0359 -2.1884
  638MPD2    H3 9451   3.392   1.626  14.840  0.7590  1.2538  0.5303
  638MPD2     N 9452   3.656   1.355  15.098  0.1844  0.3414 -0.1377
  638MPD2    H5 9453   3.577   1.350  15.162  0.9714 -1.2584  0.7070
  638MPD2    N1 9454   3.773   1.535  14.651  0.2521 -0.0255 -0.0747
  638MPD2    H7 9455   3.738   1.579  14.566  0.3923 -0.6999 -0.4773
  639TMC3    C1 9456   3.719   1.171  15.224 -0.1330 -0.3589  0.1036
  639TMC3    C2 9457   3.587   1.133  15.232 -0.0286  0.2346  0.0224
  639TMC3    C3 9458   3.570   0.993  15.244 -0.2769  0.0509  0.0316
  639TMC3    C4 9459   3.831   1.085  15.231  0.6986  0.2520 -0.3518
  639TMC3    C5 9460   3.802   0.959  15.238  0.4461  0.1065  0.3073
  639TMC3    C6 9461   3.676   0.900  15.250 -0.0897  0.1227 -0.5793
  639TMC3     C 9462   3.762   1.270  15.121 -0.2620 -0.0577  0.1041
  639TMC3     O 9463   3.865   1.256  15.053 -0.1847 -0.1520  1.1090
  639TMC3     H 9464   3.495   1.189  15.221 -0.2128 -0.2430 -0.8713
  639TMC3    H1 9465   3.931   1.125  15.225  0.2349  1.0832 -2.5071
  639TMC3    H2 9466   3.663   0.793  15.241 -1.7384  0.2590  0.2746
  639TMC3    C7 9467   3.900   0.861  15.196  0.0156 -0.5663 -0.3279
  639TMC3    C8 9468   3.466   0.938  15.161  0.2532 -0.0321 -0.2153
  639TMC3    O1 9469   3.870   0.741  15.202 -0.2611 -0.1628 -0.3071
  639TMC3    O2 9470   3.497   0.907  15.051  0.0409  0.5705 -0.1246
  640MPD2     C 9471   0.734   0.871   9.558 -0.2283 -0.3114  1.0217
  640MPD2    C1 9472   0.610   0.837   9.515  0.1243  0.0670  0.5392
  640MPD2    C2 9473   0.549   0.921   9.426 -0.6119  0.4052 -0.5791
  640MPD2    C3 9474   0.607   1.043   9.391  0.6046 -0.4244  0.6308
  640MPD2    C4 9475   0.734   1.069   9.442  0.3034  0.0015 -0.5939
  640MPD2    C5 9476   0.798   0.987   9.523 -0.6512 -0.3888  0.4211
  640MPD2     H 9477   0.452   0.903   9.382 -0.1163  1.6883 -2.2065
  640MPD2    H1 9478   0.791   1.156   9.411 -1.2074  1.4707  0.7649
  640MPD2    H2 9479   0.787   0.808   9.628 -0.2792  0.6951  1.9524
  640MPD2    H3 9480   0.898   1.008   9.560 -0.3115 -0.4897 -0.4572
  640MPD2     N 9481   0.533   1.148   9.319 -0.3487 -0.1307  0.0785
  640MPD2    H5 9482   0.578   1.237   9.298  0.0890 -0.5941 -0.9527
  640MPD2    N1 9483   0.556   0.715   9.560  0.1522 -0.7382 -0.2411
  640MPD2    H7 9484   0.607   0.663   9.631  0.4251  2.3087  1.8024
  641TMC3    C1 9485   0.407   0.545   9.586 -0.2466  0.1433  0.1732
  641TMC3    C2 9486   0.508   0.451   9.612 -0.0590  0.2916  0.1183
  641TMC3    C3 9487   0.487   0.334   9.674  0.3014 -0.1899 -0.5176
  641TMC3    C4 9488   0.284   0.523   9.614  0.1896 -0.0121  0.1959
  641TMC3    C5 9489   0.257   0.410   9.687 -0.4528 -0.3139  0.0580
  641TMC3    C6 9490   0.360   0.318   9.725  0.2152  0.6680 -0.4839
  641TMC3     C 9491   0.435   0.662   9.513  0.0836  0.4288  1.1423
  641TMC3     O 9492   0.348   0.692   9.433 -0.1087  0.0546  0.0326
  641TMC3     H 9493   0.608   0.468   9.574  1.1514 -0.4423  2.9559
  641TMC3    H1 9494   0.218   0.608   9.598  0.3965  0.4298  1.6435
  641TMC3    H2 9495   0.345   0.250   9.809  0.3855  0.5837 -0.5217
  641TMC3    C7 9496   0.136   0.412   9.762  0.1446 -0.0055 -0.2435
  641TMC3    C8 9497   0.589   0.242   9.723  0.1423 -0.0054  0.1332
  641TMC3    O1 9498   0.089   0.522   9.774 -0.8699  0.0685 -0.1073
  641TMC3    O2 9499   0.561   0.152   9.798 -0.4690 -0.1692 -0.0688
  642TMC3    C1 9500   0.363   1.706  11.876  0.6373 -0.4638  0.7931
  642TMC3    C2 9501   0.486   1.710  11.929 -0.0397 -0.1304 -0.4660
  642TMC3    C3 9502   0.550   1.593  11.959  0.1523  0.4718 -0.3437
  642TMC3    C4 9503   0.294   1.589  11.865  0.7374 -0.4231 -0.1166
  642TMC3    C5 9504   0.353   1.475  11.893 -0.5175 -0.1985 -0.4853
  642TMC3    C6 9505   0.485   1.472  11.943 -0.4794 -1.0873  0.2366
  642TMC3     C 9506   0.303   1.837  11.850  0.4906  0.1856 -0.0587
  642TMC3     O 9507   0.366   1.929  11.795  0.5804 -0.7525 -0.5599
  642TMC3     H 9508   0.537   1.806  11.937 -2.8311  1.3621 -0.6473
  642TMC3    H1 9509   0.193   1.604  11.829 -0.0583  0.2698  2.3971
  642TMC3    H2 9510   0.535   1.379  11.966 -0.1050 -0.0755  3.4233
  642TMC3    C7 9511   0.294   1.346  11.880 -0.5033 -0.1468 -0.1102
  642TMC3    C8 9512   0.682   1.576  12.015 -0.2431  0.0244 -0.3420
  642TMC3    O1 9513   0.373   1.254  11.892  0.2997  0.5844 -0.7319
  642TMC3    O2 9514   0.737   1.466  12.000  0.6358  0.0785 -0.2975
  643TMC3    C1 9515   4.696   0.616   0.425 -0.3940  0.7709  0.3186
  643TMC3    C2 9516   4.574   0.666   0.397  0.0227 -0.1355  0.8627
  643TMC3    C3 9517   4.489   0.596   0.310  0.1631 -0.4038 -0.0401
  643TMC3    C4 9518   0.018   0.514   0.361  0.8380 -0.3087 -0.3326
  643TMC3    C5 9519   4.659   0.449   0.276 -0.3161  1.0527 -0.7302
  643TMC3    C6 9520   4.539   0.480   0.259  0.8338  0.1473  0.3296
  643TMC3     C 9521   0.053   0.704   0.494 -0.2180 -0.1156  0.8197
  643TMC3     O 9522   0.004   0.810   0.528 -0.4918 -0.1522  0.2307
  643TMC3     H 9523   4.540   0.753   0.451  1.8620  0.4047  1.1729
  643TMC3    H1 9524   0.115   0.466   0.370  0.5423 -0.4798  1.9765
  643TMC3    H2 9525   4.488   0.431   0.176 -1.2220  0.0697  1.6311
  643TMC3    C7 9526   0.000   0.409   0.158 -0.3056 -0.3120  0.4331
  643TMC3    C8 9527   4.423   0.667   0.200 -0.2785  0.4675 -0.0612
  643TMC3    O1 9528   0.057   0.497   0.097 -0.5826 -0.0154  0.1528
  643TMC3    O2 9529   4.348   0.599   0.130  0.4861 -0.4223 -0.1848
  644MPD2     C 9530   1.163   1.410   9.247  0.2013 -0.0315 -0.0691
  644MPD2    C1 9531   1.036   1.379   9.244 -1.1347  0.0880  0.0111
  644MPD2    C2 9532   0.948   1.453   9.317  0.0959  0.1524 -0.2870
  644MPD2    C3 9533   0.989   1.564   9.384  0.1235 -0.5548  0.0635
  644MPD2    C4 9534   1.121   1.607   9.365  0.5831  0.0408 -0.3489
  644MPD2    C5 9535   1.206   1.527   9.300  0.0232  0.4662 -0.0918
  644MPD2     H 9536   0.846   1.418   9.326  0.2841  0.1642  1.9384
  644MPD2    H1 9537   1.152   1.697   9.418 -1.6111  1.7170 -1.8875
  644MPD2    H2 9538   1.238   1.352   9.194 -0.2575 -0.3850 -0.3282
  644MPD2    H3 9539   1.312   1.548   9.296  0.0983  0.0181 -0.4622
  644MPD2     N 9540   0.886   1.626   9.455 -0.7606 -0.1841 -0.0762
  644MPD2    H5 9541   0.801   1.573   9.469  0.0786 -0.9040  2.1478
  644MPD2    N1 9542   1.003   1.262   9.174 -0.4114  0.2746  0.5272
  644MPD2    H7 9543   1.079   1.204   9.138  0.0575  0.8616  0.5745
  645TMC3    C1 9544   0.760   1.794   9.550  0.1551 -0.4746 -0.1967
  645TMC3    C2 9545   0.753   1.888   9.653 -0.6173 -0.4697  0.5078
  645TMC3    C3 9546   0.632   1.929   9.686 -0.6310 -0.0296 -0.0674
  645TMC3    C4 9547   0.636   1.746   9.491  0.3058  0.6071  0.3810
  645TMC3    C5 9548   0.518   1.783   9.543 -0.8379  0.4730  0.3166
  645TMC3    C6 9549   0.514   1.885   9.635 -0.3463 -0.6005  0.2400
  645TMC3     C 9550   0.890   1.752   9.506  0.0604 -0.3524  0.6028
  645TMC3     O 9551   0.988   1.820   9.530  0.3862 -0.0802  0.6111
  645TMC3     H 9552   0.849   1.922   9.692 -0.3272  0.4995 -1.0569
  645TMC3    H1 9553   0.636   1.683   9.402  0.8584 -0.2039  0.9493
  645TMC3    H2 9554   0.422   1.925   9.674  0.9515  1.0148  1.6500
  645TMC3    C7 9555   0.404   1.691   9.545  0.4754 -0.4639 -0.1350
  645TMC3    C8 9556   0.613   2.011   9.807  0.6909  0.2120 -0.1676
  645TMC3    O1 9557   0.417   1.574   9.510 -0.2868 -0.3205 -0.1133
  645TMC3    O2 9558   0.504   2.036   9.847 -0.8361  0.6272  0.4495
  646MPD2     C 9559   3.828   0.255  14.687  0.1536  0.0817  0.3050
  646MPD2    C1 9560   3.738   0.205  14.773  0.1961 -0.3048  0.8539
  646MPD2    C2 9561   3.603   0.227  14.755  0.1957 -0.4426  0.6135
  646MPD2    C3 9562   3.563   0.311  14.652 -0.6595 -0.4152  0.1147
  646MPD2    C4 9563   3.657   0.365  14.569  0.7641  0.3581  0.0475
  646MPD2    C5 9564   3.789   0.337  14.584 -0.0287  0.1394 -0.0395
  646MPD2     H 9565   3.524   0.196  14.822 -0.7717  2.1217  0.6622
  646MPD2    H1 9566   3.634   0.442  14.497  1.3756  0.5915  0.1045
  646MPD2    H2 9567   3.931   0.228  14.704 -0.5022 -2.7976 -0.1994
  646MPD2    H3 9568   3.859   0.383  14.515  2.6498  1.2478  3.4117
  646MPD2     N 9569   3.423   0.336  14.642 -0.3519 -0.0974 -0.1149
  646MPD2    H5 9570   3.370   0.294  14.717  1.6702 -0.7521  0.9559
  646MPD2    N1 9571   3.800   0.133  14.875  0.7611 -0.0551  0.3827
  646MPD2    H7 9572   3.900   0.122  14.883  0.7037 -0.6848  0.2646
  647TMC3    C1 9573   3.844   0.038  15.083  0.3396 -0.8160  0.1656
  647TMC3    C2 9574   3.856   0.086  15.213  0.3818  0.0455 -0.3007
  647TMC3    C3 9575   3.964   0.051  15.286 -0.1637  0.3558 -0.4416
  647TMC3    C4 9576   3.951   4.703  15.028 -0.8540 -0.2139 -0.0762
  647TMC3    C5 9577   4.061   4.669  15.103 -0.9633  0.7496 -0.6459
  647TMC3    C6 9578   4.076   4.714  15.235  0.3191 -0.2026 -0.4481
  647TMC3     C 9579   3.745   0.104  15.001  0.2637  0.1023 -0.6137
  647TMC3     O 9580   3.636   0.139  15.045 -0.9405 -0.4158 -0.5059
  647TMC3     H 9581   3.778   0.149  15.253  0.3566 -0.8110  1.0310
  647TMC3    H1 9582   3.947   4.658  14.929 -0.8990 -3.1334  1.2566
  647TMC3    H2 9583   4.151   4.678  15.305 -0.1039  0.4146  0.3194
  647TMC3    C7 9584   4.136   4.547  15.074 -0.6000 -0.2984  0.1655
  647TMC3    C8 9585   3.948   0.067  15.429  0.4602 -0.4474  0.3951
  647TMC3    O1 9586   4.195   4.500  15.173  0.8084  0.4965  0.8629
  647TMC3    O2 9587   3.893   0.168  15.464 -0.1704  0.1861 -0.8457
  648TMC3    C1 9588   3.638   2.700  15.966 -0.3195  0.5654 -0.1975
  648TMC3    C2 9589   3.676   2.590  15.897  0.2257 -0.0089 -0.1000
  648TMC3    C3 9590   3.619   2.568  15.777  0.2080 -0.3622 -0.2272
  648TMC3    C4 9591   3.556   2.795  15.920 -0.0161 -0.0733 -0.2327
  648TMC3    C5 9592   3.513   2.786  15.789  0.8757 -0.7045  0.2509
  648TMC3    C6 9593   3.539   2.665  15.719  0.6599  0.4550  0.0784
  648TMC3     C 9594   3.640   2.696  16.113  0.7338 -1.1170 -0.5948
  648TMC3     O 9595   3.605   2.801  16.164 -0.2036 -0.3308  0.3057
  648TMC3     H 9596   3.750   2.532  15.951  0.2643  0.1559  0.0254
  648TMC3    H1 9597   3.525   2.881  15.979 -0.8756 -1.0861  0.7827
  648TMC3    H2 9598   3.495   2.652  15.620  2.0215 -0.4518 -0.4071
  648TMC3    C7 9599   3.407   2.868  15.727 -0.6626  0.1126  0.4748
  648TMC3    C8 9600   3.624   2.443  15.717  0.1728  0.5996 -0.3449
  648TMC3    O1 9601   3.396   2.861  15.605  0.3137  0.0919 -0.4385
  648TMC3    O2 9602   3.724   2.374  15.746  0.3710  0.0983 -0.1198
  649TMC3    C1 9603   2.073   3.637  13.011  0.3424 -0.8051  0.2543
  649TMC3    C2 9604   2.202   3.595  13.004 -0.4539 -0.8835 -0.6670
  649TMC3    C3 9605   2.262   3.535  13.114  0.6630  0.2943  0.3455
  649TMC3    C4 9606   1.996   3.607  13.123 -0.3379  0.5846  0.0875
  649TMC3    C5 9607   2.058   3.552  13.233  0.0771 -0.0085 -0.0909
  649TMC3    C6 9608   2.190   3.508  13.229  0.2994 -0.4015 -0.1305
  649TMC3     C 9609   2.016   3.714  12.898  0.0161  0.0158  0.0067
  649TMC3     O 9610   1.896   3.744  12.902  0.1047  0.5940  0.5379
  649TMC3     H 9611   2.262   3.581  12.915  1.3049 -0.9681  0.5346
  649TMC3    H1 9612   1.890   3.627  13.125 -0.4058  0.2834 -0.3292
  649TMC3    H2 9613   2.232   3.465  13.319 -0.8341 -1.6819 -0.2159
  649TMC3    C7 9614   1.976   3.508  13.340 -0.0669  0.4812 -0.5306
  649TMC3    C8 9615   2.407   3.507  13.115  0.8359  0.1120 -0.2818
  649TMC3    O1 9616   1.920   3.595  13.402 -0.3897  0.0600 -0.7332
  649TMC3    O2 9617   2.451   3.448  13.211 -0.0328  0.1634  0.1232
  650TMC3    C1 9618   4.319   0.874  12.361 -0.2686  0.1878  0.1046
  650TMC3    C2 9619   4.298   1.003  12.384 -0.0362 -0.1657 -0.6196
  650TMC3    C3 9620   4.228   1.076  12.294 -0.4361  0.3590  0.2026
  650TMC3    C4 9621   4.321   0.825  12.233  0.3061  0.3221  0.3755
  650TMC3    C5 9622   4.261   0.907  12.139 -0.0156 -0.1064  0.4547
  650TMC3    C6 9623   4.207   1.029  12.170  0.5399 -0.3072  0.5876
  650TMC3     C 9624   4.385   0.801  12.467 -0.5742 -0.1201 -0.7731
  650TMC3     O 9625   4.435   0.871  12.554  0.1026  0.0736  0.2864
  650TMC3     H 9626   4.331   1.054  12.474 -1.2781 -1.9906  0.8630
  650TMC3    H1 9627   4.363   0.728  12.207  1.3734  0.7835  0.3864
  650TMC3    H2 9628   4.144   1.085  12.102 -0.0674 -1.6496  0.0382
  650TMC3    C7 9629   4.280   0.870  12.004  0.6545 -0.4359  0.0843
  650TMC3    C8 9630   4.173   1.204  12.332 -0.5217  0.3658 -0.0115
  650TMC3    O1 9631   4.311   0.756  11.980 -0.1249 -0.1698 -0.6412
  650TMC3    O2 9632   4.247   1.279  12.395 -0.5434 -0.5475  0.0440
  651MPD2     C 9633   3.337   2.466  10.398  0.8495  0.3695 -0.2320
  651MPD2    C1 9634   3.311   2.579  10.483  0.3367  0.6433  0.0758
  651MPD2    C2 9635   3.415   2.670  10.510 -0.9937 -0.0817  0.8252
  651MPD2    C3 9636   3.536   2.655  10.443  0.2495 -0.1896  0.4292
  651MPD2    C4 9637   3.554   2.549  10.349 -0.1435  0.3337  0.1966
  651MPD2    C5 9638   3.458   2.456  10.331  0.5413 -0.5139  0.0652
  651MPD2     H 9639   3.396   2.743  10.587  1.6764  0.6542  0.7718
  651MPD2    H1 9640   3.648   2.532  10.297 -0.6603  0.4638 -0.7592
  651MPD2    H2 9641   3.263   2.388  10.389  0.7077  0.8670 -3.3302
  651MPD2    H3 9642   3.475   2.373  10.263  3.0763  0.1089 -0.0414
  651MPD2     N 9643   3.635   2.756  10.465 -0.2883  0.4021 -0.1855
  651MPD2    H5 9644   3.624   2.817  10.545  1.2539  2.1202 -1.2621
  651MPD2    N1 9645   3.187   2.603  10.549  0.2170  0.3761 -0.7110
  651MPD2    H7 9646   3.166   2.692  10.592 -1.6219 -0.0850 -0.6806
  652TMC3    C1 9647   4.072   2.900  10.492 -0.4557 -0.3123  0.6309
  652TMC3    C2 9648   3.976   2.825  10.430  0.2592 -0.0545 -0.4232
  652TMC3    C3 9649   3.847   2.866  10.444 -0.7794  0.9690  0.3477
  652TMC3    C4 9650   4.042   3.023  10.551 -0.1931  0.1345  0.1696
  652TMC3    C5 9651   3.907   3.062  10.554 -0.5190  0.4818 -0.0927
  652TMC3    C6 9652   3.810   2.978  10.510  0.0199 -0.0246 -0.3187
  652TMC3     C 9653   4.202   2.874  10.431  0.2803  0.1782  0.6591
  652TMC3     O 9654   4.195   2.823  10.319  0.4186  0.0603 -0.0573
  652TMC3     H 9655   3.987   2.722  10.398  0.1188 -0.8881  2.1788
  652TMC3    H1 9656   4.122   3.096  10.554  0.1549 -0.5081  5.3524
  652TMC3    H2 9657   3.707   3.013  10.511 -0.7928 -2.3832  1.1072
  652TMC3    C7 9658   3.869   3.193  10.608 -0.1627 -0.1542 -0.2928
  652TMC3    C8 9659   3.753   2.771  10.396  0.5665 -0.0568  0.0711
  652TMC3    O1 9660   3.760   3.218  10.650 -0.7332 -0.5589  0.2238
  652TMC3    O2 9661   3.786   2.725  10.290  0.0817  0.0238  0.0970
  653MPD2     C 9662   2.786   2.329  17.683  0.0423 -0.2801 -0.4336
  653MPD2    C1 9663   2.717   2.436  17.636 -0.4541 -0.1768  0.0961
  653MPD2    C2 9664   2.626   2.424  17.533  0.1911  0.6774  0.7150
  653MPD2    C3 9665   2.607   2.302  17.472  0.1183  0.3074 -0.5468
  653MPD2    C4 9666   2.678   2.193  17.522 -0.2920 -0.5400 -0.1611
  653MPD2    C5 9667   2.759   2.204  17.630 -0.4270  0.3788 -0.9608
  653MPD2     H 9668   2.574   2.508  17.489 -0.3112  0.5968  1.1505
  653MPD2    H1 9669   2.685   2.098  17.471  0.0675 -0.4166 -0.3366
  653MPD2    H2 9670   2.869   2.338   0.046 -1.4769 -2.5539  1.6746
  653MPD2    H3 9671   2.824   2.123  17.660  2.0293  2.0088 -1.8969
  653MPD2     N 9672   2.526   2.295  17.352  0.4649  0.1362  0.0592
  653MPD2    H5 9673   2.493   2.386  17.323  2.5419  0.1853 -2.1593
  653MPD2    N1 9674   2.739   2.568  17.682 -0.0772  0.1089 -0.3131
  653MPD2    H7 9675   2.696   2.647  17.635  0.5134 -0.3542 -1.6128
  654TMC3    C1 9676   2.394   2.197  17.176  0.0217  0.2460  0.7172
  654TMC3    C2 9677   2.308   2.299  17.165 -0.8266  0.0275 -0.2620
  654TMC3    C3 9678   2.198   2.282  17.082  0.2361 -0.5120  0.1807
  654TMC3    C4 9679   2.373   2.083  17.100 -0.0910  0.4771 -0.0464
  654TMC3    C5 9680   2.265   2.076  17.016  0.3329 -1.3952  0.6475
  654TMC3    C6 9681   2.175   2.177  17.004 -0.0688 -0.1410 -0.0729
  654TMC3     C 9682   2.491   2.182  17.288  0.0945 -0.2723  1.1395
  654TMC3     O 9683   2.513   2.065  17.320 -0.5193  0.4996 -0.4015
  654TMC3     H 9684   2.331   2.386  17.226  2.3475 -1.0899  0.1252
  654TMC3    H1 9685   2.439   1.999  17.114 -0.9917 -0.2612 -0.2086
  654TMC3    H2 9686   2.103   2.179  16.923  0.7230  1.3434 -0.7391
  654TMC3    C7 9687   2.265   1.968  16.917 -0.0919 -0.1659  0.2746
  654TMC3    C8 9688   2.084   2.362  17.096  0.4216 -0.6676 -0.1017
  654TMC3    O1 9689   2.195   1.980  16.810  0.4643 -0.7025 -0.0354
  654TMC3    O2 9690   1.984   2.321  17.036  0.2408  0.0635  0.2638
  655MPD2     C 9691   3.892   2.887  15.852 -0.3809 -0.1015 -0.3399
  655MPD2    C1 9692   3.815   2.944  15.753  0.5360  0.3523 -0.5890
  655MPD2    C2 9693   3.806   2.878  15.632 -0.4726 -0.2860 -0.2553
  655MPD2    C3 9694   3.867   2.758  15.609  1.0372  0.3130 -0.0766
  655MPD2    C4 9695   3.939   2.696  15.708  0.8747  0.1726  0.3170
  655MPD2    C5 9696   3.953   2.768  15.825 -0.0848 -0.1782 -0.0650
  655MPD2     H 9697   3.746   2.921  15.552  1.3516  2.5544 -0.0876
  655MPD2    H1 9698   3.987   2.599  15.707 -0.8546 -0.6674 -1.3281
  655MPD2    H2 9699   3.914   2.930  15.949  0.2355 -3.0284  0.8293
  655MPD2    H3 9700   4.019   2.728  15.900  0.3813 -1.2272 -1.0353
  655MPD2     N 9701   3.848   2.683  15.493 -0.0574  0.4277 -0.6285
  655MPD2    H5 9702   3.911   2.606  15.474  2.2498  2.0862  0.2078
  655MPD2    N1 9703   3.724   3.047  15.786  0.0791 -0.1886  0.1238
  655MPD2    H7 9704   3.655   3.073  15.716  0.0452  0.1705  0.2918
  656TMC3    C1 9705   3.592   3.215  15.899 -0.0684  0.3775  0.8099
  656TMC3    C2 9706   3.535   3.256  16.017 -0.4870  0.3117  0.0723
  656TMC3    C3 9707   3.401   3.305  16.017 -0.0568 -0.2182  0.2128
  656TMC3    C4 9708   3.530   3.233  15.779  0.2510 -0.1348 -0.0259
  656TMC3    C5 9709   3.407   3.311  15.780 -0.0139  0.1149  0.9052
  656TMC3    C6 9710   3.334   3.335  15.898  0.7462  1.2449  0.4322
  656TMC3     C 9711   3.704   3.117  15.903  0.1896 -0.6957 -0.5325
  656TMC3     O 9712   3.758   3.111  16.012 -0.2017 -0.3016 -0.1244
  656TMC3     H 9713   3.590   3.245  16.109  0.7239  0.5422 -0.6240
  656TMC3    H1 9714   3.580   3.217  15.684 -0.2526  1.6220 -0.5965
  656TMC3    H2 9715   3.229   3.360  15.895  0.8483  1.6876  0.5040
  656TMC3    C7 9716   3.344   3.317  15.646 -0.4836  0.3785  0.1176
  656TMC3    C8 9717   3.311   3.266  16.119  0.2710  0.6908  0.4320
  656TMC3    O1 9718   3.408   3.260  15.560  0.2211 -0.2524 -0.4883
  656TMC3    O2 9719   3.192   3.269  16.098 -0.0040 -0.1005  0.0363
  657TMC3    C1 9720   2.091   2.073  14.664  0.7238  0.5432 -0.0664
  657TMC3    C2 9721   2.049   2.113  14.788 -0.1511 -0.6989  0.6657
  657TMC3    C3 9722   2.011   2.251  14.801 -0.2062  0.2822 -0.6391
  657TMC3    C4 9723   2.076   2.166  14.559  0.2045  0.4930 -0.2641
  657TMC3    C5 9724   2.016   2.288  14.578  0.4812 -0.4228  0.0312
  657TMC3    C6 9725   1.992   2.338  14.701 -0.7468 -0.2403  0.4991
  657TMC3     C 9726   2.115   1.939  14.614  0.3607  0.1751 -0.1240
  657TMC3     O 9727   2.163   1.943  14.502  0.1310 -0.1043  0.2396
  657TMC3     H 9728   2.063   2.045  14.871 -2.4133 -2.3759 -0.3555
  657TMC3    H1 9729   2.064   2.134  14.456 -0.6880  0.5632 -0.1830
  657TMC3    H2 9730   1.967   2.444  14.706 -0.3083 -0.1475  0.7203
  657TMC3    C7 9731   1.975   2.364  14.462 -0.3619 -0.0441 -0.3633
  657TMC3    C8 9732   1.977   2.302  14.931  0.6385 -0.1572  0.2447
  657TMC3    O1 9733   1.907   2.460  14.500 -0.1807  0.1168  0.1400
  657TMC3    O2 9734   2.036   2.254  15.031 -0.2936  0.7348  0.5150
  658MPD2     C 9735   4.056   2.270  14.767 -0.0988  0.0631 -0.1272
  658MPD2    C1 9736   4.013   2.393  14.798 -0.0008 -0.8242 -0.1943
  658MPD2    C2 9737   3.996   2.485  14.695  0.0156  0.3792  0.5198
  658MPD2    C3 9738   4.002   2.444  14.566  0.4604 -0.5280 -0.1757
  658MPD2    C4 9739   4.043   2.308  14.534  0.1645 -0.1805  0.5182
  658MPD2    C5 9740   4.070   2.222  14.637  0.0871  0.1024 -0.6814
  658MPD2     H 9741   3.973   2.589  14.716  0.5676  0.9584 -1.7235
  658MPD2    H1 9742   4.046   2.263  14.435 -1.6005 -1.3580  1.0045
  658MPD2    H2 9743   4.079   2.206  14.852 -0.2374 -0.6984 -0.6643
  658MPD2    H3 9744   4.079   2.117  14.612 -3.0312 -0.4861  0.5889
  658MPD2     N 9745   3.959   2.534  14.470 -0.8613  0.1305 -0.5217
  658MPD2    H5 9746   3.943   2.630  14.499  0.9948  0.8793 -2.0117
  658MPD2    N1 9747   3.982   2.422  14.932  0.1358  0.0017  0.7673
  658MPD2    H7 9748   3.962   2.341  14.991 -1.7656 -0.2931 -0.2943
  659TMC3    C1 9749   3.856   2.543  15.079  0.1080 -0.2210 -0.3426
  659TMC3    C2 9750   3.869   2.633  15.184 -0.8910  0.7691  0.1620
  659TMC3    C3 9751   3.780   2.621  15.286 -0.6357 -0.5554  0.3317
  659TMC3    C4 9752   3.769   2.438  15.082  0.4646  0.3252 -0.4621
  659TMC3    C5 9753   3.688   2.423  15.188 -0.3668  0.1703 -0.4408
  659TMC3    C6 9754   3.686   2.524  15.286 -0.5710  0.0009 -0.2287
  659TMC3     C 9755   3.957   2.548  14.981 -0.0045  0.1470 -0.2104
  659TMC3     O 9756   4.000   2.656  14.940  0.0847 -0.3718  0.5017
  659TMC3     H 9757   3.951   2.703  15.194 -1.3096  1.3259 -0.3324
  659TMC3    H1 9758   3.748   2.383  14.990  1.1678  0.8867 -0.9608
  659TMC3    H2 9759   3.600   2.543  15.350 -0.0183 -0.7751  0.7543
  659TMC3    C7 9760   3.584   2.342  15.172 -0.6244  0.1543 -0.1314
  659TMC3    C8 9761   3.778   2.723  15.383 -0.4017  0.2745 -1.1168
  659TMC3    O1 9762   3.479   2.373  15.227 -0.2450  0.2543 -0.3954
  659TMC3    O2 9763   3.696   2.815  15.366 -0.5317 -0.0175  0.0054
  660MPD2     C 9764   1.722   1.489  12.526  0.9467 -0.9745 -0.4265
  660MPD2    C1 9765   1.600   1.520  12.479  0.1923  0.3685  0.0220
  660MPD2    C2 9766   1.486   1.459  12.540 -0.4707  0.2453 -0.5938
  660MPD2    C3 9767   1.501   1.362  12.642 -0.5390 -0.6077 -0.4315
  660MPD2    C4 9768   1.627   1.332  12.690 -0.1108 -0.3699 -0.1465
  660MPD2    C5 9769   1.736   1.406  12.635 -1.1184 -0.0941 -0.4301
  660MPD2     H 9770   1.390   1.471  12.491 -1.2725  1.5082  1.2860
  660MPD2    H1 9771   1.647   1.258  12.767 -0.8688 -0.7217 -0.2806
  660MPD2    H2 9772   1.813   1.523  12.479  1.7483 -2.3522  0.1078
  660MPD2    H3 9773   1.836   1.383  12.669 -0.9660 -0.4645 -1.1473
  660MPD2     N 9774   1.407   1.272  12.693 -1.0497 -0.2672 -0.1613
  660MPD2    H5 9775   1.428   1.212  12.772  1.4756  0.3329 -0.3832
  660MPD2    N1 9776   1.586   1.600  12.361  0.1081  0.4127  0.2415
  660MPD2    H7 9777   1.671   1.626  12.312 -0.1389  0.1640 -0.3081
  661TMC3    C1 9778   1.481   1.706  12.188 -0.1967 -0.4442  0.1996
  661TMC3    C2 9779   1.570   1.662  12.097 -0.6833  0.1539 -0.1314
  661TMC3    C3 9780   1.545   1.701  11.960 -0.8878  0.3010  0.1098
  661TMC3    C4 9781   1.377   1.784  12.148 -1.0028 -0.6076  0.0366
  661TMC3    C5 9782   1.354   1.811  12.018 -0.2716  0.5017  0.6580
  661TMC3    C6 9783   1.436   1.772  11.923  0.8647 -0.2407  0.9026
  661TMC3     C 9784   1.464   1.644  12.312 -0.5199  0.1119  0.6419
  661TMC3     O 9785   1.356   1.658  12.369 -0.1311 -0.2575  0.0913
  661TMC3     H 9786   1.654   1.599  12.123 -1.5968 -1.2814 -0.6195
  661TMC3    H1 9787   1.309   1.829  12.220 -1.6564  0.7923 -1.4625
  661TMC3    H2 9788   1.399   1.786  11.822 -1.3211 -0.5254  1.6661
  661TMC3    C7 9789   1.224   1.858  11.978 -0.2079 -0.1300 -0.6622
  661TMC3    C8 9790   1.643   1.667  11.852 -0.1475 -0.2670  0.0981
  661TMC3    O1 9791   1.199   1.972  12.006  0.1636 -0.4022  0.6350
  661TMC3    O2 9792   1.724   1.578  11.862 -0.3268 -0.3500 -0.3808
  662MPD2     C 9793   2.215   1.190  17.002  1.1360 -0.2432  0.1306
  662MPD2    C1 9794   2.179   1.150  17.135 -0.4079  0.0983 -0.8497
  662MPD2    C2 9795   2.145   1.250  17.226 -0.2861  0.8518 -0.1458
  662MPD2    C3 9796   2.149   1.381  17.190 -0.3854 -0.4555 -0.4335
  662MPD2    C4 9797   2.174   1.412  17.060 -0.0584 -0.1019  0.4979
  662MPD2    C5 9798   2.207   1.319  16.964 -0.4586  0.7373 -0.2980
  662MPD2     H 9799   2.103   1.230  17.324 -1.2646  0.4996 -0.6350
  662MPD2    H1 9800   2.180   1.518  17.035 -3.2420  0.0181  0.2878
  662MPD2    H2 9801   2.241   1.112  16.931 -1.4490 -1.4747  0.5400
  662MPD2    H3 9802   2.224   1.349  16.861 -1.3003 -2.0101 -1.2349
  662MPD2     N 9803   2.116   1.472  17.294  0.8497  0.4684  0.7201
  662MPD2    H5 9804   2.106   1.436  17.389  3.0352  0.2713  0.8885
  662MPD2    N1 9805   2.158   1.016  17.172 -0.4386 -0.4679 -0.0644
  662MPD2    H7 9806   2.124   0.996  17.265 -0.7518  1.5220  0.2270
  663TMC3    C1 9807   2.215   0.793  17.188  0.3649  0.0477 -0.5830
  663TMC3    C2 9808   2.177   0.802  17.316  0.2210 -0.0234 -0.1135
  663TMC3    C3 9809   2.128   0.701  17.386 -0.2557 -1.2186 -0.6721
  663TMC3    C4 9810   2.204   0.679  17.118 -0.4400  0.0232  0.3494
  663TMC3    C5 9811   2.153   0.572  17.189 -0.4944  0.5314  0.0657
  663TMC3    C6 9812   2.104   0.585  17.318 -0.2592  0.7775 -0.3302
  663TMC3     C 9813   2.214   0.911  17.100  0.1970 -0.0296  0.4843
  663TMC3     O 9814   2.242   0.904  16.984  0.7131  0.0181  0.3895
  663TMC3     H 9815   2.207   0.885  17.379  0.7290 -0.7081  0.5489
  663TMC3    H1 9816   2.254   0.665  17.023  1.1092 -0.1630  1.1858
  663TMC3    H2 9817   2.076   0.507  17.388  2.8296 -1.1737 -1.2566
  663TMC3    C7 9818   2.151   0.450  17.115 -0.0287  0.0897  0.2908
  663TMC3    C8 9819   2.015   0.762  17.449  0.6899  0.3170  0.1564
  663TMC3    O1 9820   2.202   0.452  17.005  0.2231  0.4576 -0.3005
  663TMC3    O2 9821   1.985   0.876  17.425  0.2757 -0.3703 -0.1735
  664MPD2     C 9822   0.193   3.905  17.239  0.4018  0.0110  0.0966
  664MPD2    C1 9823   0.238   4.015  17.302  0.2096  0.1086  0.0050
  664MPD2    C2 9824   0.222   4.013  17.441  0.0565 -0.0491 -0.4422
  664MPD2    C3 9825   0.146   3.911  17.499  0.4008 -0.1226  0.2194
  664MPD2    C4 9826   0.082   3.815  17.423  0.8294  0.5374  0.0498
  664MPD2    C5 9827   0.115   3.807  17.299  0.2229  0.0499 -0.0643
  664MPD2     H 9828   0.251   4.095  17.506  0.8789  0.5538 -1.5745
  664MPD2    H1 9829   0.006   3.746  17.459  1.5740 -0.7853 -0.9369
  664MPD2    H2 9830   0.232   3.892  17.139 -1.3202 -1.2983 -0.4064
  664MPD2    H3 9831   0.085   3.718  17.245  0.2513  0.8085 -1.3389
  664MPD2     N 9832   0.130   3.926  17.644  0.3790 -0.0093  0.3281
  664MPD2    H5 9833   0.190   3.992  17.691 -0.6005  0.5093  0.8541
  664MPD2    N1 9834   0.308   4.118  17.238  0.2836 -0.4622  0.7144
  664MPD2    H7 9835   0.315   4.105  17.138  3.9344  1.1574  0.7770
  665TMC3    C1 9836   0.065   3.892   0.160 -1.0311  0.5412 -0.1455
  665TMC3    C2 9837   0.098   3.796   0.253 -0.3109  0.1799 -0.3277
  665TMC3    C3 9838   0.144   3.852   0.372 -1.0872 -0.8089  0.2988
  665TMC3    C4 9839   0.074   4.028   0.168 -0.5035  0.0297 -0.1097
  665TMC3    C5 9840   0.118   4.070   0.290  0.4719 -0.4338 -0.2289
  665TMC3    C6 9841   0.148   3.987   0.392  0.0020  0.2182  0.7015
  665TMC3     C 9842   0.056   3.846   0.028 -0.6960 -0.2340 -0.5411
  665TMC3     O 9843   4.696   3.767   0.001  0.2964  0.1360  0.6718
  665TMC3     H 9844   0.080   3.691   0.231 -2.3181  0.2732  0.9083
  665TMC3    H1 9845   0.040   4.098   0.092  2.8124  1.4639 -0.2790
  665TMC3    H2 9846   0.168   4.021   0.492 -2.2077  1.2446  0.7900
  665TMC3    C7 9847   0.104   4.213   0.305  0.3444 -0.3928 -0.1900
  665TMC3    C8 9848   0.154   3.768   0.495 -0.7176 -0.4643 -0.3395
  665TMC3    O1 9849   0.025   4.261   0.225  0.0532 -0.3109 -0.0966
  665TMC3    O2 9850   0.129   3.834   0.596  0.4925  0.2068  0.4881
  666TMC3    C1 9851   4.216   4.257   9.812 -0.3993 -0.2378  0.5297
  666TMC3    C2 9852   4.296   4.150   9.844  1.1093  0.0220  0.1416
  666TMC3    C3 9853   4.428   4.161   9.852 -0.4544  0.3795  0.0263
  666TMC3    C4 9854   4.272   4.370   9.776  0.2350 -0.1950 -0.0883
  666TMC3    C5 9855   4.405   4.379   9.781  0.6817  0.3828 -0.3031
  666TMC3    C6 9856   4.488   4.276   9.808 -0.4267  0.0989 -0.2425
  666TMC3     C 9857   4.092   4.269   9.880  0.9236 -0.3573 -0.5311
  666TMC3     O 9858   4.007   4.352   9.845 -0.0955  0.2147  0.0039
  666TMC3     H 9859   4.245   4.058   9.869  0.1541  0.2275 -1.0497
  666TMC3    H1 9860   4.196   4.445   9.754 -0.6193 -0.7981  0.7613
  666TMC3    H2 9861   4.593   4.296   9.827 -0.4767  0.6868 -0.5895
  666TMC3    C7 9862   4.477   4.497   9.748  0.0055  0.1086  0.2356
  666TMC3    C8 9863   4.485   4.084   9.954 -0.0234  0.3837 -0.0988
  666TMC3    O1 9864   4.600   4.482   9.735  0.1528  0.2715  0.4864
  666TMC3    O2 9865   4.409   4.058  10.048  0.6288 -0.1288 -0.6575
  667MPD2     C 9866   0.482   4.116  14.483 -0.6426 -0.5012  0.2940
  667MPD2    C1 9867   0.468   4.032  14.592  0.4117  0.0833  0.1285
  667MPD2    C2 9868   0.359   3.950  14.598 -0.9406 -0.3656  0.4198
  667MPD2    C3 9869   0.267   3.950  14.490 -0.7132 -0.3126  0.0172
  667MPD2    C4 9870   0.293   4.027  14.377 -0.5810  0.7084  0.7224
  667MPD2    C5 9871   0.402   4.113  14.374  0.1938 -0.7184  0.0908
  667MPD2     H 9872   0.339   3.885  14.683  0.6162  0.6940  1.6004
  667MPD2    H1 9873   0.224   4.045  14.296  1.6809  1.5223 -1.0358
  667MPD2    H2 9874   0.552   4.199  14.481 -3.1375  1.5567 -3.0063
  667MPD2    H3 9875   0.427   4.181  14.294 -1.9953 -0.3392 -0.2729
  667MPD2     N 9876   0.151   3.863  14.475  0.5988  0.2440 -0.3581
  667MPD2    H5 9877   0.112   3.836  14.385 -0.6957 -3.3335  1.2476
  667MPD2    N1 9878   0.541   4.042  14.718 -0.0721  0.5492 -0.5426
  667MPD2    H7 9879   0.507   3.985  14.795  3.8022 -0.5719  0.3865
  668TMC3    C1 9880   0.733   4.122  14.843  0.1095 -0.3262  0.6933
  668TMC3    C2 9881   0.863   4.153  14.841 -0.0138  0.1954 -0.5773
  668TMC3    C3 9882   0.918   4.182  14.961  0.5582 -0.1259  0.1020
  668TMC3    C4 9883   0.668   4.090  14.960  0.0001  0.3991  0.5628
  668TMC3    C5 9884   0.730   4.112  15.078  0.0591 -0.3241 -0.6335
  668TMC3    C6 9885   0.858   4.165  15.079  0.2475 -0.3608  0.5168
  668TMC3     C 9886   0.663   4.105  14.719 -0.1777  0.2852  0.3944
  668TMC3     O 9887   0.727   4.137  14.618  0.7943  0.0677 -0.3952
  668TMC3     H 9888   0.919   4.156  14.748  0.8177 -0.1772 -0.0906
  668TMC3    H1 9889   0.564   4.058  14.964  0.2298 -0.5836 -1.2771
  668TMC3    H2 9890   0.914   4.190  15.169 -0.6231 -3.0195  1.8242
  668TMC3    C7 9891   0.682   4.066  15.207  0.7077 -0.1722 -0.2080
  668TMC3    C8 9892   1.046   4.247  14.958 -0.2782  0.1604 -0.1620
  668TMC3    O1 9893   0.754   4.096  15.301  0.9906  0.3443 -0.2608
  668TMC3    O2 9894   1.107   4.246  15.065  0.0530 -0.3720  0.2018
  669TMC3    C1 9895   3.525   4.328  14.514 -0.2221 -0.0439  0.7368
  669TMC3    C2 9896   3.392   4.328  14.492  1.2810 -0.3601  0.0878
  669TMC3    C3 9897   3.358   4.357  14.362  0.4649  0.3506 -0.7189
  669TMC3    C4 9898   3.621   4.364  14.427 -0.6247 -0.6282 -0.1689
  669TMC3    C5 9899   3.579   4.400  14.298  0.0192 -0.0535  0.0469
  669TMC3    C6 9900   3.448   4.390  14.257  0.1865 -0.1214 -0.4093
  669TMC3     C 9901   3.564   4.268  14.642  0.3993  0.7866 -0.4420
  669TMC3     O 9902   3.466   4.244  14.709 -0.0269 -0.0673 -0.3784
  669TMC3     H 9903   3.317   4.321  14.570 -0.0314 -3.2391 -1.4355
  669TMC3    H1 9904   3.725   4.363  14.457 -1.0815  2.9374  1.5612
  669TMC3    H2 9905   3.408   4.437  14.168 -0.3370  1.0413  0.4373
  669TMC3    C7 9906   3.656   4.508  14.234 -0.2271  0.2703 -0.5023
  669TMC3    C8 9907   3.226   4.320  14.309  0.3516  1.3688 -0.0895
  669TMC3    O1 9908   3.754   4.543  14.301 -0.4830  0.2752  0.1526
  669TMC3    O2 9909   3.212   4.254  14.205  0.6198 -0.6661  0.8606
  670MPD2     C 9910   1.624   1.946  13.343 -0.2957 -0.7189 -0.0249
  670MPD2    C1 9911   1.734   1.918  13.422  0.0452  0.9396 -0.1813
  670MPD2    C2 9912   1.721   1.849  13.541  0.7930  0.1623  0.3270
  670MPD2    C3 9913   1.599   1.789  13.569 -0.5756  0.0846  0.3488
  670MPD2    C4 9914   1.495   1.800  13.475 -0.6355  0.0917 -0.3957
  670MPD2    C5 9915   1.506   1.883  13.369  0.4768  0.1841 -0.3715
  670MPD2     H 9916   1.806   1.838  13.608  0.4539  0.8796  0.8718
  670MPD2    H1 9917   1.397   1.754  13.485 -0.0470 -0.9956  0.4285
  670MPD2    H2 9918   1.624   2.001  13.250  0.2330 -2.8855 -1.2855
  670MPD2    H3 9919   1.427   1.885  13.295  1.8209 -1.7390 -1.8813
  670MPD2     N 9920   1.585   1.744  13.703  0.0672  0.6163 -0.3610
  670MPD2    H5 9921   1.662   1.765  13.766  1.2612  0.2344 -1.6910
  670MPD2    N1 9922   1.871   1.966  13.396 -0.5723 -0.3460 -0.0362
  670MPD2    H7 9923   1.951   1.929  13.447  0.0286  1.4985  0.3409
  671TMC3    C1 9924   1.469   1.635  13.882 -0.4136  0.1280 -0.1401
  671TMC3    C2 9925   1.575   1.644  13.971 -0.2251  0.2335  0.2707
  671TMC3    C3 9926   1.570   1.567  14.078 -0.2176  0.4795  0.7033
  671TMC3    C4 9927   1.354   1.572  13.915  0.3211 -0.2909  0.7458
  671TMC3    C5 9928   1.352   1.498  14.024  0.0905  0.7080  0.5385
  671TMC3    C6 9929   1.462   1.494  14.109 -0.0186 -0.1137 -0.2713
  671TMC3     C 9930   1.476   1.670  13.745 -0.5830 -0.2577  0.8112
  671TMC3     O 9931   1.389   1.624  13.670  0.6410  0.5598  0.2330
  671TMC3     H 9932   1.670   1.681  13.936 -0.2724 -1.3923 -1.5576
  671TMC3    H1 9933   1.276   1.549  13.843  1.2355  0.3110 -0.4382
  671TMC3    H2 9934   1.459   1.407  14.175  1.0287  0.5981  0.7194
  671TMC3    C7 9935   1.303   1.370  13.988  0.9471 -0.3613  0.3033
  671TMC3    C8 9936   1.698   1.512  14.125  0.6836  0.1625 -0.4232
  671TMC3    O1 9937   1.385   1.288  13.961  0.1238  0.4240 -0.4344
  671TMC3    O2 9938   1.777   1.498  14.032  0.1874  0.3664 -0.0199
  672MPD2     C 9939   2.717   2.139   1.365 -0.0335 -0.2016 -0.1484
  672MPD2    C1 9940   2.784   2.030   1.309  0.3082  0.0618  0.0141
  672MPD2    C2 9941   2.919   2.032   1.282 -0.1633 -0.2569  0.1465
  672MPD2    C3 9942   2.988   2.151   1.295 -0.1040  0.0992 -0.7179
  672MPD2    C4 9943   2.921   2.260   1.347 -0.7375  0.1454 -0.1534
  672MPD2    C5 9944   2.792   2.255   1.378 -0.1833  0.1152  0.6591
  672MPD2     H 9945   2.970   1.947   1.239  1.2339  1.4264 -1.5452
  672MPD2    H1 9946   2.961   2.358   1.371 -0.1209 -0.4964  1.4003
  672MPD2    H2 9947   2.614   2.124   1.395 -1.1853  1.7503 -3.1176
  672MPD2    H3 9948   2.744   2.343   1.418 -0.2855  1.8237 -3.2457
  672MPD2     N 9949   3.122   2.166   1.252 -0.0897 -0.2346 -0.0827
  672MPD2    H5 9950   3.157   2.261   1.254  0.2556 -0.4176  2.4935
  672MPD2    N1 9951   2.704   1.918   1.268 -0.0476  0.1121 -0.3446
  672MPD2    H7 9952   2.754   1.835   1.238  0.9131  1.5833 -2.8522
  673TMC3    C1 9953   2.531   1.776   1.204  0.3644  0.0920  0.1180
  673TMC3    C2 9954   2.611   1.671   1.235  0.1866  0.8181 -0.0804
  673TMC3    C3 9955   2.618   1.572   1.141 -0.0096  0.2137 -0.4334
  673TMC3    C4 9956   2.457   1.787   1.086 -0.6662 -0.5260 -0.9211
  673TMC3    C5 9957   2.485   1.705   0.988  0.2172 -0.4913 -0.0658
  673TMC3    C6 9958   2.554   1.586   1.017 -0.5735 -0.1450 -0.3092
  673TMC3     C 9959   2.565   1.905   1.264 -0.2101 -0.1117  0.8396
  673TMC3     O 9960   2.482   1.996   1.276  0.0323  0.1705  0.4078
  673TMC3     H 9961   2.666   1.668   1.328 -0.0363  2.2611  0.0950
  673TMC3    H1 9962   2.394   1.874   1.070  0.5892  0.2833 -1.4612
  673TMC3    H2 9963   2.586   1.523   0.935 -1.4519  0.7372 -1.3396
  673TMC3    C7 9964   2.485   1.746   0.848  0.1631  0.2235 -0.5824
  673TMC3    C8 9965   2.662   1.439   1.189  0.6205 -0.1393  0.7770
  673TMC3    O1 9966   2.483   1.651   0.775  0.3821  0.2146 -0.6207
  673TMC3    O2 9967   2.617   1.343   1.125 -0.0127 -0.2020 -0.3855
  674MPD2     C 9968   2.807   1.724  17.418  0.4485  0.1674 -0.0209
  674MPD2    C1 9969   2.699   1.640  17.419  0.4939  0.3137  0.5832
  674MPD2    C2 9970   2.601   1.653  17.516 -0.6982  0.3407  0.2220
  674MPD2    C3 9971   2.628   1.741  17.622 -0.0774  0.6236  0.4473
  674MPD2    C4 9972   2.743   1.823  17.622  0.2314  0.5465 -0.0076
  674MPD2    C5 9973   2.828   1.810  17.518  0.0002 -0.7378  0.4263
  674MPD2     H 9974   2.505   1.602  17.511  0.4641 -1.8318  0.0606
  674MPD2    H1 9975   2.770   1.901  17.693  1.8702 -0.5839  0.5992
  674MPD2    H2 9976   2.881   1.727  17.338 -0.5318 -0.1083 -0.9365
  674MPD2    H3 9977   2.925   1.859  17.518 -0.4608  0.1572  0.0572
  674MPD2     N 9978   2.531   1.749   0.018  0.2651  0.4956 -0.6996
  674MPD2    H5 9979   2.459   1.678   0.005 -0.0632  0.2960  2.2001
  674MPD2    N1 9980   2.682   1.553  17.303  0.3697 -0.0537  0.0996
  674MPD2    H7 9981   2.756   1.553  17.234  1.6802  2.2274  1.4719
  675TMC3    C1 9982   2.566   1.375  17.404  0.4482  0.4476 -0.0949
  675TMC3    C2 9983   2.429   1.346  17.424 -0.2057  0.4259  0.1433
  675TMC3    C3 9984   2.393   1.287  17.543 -0.3103  1.0304 -0.6006
  675TMC3    C4 9985   2.657   1.349  17.496 -0.2058  0.3763  0.4581
  675TMC3    C5 9986   2.612   1.297  17.618 -0.4670 -0.4803  0.0712
  675TMC3    C6 9987   2.479   1.274  17.645 -0.2063  0.6809 -0.4105
  675TMC3     C 9988   2.592   1.455  17.285 -0.5225 -0.3050 -0.6385
  675TMC3     O 9989   2.530   1.433  17.178 -0.1989  0.2844 -0.1294
  675TMC3     H 9990   2.360   1.390  17.354 -3.4605 -1.5227  2.1035
  675TMC3    H1 9991   2.762   1.357  17.467  0.0617 -0.5431  1.1690
  675TMC3    H2 9992   2.450   1.231   0.034 -0.6017 -0.2480 -0.9567
  675TMC3    C7 9993   2.691   1.326   0.029 -0.0927  0.3266  0.4596
  675TMC3    C8 9994   2.257   1.249  17.567  0.0321 -0.0948  0.6057
  675TMC3    O1 9995   2.647   1.283   0.134  0.2781  0.2089 -0.3838
  675TMC3    O2 9996   2.165   1.317  17.522 -0.5400  0.6941  0.4744
  676MPD2     C 9997   4.700   0.628  10.658  0.1243  0.6147 -0.1653
  676MPD2    C1 9998   4.609   0.582  10.751 -0.6315  0.7549 -0.3732
  676MPD2    C2 9999   4.603   0.449  10.774  0.2061  0.6785  0.1274
  676MPD2    C310000   4.680   0.356  10.706  0.6314  0.5426  0.4809
  676MPD2    C410001   0.050   0.405  10.616 -0.1258 -0.6040  0.4807
  676MPD2    C510002   0.061   0.539  10.594  0.2345 -0.0645 -0.1312
  676MPD2     H10003   4.534   0.415  10.850 -2.6705  0.2593 -2.6618
  676MPD2    H110004   0.124   0.342  10.568 -0.1249 -0.1537 -0.1135
  676MPD2    H210005   4.706   0.733  10.629  1.4817  0.5079 -0.3051
  676MPD2    H310006   0.130   0.572  10.518 -0.2234 -0.4963 -0.7317
  676MPD2     N10007   4.673   0.221  10.731 -0.1125 -0.5943  0.3815
  676MPD2    H510008   4.710   0.167  10.653  3.1259  1.1426  0.7239
  676MPD2    N110009   4.502   0.654  10.817 -0.7987  0.2019 -0.0546
  676MPD2    H710010   4.440   0.592  10.868 -0.5474 -0.0244 -0.0205
  677TMC3    C110011   4.376   0.837  10.892  0.4640  0.6317  0.6287
  677TMC3    C210012   4.297   0.756  10.968  0.1611  0.1168 -0.2255
  677TMC3    C310013   4.206   0.818  11.057  0.3254  0.5729 -0.3395
  677TMC3    C410014   4.381   0.971  10.918 -0.4982  0.5559  0.1962
  677TMC3    C510015   4.299   1.026  11.012  0.1751  0.0972 -0.0439
  677TMC3    C610016   4.195   0.955  11.066 -0.1671 -0.1431  0.5642
  677TMC3     C10017   4.490   0.789  10.826 -0.3317 -0.3242 -0.3621
  677TMC3     O10018   4.590   0.866  10.814 -0.0706 -0.1568 -0.0318
  677TMC3     H10019   4.298   0.648  10.963 -2.5748  0.1681 -2.0044
  677TMC3    H110020   4.436   1.043  10.859 -2.4196  0.6127 -1.5297
  677TMC3    H210021   4.150   0.997  11.155  0.7928  2.1023  0.0009
  677TMC3    C710022   4.358   1.123  11.103 -0.1178 -0.3290  0.0150
  677TMC3    C810023   4.164   0.754  11.182  0.1166 -0.3056 -0.1461
  677TMC3    O110024   4.291   1.158  11.199 -0.4945 -0.0468  0.2292
  677TMC3    O210025   4.060   0.794  11.227  0.2747  0.5869  0.9604
  678MPD2     C10026   1.244   4.675   1.524 -0.2436 -0.0061 -0.3932
  678MPD2    C110027   1.239   4.648   1.396  0.0410 -0.2614  0.6384
  678MPD2    C210028   1.151   4.717   1.312  0.3860  1.3522  0.1254
  678MPD2    C310029   1.055   0.080   1.360 -0.6731 -0.9117 -0.0540
  678MPD2    C410030   1.060   0.101   1.495 -0.3461  0.1880  0.2502
  678MPD2    C510031   1.155   0.041   1.574 -0.1982  0.0982 -0.0997
  678MPD2     H10032   1.154   4.695   1.206 -3.0781 -0.3431  0.3595
  678MPD2    H110033   0.990   0.176   1.532  1.0562  1.4893  0.2317
  678MPD2    H210034   1.312   4.638   1.600  1.5180  0.8069 -1.5792
  678MPD2    H310035   1.166   0.075   1.677 -3.1210  0.7026  0.0404
  678MPD2     N10036   0.951   0.122   1.271 -0.2485  0.1894 -0.4933
  678MPD2    H510037   0.969   0.089   1.177 -0.5356  0.2000 -0.5516
  678MPD2    N110038   1.325   4.556   1.335  0.6075  0.0994 -0.2764
  678MPD2    H710039   1.310   4.541   1.236  2.9990 -2.8692 -0.2092
  679TMC3    C110040   1.586   4.183   1.237  0.2479 -0.4175  0.1692
  679TMC3    C210041   1.520   4.262   1.327  0.0159  0.5404 -0.5723
  679TMC3    C310042   1.482   4.388   1.292  0.0326  0.0250 -0.3454
  679TMC3    C410043   1.619   4.228   1.115  0.8655 -0.0887  0.4989
  679TMC3    C510044   1.579   4.357   1.082 -0.0170 -0.2995  0.2194
  679TMC3    C610045   1.505   4.434   1.165  0.2097 -0.1099 -0.1934
  679TMC3     C10046   1.621   4.050   1.270  0.3894 -0.6720 -0.3576
  679TMC3     O10047   1.699   3.992   1.199 -0.4259 -0.7268 -0.0760
  679TMC3     H10048   1.483   4.228   1.423 -0.0911  0.1212 -0.7663
  679TMC3    H110049   1.673   4.163   1.047  0.4903 -1.5946  1.6455
  679TMC3    H210050   1.481   4.537   1.138 -0.2589 -0.8518 -2.6185
  679TMC3    C710051   1.587   4.410   0.948 -0.8735 -0.1008 -0.5404
  679TMC3    C810052   1.417   4.469   1.393 -0.8521 -0.6808 -0.1707
  679TMC3    O110053   1.483   4.470   0.915 -0.4433  0.0615  0.7154
  679TMC3    O210054   1.454   4.459   1.508 -0.6172 -0.2979  0.2848
  680MPD2     C10055   1.439   3.999  13.791 -0.6115 -0.0929  0.1798
  680MPD2    C110056   1.520   3.932  13.876 -0.4246  0.0733  0.4259
  680MPD2    C210057   1.613   4.008  13.946  0.1537  0.3965 -1.0065
  680MPD2    C310058   1.632   4.148  13.920 -0.0857  0.0352  0.4307
  680MPD2    C410059   1.548   4.206  13.833  0.3832 -0.1146 -0.0036
  680MPD2    C510060   1.454   4.134  13.775  0.3484  0.2333  0.3273
  680MPD2     H10061   1.680   3.968  14.021 -1.6495 -2.5633 -0.9606
  680MPD2    H110062   1.546   4.308  13.796  0.5567 -0.7834 -1.8701
  680MPD2    H210063   1.364   3.947  13.733 -0.4069  0.1704 -0.3179
  680MPD2    H310064   1.393   4.178  13.697  1.2863  0.0708 -0.4963
  680MPD2     N10065   1.737   4.237  13.976 -0.4111  0.1760  0.7168
  680MPD2    H510066   1.726   4.338  13.971  0.6421  0.1317 -2.3522
  680MPD2    N110067   1.510   3.796  13.901  1.0074 -0.5206 -0.1063
  680MPD2    H710068   1.559   3.751  13.978 -2.3073 -0.4003  2.0412
  681TMC3    C110069   1.443   3.572  13.858 -0.1680  0.1170 -0.1224
  681TMC3    C210070   1.466   3.538  13.991  0.5876 -0.0637 -0.0382
  681TMC3    C310071   1.480   3.408  14.017 -0.6233 -0.0503 -0.2527
  681TMC3    C410072   1.415   3.480  13.767 -0.8184  0.2819 -0.1580
  681TMC3    C510073   1.423   3.347  13.795 -0.7922 -0.8652  0.3724
  681TMC3    C610074   1.458   3.311  13.918 -0.1262 -0.4660  0.1422
  681TMC3     C10075   1.440   3.710  13.817 -0.6931  0.3297 -0.5030
  681TMC3     O10076   1.375   3.728  13.712  0.4225 -0.1870 -0.4621
  681TMC3     H10077   1.472   3.615  14.067 -0.8507 -0.8233  0.8469
  681TMC3    H110078   1.382   3.507  13.667 -0.4065  1.1259 -0.0680
  681TMC3    H210079   1.461   3.206  13.944 -0.3258 -0.1710  1.3860
  681TMC3    C710080   1.471   3.250  13.696 -0.9364  0.4370 -0.3134
  681TMC3    C810081   1.483   3.352  14.151  0.4591 -0.0980 -0.4097
  681TMC3    O110082   1.454   3.130  13.718 -0.2354 -0.1518 -0.3577
  681TMC3    O210083   1.456   3.234  14.156 -0.0569  0.3363 -0.3667
  682MPD2     C10084   4.019   0.447  10.327 -0.6587  0.6155  0.3880
  682MPD2    C110085   3.967   0.560  10.257 -0.7925 -0.0991 -0.5701
  682MPD2    C210086   3.871   0.640  10.324 -0.6173 -0.4033 -0.1979
  682MPD2    C310087   3.824   0.608  10.449 -0.4314  0.1992  0.1740
  682MPD2    C410088   3.876   0.500  10.509  0.3870 -0.4447 -0.0147
  682MPD2    C510089   3.973   0.422  10.450  0.0248  0.1518  0.0818
  682MPD2     H10090   3.825   0.721  10.269  2.1540  2.3556  1.5155
  682MPD2    H110091   3.860   0.478  10.614  1.2206 -0.1853  0.1659
  682MPD2    H210092   4.097   0.378  10.295 -0.5090  0.2570  1.5452
  682MPD2    H310093   4.022   0.347  10.512  2.3758  1.0461 -0.7019
  682MPD2     N10094   3.743   0.687  10.534  0.6056 -0.1813  0.7870
  682MPD2    H510095   3.720   0.646  10.624 -3.6787 -0.1149 -0.2718
  682MPD2    N110096   4.013   0.590  10.130  0.5211  0.1578  0.1506
  682MPD2    H710097   3.955   0.658  10.083  0.4797 -1.2652 -1.8984
  683TMC3    C110098   3.670   1.101  10.727  0.1310  0.8151  0.5559
  683TMC3    C210099   3.606   1.042  10.837 -0.1448  0.0610 -0.3547
  683TMC3    C310100   3.565   0.913  10.828  0.6153 -0.0287  0.5029
  683TMC3    C410101   3.711   1.022  10.619 -0.4461 -0.0766 -0.5266
  683TMC3    C510102   3.663   0.893  10.615  0.2228  0.3263  0.9913
  683TMC3    C610103   3.589   0.833  10.717  0.4759 -0.6781 -1.1890
  683TMC3     C10104   3.737   1.225  10.744  0.3513  0.1426 -0.3415
  683TMC3     O10105   3.828   1.250  10.665 -0.0795  0.1098 -0.3478
  683TMC3     H10106   3.586   1.096  10.929  1.0661  0.7965 -0.5283
  683TMC3    H110107   3.757   1.076  10.538  0.1312  1.5782  0.9012
  683TMC3    H210108   3.526   0.750  10.688  0.9453 -0.8153 -1.8022
  683TMC3    C710109   3.725   0.818  10.505 -0.6427 -0.8014  0.4799
  683TMC3    C810110   3.539   0.860  10.956 -0.8483  0.3573 -0.2076
  683TMC3    O110111   3.775   0.891  10.418  0.0830 -0.0398 -0.5818
  683TMC3    O210112   3.538   0.932  11.060 -0.2369 -0.3029  0.0697
  684MPD2     C10113   2.094   4.657  16.352 -0.4944  0.2307 -1.1964
  684MPD2    C110114   2.208   4.680  16.280  0.6365 -0.1287  0.0334
  684MPD2    C210115   2.217   0.070  16.212  0.5333  0.2502 -0.1305
  684MPD2    C310116   2.118   0.161  16.208 -0.4938  0.1185 -0.3637
  684MPD2    C410117   2.002   0.135  16.279 -0.4651  0.1494  0.1827
  684MPD2    C510118   1.990   0.019  16.354 -0.1223  0.2336  0.1552
  684MPD2     H10119   2.313   0.084  16.164 -0.7006  1.8765 -2.0790
  684MPD2    H110120   1.920   0.205  16.265 -1.5284 -1.0069  0.6597
  684MPD2    H210121   2.092   4.571  16.417  0.5095  0.7976 -0.4143
  684MPD2    H310122   1.902   4.712  16.408 -1.2166  1.4633 -0.8822
  684MPD2     N10123   2.141   0.280  16.140  0.7520  0.1597  0.6021
  684MPD2    H510124   2.236   0.300  16.110  1.2805 -2.3289  0.6253
  684MPD2    N110125   2.317   4.598  16.269  0.1853 -0.1808 -0.3145
  684MPD2    H710126   2.384   4.619  16.196 -0.9834  2.1054 -0.7250
  685TMC3    C110127   2.412   4.401  16.268  0.7315  0.4272 -0.4252
  685TMC3    C210128   2.415   4.398  16.129  0.4322  0.1572  0.1410
  685TMC3    C310129   2.476   4.292  16.063 -0.5092 -0.2887  0.0072
  685TMC3    C410130   2.476   4.302  16.341 -0.4498 -0.2288 -0.4521
  685TMC3    C510131   2.538   4.201  16.268  0.8035 -0.5816  0.6378
  685TMC3    C610132   2.545   4.196  16.128 -0.2662 -0.1127 -0.3379
  685TMC3     C10133   2.338   4.497  16.347 -0.4126 -0.3287  0.1912
  685TMC3     O10134   2.303   4.473  16.460  0.5200 -0.1079  0.0944
  685TMC3     H10135   2.367   4.475  16.069 -0.1858  0.3478  0.8934
  685TMC3    H110136   2.466   4.293  16.448  2.4833 -1.1157 -0.2382
  685TMC3    H210137   2.604   4.118  16.082  1.1465  0.2514  0.8541
  685TMC3    C710138   2.587   4.092  16.346 -0.0277 -0.3985  0.0900
  685TMC3    C810139   2.479   4.290  15.917 -0.0217 -0.3519 -0.0368
  685TMC3    O110140   2.606   4.119  16.461  0.1553 -0.3254 -0.1297
  685TMC3    O210141   2.559   4.217  15.857  0.1918 -0.4166  0.6221
  686MPD2     C10142   3.752   4.438  15.484 -0.9005 -0.5560 -0.3895
  686MPD2    C110143   3.822   4.374  15.578 -0.2083  0.5571 -0.8014
  686MPD2    C210144   3.942   4.309  15.550  0.0602  0.5474 -0.4263
  686MPD2    C310145   3.982   4.314  15.421 -0.0119 -0.2288  0.9514
  686MPD2    C410146   3.911   4.385  15.325 -0.5049 -0.3114 -0.1956
  686MPD2    C510147   3.797   4.451  15.362 -0.2613  0.3508  0.0650
  686MPD2     H10148   4.000   4.274  15.635  0.1220 -0.9452 -1.0888
  686MPD2    H110149   3.934   4.381  15.219  0.3732 -2.0358  0.0514
  686MPD2    H210150   3.655   4.484  15.501 -0.6388 -0.3384  0.5325
  686MPD2    H310151   3.742   4.506  15.287 -0.6816 -0.3129 -0.1191
  686MPD2     N10152   4.108   4.260  15.372  0.1796 -0.2931 -0.0602
  686MPD2    H510153   4.144   4.305  15.289 -0.2311 -0.2739 -0.2269
  686MPD2    N110154   3.755   4.383  15.701 -0.1817  0.4756  0.0598
  686MPD2    H710155   3.661   4.420  15.700 -0.7683 -0.9637  0.7429
  687TMC3    C110156   4.147   4.073  15.536 -0.5817  0.1201 -0.4628
  687TMC3    C210157   4.018   4.024  15.535  0.6984 -0.4459 -0.1119
  687TMC3    C310158   3.970   3.969  15.647 -0.0693 -0.4799  0.1412
  687TMC3    C410159   4.226   4.054  15.641 -0.4994  0.7858 -0.1941
  687TMC3    C510160   4.168   4.004  15.758  1.0799  0.0863 -0.2851
  687TMC3    C610161   4.040   3.955  15.760  0.4707 -0.1169  0.6535
  687TMC3     C10162   4.193   4.168  15.436 -0.1564 -0.1856 -0.4708
  687TMC3     O10163   4.315   4.151  15.415 -0.1893 -0.3374  0.3838
  687TMC3     H10164   3.968   4.030  15.439  0.8465 -0.1251 -0.1694
  687TMC3    H110165   4.332   4.074  15.633 -0.5574  1.3709  0.5460
  687TMC3    H210166   3.994   3.921  15.852 -1.6279  0.6788 -0.1001
  687TMC3    C710167   4.212   4.070  15.880  0.1360 -0.2169 -0.3608
  687TMC3    C810168   3.822   3.967  15.669 -0.4594  0.3386  0.6797
  687TMC3    O110169   4.273   4.178  15.867  0.1363  0.6518  0.3040
  687TMC3    O210170   3.788   3.923  15.780  0.5835 -0.0748 -0.3389
  688MPD2     C10171   2.923   3.210  17.340  0.4855  0.4647  0.1511
  688MPD2    C110172   2.936   3.071  17.344  1.4268 -1.2143 -0.0476
  688MPD2    C210173   3.009   3.010  17.243 -0.2771 -0.2359  0.1974
  688MPD2    C310174   3.087   3.086  17.152 -0.1126 -0.3100 -0.1403
  688MPD2    C410175   3.072   3.223  17.153 -0.2839  0.2247  0.0541
  688MPD2    C510176   2.984   3.283  17.234  0.3023  0.3343 -0.1375
  688MPD2     H10177   3.000   2.902  17.240 -2.5459 -0.0771  1.7207
  688MPD2    H110178   3.130   3.292  17.092 -1.9870  0.4730 -1.2971
  688MPD2    H210179   2.886   3.271  17.422  0.6115  1.1518 -0.3061
  688MPD2    H310180   2.958   3.387  17.216 -3.5618 -0.5770  0.1232
  688MPD2     N10181   3.189   3.037  17.066  0.3317  0.5017  0.6268
  688MPD2    H510182   3.222   3.102  16.995  0.4922 -2.4841 -2.0162
  688MPD2    N110183   2.900   2.991  17.452 -0.0187  0.4831  0.5762
  688MPD2    H710184   2.961   2.910  17.465  0.8046  0.9927 -0.0950
  689TMC3    C110185   2.839   2.959  17.673  0.2608  0.2914 -0.0500
  689TMC3    C210186   2.834   3.026   0.088  0.1274 -0.2860 -0.2095
  689TMC3    C310187   2.846   2.947   0.199 -0.4335 -0.5161  0.6462
  689TMC3    C410188   2.831   2.822  17.665  0.6999 -0.1818 -0.3947
  689TMC3    C510189   2.854   2.753   0.075  0.9975 -0.1348 -0.8311
  689TMC3    C610190   2.863   2.811   0.192  0.5427  0.1417  0.1907
  689TMC3     C10191   2.827   3.041  17.558  0.3624  0.8189 -0.0409
  689TMC3     O10192   2.760   3.139  17.570  0.8516  0.5320  0.4008
  689TMC3     H10193   2.854   3.133   0.096 -3.4059  0.2341  1.5351
  689TMC3    H110194   2.847   2.768  17.573 -0.3600 -1.5467  0.2151
  689TMC3    H210195   2.870   2.751   0.282 -0.9203 -0.2213  0.0552
  689TMC3    C710196   2.829   2.609   0.075 -0.3501  0.1660 -0.7280
  689TMC3    C810197   2.870   3.010   0.332 -0.4270  0.5899 -0.0250
  689TMC3    O110198   2.892   2.544   0.152 -0.4405 -0.3094 -0.4227
  689TMC3    O210199   2.917   2.940   0.421  0.0342  0.0681 -0.2606
  690MPD2     C10200   4.630   0.287  15.667 -0.2751  0.0670  0.0919
  690MPD2    C110201   4.621   0.365  15.550  0.1589  0.6603 -0.4396
  690MPD2    C210202   4.714   0.337  15.446  0.1754 -0.1503  0.1300
  690MPD2    C310203   0.087   0.243  15.465 -0.7087  0.3224  1.0214
  690MPD2    C410204   0.091   0.171  15.579  0.5993  0.6135  0.1013
  690MPD2    C510205   4.718   0.190  15.672 -0.6310 -0.4735 -0.1036
  690MPD2     H10206   4.702   0.388  15.352  0.8615  0.8668  0.5986
  690MPD2    H110207   0.151   0.081  15.581 -0.8124 -0.3284  0.4653
  690MPD2    H210208   4.569   0.301  15.756  1.3619  2.2924  0.8682
  690MPD2    H310209   0.006   0.122  15.755 -1.7198 -2.2126 -1.3427
  690MPD2     N10210   0.174   0.222  15.358  0.3990  0.4338  0.1475
  690MPD2    H510211   0.162   0.285  15.280  0.7379 -1.7065 -1.6185
  690MPD2    N110212   4.516   0.455  15.526  1.2095 -1.0012  0.0903
  690MPD2    H710213   4.508   0.499  15.435  2.5575  0.7279  0.8075
  691TMC3    C110214   4.295   0.544  15.548 -0.6934 -0.1110  0.2590
  691TMC3    C210215   4.192   0.517  15.633 -0.1520 -0.6223 -0.3638
  691TMC3    C310216   4.081   0.452  15.584 -0.1412 -0.5182  0.0744
  691TMC3    C410217   4.280   0.520  15.413 -0.5220 -0.2472 -0.0050
  691TMC3    C510218   4.181   0.445  15.365  0.5929 -0.9736 -0.1157
  691TMC3    C610219   4.077   0.420  15.453 -0.5875 -0.1317  0.8390
  691TMC3     C10220   4.410   0.479  15.614  0.3106 -0.6604 -0.1268
  691TMC3     O10221   4.382   0.425  15.720 -0.0899  0.1624 -0.0701
  691TMC3     H10222   4.200   0.544  15.738  0.4077  0.9669 -0.8123
  691TMC3    H110223   4.360   0.552  15.347  1.2071 -2.0810  1.1877
  691TMC3    H210224   3.990   0.369  15.414 -1.0552  2.2238 -1.1519
  691TMC3    C710225   4.240   0.325  15.308 -0.0910  0.4125  0.3690
  691TMC3    C810226   3.959   0.456  15.665  0.3119  0.2162 -0.0152
  691TMC3    O110227   4.317   0.338  15.212 -0.2775 -0.1392 -0.1710
  691TMC3    O210228   3.967   0.515  15.765 -0.2853  0.3684  0.0519
  692TMC3    C110229   1.800   1.539  15.513 -0.0353 -0.1116 -0.2850
  692TMC3    C210230   1.876   1.642  15.463  0.1401  0.2448 -0.5904
  692TMC3    C310231   1.985   1.683  15.534  0.0977  0.2501  0.3311
  692TMC3    C410232   1.854   1.451  15.603  0.1545 -0.2577 -0.2980
  692TMC3    C510233   1.981   1.481  15.654  0.2603 -0.4299 -0.0798
  692TMC3    C610234   2.039   1.599  15.627  0.1875  0.2049 -0.0902
  692TMC3     C10235   1.673   1.588  15.554  0.1383  0.3708 -0.2717
  692TMC3     O10236   1.622   1.518  15.641  0.0700  0.2056  0.1727
  692TMC3     H10237   1.833   1.718  15.398 -1.1801  0.0025  0.0049
  692TMC3    H110238   1.795   1.383  15.663 -1.2815  1.3918  0.1574
  692TMC3    H210239   2.110   1.634  15.700 -1.3387  0.9958  1.0126
  692TMC3    C710240   1.980   1.460  15.800  0.7697 -0.8194 -0.2994
  692TMC3    C810241   1.965   1.815  15.581 -0.6827 -0.4639 -0.0362
  692TMC3    O110242   1.970   1.562  15.870 -0.3583 -0.4591 -0.3919
  692TMC3    O210243   1.938   1.901  15.502  0.0487  0.4505  0.5932
  693MPD2     C10244   0.801   4.538  10.436  0.2576  0.6226 -0.2801
  693MPD2    C110245   0.831   4.407  10.449  0.1096 -0.4743 -0.2634
  693MPD2    C210246   0.959   4.369  10.474  0.1938  0.4939 -0.5565
  693MPD2    C310247   1.059   4.463  10.494 -0.0429 -0.1444  0.5347
  693MPD2    C410248   1.034   4.596  10.462 -0.1031  0.1281 -0.2058
  693MPD2    C510249   0.904   4.632  10.445  0.3004  0.1117 -0.1675
  693MPD2     H10250   0.984   4.266  10.496 -0.2650  0.7386  1.1655
  693MPD2    H110251   1.109   4.673  10.473  1.7625 -1.8760  1.0618
  693MPD2    H210252   0.704   4.583  10.450 -0.1098 -0.1621 -0.3108
  693MPD2    H310253   0.877   0.011  10.446 -0.1905  0.0027 -2.4564
  693MPD2     N10254   1.188   4.425  10.541  0.0116  0.3962 -0.0356
  693MPD2    H510255   1.237   4.497  10.593  0.2110  0.4557 -0.3111
  693MPD2    N110256   0.722   4.318  10.457 -0.0071  0.6332  0.2584
  693MPD2    H710257   0.627   4.353  10.450 -0.2845 -0.2476 -0.2583
  694TMC3    C110258   0.631   4.104  10.503 -0.7504  0.2838  0.0071
  694TMC3    C210259   0.586   3.983  10.455 -0.5643 -0.1069  0.2820
  694TMC3    C310260   0.477   3.918  10.523 -0.2276  0.4483 -1.1105
  694TMC3    C410261   0.566   4.164  10.610 -0.0497 -0.1193 -0.1228
  694TMC3    C510262   0.473   4.092  10.675 -0.0385  0.2989 -0.1505
  694TMC3    C610263   0.424   3.974  10.636 -0.6789 -0.1328 -0.6187
  694TMC3     C10264   0.743   4.178  10.442 -0.1872 -0.7966 -0.6476
  694TMC3     O10265   0.831   4.118  10.380  0.2657 -0.2312 -0.5487
  694TMC3     H10266   0.649   3.942  10.377 -0.1190 -1.3142  1.2606
  694TMC3    H110267   0.612   4.247  10.663  0.2211 -0.2036 -0.2222
  694TMC3    H210268   0.334   3.930  10.678  0.1686 -0.4017  0.9296
  694TMC3    C710269   0.415   4.150  10.796 -0.0088 -0.4199  0.3875
  694TMC3    C810270   0.436   3.789  10.480 -0.4877  0.3901  0.2594
  694TMC3    O110271   0.406   4.272  10.815  0.2626  0.1424  0.1896
  694TMC3    O210272   0.351   3.725  10.538  0.3086 -0.1154  0.7960
  695MPD2     C10273   2.079   0.802  13.436  0.3134  0.6050 -0.3562
  695MPD2    C110274   2.007   0.863  13.543  0.0416 -0.0735  1.4041
  695MPD2    C210275   1.879   0.920  13.520 -0.1934 -0.8018  0.0357
  695MPD2    C310276   1.831   0.929  13.390  0.4553  0.5970 -0.7360
  695MPD2    C410277   1.905   0.866  13.289  0.0148  0.1009  0.7887
  695MPD2    C510278   2.027   0.805  13.311 -0.7028 -0.4086 -0.1018
  695MPD2     H10279   1.828   0.955  13.609  0.8608 -2.1960  1.1936
  695MPD2    H110280   1.878   0.868  13.184 -0.9346 -1.4850  1.0104
  695MPD2    H210281   2.177   0.757  13.448 -0.3455 -0.9098 -0.7354
  695MPD2    H310282   2.078   0.762  13.226 -1.7200 -3.6334  0.9411
  695MPD2     N10283   1.711   1.002  13.370  0.1178  0.0940  0.3443
  695MPD2    H510284   1.675   1.051  13.451 -1.2467 -1.0603  0.4305
  695MPD2    N110285   2.054   0.895  13.675 -0.5090  0.0143 -0.6022
  695MPD2    H710286   1.990   0.932  13.745  1.5385  0.5036  1.0252
  696TMC3    C110287   1.519   1.084  13.266  0.1111 -0.5977 -0.3349
  696TMC3    C210288   1.447   1.052  13.380  0.0445 -0.3398 -0.1342
  696TMC3    C310289   1.323   1.110  13.393  0.8490 -0.1019  0.0378
  696TMC3    C410290   1.478   1.182  13.182  0.1488  0.7269  0.0132
  696TMC3    C510291   1.361   1.250  13.211  0.1692  0.1973 -0.0742
  696TMC3    C610292   1.281   1.212  13.317 -0.3517 -0.7713  0.3851
  696TMC3     C10293   1.647   1.023  13.248 -0.1421 -0.2254  0.3711
  696TMC3     O10294   1.687   0.992  13.135 -0.2862  0.3065  0.1660
  696TMC3     H10295   1.474   0.977  13.454  1.1820 -0.2603 -0.4608
  696TMC3    H110296   1.548   1.207  13.102 -1.8053 -0.5782 -2.0999
  696TMC3    H210297   1.184   1.259  13.332  0.1291 -0.2701  1.9446
  696TMC3    C710298   1.346   1.370  13.138 -0.1700 -0.1937  0.6238
  696TMC3    C810299   1.280   1.120  13.531  0.5519  0.3780  0.3817
  696TMC3    O110300   1.396   1.381  13.025  0.4490 -0.0557  0.2704
  696TMC3    O210301   1.356   1.086  13.621 -0.2312 -0.5089 -0.0563
  697MPD2     C10302   1.443   2.908  15.339  0.4577 -0.3557 -0.7665
  697MPD2    C110303   1.397   2.858  15.212  0.2261 -0.3140  0.1021
  697MPD2    C210304   1.378   2.951  15.112 -0.4474 -0.2096 -0.1180
  697MPD2    C310305   1.407   3.087  15.134 -0.5753  0.2544  0.0633
  697MPD2    C410306   1.455   3.131  15.254 -0.3313 -0.8994 -0.2483
  697MPD2    C510307   1.476   3.043  15.356  0.0742 -0.1953  0.4283
  697MPD2     H10308   1.332   2.913  15.021 -0.3201 -2.1904  0.6544
  697MPD2    H110309   1.482   3.234  15.274 -2.1927  0.0044 -2.4846
  697MPD2    H210310   1.461   2.848  15.427 -4.6306  0.7475  1.0045
  697MPD2    H310311   1.528   3.080  15.444 -0.5284 -0.1094  0.7467
  697MPD2     N10312   1.387   3.173  15.021  0.3212 -0.0313  0.2457
  697MPD2    H510313   1.356   3.129  14.935  2.2198 -0.2261 -0.3378
  697MPD2    N110314   1.375   2.722  15.178 -0.1475  0.0960  0.1444
  697MPD2    H710315   1.352   2.694  15.083 -0.3315 -1.8253  0.7516
  698TMC3    C110316   1.354   3.384  14.906 -0.5031  0.2097 -0.7403
  698TMC3    C210317   1.407   3.511  14.884 -0.3298  0.6929  0.2261
  698TMC3    C310318   1.357   3.572  14.764 -0.7116  0.3016 -0.3363
  698TMC3    C410319   1.253   3.329  14.824 -0.6102 -0.7233  0.5664
  698TMC3    C510320   1.204   3.394  14.719  0.3142 -0.0196 -0.1937
  698TMC3    C610321   1.262   3.518  14.681  0.5605 -0.0417 -0.0954
  698TMC3     C10322   1.403   3.313  15.023 -0.3264  0.8817 -0.2101
  698TMC3     O10323   1.469   3.382  15.098 -0.2251 -0.0964 -0.0724
  698TMC3     H10324   1.490   3.549  14.942  0.0201 -0.5850  0.5657
  698TMC3    H110325   1.211   3.237  14.863 -0.2764 -1.2845 -0.4155
  698TMC3    H210326   1.228   3.574  14.595 -0.1133  0.0921  0.2544
  698TMC3    C710327   1.134   3.319  14.616 -0.0568 -0.1738 -0.1341
  698TMC3    C810328   1.418   3.683  14.703  0.1537 -0.3346 -0.2006
  698TMC3    O110329   1.175   3.336  14.501  0.2914  0.9346 -0.0339
  698TMC3    O210330   1.393   3.723  14.591  0.5335 -0.0195 -0.1861
  699TMC3    C110331   1.194   1.227  12.779 -0.0476 -0.2254 -0.2316
  699TMC3    C210332   1.250   1.130  12.853 -0.2631 -0.4544  0.5853
  699TMC3    C310333   1.180   1.087  12.965 -0.5797  0.0862 -0.1855
  699TMC3    C410334   1.094   1.299  12.821  1.0418 -0.5849  0.3543
  699TMC3    C510335   1.022   1.253  12.931 -0.9934 -0.0959  0.4220
  699TMC3    C610336   1.056   1.145  13.004 -0.0235  0.7459 -0.2678
  699TMC3     C10337   1.276   1.294  12.679 -0.1449  0.2331 -0.2034
  699TMC3     O10338   1.216   1.368  12.603 -0.3535 -0.1619  0.3269
  699TMC3     H10339   1.338   1.078  12.815  1.8187  1.3239  2.9543
  699TMC3    H110340   1.051   1.379  12.762 -0.1192  0.4823  2.6494
  699TMC3    H210341   0.986   1.114  13.080 -0.3890  0.4170 -0.7365
  699TMC3    C710342   0.923   1.340  12.990  0.6468 -0.7278 -0.3792
  699TMC3    C810343   1.221   0.982  13.054  0.2237 -0.1815 -0.1347
  699TMC3    O110344   0.845   1.293  13.065  0.2110 -0.1879 -0.5157
  699TMC3    O210345   1.169   0.983  13.165 -0.1221 -0.1239  0.0112
  700TMC3    C110346   0.387   3.424  16.896  0.2520  0.1631 -0.8278
  700TMC3    C210347   0.475   3.325  16.868  0.2399  0.0570  0.4168
  700TMC3    C310348   0.478   3.212  16.949 -0.1909 -0.7482 -0.7405
  700TMC3    C410349   0.296   3.413  16.999  0.0479 -0.0718  0.5612
  700TMC3    C510350   0.296   3.297  17.068  0.1790  0.0627  0.5959
  700TMC3    C610351   0.395   3.208  17.058  0.3035  0.1313 -1.1384
  700TMC3     C10352   0.376   3.548  16.821 -0.0013 -0.4001 -0.2271
  700TMC3     O10353   0.273   3.612  16.842  0.1041 -0.2224 -0.3616
  700TMC3     H10354   0.537   3.329  16.779  0.5301 -0.7689  0.5752
  700TMC3    H110355   0.228   3.496  17.015 -0.5656 -0.3910 -0.3826
  700TMC3    H210356   0.405   3.126  17.129 -0.2056  0.0683 -1.1375
  700TMC3    C710357   0.257   3.331  17.202 -0.0928 -0.3069  0.1552
  700TMC3    C810358   0.604   3.134  16.950 -1.1201  0.8666  0.1815
  700TMC3    O110359   0.136   3.322  17.220  0.1044  0.3850  0.4696
  700TMC3    O210360   0.710   3.187  16.916  0.4458 -0.4968  0.2189
  701TMC3    C110361   0.574   2.142  15.427  0.6550  0.6684 -0.1205
  701TMC3    C210362   0.617   2.054  15.327 -0.1527 -0.8309 -0.5767
  701TMC3    C310363   0.675   2.113  15.219  0.8417  0.7025  0.2627
  701TMC3    C410364   0.603   2.272  15.423  0.5575  0.3300 -0.4666
  701TMC3    C510365   0.679   2.318  15.321 -0.3907 -0.3243 -0.4943
  701TMC3    C610366   0.724   2.241  15.214 -0.1024 -0.2644 -0.1082
  701TMC3     C10367   0.480   2.108  15.528 -0.0169  0.5531  0.0012
  701TMC3     O10368   0.462   2.190  15.618 -0.1164  0.1752 -0.1726
  701TMC3     H10369   0.592   1.949  15.337  1.6015 -1.2643 -0.7512
  701TMC3    H110370   0.546   2.348  15.475  0.0491 -0.8336  0.6572
  701TMC3    H210371   0.799   2.279  15.145  0.0289  0.7819  0.6034
  701TMC3    C710372   0.759   2.438  15.346  0.0503  0.5363 -0.4421
  701TMC3    C810373   0.719   2.024  15.117  0.5737  0.2451  0.2310
  701TMC3    O110374   0.793   2.500  15.247  0.0370 -0.0552 -0.0606
  701TMC3    O210375   0.804   2.070  15.039 -0.5046  0.2452  0.1084
  702MPD2     C10376   4.721   4.443  10.313 -0.1003 -0.2957 -0.1877
  702MPD2    C110377   0.015   4.554  10.390  0.1699 -0.1133  0.6922
  702MPD2    C210378   0.092   4.658  10.350  0.2433 -0.1441  0.2890
  702MPD2    C310379   0.140   4.672  10.223  0.5472  0.3104 -0.0293
  702MPD2    C410380   0.117   4.559  10.142  0.6298 -0.0843 -0.8514
  702MPD2    C510381   0.044   4.451  10.189 -0.8476  0.2740 -0.7921
  702MPD2     H10382   0.100   0.013  10.421 -2.2674 -1.9579  2.6385
  702MPD2    H110383   0.153   4.562  10.040  3.1720 -0.1830  0.0321
  702MPD2    H210384   4.656   4.360  10.341  0.8926 -0.4283  1.6975
  702MPD2    H310385   0.031   4.360  10.131 -1.3256 -1.4744  2.0687
  702MPD2     N10386   0.197   0.055  10.169  0.2292  0.6611 -0.2978
  702MPD2    H510387   0.233   0.049  10.075 -0.3551 -0.3386 -0.4572
  702MPD2    N110388   4.680   4.571  10.515 -0.3587 -0.7696  0.4840
  702MPD2    H710389   4.686   4.667  10.547  1.1593 -1.0264  0.9662
  703TMC3    C110390   0.229   0.296  10.157 -0.8652  0.9136  0.4706
  703TMC3    C210391   0.164   0.410  10.183  0.2783 -0.1611  0.2301
  703TMC3    C310392   0.213   0.525  10.144  0.4686 -0.6648 -0.1914
  703TMC3    C410393   0.359   0.292  10.107 -0.0197 -0.3753  0.3659
  703TMC3    C510394   0.408   0.412  10.066 -0.0154  0.4551  0.2291
  703TMC3    C610395   0.336   0.531  10.086  0.2473  0.2463 -0.9194
  703TMC3     C10396   0.171   0.180  10.225  0.1063 -0.1528  0.0578
  703TMC3     O10397   0.090   0.203  10.307 -0.3434 -0.1359  0.2600
  703TMC3     H10398   0.064   0.400  10.226  0.5405 -0.7206  0.7171
  703TMC3    H110399   0.412   0.198  10.106 -0.5622 -0.6679 -1.5927
  703TMC3    H210400   0.382   0.624  10.054  1.4024  0.1168  0.3758
  703TMC3    C710401   0.548   0.421  10.032  0.1456 -0.1545  0.3938
  703TMC3    C810402   0.161   0.649  10.205  0.5557 -0.8960  0.0847
  703TMC3    O110403   0.583   0.519   9.965  0.1501  0.1403  0.1441
  703TMC3    O210404   0.245   0.740  10.205 -0.2551  0.1753  0.5956
  704TMC3    C110405   2.125   3.014  12.691 -0.1070 -0.1865  0.3365
  704TMC3    C210406   2.235   3.027  12.603 -0.4112  0.5076 -0.5345
  704TMC3    C310407   2.345   2.947  12.624  0.8186  0.0107  0.1747
  704TMC3    C410408   2.136   2.939  12.805 -0.0298 -0.5359  0.4774
  704TMC3    C510409   2.241   2.847  12.807 -0.0575  0.1500  0.1388
  704TMC3    C610410   2.351   2.862  12.726  0.2018 -0.1264  0.5128
  704TMC3     C10411   2.000   2.986  12.631  0.3475  0.2307  0.6330
  704TMC3     O10412   1.898   2.980  12.705 -0.6124 -0.1895 -0.8987
  704TMC3     H10413   2.246   3.086  12.513 -0.7233  1.3002 -0.0474
  704TMC3    H110414   2.048   2.934  12.869 -1.3715  0.3904 -1.2790
  704TMC3    H210415   2.432   2.790  12.719 -1.6261 -2.0635 -0.5252
  704TMC3    C710416   2.190   2.715  12.769 -0.0127  1.2963  0.1325
  704TMC3    C810417   2.432   2.915  12.516  0.9287  0.1755  1.0594
  704TMC3    O110418   2.251   2.656  12.680 -0.0944 -0.0916  0.3688
  704TMC3    O210419   2.382   2.900  12.400 -0.0667 -0.1387  0.0316
  705MPD2     C10420   2.435   0.989  16.451  0.5725 -0.1962  0.0122
  705MPD2    C110421   2.338   1.067  16.392 -0.4542 -0.2494 -0.5555
  705MPD2    C210422   2.239   1.124  16.471  0.6982 -0.2325 -0.3978
  705MPD2    C310423   2.239   1.098  16.609  1.0206  0.3391  0.6164
  705MPD2    C410424   2.343   1.026  16.661 -0.5179 -0.2724  0.5506
  705MPD2    C510425   2.441   0.975  16.586 -1.1133 -0.3120  0.1010
  705MPD2     H10426   2.169   1.196  16.428 -1.9417 -1.7315  1.4204
  705MPD2    H110427   2.355   1.013  16.768  0.9053  1.4275  0.5968
  705MPD2    H210428   2.512   0.937  16.396 -1.2048 -2.8171  0.0034
  705MPD2    H310429   2.523   0.921  16.630 -0.0918  2.3469  1.4723
  705MPD2     N10430   2.127   1.130  16.692  0.1106 -0.5311 -0.1210
  705MPD2    H510431   2.126   1.095  16.787  0.3664  0.2037  0.1543
  705MPD2    N110432   2.337   1.098  16.249  0.7433 -0.3599  0.1722
  705MPD2    H710433   2.275   1.171  16.216 -1.5859 -2.3179  0.2105
  706TMC3    C110434   2.382   1.014  15.796 -0.2805 -0.1640 -0.0228
  706TMC3    C210435   2.380   1.145  15.758 -0.2871  0.0757 -0.0532
  706TMC3    C310436   2.396   1.240  15.861 -0.2218  0.0150  0.5652
  706TMC3    C410437   2.373   0.979  15.924  0.1962 -0.2059  0.0842
  706TMC3    C510438   2.376   1.072  16.019 -0.0487 -0.5606 -0.1168
  706TMC3    C610439   2.396   1.201  15.991 -0.3989  0.4150 -0.1250
  706TMC3     C10440   2.430   0.907  15.715 -0.2446 -0.4234  0.4340
  706TMC3     O10441   2.493   0.816  15.766 -0.5475 -0.0875 -0.3676
  706TMC3     H10442   2.398   1.177  15.656  0.1908 -0.5140 -0.1486
  706TMC3    H110443   2.366   0.876  15.959  0.0806  0.3374  1.6384
  706TMC3    H210444   2.428   1.269  16.069  0.3425  3.8092 -3.4220
  706TMC3    C710445   2.409   1.032  16.154  0.9525  0.0806 -0.1253
  706TMC3    C810446   2.376   1.382  15.823  0.3495  0.1776  0.3627
  706TMC3    O110447   2.479   0.933  16.165  1.0660 -0.0442  0.2011
  706TMC3    O210448   2.430   1.413  15.722 -0.0784 -0.2374  0.0676
  707TMC3    C110449   4.552   0.121   1.172  0.0397  0.0449 -1.0720
  707TMC3    C210450   4.645   0.077   1.259  0.0265 -0.4568  0.2804
  707TMC3    C310451   4.640   4.671   1.292 -1.0986  0.2858 -0.3822
  707TMC3    C410452   4.458   0.048   1.104  0.2073  0.7343  0.3055
  707TMC3    C510453   4.461   4.638   1.130 -0.7236 -0.3884  0.2693
  707TMC3    C610454   4.543   4.591   1.231  0.4522 -0.4654  0.9885
  707TMC3     C10455   4.589   0.256   1.134  0.3059 -0.5075  0.4266
  707TMC3     O10456   4.583   0.340   1.226  0.5431 -0.2953  0.1077
  707TMC3     H10457   4.723   0.142   1.295 -1.5745  1.6597 -0.0797
  707TMC3    H110458   4.390   0.101   1.038  0.7137  3.2843  1.7957
  707TMC3    H210459   4.542   4.487   1.261  0.9023 -0.6652  0.3045
  707TMC3    C710460   4.379   4.558   1.045  0.0986 -0.7371  0.6473
  707TMC3    C810461   0.036   4.622   1.368 -0.3582  0.4110  0.2308
  707TMC3    O110462   4.291   4.621   0.988  0.0435 -0.2498 -0.7602
  707TMC3    O210463   0.100   4.708   1.431 -0.3053 -0.0969 -0.6749
  708MPD2     C10464   4.515   4.022  13.688  0.1030  0.2719 -0.5126
  708MPD2    C110465   4.381   4.014  13.716  0.0774  0.7106  0.6837
  708MPD2    C210466   4.344   3.915  13.807 -0.5746  0.9167  0.4251
  708MPD2    C310467   4.436   3.820  13.861 -0.2860 -0.0056  0.6923
  708MPD2    C410468   4.567   3.831  13.825 -0.4374 -0.0678 -0.3382
  708MPD2    C510469   4.606   3.931  13.739  0.0257 -0.7592  0.3040
  708MPD2     H10470   4.244   3.915  13.848 -0.2361  0.3082  1.2466
  708MPD2    H110471   4.643   3.757  13.847  1.6279  2.8453  2.2715
  708MPD2    H210472   4.555   4.109  13.637 -0.3789 -0.9966 -3.0987
  708MPD2    H310473   4.709   3.932  13.703  1.0981  1.0547  3.4770
  708MPD2     N10474   4.399   3.722  13.952  0.1709  0.7596 -0.3735
  708MPD2    H510475   4.479   3.683  14.000  0.1241  1.5122  0.3183
  708MPD2    N110476   4.285   4.100  13.666  0.1316 -0.6475  0.4696
  708MPD2    H710477   4.193   4.080  13.705  0.4877 -0.1261  1.5699
  709TMC3    C110478   4.172   4.272  13.547  0.0681  0.2005 -1.1309
  709TMC3    C210479   4.143   4.266  13.411 -0.4263  0.3838 -0.8084
  709TMC3    C310480   4.022   4.216  13.379  0.2250  0.2592 -0.7989
  709TMC3    C410481   4.080   4.246  13.642 -0.2376 -0.0760  0.7178
  709TMC3    C510482   3.961   4.186  13.600 -0.5822 -0.3242 -0.3230
  709TMC3    C610483   3.932   4.170  13.469 -0.0196  0.5818  0.4662
  709TMC3     C10484   4.303   4.216  13.583 -0.5442 -0.3076  0.0886
  709TMC3     O10485   4.394   4.258  13.518  0.3491 -0.0343 -0.4813
  709TMC3     H10486   4.221   4.270  13.336 -0.2202 -0.2333 -0.6240
  709TMC3    H110487   4.117   4.257  13.743 -0.0909  3.6272  0.2418
  709TMC3    H210488   3.835   4.126  13.448 -0.3716  0.0682  3.0961
  709TMC3    C710489   3.931   4.084  13.697 -0.2535 -0.0042  0.2952
  709TMC3    C810490   3.991   4.191  13.243  0.1284 -0.3101 -0.6934
  709TMC3    O110491   4.015   4.065  13.784 -0.0161 -0.3321  0.0127
  709TMC3    O210492   3.890   4.122  13.222  0.3441 -0.5690  0.4878
  710TMC3    C110493   1.435   0.389   0.476 -0.1403 -0.4227  0.0279
  710TMC3    C210494   1.517   0.432   0.380 -0.1595 -0.5953 -0.1156
  710TMC3    C310495   1.629   0.370   0.340 -0.2711 -0.4164  0.0803
  710TMC3    C410496   1.468   0.272   0.530 -0.5754 -0.3235  0.3260
  710TMC3    C510497   1.572   0.204   0.484  0.1798 -0.4005 -0.0199
  710TMC3    C610498   1.659   0.251   0.389  0.7102 -0.0878 -0.4062
  710TMC3     C10499   1.342   0.479   0.532  0.7827  0.5569  0.2956
  710TMC3     O10500   1.344   0.589   0.475 -0.0979  0.0648  1.1416
  710TMC3     H10501   1.484   0.518   0.324 -1.5359 -1.4871 -0.6569
  710TMC3    H110502   1.410   0.228   0.611  1.4915 -0.0384  1.9686
  710TMC3    H210503   1.744   0.194   0.352  0.2347 -0.5085 -0.8467
  710TMC3    C710504   1.582   0.063   0.545  0.0782  0.0390 -0.3554
  710TMC3    C810505   1.717   0.423   0.237  0.0052 -0.4024 -0.6655
  710TMC3    O110506   1.484   0.022   0.603 -0.5039 -0.3796 -0.2091
  710TMC3    O210507   1.810   0.366   0.187 -0.5869  0.1778  0.3445
  711TMC3    C110508   1.252   1.816  14.776 -0.0503 -0.4413 -0.0937
  711TMC3    C210509   1.246   1.920  14.863 -0.2549 -0.0565  0.3742
  711TMC3    C310510   1.372   1.971  14.897  0.0221  0.0096  0.3144
  711TMC3    C410511   1.368   1.758  14.734 -0.3489 -0.0446  0.7020
  711TMC3    C510512   1.489   1.815  14.766 -0.0526  0.0363  0.5225
  711TMC3    C610513   1.494   1.922  14.850 -0.8599  0.4255 -0.1267
  711TMC3     C10514   1.153   1.714  14.781  0.6059  0.0353 -0.0148
  711TMC3     O10515   1.073   1.714  14.688  0.1807  0.4532 -0.4718
  711TMC3     H10516   1.153   1.969  14.891  0.0500  0.5981  0.2370
  711TMC3    H110517   1.360   1.680  14.659 -1.6219 -0.6648  1.4884
  711TMC3    H210518   1.590   1.970  14.864 -1.0839  0.7810  0.2028
  711TMC3    C710519   1.591   1.715  14.804 -0.2268 -0.2762  0.3198
  711TMC3    C810520   1.379   2.020  15.031 -0.1246  0.9537 -0.1244
  711TMC3    O110521   1.675   1.758  14.883 -0.3467 -0.4807  0.3513
  711TMC3    O210522   1.271   2.039  15.087 -0.1656 -0.4086 -0.0783
  712MPD2     C10523   2.934   2.735  14.113 -0.6994 -0.2295 -0.4795
  712MPD2    C110524   2.797   2.744  14.092 -0.2436  0.0855  0.5449
  712MPD2    C210525   2.757   2.851  14.014 -0.5183 -0.1587 -0.1911
  712MPD2    C310526   2.834   2.961  13.967 -0.0936  0.3714  0.2752
  712MPD2    C410527   2.966   2.960  14.003 -0.4335  0.2259  0.0808
  712MPD2    C510528   3.012   2.839  14.063 -0.3648  0.2820  0.1078
  712MPD2     H10529   2.651   2.847  13.995 -0.2280 -1.4230 -1.5521
  712MPD2    H110530   3.036   3.038  13.975  1.1069 -0.5800  1.6638
  712MPD2    H210531   2.979   2.647  14.158  1.4669  0.5186 -1.1972
  712MPD2    H310532   3.118   2.847  14.085 -0.0398 -0.2343 -1.2022
  712MPD2     N10533   2.785   3.076  13.908  0.0169  0.3642 -0.1930
  712MPD2    H510534   2.859   3.142  13.888  1.5207 -1.0888  0.6556
  712MPD2    N110535   2.696   2.661  14.148 -0.2199 -0.0171 -0.2968
  712MPD2    H710536   2.604   2.699  14.125  0.0246  0.6047 -0.2606
  713TMC3    C110537   2.627   3.241  13.849 -0.1602  0.5417 -0.4813
  713TMC3    C210538   2.722   3.309  13.771 -0.1456  0.2654 -0.2314
  713TMC3    C310539   2.684   3.437  13.735 -0.3511  0.1056 -0.3758
  713TMC3    C410540   2.496   3.285  13.871 -0.5570 -0.2457  0.2278
  713TMC3    C510541   2.468   3.405  13.818 -0.1216  0.1153  0.0918
  713TMC3    C610542   2.553   3.477  13.742 -0.2568 -0.0569 -0.4586
  713TMC3     C10543   2.652   3.103  13.888  0.4394 -0.1408  0.5153
  713TMC3     O10544   2.557   3.028  13.912 -0.0448 -0.4769 -0.6166
  713TMC3     H10545   2.826   3.280  13.774 -0.3386 -0.7669 -3.6089
  713TMC3    H110546   2.432   3.235  13.943 -1.7848  1.1383  0.0906
  713TMC3    H210547   2.528   3.580  13.720 -2.3485 -1.0854 -3.0250
  713TMC3    C710548   2.367   3.479  13.887  0.1996 -0.8253 -0.3183
  713TMC3    C810549   2.778   3.541  13.690 -0.1911 -0.0574  0.1314
  713TMC3    O110550   2.357   3.486  14.010 -0.0219 -0.0903 -0.0559
  713TMC3    O210551   2.731   3.635  13.628  0.2959  0.0430  0.2971
  714MPD2     C10552   0.339   1.548   1.620 -0.0196 -0.1896 -0.4497
  714MPD2    C110553   0.396   1.526   1.494 -0.6831 -0.6390  0.2712
  714MPD2    C210554   0.320   1.552   1.377  0.7708  0.5857  0.3441
  714MPD2    C310555   0.188   1.585   1.391 -0.0938 -0.4785  0.0729
  714MPD2    C410556   0.136   1.616   1.513 -0.3950  0.4536  0.3801
  714MPD2    C510557   0.215   1.600   1.626  0.1900  0.1300  0.3202
  714MPD2     H10558   0.361   1.526   1.280 -0.1852  1.4132 -0.2903
  714MPD2    H110559   0.031   1.640   1.523 -0.2993  1.4564 -1.0635
  714MPD2    H210560   0.386   1.525   1.715  0.5633  0.7794 -0.5007
  714MPD2    H310561   0.191   1.624   1.730  1.2601  1.7875  0.1985
  714MPD2     N10562   0.115   1.582   1.264 -0.1217  0.5219 -0.5237
  714MPD2    H510563   0.163   1.546   1.182  0.9208 -1.0631  0.8046
  714MPD2    N110564   0.530   1.476   1.491  0.1571  0.0990 -0.1117
  714MPD2    H710565   0.576   1.463   1.581 -0.0935 -2.1207 -0.2912
  715TMC3    C110566   0.721   1.366   1.408 -0.1699 -0.3483 -0.0506
  715TMC3    C210567   0.747   1.249   1.345 -0.2161  0.8665 -0.1881
  715TMC3    C310568   0.851   1.173   1.389 -0.0992  0.1701 -0.1586
  715TMC3    C410569   0.786   1.391   1.524 -0.1213  0.1814  0.5810
  715TMC3    C510570   0.887   1.312   1.572  0.9162 -0.0058  0.1807
  715TMC3    C610571   0.923   1.201   1.503 -0.1010  0.5321 -0.0658
  715TMC3     C10572   0.587   1.418   1.380 -0.2421  0.1972  0.1144
  715TMC3     O10573   0.537   1.394   1.269  0.5279 -0.0017 -0.4386
  715TMC3     H10574   0.689   1.224   1.257  0.2002  1.0581 -0.5189
  715TMC3    H110575   0.767   1.487   1.569 -2.2138 -1.5486  3.4266
  715TMC3    H210576   1.011   1.142   1.524  0.4560  2.0424  1.8177
  715TMC3    C710577   0.994   1.360   1.656  0.5922  0.2245 -0.0646
  715TMC3    C810578   0.863   1.044   1.328 -0.3921  0.4089  0.4121
  715TMC3    O110579   1.102   1.306   1.638 -0.1824  0.4004 -0.2747
  715TMC3    O210580   0.809   1.031   1.222  0.0649  0.6827 -0.0328
  716MPD2     C10581   0.945   0.285   9.676 -0.5318 -0.2223 -0.5505
  716MPD2    C110582   0.833   0.217   9.709 -0.3447  0.4529  0.1103
  716MPD2    C210583   0.847   0.103   9.783  0.4948 -0.2992 -0.3140
  716MPD2    C310584   0.966   0.065   9.835  0.2012  0.3448  0.0120
  716MPD2    C410585   1.081   0.129   9.791  0.0863  0.1338  0.0839
  716MPD2    C510586   1.067   0.238   9.716  0.2611 -0.6392  0.2313
  716MPD2     H10587   0.760   0.041   9.801  1.0546 -0.4330  1.8641
  716MPD2    H110588   1.184   0.096   9.804 -0.2586 -0.7392  0.5695
  716MPD2    H210589   0.945   0.372   9.611  1.4630 -0.3506 -0.7286
  716MPD2    H310590   1.157   0.295   9.698 -0.5366 -0.2092 -2.3825
  716MPD2     N10591   0.968   4.682   9.928  1.2877  0.1624 -0.0147
  716MPD2    H510592   0.882   4.639   9.959  0.0711  1.2556 -1.8933
  716MPD2    N110593   0.708   0.270   9.666  0.5112  0.0556  0.6364
  716MPD2    H710594   0.720   0.336   9.590  0.5105 -1.6542 -0.8341
  717TMC3    C110595   1.054   4.503  10.065  0.2185  0.3965  0.2494
  717TMC3    C210596   0.934   4.437  10.044  0.0335 -0.3306 -0.3118
  717TMC3    C310597   0.917   4.313  10.090  0.3836  0.0432  0.9034
  717TMC3    C410598   1.163   4.437  10.120  0.2167 -0.1875 -0.3321
  717TMC3    C510599   1.132   4.314  10.176 -0.2623  0.2491  0.7992
  717TMC3    C610600   1.015   4.244  10.154 -0.5873  0.2152 -0.3236
  717TMC3     C10601   1.081   4.627   9.991  0.6568  0.5715  0.1695
  717TMC3     O10602   1.190   4.675   9.985 -0.7106  0.0150 -0.1405
  717TMC3     H10603   0.857   4.478   9.980  0.5690 -1.0139 -1.3965
  717TMC3    H110604   1.256   4.489  10.139 -0.6742  1.0878  0.5133
  717TMC3    H210605   0.998   4.146  10.197 -0.6891  0.4240  0.1091
  717TMC3    C710606   1.244   4.225  10.213  0.2679  0.4310 -0.8001
  717TMC3    C810607   0.808   4.235  10.021 -0.0353 -0.4074 -0.4275
  717TMC3    O110608   1.227   4.107  10.192  0.5491 -0.1080  0.3417
  717TMC3    O210609   0.740   4.295   9.945 -0.1521 -0.1557 -0.5898
  718MPD2     C10610   4.098   3.273  13.005 -0.7765  0.6144  0.1577
  718MPD2    C110611   4.020   3.309  12.896 -0.8163 -0.7820  0.2837
  718MPD2    C210612   3.963   3.208  12.820  0.3476 -0.3742 -0.2505
  718MPD2    C310613   3.990   3.076  12.855  0.0598  0.0255 -0.4516
  718MPD2    C410614   4.075   3.044  12.953  0.3209 -0.2134  0.4360
  718MPD2    C510615   4.134   3.142  13.031 -0.5036  0.3701 -0.8005
  718MPD2     H10616   3.902   3.225  12.732  0.7390 -0.9569 -0.6376
  718MPD2    H110617   4.099   2.942  12.978 -0.4982  0.0008  2.1065
  718MPD2    H210618   4.134   3.353  13.068 -0.4153  0.8474 -0.3498
  718MPD2    H310619   4.193   3.106  13.114 -1.5867  1.5801  0.5050
  718MPD2     N10620   3.933   2.986  12.763 -0.1943 -0.3394  0.4998
  718MPD2    H510621   3.900   3.031  12.678  0.5740 -1.3309 -0.3357
  718MPD2    N110622   4.004   3.442  12.872 -0.6553 -0.0964 -0.5095
  718MPD2    H710623   4.042   3.505  12.942 -0.3138  0.4840 -1.2173
  719TMC3    C110624   3.904   3.635  12.749  0.0707  0.5977  0.5546
  719TMC3    C210625   3.774   3.659  12.708 -0.4134 -0.7203  0.3982
  719TMC3    C310626   3.742   3.726  12.596  0.6349  0.5446  0.6735
  719TMC3    C410627   3.999   3.691  12.668 -0.2481 -0.2482 -0.0910
  719TMC3    C510628   3.966   3.739  12.542 -0.8195 -0.4078  0.1673
  719TMC3    C610629   3.845   3.767  12.506  0.3314 -0.5786  0.2568
  719TMC3     C10630   3.920   3.492  12.771 -0.3913 -0.1929  0.4824
  719TMC3     O10631   3.831   3.432  12.708  0.0653 -0.2441 -0.1397
  719TMC3     H10632   3.695   3.620  12.771  0.1185 -0.8731  0.9839
  719TMC3    H110633   4.102   3.661  12.683 -0.7280 -1.4471  0.8078
  719TMC3    H210634   3.820   3.796  12.404 -3.0608 -1.2036  0.9042
  719TMC3    C710635   4.068   3.795  12.458  0.3461 -0.3071  0.3968
  719TMC3    C810636   3.634   3.667  12.518 -0.1236  0.2766  0.3307
  719TMC3    O110637   4.045   3.817  12.339  0.3034 -0.5360  0.0447
  719TMC3    O210638   3.573   3.733  12.436 -0.0692  0.0883 -0.1686
  720MPD2     C10639   2.447   0.218  13.805 -0.4217  0.2132  0.0140
  720MPD2    C110640   2.563   0.227  13.729  0.4448  1.1529  0.3886
  720MPD2    C210641   2.679   0.165  13.770  0.6524 -0.2158  0.2291
  720MPD2    C310642   2.695   0.111  13.901 -0.3105  0.0502 -0.2587
  720MPD2    C410643   2.583   0.120  13.982  0.2082  0.3285 -0.1022
  720MPD2    C510644   2.467   0.169  13.930  0.6853  0.3141  0.1458
  720MPD2     H10645   2.761   0.160  13.700  1.4113  0.7352  1.0500
  720MPD2    H110646   2.576   0.075  14.081 -0.0364 -0.7048 -0.5812
  720MPD2    H210647   2.349   0.253  13.775  0.0051 -0.0956 -1.7850
  720MPD2    H310648   2.379   0.168  13.993  0.3502  0.8320 -0.3174
  720MPD2     N10649   2.821   0.065  13.943 -0.1308 -0.1368 -0.1866
  720MPD2    H510650   2.894   0.064  13.873 -0.7423 -0.0942 -0.8182
  720MPD2    N110651   2.568   0.289  13.600 -0.5592  0.1508  0.0257
  720MPD2    H710652   2.648   0.277  13.540 -0.8657  0.3713 -0.4292
  721TMC3    C110653   3.014   0.014  14.074 -0.8192 -0.8314 -0.5140
  721TMC3    C210654   3.061   0.000  14.194  0.6105  0.2148  0.2106
  721TMC3    C310655   3.190   0.020  14.218 -0.0777 -0.3661  0.9382
  721TMC3    C410656   3.097   0.046  13.968 -0.5947 -0.2033 -0.5422
  721TMC3    C510657   3.228   0.066  13.996 -0.3986 -0.3569 -0.0772
  721TMC3    C610658   3.283   0.060  14.120  0.7413 -0.5172  0.6241
  721TMC3     C10659   2.870   0.048  14.070  0.1449  0.5931 -0.3023
  721TMC3     O10660   2.807   0.057  14.173  0.5233 -0.2676  0.2696
  721TMC3     H10661   2.990   4.705  14.273 -0.2964  1.1904 -0.3466
  721TMC3    H110662   3.067   0.068  13.866  0.8451  0.0242 -0.9194
  721TMC3    H210663   3.389   0.062  14.144  0.8318  0.6919  0.1151
  721TMC3    C710664   3.296   0.150  13.906 -0.4922 -0.2532  0.1927
  721TMC3    C810665   3.231   0.001  14.357  0.0774 -0.0327  0.1531
  721TMC3    O110666   3.306   0.112  13.792  0.5311  0.2022  0.3037
  721TMC3    O210667   3.150   4.683  14.432 -0.4101  0.4275  0.2886
  722MPD2     C10668   1.313   3.389  13.362  0.8325 -0.1522  0.0989
  722MPD2    C110669   1.277   3.514  13.324  0.4646  0.3240 -0.2614
  722MPD2    C210670   1.145   3.534  13.278 -0.1016  0.1006 -0.3361
  722MPD2    C310671   1.053   3.428  13.264  0.5491 -1.0416 -0.7137
  722MPD2    C410672   1.092   3.309  13.323 -0.0587  0.1306 -0.4362
  722MPD2    C510673   1.221   3.288  13.358 -0.0497  0.2936 -0.6867
  722MPD2     H10674   1.114   3.634  13.249  0.6269  0.4354  0.0284
  722MPD2    H110675   1.029   3.221  13.332  0.8045 -0.7012 -2.4582
  722MPD2    H210676   1.413   3.354  13.385  0.7413 -1.1183 -0.9607
  722MPD2    H310677   1.257   3.188  13.378 -1.3773 -0.4222 -1.8922
  722MPD2     N10678   0.922   3.456  13.216  0.0352 -0.2636 -0.1306
  722MPD2    H510679   0.907   3.548  13.176  1.0291 -0.7683 -1.6874
  722MPD2    N110680   1.362   3.624  13.334 -0.6911  0.2374  0.2389
  722MPD2    H710681   1.325   3.714  13.305 -0.4441 -0.2317 -1.5561
  723TMC3    C110682   0.684   3.421  13.168  0.0990 -0.3170  0.2605
  723TMC3    C210683   0.594   3.331  13.120  0.8142 -0.7698  0.1947
  723TMC3    C310684   0.494   3.385  13.052  0.5190  0.0003 -0.0048
  723TMC3    C410685   0.681   3.548  13.142  0.1608 -0.6003  0.0223
  723TMC3    C510686   0.579   3.599  13.075 -0.7254  0.4677 -1.2650
  723TMC3    C610687   0.479   3.520  13.029 -0.2270  0.4899  0.1228
  723TMC3     C10688   0.815   3.365  13.215  0.0511  0.0018  0.0905
  723TMC3     O10689   0.809   3.245  13.243 -0.4701 -0.1041  0.1648
  723TMC3     H10690   0.598   3.225  13.143  2.8532 -0.3853  1.6887
  723TMC3    H110691   0.756   3.614  13.183 -0.3363 -0.5970  0.9272
  723TMC3    H210692   0.385   3.560  12.993  1.0245  1.0095 -2.5632
  723TMC3    C710693   0.551   3.738  13.077 -0.0650  0.2389  0.1987
  723TMC3    C810694   0.384   3.301  13.005 -0.4190  0.4743 -0.1414
  723TMC3    O110695   0.435   3.769  13.042  0.2326 -0.1975 -0.2247
  723TMC3    O210696   0.285   3.362  12.968  0.1259  0.1858 -0.1386
  724TMC3    C110697   1.692   1.747   9.896  0.4378 -0.2837  0.0953
  724TMC3    C210698   1.765   1.774  10.008  0.7419  0.4730 -0.1454
  724TMC3    C310699   1.821   1.668  10.068 -0.5124  0.5468  0.2769
  724TMC3    C410700   1.700   1.624   9.830 -0.0313 -0.9541 -0.2231
  724TMC3    C510701   1.782   1.531   9.884 -0.5403  0.0083  0.4354
  724TMC3    C610702   1.826   1.543  10.012 -0.1318  0.1614  0.3262
  724TMC3     C10703   1.652   1.865   9.823  0.1093 -0.7912  0.4530
  724TMC3     O10704   1.731   1.958   9.832 -0.4371  0.3034  0.3056
  724TMC3     H10705   1.758   1.876  10.045  0.7831  0.7162 -0.7980
  724TMC3    H110706   1.669   1.612   9.727  1.3403 -0.1184 -0.7421
  724TMC3    H210707   1.885   1.463  10.055  0.0015  0.6240  0.9975
  724TMC3    C710708   1.827   1.415   9.798 -0.9291 -0.0810 -0.3067
  724TMC3    C810709   1.899   1.701  10.193  0.4066 -0.0757  0.4869
  724TMC3    O110710   1.946   1.421   9.774 -0.1652  0.0389  0.3854
  724TMC3    O210711   1.901   1.622  10.285  0.2835 -0.8854 -0.0164
  725TMC3    C110712   3.083   0.164  12.465 -0.3030 -0.3206 -0.6611
  725TMC3    C210713   3.009   0.210  12.360  0.2938 -0.2464  0.8112
  725TMC3    C310714   2.987   0.123  12.258  0.5290 -0.0648  0.3945
  725TMC3    C410715   3.152   0.043  12.454 -0.2514  0.3513  0.4843
  725TMC3    C510716   3.118   4.694  12.345 -0.1040  0.0442 -0.0801
  725TMC3    C610717   3.047   0.006  12.244  0.3775 -0.2559  0.1839
  725TMC3     C10718   3.135   0.277  12.548 -0.8947 -0.7674  0.3958
  725TMC3     O10719   3.080   0.386  12.535  0.0033 -0.4679 -0.4003
  725TMC3     H10720   2.944   0.294  12.385  0.8073  0.7381 -1.2018
  725TMC3    H110721   3.224   0.013  12.529  0.0935  0.2426  0.1078
  725TMC3    H210722   3.034   4.673  12.155 -0.8621  1.4104 -0.7474
  725TMC3    C710723   3.195   4.575  12.313  0.1559  0.2944  0.4909
  725TMC3    C810724   2.924   0.175  12.139  0.2770 -0.2157 -0.2618
  725TMC3    O110725   3.242   4.564  12.202 -0.4672 -0.0801 -0.9104
  725TMC3    O210726   2.888   0.094  12.056 -0.3989 -0.0585 -0.4140
  726MPD2     C10727   1.442   1.919  10.057  0.4275  0.4548  0.0829
  726MPD2    C110728   1.333   1.971   9.989 -0.2184 -0.4572  0.0316
  726MPD2    C210729   1.208   1.911   9.982  0.2949  0.1614 -1.3657
  726MPD2    C310730   1.199   1.781  10.044  0.7295  1.0707  0.1960
  726MPD2    C410731   1.303   1.721  10.108 -0.2154  0.6685 -0.4612
  726MPD2    C510732   1.427   1.789  10.112  0.0188 -0.8041  0.5076
  726MPD2     H10733   1.130   1.955   9.921 -1.5433  0.6600  1.3998
  726MPD2    H110734   1.293   1.624  10.155  0.0534  0.4722 -0.8048
  726MPD2    H210735   1.538   1.968  10.071  0.8799 -0.3052 -0.3649
  726MPD2    H310736   1.507   1.749  10.172 -0.4390 -0.2715  1.4767
  726MPD2     N10737   1.080   1.711  10.064  0.1510  0.6986  0.4057
  726MPD2    H510738   1.081   1.638  10.135  1.1305  0.5004  0.1898
  726MPD2    N110739   1.334   2.096   9.923 -0.0026  0.3055  0.9391
  726MPD2    H710740   1.251   2.131   9.876  0.8910  0.1705 -0.7624
  727TMC3    C110741   1.409   2.298   9.836  0.5159 -0.5297  0.3800
  727TMC3    C210742   1.434   2.412   9.906  0.4837  0.3721  0.0351
  727TMC3    C310743   1.387   2.534   9.865  0.0070  0.2561  0.1791
  727TMC3    C410744   1.334   2.303   9.721 -0.4778 -0.4045  0.0586
  727TMC3    C510745   1.304   2.426   9.671 -0.8797  0.4566  0.7346
  727TMC3    C610746   1.321   2.538   9.747 -0.2354  0.0392 -0.0143
  727TMC3     C10747   1.442   2.174   9.902 -0.5272 -0.2562 -0.3319
  727TMC3     O10748   1.541   2.171   9.973 -0.4398  0.0755  1.5078
  727TMC3     H10749   1.485   2.400  10.001  2.8902  0.3357 -1.2616
  727TMC3    H110750   1.309   2.213   9.666 -1.3758 -0.2636  0.2370
  727TMC3    H210751   1.273   2.628   9.710  0.3924  0.5094  0.3310
  727TMC3    C710752   1.224   2.432   9.549 -0.0099 -0.0736  0.1843
  727TMC3    C810753   1.411   2.657   9.944 -0.4446  0.6307 -0.9622
  727TMC3    O110754   1.180   2.330   9.495  0.6962  0.2897 -0.4377
  727TMC3    O210755   1.449   2.626  10.058 -0.0499  0.4760  0.0956
  728TMC3    C110756   0.348   0.172  15.226  0.2585  0.1411  0.4403
  728TMC3    C210757   0.484   0.164  15.223 -0.4153  0.8761 -0.0596
  728TMC3    C310758   0.552   0.238  15.132 -0.7846 -0.9287 -0.8903
  728TMC3    C410759   0.279   0.232  15.128  0.4193 -0.2312  1.3814
  728TMC3    C510760   0.349   0.303  15.031  0.9298  0.3638  0.3086
  728TMC3    C610761   0.487   0.320  15.041 -0.4667 -0.1387 -0.5921
  728TMC3     C10762   0.289   0.146  15.354  0.2547  0.7559  0.5045
  728TMC3     O10763   0.344   0.087  15.443 -0.2448  0.1092 -0.0664
  728TMC3     H10764   0.539   0.108  15.298  1.2290  1.9934 -0.4293
  728TMC3    H110765   0.178   0.202  15.106  1.3506 -0.4320 -2.6532
  728TMC3    H210766   0.540   0.400  14.990 -2.0697  0.5233 -1.2150
  728TMC3    C710767   0.258   0.389  14.956 -0.3920 -0.4252  0.5916
  728TMC3    C810768   0.693   0.246  15.148  0.5656 -0.3863 -0.0678
  728TMC3    O110769   0.140   0.377  14.987  0.1002  0.5198 -0.4242
  728TMC3    O210770   0.739   0.191  15.245  0.4144 -0.1353  0.2752
  729MPD2     C10771   2.855   1.833  15.827 -0.4427 -0.3605  0.6391
  729MPD2    C110772   2.961   1.776  15.890 -0.3947  0.1349  0.0218
  729MPD2    C210773   2.943   1.702  16.000  0.9668 -0.0266  0.1945
  729MPD2    C310774   2.817   1.672  16.047 -0.5965 -0.0266 -0.2391
  729MPD2    C410775   2.710   1.726  15.972  0.3994  0.0970 -0.5443
  729MPD2    C510776   2.729   1.810  15.865  0.0593 -0.3433 -0.5192
  729MPD2     H10777   3.030   1.667  16.055  1.6127  0.3100 -0.6033
  729MPD2    H110778   2.609   1.698  16.001  0.5864 -0.3860 -0.3527
  729MPD2    H210779   2.861   1.908  15.749  1.9970 -0.4085  0.7722
  729MPD2    H310780   2.644   1.862  15.821 -0.9702 -0.9000  0.8157
  729MPD2     N10781   2.791   1.604  16.168  0.6839 -0.1732 -0.6122
  729MPD2    H510782   2.691   1.600  16.184  0.9350 -3.6577  0.1281
  729MPD2    N110783   3.089   1.791  15.831 -0.1862 -0.4656  0.5200
  729MPD2    H710784   3.091   1.867  15.764  0.0739 -0.7156  0.2440
  730TMC3    C110785   2.823   1.500  16.374 -0.2092 -0.3097 -0.1393
  730TMC3    C210786   2.895   1.404  16.437 -0.5422 -0.3211 -0.1395
  730TMC3    C310787   2.881   1.393  16.574  0.3201 -0.2490  0.3018
  730TMC3    C410788   2.763   1.596  16.444  0.4153 -0.1041  0.8671
  730TMC3    C510789   2.751   1.586  16.578  0.1735 -0.6581  0.1414
  730TMC3    C610790   2.817   1.488  16.646 -0.0759 -0.7109  0.6496
  730TMC3     C10791   2.881   1.549  16.251 -0.2675  0.7216  0.0129
  730TMC3     O10792   3.003   1.540  16.236 -0.2818  0.3516  0.0046
  730TMC3     H10793   2.967   1.343  16.383 -0.7853  0.3130 -1.1778
  730TMC3    H110794   2.723   1.688  16.402 -1.6227 -2.0147 -1.3788
  730TMC3    H210795   2.804   1.464  16.751  1.1314  1.7496  1.3770
  730TMC3    C710796   2.747   1.722  16.646 -0.3317  0.1288  0.1547
  730TMC3    C810797   2.984   1.324  16.647  0.0717 -0.5297  0.6208
  730TMC3    O110798   2.763   1.816  16.571 -0.3796 -0.0204 -0.1572
  730TMC3    O210799   3.043   1.239  16.586 -0.3606 -0.0342  0.2883
  731MPD2     C10800   2.894   3.969  12.179 -0.8347  0.3564  0.1092
  731MPD2    C110801   2.772   4.017  12.134 -0.1856 -0.3129  0.9529
  731MPD2    C210802   2.668   4.045  12.226 -0.0777  0.0414  0.6143
  731MPD2    C310803   2.682   4.021  12.358  0.1190 -0.0309 -0.3065
  731MPD2    C410804   2.805   3.969  12.399  0.4333  0.3437 -0.0372
  731MPD2    C510805   2.904   3.938  12.314  0.4521 -0.4149  0.5429
  731MPD2     H10806   2.571   4.080  12.193 -0.9836 -3.3659 -0.3549
  731MPD2    H110807   2.823   3.946  12.503 -2.9318 -0.8145  0.2756
  731MPD2    H210808   2.979   3.949  12.114 -1.9454 -0.4939 -1.0720
  731MPD2    H310809   2.993   3.892  12.354  1.6042 -0.2247 -1.8024
  731MPD2     N10810   2.570   4.046  12.444 -0.4247  0.2397 -0.4787
  731MPD2    H510811   2.489   4.095  12.408 -0.4376 -0.2179 -1.0725
  731MPD2    N110812   2.758   4.043  11.991 -0.2520 -0.5553 -0.4976
  731MPD2    H710813   2.838   4.036  11.930  0.4029 -1.0983  0.4204
  732TMC3    C110814   2.671   4.081  11.777 -0.0363  0.5665 -0.2081
  732TMC3    C210815   2.574   4.135  11.699  0.7354  0.8200 -0.2217
  732TMC3    C310816   2.613   4.160  11.571 -0.1916  0.0873  0.3254
  732TMC3    C410817   2.793   4.030  11.727 -0.3932  0.3006 -0.0854
  732TMC3    C510818   2.823   4.058  11.600 -0.3125 -0.6697  0.4935
  732TMC3    C610819   2.737   4.131  11.522 -0.3238  0.3506  0.1228
  732TMC3     C10820   2.650   4.088  11.918  0.0643  0.2465  0.0865
  732TMC3     O10821   2.539   4.111  11.955 -0.2801 -0.2633 -0.3708
  732TMC3     H10822   2.473   4.166  11.722  0.2420  1.1332 -2.8582
  732TMC3    H110823   2.842   3.952  11.785 -1.1675  1.8800  2.7148
  732TMC3    H210824   2.759   4.157  11.420  0.4824 -0.8989 -0.0284
  732TMC3    C710825   2.956   4.023  11.548 -0.3972  0.9288  0.2298
  732TMC3    C810826   2.559   4.269  11.491  0.2185 -0.4858  0.1969
  732TMC3    O110827   2.965   4.027  11.427  0.0205 -0.3021 -0.4006
  732TMC3    O210828   2.617   4.315  11.394  0.0340 -0.0285  0.3507
  733TMC3    C110829   3.601   2.687  12.743  0.6413  0.1755 -0.4177
  733TMC3    C210830   3.720   2.722  12.794 -0.0735  0.8266 -0.2520
  733TMC3    C310831   3.786   2.816  12.724  1.1159  0.9135  0.5949
  733TMC3    C410832   3.539   2.758  12.645 -0.5715  0.4374 -0.5865
  733TMC3    C510833   3.617   2.840  12.566 -0.2889  0.0414 -0.3148
  733TMC3    C610834   3.745   2.879  12.606  0.3835  0.5036  0.1983
  733TMC3     C10835   3.514   2.598  12.825 -0.0280  0.1527  0.0386
  733TMC3     O10836   3.396   2.586  12.798 -0.1350 -0.1032 -0.4782
  733TMC3     H10837   3.751   2.674  12.887  1.0844  2.0239 -0.0245
  733TMC3    H110838   3.440   2.728  12.614 -1.6527  1.0135  2.2592
  733TMC3    H210839   3.808   2.937  12.540 -1.4134  0.3342 -1.6813
  733TMC3    C710840   3.545   2.944  12.490  0.0905 -0.7190  0.1413
  733TMC3    C810841   3.899   2.860  12.799  0.0314 -0.3671 -0.4826
  733TMC3    O110842   3.437   2.909  12.448  0.1768  0.2255  0.4853
  733TMC3    O210843   3.949   2.782  12.885 -0.0285  0.1270  0.3542
  734MPD2     C10844   0.371   0.514  11.845  1.0019 -0.5042  0.2665
  734MPD2    C110845   0.407   0.419  11.753 -0.1322 -0.3834  0.3150
  734MPD2    C210846   0.467   0.465  11.640 -0.2909  0.1828 -0.0654
  734MPD2    C310847   0.495   0.593  11.615 -0.2907  0.7195  0.7242
  734MPD2    C410848   0.473   0.690  11.716  0.5610  0.2495  0.2634
  734MPD2    C510849   0.410   0.650  11.826 -0.5022  0.1541 -0.5273
  734MPD2     H10850   0.525   0.394  11.582  0.8308  1.3167 -0.3363
  734MPD2    H110851   0.508   0.792  11.708 -0.0473  0.4495  0.1058
  734MPD2    H210852   0.320   0.480  11.934  1.7431  0.2637  0.9918
  734MPD2    H310853   0.394   0.718  11.910 -1.9961 -0.0471 -0.6649
  734MPD2     N10854   0.560   0.622  11.497  0.1378  0.6240  0.4776
  734MPD2    H510855   0.582   0.538  11.444  3.0116  0.5806  1.7491
  734MPD2    N110856   0.385   0.279  11.778 -0.8382 -0.3056 -0.0501
  734MPD2    H710857   0.334   0.262  11.864 -1.7825 -3.3945 -1.2045
  735TMC3    C110858   0.386   0.050  11.739  0.1784  0.0644  0.0071
  735TMC3    C210859   0.417   4.678  11.647  1.0009  0.0424  0.6194
  735TMC3    C310860   0.513   4.588  11.681 -0.1039 -0.7235  0.7537
  735TMC3    C410861   0.437   0.035  11.866 -0.5689  0.1765  0.3436
  735TMC3    C510862   0.540   4.680  11.894 -0.0326 -0.0740  0.6688
  735TMC3    C610863   0.579   4.585  11.804 -0.7943 -0.1728  0.3831
  735TMC3     C10864   0.388   0.181  11.684  0.2061  0.1337  0.5768
  735TMC3     O10865   0.419   0.192  11.566 -0.0161 -0.0055  0.3142
  735TMC3     H10866   0.374   4.678  11.548  1.1518 -1.7538  0.5581
  735TMC3    H110867   0.411   0.104  11.945  0.1176 -0.6914  1.3319
  735TMC3    H210868   0.661   4.520  11.830 -0.8311 -1.7950 -3.5779
  735TMC3    C710869   0.642   0.004  11.989  0.2048 -0.4927 -1.0486
  735TMC3    C810870   0.617   4.580  11.579 -0.3585  0.5741 -0.1428
  735TMC3    O110871   0.644   0.121  12.019  0.3751  0.8790 -0.2446
  735TMC3    O210872   0.703   4.495  11.582  0.6347  0.0404  0.2171
  736MPD2     C10873   0.957   4.562  12.044 -0.1822  0.2663  0.2422
  736MPD2    C110874   0.873   4.672  12.042  0.6669  0.0023  0.1431
  736MPD2    C210875   0.923   0.072  12.043 -0.2442  0.2670 -0.3240
  736MPD2    C310876   1.060   0.096  12.035  0.4619 -0.5054 -0.2997
  736MPD2    C410877   1.140   4.709  12.039  0.0228 -0.3298 -0.8162
  736MPD2    C510878   1.092   4.577  12.049 -0.4604  0.1319  0.1958
  736MPD2     H10879   0.866   0.163  12.034 -0.1531  0.2759 -0.8080
  736MPD2    H110880   1.248   4.712  12.037  0.0641 -0.8046  1.4739
  736MPD2    H210881   0.914   4.464  12.028  1.5438 -0.5683  0.6872
  736MPD2    H310882   1.158   4.491  12.039  0.0952  0.3206  2.2664
  736MPD2     N10883   1.133   0.212  12.006 -0.2640  0.2691  0.6460
  736MPD2    H510884   1.232   0.203  11.985 -0.1819  2.2806  0.1796
  736MPD2    N110885   0.740   4.640  12.015 -0.1361  0.4779  0.2547
  736MPD2    H710886   0.714   4.542  12.020  0.8175  0.1483 -1.1750
  737TMC3    C110887   1.180   0.438  11.964 -0.2979  0.1354 -0.1243
  737TMC3    C210888   1.160   0.513  11.849 -0.4541 -0.1091 -0.7661
  737TMC3    C310889   1.263   0.535  11.763 -0.0044  0.5683  0.7299
  737TMC3    C410890   1.300   0.389  11.984  0.1562 -0.8627 -0.1457
  737TMC3    C510891   1.401   0.393  11.896  0.4406  0.3620  0.4805
  737TMC3    C610892   1.389   0.475  11.789 -0.4056  0.0875 -0.2872
  737TMC3     C10893   1.076   0.337  11.996  0.0072  0.0226 -0.6446
  737TMC3     O10894   0.965   0.376  12.027 -0.1166 -0.4148  0.8562
  737TMC3     H10895   1.064   0.556  11.823 -0.6048  1.4517  2.3584
  737TMC3    H110896   1.323   0.341  12.078  2.1541  2.1743  0.8984
  737TMC3    H210897   1.476   0.496  11.727  0.0298  1.4455  0.7949
  737TMC3    C710898   1.446   0.255  11.871 -0.3815  0.2912 -0.4320
  737TMC3    C810899   1.260   0.654  11.677 -0.2591 -0.6263  0.6943
  737TMC3    O110900   1.392   0.172  11.947  0.1939  0.2213 -0.0312
  737TMC3    O210901   1.175   0.738  11.694 -0.3300 -0.5697 -0.0094
  738MPD2     C10902   1.662   3.832  14.641 -0.4633 -0.5510 -0.2114
  738MPD2    C110903   1.615   3.824  14.767 -0.2756 -0.2280  1.7617
  738MPD2    C210904   1.673   3.889  14.877 -0.3013 -0.7008  0.4867
  738MPD2    C310905   1.790   3.962  14.851 -0.6701 -0.3562  0.8433
  738MPD2    C410906   1.823   3.984  14.720 -0.4386  0.2027  0.6445
  738MPD2    C510907   1.759   3.926  14.614 -0.0206 -0.3050 -0.0555
  738MPD2     H10908   1.634   3.879  14.978  1.4930  1.4881  1.4073
  738MPD2    H110909   1.907   4.045  14.689  1.0965 -1.7796  0.9211
  738MPD2    H210910   1.620   3.775  14.559  0.5464 -2.8101  0.8356
  738MPD2    H310911   1.802   3.947  14.517 -0.0919  0.6504  0.1158
  738MPD2     N10912   1.865   4.033  14.949 -0.3919 -0.4728 -0.1211
  738MPD2    H510913   1.942   4.084  14.905 -1.7057  1.6031 -0.0212
  738MPD2    N110914   1.503   3.741  14.799  0.1752  0.7379 -0.4015
  738MPD2    H710915   1.480   3.730  14.897  0.9782 -0.2173 -0.3207
  739TMC3    C110916   1.947   4.113  15.150  0.0548 -0.2551  0.7259
  739TMC3    C210917   1.986   4.221  15.065  0.4546 -0.7518  0.2167
  739TMC3    C310918   2.119   4.243  15.031  0.2170  0.0069  0.0391
  739TMC3    C410919   2.050   4.047  15.212 -0.0294  0.5057  0.0165
  739TMC3    C510920   2.178   4.060  15.170 -0.0459 -0.1714 -0.2403
  739TMC3    C610921   2.213   4.160  15.084 -0.3570 -1.0342 -0.2049
  739TMC3     C10922   1.854   4.027  15.088 -0.2172  0.0308 -0.3372
  739TMC3     O10923   1.778   3.973  15.160 -0.1271 -0.1964  0.6721
  739TMC3     H10924   1.910   4.269  15.005  1.7438  2.5479  1.1846
  739TMC3    H110925   2.030   3.960  15.274  0.4477  1.3104  1.3086
  739TMC3    H210926   2.315   4.154  15.048 -0.6626  1.1476 -1.4591
  739TMC3    C710927   2.270   3.951  15.189  0.2319  0.1357  0.0292
  739TMC3    C810928   2.149   4.274  14.888 -0.6171  0.0956 -0.4844
  739TMC3    O110929   2.279   3.917  15.306  0.0531 -0.1749 -0.5813
  739TMC3    O210930   2.054   4.255  14.811  0.1497 -0.2431 -0.3380
  740TMC3    C110931   2.486   0.495  14.103  0.5738 -0.5082  0.5079
  740TMC3    C210932   2.519   0.439  14.228  0.1808 -0.5531 -0.2261
  740TMC3    C310933   2.643   0.385  14.246  0.1803  0.5397  0.4343
  740TMC3    C410934   2.577   0.489  13.998  0.7784  0.0781 -0.5138
  740TMC3    C510935   2.704   0.443  14.026  1.4022 -0.2321  0.0040
  740TMC3    C610936   2.738   0.380  14.143 -0.0928  0.8959 -0.3894
  740TMC3     C10937   2.350   0.518  14.060 -0.2628 -0.2320 -0.1051
  740TMC3     O10938   2.326   0.560  13.945 -0.4399 -0.7563  0.4694
  740TMC3     H10939   2.449   0.443  14.311 -1.2985  0.2861 -1.5082
  740TMC3    H110940   2.541   0.533  13.906 -1.2360 -0.7695 -0.1243
  740TMC3    H210941   2.841   0.345  14.152 -0.6464 -0.2686  1.5553
  740TMC3    C710942   2.798   0.429  13.912  0.1355 -0.2072 -0.4206
  740TMC3    C810943   2.691   0.379  14.385  0.4866  0.1976 -0.3934
  740TMC3    O110944   2.901   0.366  13.926  0.7663  0.2318  0.1220
  740TMC3    O210945   2.684   0.480  14.448  0.1289 -0.0615 -0.1065
  741TMC3    C110946   1.791   0.182  13.978  1.3653  0.3016 -0.0972
  741TMC3    C210947   1.720   0.066  13.996 -0.2499 -0.0102 -0.6548
  741TMC3    C310948   1.722   0.010  14.121  0.0238 -0.2633  0.1571
  741TMC3    C410949   1.867   0.244  14.081 -0.2872  0.1286 -0.6015
  741TMC3    C510950   1.855   0.187  14.201 -0.3467 -0.7039 -0.0958
  741TMC3    C610951   1.799   0.065  14.220 -0.3439 -0.7127 -0.5125
  741TMC3     C10952   1.745   0.267  13.863 -0.6434 -0.3475  0.5734
  741TMC3     O10953   1.721   0.216  13.755 -0.3779  0.1687  0.6240
  741TMC3     H10954   1.670   0.023  13.909  0.6218 -1.3068 -0.5235
  741TMC3    H110955   1.918   0.338  14.069  0.6231 -0.0863  1.6447
  741TMC3    H210956   1.805   0.017  14.317 -3.3106  0.2874  0.1899
  741TMC3    C710957   1.970   0.218  14.280  0.0387 -0.3536 -0.2933
  741TMC3    C810958   1.676   4.601  14.140 -0.0740  0.7136  0.2141
  741TMC3    O110959   1.945   0.237  14.396  0.4855  0.5945 -0.2852
  741TMC3    O210960   1.605   4.565  14.049  0.0654 -0.1892 -0.2777
  742TMC3    C110961   2.081   2.847  14.927 -0.3738  0.1136  0.1805
  742TMC3    C210962   1.972   2.859  14.843  0.3070 -0.1119 -0.3275
  742TMC3    C310963   1.987   2.796  14.714 -0.3475  0.2098 -0.3644
  742TMC3    C410964   2.197   2.789  14.884  0.6213  0.5458  0.4425
  742TMC3    C510965   2.207   2.728  14.767 -0.2676  0.6217 -0.3618
  742TMC3    C610966   2.108   2.741  14.673 -0.5760 -0.4259  0.3245
  742TMC3     C10967   2.080   2.912  15.057 -1.2203 -0.2680  0.1377
  742TMC3     O10968   2.176   2.900  15.134  0.3383 -0.2176  0.1721
  742TMC3     H10969   1.871   2.874  14.878  0.7664  1.1366  0.4555
  742TMC3    H110970   2.275   2.788  14.959 -1.2518  0.9786  2.3838
  742TMC3    H210971   2.108   2.674  14.588  0.6232  0.3173 -0.2578
  742TMC3    C710972   2.337   2.683  14.728 -0.8728  0.2234 -0.7934
  742TMC3    C810973   1.888   2.803  14.605  0.9000 -0.3218 -0.1632
  742TMC3    O110974   2.341   2.588  14.647 -0.0876  0.6616  0.1657
  742TMC3    O210975   1.934   2.793  14.491  0.6333  0.0803  0.3701
  743MPD2     C10976   0.684   3.322   1.331 -0.5089  0.6601  0.1372
  743MPD2    C110977   0.716   3.445   1.272  0.9228  0.3046  0.8701
  743MPD2    C210978   0.847   3.477   1.260  0.2759 -0.3842 -0.3086
  743MPD2    C310979   0.948   3.402   1.322 -0.3155  0.4860  0.0298
  743MPD2    C410980   0.915   3.285   1.388 -0.7074 -0.1572  0.3774
  743MPD2    C510981   0.786   3.246   1.389 -0.8059 -0.1551 -0.0074
  743MPD2     H10982   0.869   3.570   1.208 -1.1192  1.4051  2.2634
  743MPD2    H110983   0.994   3.217   1.421  0.8431  0.7688 -1.4351
  743MPD2    H210984   0.584   3.280   1.341 -0.7343  1.7357  2.3940
  743MPD2    H310985   0.758   3.154   1.439 -0.3055  0.5641  1.6161
  743MPD2     N10986   1.078   3.444   1.305 -0.1644 -0.1728  0.2437
  743MPD2    H510987   1.090   3.518   1.237  0.3233 -1.1998 -0.7685
  743MPD2    N110988   0.604   3.523   1.243 -0.8278 -0.4043  0.2793
  743MPD2    H710989   0.515   3.476   1.256 -0.2107 -1.3915  0.8593
  744TMC3    C110990   0.468   3.707   1.189  0.4945  0.1518 -0.4809
  744TMC3    C210991   0.436   3.831   1.233 -0.3293  0.5917  0.1696
  744TMC3    C310992   0.307   3.867   1.222 -0.0328 -0.2353 -0.2600
  744TMC3    C410993   0.380   3.614   1.140 -0.0207  0.6193 -0.0200
  744TMC3    C510994   0.255   3.661   1.122  0.1344  0.0127 -0.0846
  744TMC3    C610995   0.221   3.786   1.163  0.5178  0.0399  0.2161
  744TMC3     C10996   0.600   3.662   1.234 -0.2979 -0.2024  0.5650
  744TMC3     O10997   0.695   3.733   1.266 -0.4186  0.0653 -0.1910
  744TMC3     H10998   0.501   3.912   1.264 -1.6974  1.9847 -0.6179
  744TMC3    H110999   0.403   3.510   1.120  0.2788  0.7362 -0.2838
  744TMC3    H211000   0.123   3.830   1.147  0.1268 -0.7740  0.4018
  744TMC3    C711001   0.176   3.622   1.006  0.0552 -0.0125  0.0299
  744TMC3    C811002   0.251   4.008   1.248 -0.7633  0.5265  0.0809
  744TMC3    O111003   0.104   3.712   0.965  0.2213 -0.2238 -0.3986
  744TMC3    O211004   0.146   4.047   1.208  0.1765  0.3004 -0.1545
  745TMC3    C111005   2.587   2.501  14.266  0.3915  0.2575  0.6034
  745TMC3    C211006   2.501   2.588  14.320  0.0109  0.1286 -0.2204
  745TMC3    C311007   2.374   2.575  14.302  0.2488  0.2920 -0.2505
  745TMC3    C411008   2.539   2.402  14.180 -0.2010 -0.6638 -0.0223
  745TMC3    C511009   2.407   2.399  14.159 -0.1303 -0.3140  0.0878
  745TMC3    C611010   2.320   2.474  14.222  0.0800 -0.2342 -0.1775
  745TMC3     C11011   2.716   2.548  14.226  0.1064  0.7071 -0.0990
  745TMC3     O11012   2.819   2.482  14.248  0.2136  0.2835 -0.0403
  745TMC3     H11013   2.550   2.656  14.388  0.4864 -1.5517  1.0974
  745TMC3    H111014   2.610   2.334  14.133  0.6656  0.8082 -0.8628
  745TMC3    H211015   2.214   2.480  14.204  0.6482  1.3854 -3.0016
  745TMC3    C711016   2.370   2.372  14.024 -0.0562 -0.1722  0.8331
  745TMC3    C811017   2.315   2.704  14.264  0.4819 -0.1457  0.1399
  745TMC3    O111018   2.252   2.345  14.017  0.2731 -0.4682  0.2955
  745TMC3    O211019   2.202   2.696  14.212 -0.1104  0.6683 -0.6542
  746TMC3    C111020   4.549   0.032  10.824 -0.8924  0.4285  0.5077
  746TMC3    C211021   4.620   4.660  10.755 -0.0666 -0.0838  0.0622
  746TMC3    C311022   4.554   4.554  10.703 -0.1741  0.5972  0.4836
  746TMC3    C411023   4.416   0.019  10.843 -0.1725  1.7249 -0.0392
  746TMC3    C511024   4.353   4.628  10.801  0.0877  0.8904  0.1282
  746TMC3    C611025   4.419   4.530  10.728 -0.3129  0.3582  0.1749
  746TMC3     C11026   4.603   0.168  10.836  0.4600  0.1302  0.6374
  746TMC3     O11027   4.569   0.216  10.942 -0.3153 -0.1537  0.3634
  746TMC3     H11028   4.726   4.672  10.733 -0.3668 -0.7590 -1.7019
  746TMC3    H111029   4.365   0.113  10.863 -1.5813  1.0100 -0.2340
  746TMC3    H211030   4.365   4.443  10.696  2.0575 -0.9494 -0.2563
  746TMC3    C711031   4.208   4.621  10.794  1.0854 -0.5667  0.0829
  746TMC3    C811032   4.597   4.489  10.584 -0.1996 -0.4058 -0.5846
  746TMC3    O111033   4.156   4.515  10.760 -0.4162 -0.2670 -0.1125
  746TMC3    O211034   4.547   4.380  10.563 -0.6524 -0.0175 -0.5148
  747TMC3    C111035   2.109   4.532  11.149  0.4163 -0.0566 -0.1643
  747TMC3    C211036   1.989   4.531  11.204  0.7479  0.1259 -0.2478
  747TMC3    C311037   1.943   4.641  11.276  1.1659 -0.2218  0.6696
  747TMC3    C411038   2.193   4.644  11.150 -0.2840 -0.3804 -0.7929
  747TMC3    C511039   2.149   0.019  11.228  0.2976 -1.0284  0.3303
  747TMC3    C611040   2.029   0.025  11.290 -0.1362 -0.1497  0.4936
  747TMC3     C11041   2.141   4.406  11.071  0.4502 -0.0458 -0.5096
  747TMC3     O11042   2.054   4.351  11.004  0.3471 -0.5100  0.3807
  747TMC3     H11043   1.923   4.446  11.192  2.6131 -1.7714  2.9132
  747TMC3    H111044   2.292   4.639  11.105  1.3166  1.3717  2.5327
  747TMC3    H211045   2.003   0.103  11.361  0.6792  0.6939 -0.1355
  747TMC3    C711046   2.247   0.122  11.262  0.2466 -0.4704  0.4487
  747TMC3    C811047   1.859   4.606  11.386 -0.1030 -0.4142  0.1682
  747TMC3    O111048   2.217   0.207  11.346 -0.0184 -0.5053 -0.1791
  747TMC3    O211049   1.860   4.488  11.423 -0.3038 -0.8671 -0.1419
  748MPD2     C11050   4.124   0.296   0.789 -0.3748 -0.2369  0.5952
  748MPD2    C111051   4.151   0.318   0.918  1.0917 -0.1223 -0.3395
  748MPD2    C211052   4.250   0.409   0.955 -0.2106 -0.0365  0.7856
  748MPD2    C311053   4.313   0.482   0.853  0.3111 -0.0723 -0.3623
  748MPD2    C411054   4.274   0.455   0.723 -0.6476 -0.7812 -0.0029
  748MPD2    C511055   4.181   0.363   0.689 -0.2605 -0.8796 -0.0676
  748MPD2     H11056   4.280   0.432   1.056  2.6384 -3.2470  0.6343
  748MPD2    H111057   4.315   0.509   0.638  0.5938 -2.0261 -0.1777
  748MPD2    H211058   4.050   0.223   0.759 -0.6201  1.2377 -2.4948
  748MPD2    H311059   4.166   0.342   0.583 -0.7168  0.2245 -0.2158
  748MPD2     N11060   4.416   0.562   0.896  0.0162  0.2123  0.1766
  748MPD2    H511061   4.433   0.567   0.996 -1.3653  0.7369  0.3840
  748MPD2    N111062   4.087   0.228   1.010  0.4167 -0.0086  0.0626
  748MPD2    H711063   4.015   0.164   0.977  0.0417  0.0235  0.8157
  749TMC3    C111064   4.599   0.718   0.887 -0.0334 -0.5003 -0.3944
  749TMC3    C211065   4.649   0.675   1.004  0.0142 -0.0183 -0.3560
  749TMC3    C311066   4.711   0.768   1.081 -0.3036 -0.7386  1.1583
  749TMC3    C411067   4.635   0.840   0.838  0.8117  0.3722  0.1803
  749TMC3    C511068   4.696   0.933   0.921  0.0371  0.3811  0.2908
  749TMC3    C611069   4.721   0.902   1.051 -0.1845  0.2660  1.1063
  749TMC3     C11070   4.499   0.641   0.815 -0.1238  0.2607 -0.1851
  749TMC3     O11071   4.492   0.645   0.690  0.2665  0.2402  0.7318
  749TMC3     H11072   4.604   0.587   1.049 -0.5659  0.0470 -0.7987
  749TMC3    H111073   4.610   0.854   0.734 -1.1232 -1.7500  0.3729
  749TMC3    H211074   0.056   0.969   1.111 -0.1759  1.0081  0.2695
  749TMC3    C711075   0.036   1.045   0.864  0.5441  0.0435 -0.2334
  749TMC3    C811076   0.050   0.730   1.204 -0.5240  0.0009 -0.2714
  749TMC3    O111077   0.127   1.103   0.928  0.1826 -0.1448  0.0666
  749TMC3    O211078   0.091   0.818   1.278  0.3002  0.2218  0.3577
  750MPD2     C11079   0.348   2.131  10.950  0.5049  0.3390 -0.2644
  750MPD2    C111080   0.217   2.124  10.903  0.7848 -1.0558  0.0450
  750MPD2    C211081   0.187   2.015  10.819  0.3547 -0.4471  2.1191
  750MPD2    C311082   0.282   1.925  10.780  0.1333  0.1680  0.1471
  750MPD2    C411083   0.408   1.938  10.824  0.2949  0.7442 -0.2285
  750MPD2    C511084   0.438   2.042  10.905 -0.9018 -0.0204  0.9948
  750MPD2     H11085   0.084   2.006  10.788  0.6272  0.4142  0.9646
  750MPD2    H111086   0.492   1.882  10.785 -0.7966 -0.4649 -0.8136
  750MPD2    H211087   0.375   2.216  11.011  0.6906  1.0441 -1.3361
  750MPD2    H311088   0.539   2.064  10.938 -0.0269 -0.9901 -1.0455
  750MPD2     N11089   0.259   1.803  10.706  0.6103  0.3539  0.5412
  750MPD2    H511090   0.336   1.739  10.724  0.3940  0.0341  0.3350
  750MPD2    N111091   0.124   2.209  10.966 -0.2774  0.6683 -0.0186
  750MPD2    H711092   0.162   2.290  11.014  1.6747  0.1193 -0.6419
  751TMC3    C111093   0.133   1.621  10.670 -0.0615  1.0502  0.2100
  751TMC3    C211094   0.013   1.572  10.699 -0.2419 -0.4686 -0.7033
  751TMC3    C311095   4.726   1.433  10.720 -0.1668  0.1929  0.3473
  751TMC3    C411096   0.239   1.539  10.650  0.6454 -0.4604 -0.2712
  751TMC3    C511097   0.222   1.401  10.658 -0.1791 -0.0935  0.1242
  751TMC3    C611098   0.103   1.347  10.699  0.3065 -0.1378  1.1224
  751TMC3     C11099   0.138   1.760  10.658  0.1301  0.5333 -0.0167
  751TMC3     O11100   0.037   1.824  10.624  0.0092  0.1527  1.1538
  751TMC3     H11101   4.649   1.628  10.677 -1.2551 -2.4856 -1.6857
  751TMC3    H111102   0.330   1.570  10.599  0.4726 -0.4068 -0.5456
  751TMC3    H211103   0.078   1.241  10.700  0.5272 -0.1867  1.6868
  751TMC3    C711104   0.326   1.303  10.630  0.0636  0.4349 -0.4655
  751TMC3    C811105   4.601   1.375  10.754  0.1104 -0.4095 -0.2770
  751TMC3    O111106   0.396   1.323  10.528  0.5317  0.5758  0.1273
  751TMC3    O211107   4.599   1.253  10.770 -0.1798  0.0270 -0.3451
  752TMC3    C111108   4.156   1.528  16.406 -0.3128 -0.0375 -0.0001
  752TMC3    C211109   4.066   1.605  16.466  0.5636  0.1366 -0.1899
  752TMC3    C311110   4.068   1.598  16.601  0.9198 -0.4271 -0.2782
  752TMC3    C411111   4.243   1.451  16.463 -0.1059 -0.0332  0.1471
  752TMC3    C511112   4.244   1.446  16.601  0.5270  0.2015 -0.3220
  752TMC3    C611113   4.149   1.510  16.669  0.0211 -0.1965  0.8171
  752TMC3     C11114   4.157   1.517  16.263  0.3545  0.1380  0.1895
  752TMC3     O11115   4.260   1.486  16.205 -0.3750 -0.0703  0.2157
  752TMC3     H11116   4.003   1.680  16.419 -0.7174  0.4541  2.0352
  752TMC3    H111117   4.306   1.383  16.407  0.1898  1.3447 -1.1919
  752TMC3    H211118   4.151   1.507  16.778 -0.2713 -2.2073  0.7515
  752TMC3    C711119   4.341   1.361  16.667 -0.5426 -0.4328  0.3199
  752TMC3    C811120   3.981   1.689  16.672 -0.4303 -0.2401 -0.1681
  752TMC3    O111121   4.410   1.298  16.592  0.1011  0.6207 -0.1802
  752TMC3    O211122   3.905   1.762  16.603  0.2295 -0.2098  0.3224
  753TMC3    C111123   0.327   2.719  13.226  0.3251  0.3718  1.0653
  753TMC3    C211124   0.457   2.671  13.255 -0.1335  0.2483  0.1771
  753TMC3    C311125   0.486   2.542  13.204  0.0523  0.5500 -0.0448
  753TMC3    C411126   0.232   2.641  13.167  0.6337  0.1380 -1.3988
  753TMC3    C511127   0.264   2.521  13.119  0.5081  0.5774 -0.2696
  753TMC3    C611128   0.394   2.482  13.126 -0.4383  0.2940 -0.3716
  753TMC3     C11129   0.281   2.827  13.313  0.1107 -0.4028  0.2781
  753TMC3     O11130   0.167   2.834  13.354 -0.3022 -0.9485 -0.2996
  753TMC3     H11131   0.525   2.727  13.318 -0.8481  0.4869  0.7319
  753TMC3    H111132   0.132   2.682  13.158  0.8915  1.4697  1.5198
  753TMC3    H211133   0.416   2.391  13.071 -1.8063  0.4662 -1.1924
  753TMC3    C711134   0.176   2.434  13.041 -0.3102 -0.1967 -0.2418
  753TMC3    C811135   0.553   2.454  13.297 -0.3401  0.0730 -0.3755
  753TMC3    O111136   0.215   2.383  12.940  0.0126  0.3533  0.5513
  753TMC3    O211137   0.518   2.337  13.293  0.2314  0.8873 -0.4078
  754MPD2     C11138   3.640   1.395  12.481  0.0998 -0.6459 -0.2387
  754MPD2    C111139   3.643   1.257  12.502 -0.5621 -0.1639  0.3454
  754MPD2    C211140   3.537   1.183  12.539 -0.4824  0.3233  0.2593
  754MPD2    C311141   3.417   1.255  12.546 -0.1766  0.2907  0.4610
  754MPD2    C411142   3.412   1.392  12.517  0.6434  0.4309  0.7212
  754MPD2    C511143   3.528   1.461  12.493  0.3238 -0.6944 -0.2115
  754MPD2     H11144   3.536   1.081  12.574 -0.3085 -0.1053 -0.9974
  754MPD2    H111145   3.319   1.448  12.507 -0.0843 -1.0353 -0.7644
  754MPD2    H211146   3.735   1.446  12.474 -0.9336  1.1444 -0.9424
  754MPD2    H311147   3.529   1.569  12.478 -0.7393 -0.8415 -1.3411
  754MPD2     N11148   3.309   1.181  12.597 -0.6119  0.1416 -0.2700
  754MPD2    H511149   3.320   1.080  12.598  3.9678  0.6140 -0.7538
  754MPD2    N111150   3.766   1.205  12.509  0.2570 -0.3430  0.2877
  754MPD2    H711151   3.840   1.274  12.521 -0.5024  0.2696  1.4691
  755MPD2     C11152   3.557   1.203  13.486 -0.4872  0.2230  0.6405
  755MPD2    C111153   3.425   1.246  13.475  0.3513 -0.5806  0.4494
  755MPD2    C211154   3.352   1.202  13.364  0.9713 -0.5163 -0.0137
  755MPD2    C311155   3.402   1.116  13.269  0.2730 -0.6956 -0.0095
  755MPD2    C411156   3.529   1.071  13.284  0.5667  0.1867 -0.1395
  755MPD2    C511157   3.603   1.125  13.380  0.8007  0.2320 -0.6192
  755MPD2     H11158   3.246   1.226  13.360  0.8272 -0.4353  4.0317
  755MPD2    H111159   3.573   0.995  13.220 -0.3749  0.5680 -1.2301
  755MPD2    H211160   3.624   1.242  13.562 -0.5615  1.6369 -0.0169
  755MPD2    H311161   3.707   1.098  13.388  0.4937 -1.2918 -1.6250
  755MPD2     N11162   3.322   1.062  13.158  0.5784  0.6143  0.3424
  755MPD2    H511163   3.360   0.982  13.110  1.2804  0.7269  0.7092
  755MPD2    N111164   3.359   1.330  13.564 -0.0121  0.1956  0.5569
  755MPD2    H711165   3.265   1.358  13.536 -0.4171 -0.8715  0.8547
  756MPD2     C11166   0.384   1.971   8.883  0.5501  0.5890 -0.7388
  756MPD2    C111167   0.270   1.979   8.969 -0.4134  0.6024 -0.4355
  756MPD2    C211168   0.196   1.867   8.983 -0.2353 -0.0212 -0.1630
  756MPD2    C311169   0.222   1.753   8.911  0.5852  0.6929  0.1704
  756MPD2    C411170   0.344   1.743   8.842 -0.2499 -0.1399  0.9310
  756MPD2    C511171   0.417   1.854   8.824  0.5311  0.2900  0.1520
  756MPD2     H11172   0.103   1.878   9.038 -0.1678 -0.5281  0.0458
  756MPD2    H111173   0.375   1.659   8.781 -0.4499  1.4096 -1.3115
  756MPD2    H211174   0.448   2.056   8.859  1.7536 -0.0986  0.0303
  756MPD2    H311175   0.505   1.856   8.760  1.9591 -1.2435  2.0864
  756MPD2     N11176   0.130   1.646   8.920 -0.5849  0.2115 -0.1930
  756MPD2    H511177   0.052   1.666   8.982 -0.7493  2.1380 -1.0230
  756MPD2    N111178   0.243   2.095   9.042  0.0037 -0.2362 -0.2032
  756MPD2    H711179   0.168   2.084   9.109 -1.0251 -0.6419 -1.4391
  757MPD2     C11180   4.615   0.718   9.335 -0.3617 -0.4067  0.7128
  757MPD2    C111181   4.501   0.772   9.294 -0.2042  0.3061  0.0619
  757MPD2    C211182   4.505   0.892   9.227  0.1467 -0.4412 -0.6117
  757MPD2    C311183   4.622   0.956   9.204  0.0232  1.1090 -0.2683
  757MPD2    C411184   0.016   0.892   9.236 -0.1522 -0.1949 -0.5679
  757MPD2    C511185   0.006   0.776   9.311  0.3326  0.8755  0.0392
  757MPD2     H11186   4.412   0.931   9.186  0.4236  1.4273  0.5150
  757MPD2    H111187   0.116   0.921   9.205  0.2952 -0.8087  0.2939
  757MPD2    H211188   4.613   0.630   9.399 -0.9451  2.1125  4.1323
  757MPD2    H311189   0.098   0.730   9.344  0.1212  0.3687 -0.0824
  757MPD2     N11190   4.607   1.077   9.135  0.6120  0.4252 -0.3241
  757MPD2    H511191   4.517   1.118   9.112 -0.3014 -0.0950  2.4326
  757MPD2    N111192   4.381   0.694   9.317 -0.5148 -0.6254  0.5927
  757MPD2    H711193   4.383   0.599   9.353  1.3028 -0.5737  0.6488
  758MPD2     C11194   4.541   0.805  15.678 -0.2289 -0.4255  0.3917
  758MPD2    C111195   4.602   0.737  15.780  0.2638 -0.0071  0.1049
  758MPD2    C211196   4.569   0.776  15.909 -0.5196 -0.3532 -0.4463
  758MPD2    C311197   4.479   0.878  15.937  0.2090  0.7024  0.0448
  758MPD2    C411198   4.422   0.951  15.836 -0.5761 -0.6258  0.3095
  758MPD2    C511199   4.460   0.918  15.707  0.3994 -0.3271 -0.3152
  758MPD2     H11200   4.622   0.736  15.995 -1.1490  0.7815  0.4674
  758MPD2    H111201   4.361   1.037  15.859  0.3931  0.1604 -0.0701
  758MPD2    H211202   4.559   0.791  15.572 -0.5872 -1.9349  0.5344
  758MPD2    H311203   4.417   0.975  15.625 -2.0061 -0.3688  0.9264
  758MPD2     N11204   4.459   0.925  16.071 -0.3250 -0.0993  0.2961
  758MPD2    H511205   4.402   1.010  16.075 -0.5359 -0.1021 -2.3809
  758MPD2    N111206   4.696   0.641  15.750  0.0563  0.4897 -0.4080
  758MPD2    H711207   4.711   0.623  15.651  1.1727  2.6950 -0.6518
  759MPD2     C11208   3.215   4.252  10.121 -0.3747 -1.0237 -0.5698
  759MPD2    C111209   3.266   4.142  10.187  0.3299 -0.6475 -0.3203
  759MPD2    C211210   3.379   4.074  10.147  0.4678  0.1109  0.0868
  759MPD2    C311211   3.442   4.113  10.027  0.7017 -0.2239 -0.5043
  759MPD2    C411212   3.391   4.226   9.962 -0.3944 -0.7407  0.2672
  759MPD2    C511213   3.280   4.289  10.004  0.1760 -0.4193  0.7927
  759MPD2     H11214   3.416   3.990  10.205 -0.1028 -0.6487 -0.6516
  759MPD2    H111215   3.451   4.273   9.885 -0.0604 -1.7432 -0.0811
  759MPD2    H211216   3.135   4.320  10.150 -0.7929 -1.7832  0.0411
  759MPD2    H311217   3.233   4.374   9.957 -2.4096 -1.4113  1.6051
  759MPD2     N11218   3.566   4.054   9.996  0.8550  0.2658 -0.6547
  759MPD2    H511219   3.603   3.985  10.061  2.4086  0.1239 -1.6928
  759MPD2    N111220   3.204   4.088  10.297  0.5409  0.2614 -0.1991
  759MPD2    H711221   3.244   4.005  10.340 -1.4352  0.3928  1.8432
  760MPD2     C11222   2.506   1.665  11.786  0.4878 -0.1534 -0.3092
  760MPD2    C111223   2.645   1.686  11.786 -0.0240  0.3530 -0.4970
  760MPD2    C211224   2.732   1.589  11.832 -0.1953  0.5674 -0.3702
  760MPD2    C311225   2.679   1.469  11.886 -0.6193 -0.0872 -0.2452
  760MPD2    C411226   2.540   1.448  11.899 -0.4396  0.0668 -0.8498
  760MPD2    C511227   2.460   1.551  11.852 -0.7417 -0.2799  0.8185
  760MPD2     H11228   2.839   1.607  11.830 -0.0839 -0.0401  0.1539
  760MPD2    H111229   2.494   1.361  11.946  1.2522  0.3908  1.3843
  760MPD2    H211230   2.435   1.740  11.751 -0.2474  0.7770  3.2045
  760MPD2    H311231   2.353   1.539  11.851 -0.6326 -1.3760  1.2065
  760MPD2     N11232   2.758   1.367  11.937  0.2024 -0.0406  0.2629
  760MPD2    H511233   2.713   1.297  11.994 -0.9402 -0.0820 -0.6997
  760MPD2    N111234   2.700   1.810  11.740  0.0017  0.1741  0.4153
  760MPD2    H711235   2.800   1.824  11.748  0.0144  1.5823 -2.2201
  761MPD2     C11236   4.095   1.366  10.851 -0.2260  1.0420 -0.2369
  761MPD2    C111237   4.176   1.276  10.786 -0.4485 -0.7772  0.0944
  761MPD2    C211238   4.312   1.306  10.778 -0.2172  0.0705 -0.2046
  761MPD2    C311239   4.361   1.432  10.796 -0.2061 -0.0107 -0.5981
  761MPD2    C411240   4.275   1.524  10.850  0.1325 -0.6594  0.6151
  761MPD2    C511241   4.146   1.490  10.883 -0.1524 -1.0126  0.0020
  761MPD2     H11242   4.366   1.240  10.711  0.8544  1.0364 -0.3040
  761MPD2    H111243   4.303   1.626  10.872 -1.2199 -0.3853  1.0746
  761MPD2    H211244   3.994   1.332  10.871  0.8835 -2.1975 -0.0945
  761MPD2    H311245   4.077   1.562  10.925 -0.2283  0.0173 -1.9134
  761MPD2     N11246   4.496   1.464  10.770 -0.1146  0.2183  0.2778
  761MPD2    H511247   4.510   1.565  10.764 -0.8078  0.1823 -1.9560
  761MPD2    N111248   4.118   1.160  10.728 -0.1299 -0.4276 -0.4604
  761MPD2    H711249   4.020   1.172  10.707 -0.4156 -1.1123  0.4934
  762MPD2     C11250   4.569   0.939  10.470 -0.3129  0.2176  0.1182
  762MPD2    C111251   4.496   0.827  10.426 -0.3293  0.0398  0.2310
  762MPD2    C211252   4.560   0.727  10.352 -0.3130  0.5560 -0.3701
  762MPD2    C311253   4.694   0.738  10.331  0.1494 -0.5317 -0.2311
  762MPD2    C411254   0.038   0.849  10.376 -0.0326  0.0979  0.3797
  762MPD2    C511255   4.707   0.949  10.444 -0.1164  1.2058 -0.1427
  762MPD2     H11256   4.502   0.649  10.303  0.3043 -0.6656  0.8607
  762MPD2    H111257   0.147   0.848  10.377 -0.0312  0.4042  0.3413
  762MPD2    H211258   4.517   1.008  10.536  0.1131  0.0262  0.6599
  762MPD2    H311259   0.043   1.025  10.488 -1.1663  0.4831  2.5977
  762MPD2     N11260   0.034   0.641  10.255 -0.8673  0.1089  0.1836
  762MPD2    H511261   4.714   0.550  10.253 -0.7924  0.0888 -0.3936
  762MPD2    N111262   4.363   0.816  10.463 -0.5143 -0.2353 -0.1984
  762MPD2    H711263   4.323   0.899  10.505 -1.2189 -0.7648  0.1851
  763MPD2     C11264   1.708   0.848  16.256  0.1922 -0.3907 -0.2091
  763MPD2    C111265   1.691   0.928  16.151  0.2480 -0.6629 -0.4143
  763MPD2    C211266   1.657   1.060  16.171 -0.6508  0.1180 -0.0857
  763MPD2    C311267   1.632   1.116  16.297 -0.6020  0.1046 -0.0851
  763MPD2    C411268   1.636   1.020  16.401 -0.2160 -0.5711 -0.1244
  763MPD2    C511269   1.680   0.892  16.383  0.4637  0.2684 -0.6706
  763MPD2     H11270   1.656   1.128  16.086  0.0581  1.9501  1.3651
  763MPD2    H111271   1.609   1.038  16.504  0.5881  1.3957 -0.2494
  763MPD2    H211272   1.729   0.742  16.255 -0.5675 -0.5540  0.6178
  763MPD2    H311273   1.668   0.814  16.457  2.2223  0.0563 -0.6176
  763MPD2     N11274   1.601   1.251  16.320 -0.1350  0.0657  0.7178
  763MPD2    H511275   1.590   1.268  16.420  1.1438  1.0990  0.6870
  763MPD2    N111276   1.710   0.883  16.019  0.7146  0.7142  0.3264
  763MPD2    H711277   1.691   0.953  15.949 -0.1620  1.2400  1.0874
  764MPD2     C11278   4.600   2.503  17.154 -0.1725  0.6567  0.4540
  764MPD2    C111279   4.504   2.415  17.120  0.3276  0.1464 -0.0004
  764MPD2    C211280   4.478   2.300  17.203  0.7168  0.9877 -0.1734
  764MPD2    C311281   4.545   2.287  17.322  0.3997  0.1133 -0.7000
  764MPD2    C411282   4.640   2.378  17.354 -0.0862 -0.6553  0.3617
  764MPD2    C511283   4.666   2.491  17.275 -0.1038  0.6253  0.4483
  764MPD2     H11284   4.393   2.235  17.188  0.1400  1.6976  0.0701
  764MPD2    H111285   4.707   2.375  17.439 -1.1739  1.0122  1.2678
  764MPD2    H211286   4.642   2.577  17.088 -1.0886  0.7525 -0.0258
  764MPD2    H311287   0.019   2.561  17.300 -1.6964  2.0921  1.4027
  764MPD2     N11288   4.503   2.182  17.408 -0.0923  0.2327 -0.3228
  764MPD2    H511289   4.439   2.114  17.369  1.1748 -0.2115 -1.6143
  764MPD2    N111290   4.423   2.421  17.001  0.3202 -0.2490 -0.5527
  764MPD2    H711291   4.371   2.336  16.982 -2.0162  0.6029  1.9513
  765MPD2     C11292   3.454   0.458  15.729  0.2710  0.6746 -0.1558
  765MPD2    C111293   3.551   0.514  15.801 -0.0957  0.5975 -0.3731
  765MPD2    C211294   3.686   0.486  15.778 -0.0398 -0.2883  0.8782
  765MPD2    C311295   3.723   0.399  15.674  0.2061 -0.2889 -0.5085
  765MPD2    C411296   3.621   0.344  15.604 -0.2457 -0.0983  0.1375
  765MPD2    C511297   3.492   0.361  15.639 -0.1891  0.3155  0.1576
  765MPD2     H11298   3.761   0.537  15.838  0.7664  2.1542 -2.1808
  765MPD2    H111299   3.643   0.271  15.528 -0.3900 -1.9229  1.8391
  765MPD2    H211300   3.352   0.492  15.742  0.5682  0.7696  1.9068
  765MPD2    H311301   3.417   0.320  15.572  0.1683 -1.9406  1.1545
  765MPD2     N11302   3.854   0.386  15.626  0.4405  0.0970 -0.3649
  765MPD2    H511303   3.869   0.321  15.549  0.9716  4.2822 -3.8031
  765MPD2    N111304   3.504   0.626  15.885  0.1658 -0.3956  0.7227
  765MPD2    H711305   3.410   0.662  15.868  0.2738 -0.4768 -0.0321
  766MPD2     C11306   3.130   0.656  15.596  0.6251  0.2202  0.1315
  766MPD2    C111307   3.260   0.709  15.587 -0.2658  0.2768  0.8885
  766MPD2    C211308   3.353   0.657  15.495 -0.4579  0.3968  0.0354
  766MPD2    C311309   3.315   0.564  15.403  0.1016  0.2356  0.1740
  766MPD2    C411310   3.189   0.500  15.424  0.8494  0.1036  0.5016
  766MPD2    C511311   3.103   0.545  15.514 -0.4587  0.7108 -0.0634
  766MPD2     H11312   3.456   0.691  15.496 -0.1938 -0.4651  3.1451
  766MPD2    H111313   3.162   0.417  15.360  2.0534 -0.7270  1.0661
  766MPD2    H211314   3.053   0.685  15.666  0.2025 -0.0825 -0.2052
  766MPD2    H311315   3.001   0.509  15.518  0.7629 -2.7596  0.2756
  766MPD2     N11316   3.386   0.526  15.285 -0.5782 -0.8236 -0.2048
  766MPD2    H511317   3.342   0.461  15.221 -0.8933 -1.3414  0.5408
  766MPD2    N111318   3.306   0.814  15.677 -0.1243 -0.5330  0.0763
  766MPD2    H711319   3.400   0.853  15.668 -0.0753 -0.4458  0.9822
  767MPD2     C11320   3.117   0.847  15.248  0.4246  0.1477  0.6039
  767MPD2    C111321   3.228   0.851  15.170 -0.2375 -0.8274  0.1522
  767MPD2    C211322   3.227   0.777  15.054  0.1575  0.8548  0.2901
  767MPD2    C311323   3.116   0.702  15.015  0.2287  0.4145 -0.6761
  767MPD2    C411324   3.011   0.692  15.099  0.4679 -0.2917 -0.9328
  767MPD2    C511325   3.013   0.761  15.219 -0.0686 -0.1333 -0.3364
  767MPD2     H11326   3.315   0.780  14.990 -0.4304  1.7050 -0.4764
  767MPD2    H111327   2.932   0.618  15.089  0.6961 -0.3702 -2.1662
  767MPD2    H211328   3.106   0.914  15.332  0.8042 -2.3951  2.6942
  767MPD2    H311329   2.924   0.745  15.278  1.7022 -2.2223  1.7558
  767MPD2     N11330   3.128   0.626  14.895  0.3290  0.3094 -0.1574
  767MPD2    H511331   3.221   0.618  14.855  0.5995  1.9613  0.1542
  767MPD2    N111332   3.341   0.929  15.215  0.0903 -0.0075  0.3689
  767MPD2    H711333   3.344   0.976  15.305  0.6531 -0.1844  0.4429
  768MPD2     C11334   4.354   4.436  10.120 -0.0914  0.0928  0.0633
  768MPD2    C111335   4.237   4.445  10.194 -0.8125  0.2041 -0.6511
  768MPD2    C211336   4.226   4.373  10.317  0.9456  0.5851 -0.2005
  768MPD2    C311337   4.328   4.296  10.355 -0.5887 -0.4904  0.2941
  768MPD2    C411338   4.441   4.281  10.277  0.5843 -0.0179  0.3846
  768MPD2    C511339   4.456   4.361  10.169 -0.1026  0.0196 -0.1448
  768MPD2     H11340   4.133   4.382  10.371  1.1063  0.9951  0.0111
  768MPD2    H111341   4.511   4.203  10.302  1.3933  0.8436  0.8103
  768MPD2    H211342   4.372   4.498  10.034  0.1461  0.3993  0.3354
  768MPD2    H311343   4.548   4.344  10.113  0.2864 -3.3082  1.5294
  768MPD2     N11344   4.329   4.214  10.466  0.1399  0.4182  0.1749
  768MPD2    H511345   4.400   4.143  10.481  0.1806  0.5288  0.4992
  768MPD2    N111346   4.123   4.520  10.154  0.2804 -0.1767 -0.1197
  768MPD2    H711347   4.039   4.518  10.211 -0.2595  1.9322 -0.8691
  769MPD2     C11348   0.721   1.579  14.870 -0.1754  0.0338 -0.4221
  769MPD2    C111349   0.586   1.615  14.884 -0.0288  0.0092 -0.2659
  769MPD2    C211350   0.560   1.729  14.962  0.0127 -0.4535  0.8699
  769MPD2    C311351   0.665   1.807  15.014 -0.2996 -0.3484  0.3518
  769MPD2    C411352   0.793   1.777  14.981  0.8282 -1.1853 -0.0200
  769MPD2    C511353   0.818   1.665  14.915 -0.1194 -0.5129  0.5449
  769MPD2     H11354   0.457   1.756  14.985 -0.1418 -0.2202 -0.1107
  769MPD2    H111355   0.871   1.840  15.023  0.2433  0.3263 -1.1855
  769MPD2    H211356   0.764   1.493  14.819 -0.7371 -1.6471  1.9126
  769MPD2    H311357   0.922   1.640  14.895  0.4340 -0.8714  3.7774
  769MPD2     N11358   0.631   1.918  15.095 -0.3530 -0.0859 -0.4043
  769MPD2    H511359   0.544   1.925  15.147 -0.3433  6.3833 -1.2160
  769MPD2    N111360   0.484   1.564  14.803  0.5892  0.0564 -0.0064
  769MPD2    H711361   0.396   1.613  14.808  0.0326 -0.9753  0.1864
  770MPD2     C11362   4.485   1.480  14.732  0.4875  0.1034  0.6165
  770MPD2    C111363   4.619   1.457  14.753  0.8151  0.4214  0.6379
  770MPD2    C211364   4.716   1.536  14.688 -0.0414 -0.3077  0.1818
  770MPD2    C311365   4.674   1.625  14.593  0.3492  0.2867  0.0952
  770MPD2    C411366   4.542   1.647  14.580 -0.9475 -0.0962 -0.0581
  770MPD2    C511367   4.447   1.570  14.642  0.0001 -0.1461 -0.5366
  770MPD2     H11368   0.096   1.530  14.707 -0.3014 -1.0697  1.3753
  770MPD2    H111369   4.507   1.715  14.502 -0.2925  0.6877  0.3362
  770MPD2    H211370   4.406   1.425  14.782  3.2867 -1.9928  2.7578
  770MPD2    H311371   4.344   1.594  14.619 -0.7678 -0.1596  2.9109
  770MPD2     N11372   0.027   1.697  14.504 -0.0311 -0.2237  0.1166
  770MPD2    H511373   4.702   1.771  14.457 -1.8625 -1.0881  0.7799
  770MPD2    N111374   4.664   1.355  14.840  0.1894  0.4837 -0.1252
  770MPD2    H711375   4.588   1.299  14.879  0.2785  2.1336  2.4504
  771MPD2     C11376   1.347   4.686  13.936 -0.8935  0.0043  0.0173
  771MPD2    C111377   1.375   0.017  13.811 -0.1438  0.4435  1.0764
  771MPD2    C211378   1.381   4.669  13.701  0.1862 -0.1547  1.0978
  771MPD2    C311379   1.327   4.543  13.700 -0.5457 -0.2122 -0.1904
  771MPD2    C411380   1.285   4.483  13.819 -0.1357  0.1093 -0.3335
  771MPD2    C511381   1.300   4.560  13.933 -0.3030  0.1261 -0.1431
  771MPD2     H11382   1.404   4.713  13.605 -0.4055 -0.8184  0.6495
  771MPD2    H111383   1.245   4.383  13.825 -0.0661  0.1452  0.6705
  771MPD2    H211384   1.346   0.021  14.025 -0.1873  0.3135 -0.1824
  771MPD2    H311385   1.247   4.527  14.022  0.3040 -0.8130 -0.1332
  771MPD2     N11386   1.312   4.489  13.573  0.2260 -0.0197  0.0393
  771MPD2    H511387   1.359   4.545  13.502 -0.4254  1.1942  0.5717
  771MPD2    N111388   1.401   0.151  13.794  0.3164 -0.2467  0.0932
  771MPD2    H711389   1.407   0.191  13.701 -1.8035  0.3176  0.1903
  772MPD2     C11390   0.864   0.836  13.680  0.3497 -0.0348 -0.0029
  772MPD2    C111391   0.881   0.729  13.755 -0.4058 -0.3388  0.2051
  772MPD2    C211392   0.774   0.662  13.810  0.5688  0.0765  0.4019
  772MPD2    C311393   0.649   0.720  13.807  0.1201  0.8134  0.4512
  772MPD2    C411394   0.630   0.837  13.737 -0.3724  0.6006 -0.3944
  772MPD2    C511395   0.736   0.888  13.669  0.6043 -0.7094  0.3875
  772MPD2     H11396   0.780   0.574  13.873  1.7683  1.1264  1.7537
  772MPD2    H111397   0.535   0.888  13.729 -0.4482  0.3227 -1.3106
  772MPD2    H211398   0.948   0.877  13.624  0.6368  1.7870  1.7623
  772MPD2    H311399   0.720   0.977  13.609  0.2078 -0.5224  0.7744
  772MPD2     N11400   0.531   0.661  13.859 -0.9868  0.0117  0.6507
  772MPD2    H511401   0.443   0.711  13.858 -0.5675  0.7482  0.7234
  772MPD2    N111402   1.008   0.671  13.755 -0.4920  0.3565 -0.8152
  772MPD2    H711403   1.081   0.719  13.702 -1.0993  0.5160 -1.5015
  773MPD2     C11404   0.513   1.302   0.273  0.1549  0.4048  0.9178
  773MPD2    C111405   0.489   1.209   0.179  0.5908  0.0647  0.1644
  773MPD2    C211406   0.544   1.083   0.196 -0.7944  0.0527 -0.4920
  773MPD2    C311407   0.607   1.043   0.316  0.0836  0.0856  0.1639
  773MPD2    C411408   0.629   1.143   0.403  0.2575 -0.0802 -0.3060
  773MPD2    C511409   0.584   1.274   0.386  0.0748  0.1017 -0.1973
  773MPD2     H11410   0.536   1.011   0.115 -2.2493  0.7393 -0.9644
  773MPD2    H111411   0.696   1.135   0.488  0.3744  0.1309 -0.3762
  773MPD2    H211412   0.474   1.402   0.259  4.2570  1.6496 -1.4232
  773MPD2    H311413   0.613   1.347   0.460 -1.0865 -0.7034  1.0579
  773MPD2     N11414   0.636   0.904   0.332 -0.4198 -0.9339  0.6553
  773MPD2    H511415   0.624   0.841   0.254  2.3282  0.1098 -0.6290
  773MPD2    N111416   0.419   1.228   0.056 -0.2106 -0.3461 -0.0003
  773MPD2    H711417   0.408   1.148  17.701 -0.6694 -0.5889  0.4023
  774MPD2     C11418   4.094   0.327  12.958  0.1475  0.5241 -0.3250
  774MPD2    C111419   4.046   0.437  13.026  0.6052  0.8804  0.3199
  774MPD2    C211420   4.025   0.557  12.957 -0.0466 -0.1290 -0.1699
  774MPD2    C311421   4.074   0.573  12.830  0.2311 -1.0240 -0.1761
  774MPD2    C411422   4.121   0.465  12.757  0.6026 -0.4766  0.1422
  774MPD2    C511423   4.120   0.342  12.822  0.2965 -0.1902  0.0055
  774MPD2     H11424   3.969   0.631  13.013  0.1878 -1.4626  1.8311
  774MPD2    H111425   4.139   0.467  12.650 -0.3460 -1.9134 -0.0566
  774MPD2    H211426   4.122   0.237  13.012 -1.1666  0.2220 -0.1375
  774MPD2    H311427   4.157   0.252  12.774 -1.0285  0.7172 -2.6862
  774MPD2     N11428   4.068   0.702  12.768 -0.1708  0.4202 -0.4259
  774MPD2    H511429   4.040   0.772  12.836  1.2531  0.5876 -0.0082
  774MPD2    N111430   4.009   0.414  13.158  0.4010 -1.0490  0.2589
  774MPD2    H711431   4.038   0.326  13.198  2.9480  0.2628  1.3552
  775MPD2     C11432   0.899   1.809  15.501 -0.1187 -0.5494  0.1954
  775MPD2    C111433   0.880   1.936  15.548 -0.3117 -0.1569  0.3289
  775MPD2    C211434   0.936   2.040  15.477 -0.8263  0.0959  0.1678
  775MPD2    C311435   1.007   2.019  15.359 -0.6558  0.2198  0.3621
  775MPD2    C411436   1.015   1.892  15.300  0.1782  0.4436 -0.1651
  775MPD2    C511437   0.968   1.792  15.382 -0.4093  0.3581  0.7346
  775MPD2     H11438   0.930   2.140  15.519  0.5092 -0.0824  0.7975
  775MPD2    H111439   1.065   1.875  15.206 -0.2743 -3.1015  0.2622
  775MPD2    H211440   0.849   1.725  15.547 -0.8447  0.5100  1.3398
  775MPD2    H311441   0.980   1.691  15.344  0.1867  0.5428  0.4433
  775MPD2     N11442   1.075   2.129  15.293  0.5848 -0.5966  0.2439
  775MPD2    H511443   1.112   2.100  15.203  1.4955 -1.2760  0.8317
  775MPD2    N111444   0.804   1.950  15.666  0.9308 -0.4860 -0.1694
  775MPD2    H711445   0.792   1.859  15.710 -2.3959  0.6154  1.1733
  776MPD2     C11446   4.603   2.855  10.943 -0.1863 -0.0689 -0.8324
  776MPD2    C111447   4.693   2.804  11.028  0.4798  0.0452  0.1245
  776MPD2    C211448   0.073   2.882  11.070  0.2999  0.2149 -0.1350
  776MPD2    C311449   0.091   3.013  11.022 -0.4900 -0.3466 -0.5551
  776MPD2    C411450   0.013   3.065  10.927  0.2527  0.3011 -0.3979
  776MPD2    C511451   4.629   2.987  10.898 -0.1272  0.1271  0.6153
  776MPD2     H11452   0.150   2.835  11.130 -0.6825 -0.2533  0.7509
  776MPD2    H111453   0.031   3.166  10.894  1.7399  1.0931  2.8154
  776MPD2    H211454   4.530   2.791  10.895 -1.2811 -0.5799  1.5325
  776MPD2    H311455   4.561   3.035  10.829  4.0042 -0.5045 -3.9064
  776MPD2     N11456   0.202   3.087  11.063  0.0229 -0.1513 -0.0129
  776MPD2    H511457   0.223   3.174  11.016  0.7850 -0.3275 -0.0116
  776MPD2    N111458   4.665   2.669  11.075 -0.7861 -0.1644 -0.1138
  776MPD2    H711459   4.597   2.615  11.022  0.7327 -1.5332 -0.6841
  777MPD2     C11460   0.167   4.663   0.531 -0.9121 -0.9660 -0.2686
  777MPD2    C111461   0.237   4.572   0.604 -0.2393  0.3298  0.0222
  777MPD2    C211462   0.238   4.440   0.561 -0.2473  0.0178  0.1540
  777MPD2    C311463   0.160   4.411   0.447 -0.2621 -0.3982  0.3171
  777MPD2    C411464   0.091   4.506   0.379  0.1947  0.2922 -0.0151
  777MPD2    C511465   0.094   4.632   0.424 -0.1687 -0.3565 -0.5603
  777MPD2     H11466   0.275   4.354   0.614  3.9471  2.6059  1.4852
  777MPD2    H111467   0.027   4.482   0.295 -1.0313  1.1076  0.6924
  777MPD2    H211468   0.160   0.037   0.571 -1.1917 -0.9536 -0.3513
  777MPD2    H311469   0.034   4.711   0.381  0.4423  0.9273  0.9586
  777MPD2     N11470   0.166   4.269   0.411  0.1163  0.4241 -0.2353
  777MPD2    H511471   0.225   4.214   0.472 -1.2671  0.1345  0.8349
  777MPD2    N111472   0.300   4.625   0.717 -0.0401 -0.2868 -0.5388
  777MPD2    H711473   0.310   4.725   0.724  0.8553 -0.1811 -3.0256
  778MPD2     C11474   1.269   4.448  14.922 -0.4235  0.4336 -0.4165
  778MPD2    C111475   1.152   4.443  14.848  0.2908 -0.2010  0.8683
  778MPD2    C211476   1.134   4.537  14.756 -0.0089  0.2214 -0.0187
  778MPD2    C311477   1.212   4.643  14.743 -0.5721  0.7785  1.2468
  778MPD2    C411478   1.313   4.666  14.837  0.7061 -0.0783  0.2591
  778MPD2    C511479   1.346   4.563  14.920 -0.0471 -0.4574  0.5021
  778MPD2     H11480   1.038   4.537  14.705 -0.0777  0.6163  0.1095
  778MPD2    H111481   1.375   0.029  14.839 -0.6626  0.8548  0.5947
  778MPD2    H211482   1.292   4.372  14.996 -1.2039  0.0962 -0.5162
  778MPD2    H311483   1.425   4.578  14.993  1.6797  0.7688 -1.6117
  778MPD2     N11484   1.169   0.020  14.654 -0.7679 -0.1127  0.2047
  778MPD2    H511485   1.088   0.009  14.592 -0.6543 -0.9835  0.2190
  778MPD2    N111486   1.059   4.338  14.852 -0.8341  0.0211  0.0051
  778MPD2    H711487   0.983   4.346  14.786  0.5222  1.9468 -1.3230
  779MPD2     C11488   1.057   3.397  13.691  0.3141 -0.2300  0.1128
  779MPD2    C111489   1.081   3.379  13.825 -0.2476 -0.3410 -0.1178
  779MPD2    C211490   1.089   3.488  13.903 -0.0707 -0.1031  0.2518
  779MPD2    C311491   1.075   3.615  13.861 -1.0984  0.1007 -0.3213
  779MPD2    C411492   1.063   3.632  13.723  0.2845  1.1059  0.3451
  779MPD2    C511493   1.049   3.522  13.640  0.0560 -0.1650 -0.4014
  779MPD2     H11494   1.096   3.471  14.009  2.2936  0.4933  0.1861
  779MPD2    H111495   1.058   3.733  13.686  1.4338  1.1327  0.2770
  779MPD2    H211496   1.034   3.327  13.611 -0.5599 -0.9735  1.0130
  779MPD2    H311497   1.028   3.541  13.535  1.1207  1.1545 -0.3632
  779MPD2     N11498   1.073   3.726  13.950  0.0598 -0.6067 -1.1065
  779MPD2    H511499   1.041   3.817  13.919 -1.6895 -1.0641 -0.6176
  779MPD2    N111500   1.085   3.248  13.883 -0.1164 -0.3816 -0.4180
  779MPD2    H711501   1.078   3.236  13.983 -0.7603  1.7261 -0.2125
  780MPD2     C11502   1.192   3.350   0.983 -0.4679  0.0078  0.3190
  780MPD2    C111503   1.080   3.293   0.931 -0.0269 -0.6627  0.4233
  780MPD2    C211504   1.037   3.332   0.806 -0.1550  0.5857 -0.0423
  780MPD2    C311505   1.111   3.421   0.727 -0.0508  0.2771  0.5169
  780MPD2    C411506   1.217   3.485   0.786  0.2125  0.0889 -0.1050
  780MPD2    C511507   1.261   3.449   0.912  0.1218 -0.5089 -0.0034
  780MPD2     H11508   0.943   3.304   0.760  0.9190 -1.3413 -1.0812
  780MPD2    H111509   1.261   3.564   0.726  2.3284  1.1759  2.8640
  780MPD2    H211510   1.250   3.324   1.072 -0.7225 -1.4543  0.0510
  780MPD2    H311511   1.349   3.502   0.948  0.7615 -0.1380 -2.1234
  780MPD2     N11512   1.061   3.453   0.601  0.4195 -0.0513  0.3731
  780MPD2    H511513   0.976   3.405   0.575  0.3782  1.0275 -1.5290
  780MPD2    N111514   1.005   3.207   1.017  0.3235 -0.1965 -0.6089
  780MPD2    H711515   1.049   3.183   1.105 -1.7945  1.7731  0.9927
  781MPD2     C11516   2.249   1.203  11.841 -0.5966  0.4323  0.0258
  781MPD2    C111517   2.327   1.103  11.895  0.8616 -0.0021 -0.1651
  781MPD2    C211518   2.416   1.039  11.818 -0.0450  0.0036 -0.1025
  781MPD2    C311519   2.454   1.089  11.696  0.2726 -0.8149 -0.2019
  781MPD2    C411520   2.406   1.213  11.649  0.7731  0.0507 -0.3684
  781MPD2    C511521   2.296   1.257  11.728  0.3951  0.3453  0.5469
  781MPD2     H11522   2.468   0.950  11.853  2.0246  0.9990 -0.6042
  781MPD2    H111523   2.435   1.245  11.550  0.8338 -0.5657 -0.5517
  781MPD2    H211524   2.160   1.242  11.887 -1.4704 -0.8384 -0.5814
  781MPD2    H311525   2.241   1.347  11.702  0.6902  0.2374 -0.4649
  781MPD2     N11526   2.544   1.014  11.614 -0.0175  0.3127 -0.2077
  781MPD2    H511527   2.588   1.063  11.537  0.0798  1.2345  0.4434
  781MPD2    N111528   2.300   1.043  12.025  0.4524 -1.1057  0.0361
  781MPD2    H711529   2.364   0.974  12.063 -0.2050 -2.1915 -0.8173
  782MPD2     C11530   0.278   1.189   9.911  0.9243 -0.8465  0.5088
  782MPD2    C111531   0.409   1.172   9.927 -0.3919  0.0986 -0.8792
  782MPD2    C211532   0.491   1.282   9.931 -0.1936 -0.1824  0.2722
  782MPD2    C311533   0.443   1.415   9.915 -0.6158  0.0907 -0.2930
  782MPD2    C411534   0.309   1.433   9.905  0.2390  0.2689 -0.5873
  782MPD2    C511535   0.232   1.316   9.896  1.0972 -0.9224  0.2697
  782MPD2     H11536   0.599   1.275   9.942 -0.0716  0.2311 -0.6863
  782MPD2    H111537   0.263   1.530   9.892  1.0611  0.6814 -0.4440
  782MPD2    H211538   0.196   1.120   9.896 -0.3241  0.1726  2.6983
  782MPD2    H311539   0.127   1.330   9.875  1.2417 -0.8973 -0.4377
  782MPD2     N11540   0.534   1.525   9.935  0.3152 -0.1009 -0.1322
  782MPD2    H511541   0.631   1.498   9.941  0.5941  0.4845 -1.9114
  782MPD2    N111542   0.457   1.044   9.962 -0.7506  0.1367  0.0917
  782MPD2    H711543   0.392   0.967   9.975 -1.0590  0.2721 -0.6710
  783MPD2     C11544   0.318   0.965  10.789  0.0696 -0.3332  0.0438
  783MPD2    C111545   0.355   1.065  10.695  0.0020  0.1373  0.3754
  783MPD2    C211546   0.404   1.027  10.574 -0.2749 -0.0591 -0.6007
  783MPD2    C311547   0.419   0.898  10.535  0.0500  0.1636  0.2559
  783MPD2    C411548   0.382   0.799  10.621  0.4024 -0.4216  0.4606
  783MPD2    C511549   0.327   0.837  10.744  0.0142 -0.1948 -0.1022
  783MPD2     H11550   0.442   1.095  10.499  0.7409 -1.8815 -1.7275
  783MPD2    H111551   0.383   0.694  10.596  2.1116 -0.3976  0.4827
  783MPD2    H211552   0.267   0.994  10.880 -1.3382  0.1338 -0.8984
  783MPD2    H311553   0.305   0.752  10.808 -0.6570  1.5838  2.0138
  783MPD2     N11554   0.481   0.873  10.411 -0.0135 -0.5148 -0.7958
  783MPD2    H511555   0.510   0.955  10.360  0.9186 -1.8858 -2.4586
  783MPD2    N111556   0.321   1.201  10.719  0.2909  0.0476 -0.1398
  783MPD2    H711557   0.270   1.213  10.806 -1.3656 -2.3386 -0.7889
  784MPD2     C11558   3.037   1.122   1.380  0.0471  0.1252 -0.2792
  784MPD2    C111559   3.063   1.251   1.418  0.6170  0.1617 -0.6358
  784MPD2    C211560   2.966   1.348   1.385 -0.4684 -0.2066  0.2181
  784MPD2    C311561   2.844   1.326   1.318 -0.1472  0.3403 -0.0852
  784MPD2    C411562   2.822   1.197   1.282  0.3753 -0.2643  0.4080
  784MPD2    C511563   2.914   1.101   1.317  0.0144 -0.4820 -0.1057
  784MPD2     H11564   2.979   1.453   1.408 -2.2763 -0.1257  0.8778
  784MPD2    H111565   2.740   1.165   1.218  1.6015 -2.3657 -0.0885
  784MPD2    H211566   3.094   1.034   1.404  2.0274  1.3757 -0.4211
  784MPD2    H311567   2.905   0.999   1.282  0.5357  0.2165 -2.2722
  784MPD2     N11568   2.773   1.442   1.273  0.3603  0.0829 -0.4346
  784MPD2    H511569   2.812   1.531   1.303  1.9565 -2.1414  3.9657
  784MPD2    N111570   3.185   1.291   1.467  0.0663 -0.1082  0.3022
  784MPD2    H711571   3.188   1.387   1.499  0.9671  0.2734 -0.9094
  785MPD2     C11572   3.152   0.749   9.838 -0.0619  0.2424 -0.1613
  785MPD2    C111573   3.041   0.677   9.879  0.7527  0.2632  0.0754
  785MPD2    C211574   3.024   0.657  10.014  0.2781  0.2686  0.3483
  785MPD2    C311575   3.112   0.712  10.106 -0.1109  0.4344 -0.9221
  785MPD2    C411576   3.228   0.778  10.062  0.4480  0.3050 -0.4443
  785MPD2    C511577   3.246   0.795   9.927  0.2683  0.1790  0.3852
  785MPD2     H11578   2.949   0.590  10.052  1.6954 -2.1402 -1.0973
  785MPD2    H111579   3.314   0.807  10.122  0.6541  0.0253 -0.6019
  785MPD2    H211580   3.162   0.789   9.737  0.1510 -0.8451 -0.5626
  785MPD2    H311581   3.339   0.839   9.893 -0.7496  0.5581 -1.9170
  785MPD2     N11582   3.091   0.673  10.244 -0.1443  0.1937  0.3957
  785MPD2    H511583   3.018   0.607  10.265  2.0823 -2.0197  1.1988
  785MPD2    N111584   2.945   0.626   9.790 -0.6746  0.1507  0.0308
  785MPD2    H711585   2.863   0.587   9.835 -0.7008 -0.0613 -0.2036
  786MPD2     C11586   1.411   2.882  14.411 -0.2967 -0.2796  0.4623
  786MPD2    C111587   1.524   2.805  14.372 -0.3668 -0.3662 -0.1729
  786MPD2    C211588   1.642   2.799  14.447 -0.5054 -0.2426 -0.2439
  786MPD2    C311589   1.658   2.870  14.562  0.8208 -0.0470 -0.9964
  786MPD2    C411590   1.553   2.952  14.595  0.3089  1.2227 -0.5223
  786MPD2    C511591   1.436   2.959  14.522  0.7001 -0.2097  0.2320
  786MPD2     H11592   1.727   2.737  14.421  0.0222  0.0166  0.8836
  786MPD2    H111593   1.561   3.007  14.688  2.2496 -0.9326  0.5794
  786MPD2    H211594   1.315   2.889  14.363 -0.2903 -1.2667  0.3103
  786MPD2    H311595   1.359   3.031  14.547 -0.7975 -1.5099 -0.6353
  786MPD2     N11596   1.770   2.867  14.647  0.1369  0.4467 -0.0213
  786MPD2    H511597   1.771   2.913  14.737 -0.2109  1.1373 -0.3700
  786MPD2    N111598   1.526   2.730  14.252  0.1374 -0.6547 -0.7365
  786MPD2    H711599   1.617   2.708  14.212  0.3412 -1.4918  0.1633
  787MPD2     C11600   1.655   2.166  14.473 -0.1044 -0.7799 -0.8588
  787MPD2    C111601   1.665   2.162  14.334  0.3062 -0.6067 -0.1233
  787MPD2    C211602   1.743   2.067  14.272 -0.1707 -0.2553 -0.2588
  787MPD2    C311603   1.820   1.979  14.350  0.7858 -0.1835  0.2533
  787MPD2    C411604   1.811   1.993  14.490 -0.4597 -0.6085 -0.2583
  787MPD2    C511605   1.727   2.081  14.553  0.1072  0.3636 -0.1174
  787MPD2     H11606   1.756   2.066  14.164  2.4049 -0.6612  0.0589
  787MPD2    H111607   1.868   1.925  14.552 -0.7780 -1.1484 -0.5554
  787MPD2    H211608   1.599   2.251  14.512  0.1235  0.1282 -2.5333
  787MPD2    H311609   1.721   2.088  14.661  3.3855 -0.0733  0.0972
  787MPD2     N11610   1.913   1.891  14.288  0.9611 -0.7803 -0.0993
  787MPD2    H511611   1.981   1.849  14.351  0.6286  0.3006  0.9933
  787MPD2    N111612   1.591   2.253  14.260  0.4390  0.4031  0.3218
  787MPD2    H711613   1.546   2.325  14.317  2.0781  0.2240  1.8720
  788MPD2     C11614   4.179   1.228   0.268  0.3743 -0.3858 -0.7081
  788MPD2    C111615   4.061   1.235   0.336  0.1350 -0.2208 -0.2461
  788MPD2    C211616   3.967   1.138   0.313 -0.3191  0.0998  0.5233
  788MPD2    C311617   3.995   1.027   0.232  0.2181 -0.0483 -0.4330
  788MPD2    C411618   4.118   1.016   0.172 -0.2665  0.1562 -0.3913
  788MPD2    C511619   4.205   1.119   0.191 -0.3298 -0.1560  0.3474
  788MPD2     H11620   3.869   1.150   0.357 -1.4344 -1.8084 -1.4305
  788MPD2    H111621   4.151   0.931   0.112 -0.1449 -1.0010  1.3110
  788MPD2    H211622   4.261   1.299   0.278  1.4633 -1.5730 -1.1239
  788MPD2    H311623   4.298   1.108   0.136  0.1172  1.5790  0.7786
  788MPD2     N11624   3.907   0.921   0.212 -0.1598 -0.1090 -0.0579
  788MPD2    H511625   3.946   0.832   0.181  3.1977  1.5150 -0.5396
  788MPD2    N111626   4.016   1.334   0.432 -0.1134 -0.4035 -0.3856
  788MPD2    H711627   3.925   1.324   0.476  0.5662 -0.4489  1.0058
  789MPD2     C11628   4.269   0.650  16.209  0.1272 -0.2048 -0.4268
  789MPD2    C111629   4.258   0.659  16.344 -0.0197 -0.2078 -0.1257
  789MPD2    C211630   4.154   0.731  16.396  0.3866 -0.0554 -0.6198
  789MPD2    C311631   4.061   0.799  16.317 -0.1082  0.2131  0.5607
  789MPD2    C411632   4.074   0.795  16.181 -0.3281  0.1036  0.1163
  789MPD2    C511633   4.176   0.710  16.130  0.4241  0.0618  0.4463
  789MPD2     H11634   4.143   0.723  16.504 -0.8438 -2.6650 -0.9315
  789MPD2    H111635   3.996   0.830  16.115  0.7956  1.2963 -0.5931
  789MPD2    H211636   4.346   0.594  16.157  2.6283  2.9897 -0.1828
  789MPD2    H311637   4.176   0.691  16.024  0.2760 -0.4264  0.5329
  789MPD2     N11638   3.949   0.854  16.379 -0.1966 -0.7831 -0.0009
  789MPD2    H511639   3.881   0.891  16.315  0.4244  0.4064  0.0287
  789MPD2    N111640   4.330   0.581  16.436 -0.0348  0.0169  0.0713
  789MPD2    H711641   4.297   0.581  16.532  2.9108 -0.9486  1.0710
  790MPD2     C11642   4.082   2.746  13.464 -0.0169  0.4983  0.1300
  790MPD2    C111643   4.175   2.650  13.438  0.6971 -0.0049 -0.1904
  790MPD2    C211644   4.207   2.633  13.303  0.4291  0.9474  0.2334
  790MPD2    C311645   4.122   2.675  13.203 -0.7143  0.1135  0.3582
  790MPD2    C411646   4.025   2.753  13.231 -0.4976  0.4677  0.6048
  790MPD2    C511647   4.013   2.799  13.358  0.2299  0.3811  0.2468
  790MPD2     H11648   4.289   2.570  13.270  0.7650  2.0532 -1.0906
  790MPD2    H111649   3.959   2.792  13.153  3.1974  1.5661 -1.9475
  790MPD2    H211650   4.070   2.783  13.565 -0.3584 -2.9270  1.3390
  790MPD2    H311651   3.929   2.865  13.377  0.6014  1.5482 -2.2107
  790MPD2     N11652   4.125   2.635  13.072 -0.3114  0.0708 -0.4108
  790MPD2    H511653   4.052   2.673  13.011 -1.5220 -0.0204  0.9916
  790MPD2    N111654   4.231   2.580  13.545  0.3934  0.0684  0.0516
  790MPD2    H711655   4.177   2.587  13.631  0.4881  2.2511 -0.0432
  791MPD2     C11656   3.697   2.560  12.415  0.7797  0.1289  0.4327
  791MPD2    C111657   3.728   2.471  12.520  0.1138 -0.0798 -0.3556
  791MPD2    C211658   3.629   2.382  12.558  0.1598  0.3937  0.1813
  791MPD2    C311659   3.505   2.381  12.495 -0.0538 -0.2684  0.6028
  791MPD2    C411660   3.471   2.474  12.402  0.0086  0.5498  0.1951
  791MPD2    C511661   3.571   2.559  12.363 -0.2638 -0.0443 -0.7745
  791MPD2     H11662   3.656   2.305  12.629 -4.2577 -0.4001  1.0004
  791MPD2    H111663   3.372   2.484  12.360 -0.0030  3.0043  0.7791
  791MPD2    H211664   3.777   2.625  12.382  1.0500 -0.7043 -0.5465
  791MPD2    H311665   3.552   2.629  12.283 -1.9255 -1.7728 -1.8899
  791MPD2     N11666   3.426   2.263  12.523  0.4587 -0.1033  0.6081
  791MPD2    H511667   3.467   2.195  12.585 -3.1749 -2.5686  0.3496
  791MPD2    N111668   3.856   2.482  12.571  0.6633  0.4012 -0.4561
  791MPD2    H711669   3.905   2.565  12.541 -0.1406  0.5253 -1.4304
  792MPD2     C11670   0.614   2.261  10.748 -0.4700  0.3958  0.3233
  792MPD2    C111671   0.486   2.310  10.719 -0.7443 -0.6105  0.8381
  792MPD2    C211672   0.412   2.230  10.627 -0.6397  0.1001  0.5279
  792MPD2    C311673   0.464   2.117  10.559  0.1477  0.0111 -0.0793
  792MPD2    C411674   0.592   2.085  10.585 -0.0494 -0.1543  0.2191
  792MPD2    C511675   0.663   2.151  10.680 -0.2114  0.3909 -0.3889
  792MPD2     H11676   0.307   2.249  10.612 -0.9193 -1.0115  1.0646
  792MPD2    H111677   0.639   2.000  10.536  0.6683  0.9938 -1.0487
  792MPD2    H211678   0.688   2.307  10.813 -0.1169  1.0446 -0.5254
  792MPD2    H311679   0.764   2.126  10.710 -0.4433  1.3243  1.1298
  792MPD2     N11680   0.399   2.041  10.458  0.7421 -0.2089  0.5914
  792MPD2    H511681   0.445   1.953  10.438  2.8105  0.9581  0.2404
  792MPD2    N111682   0.438   2.428  10.772  0.2666  0.1872 -0.2203
  792MPD2    H711683   0.497   2.479  10.837 -0.4365  0.9372 -0.1675
  793MPD2     C11684   4.545   2.185   9.634  0.5562 -0.1139 -0.2816
  793MPD2    C111685   4.684   2.187   9.652  0.3846  0.5788  0.4865
  793MPD2    C211686   0.009   2.123   9.761 -0.3650  0.9060 -0.0602
  793MPD2    C311687   4.658   2.075   9.865  0.7854 -0.0872 -0.2481
  793MPD2    C411688   4.521   2.091   9.852  0.3732  1.3677 -0.2111
  793MPD2    C511689   4.471   2.132   9.731 -0.6915 -0.7962 -0.4907
  793MPD2     H11690   0.116   2.104   9.759 -0.4659  0.5803 -2.6307
  793MPD2    H111691   4.448   2.056   9.925  1.0389 -0.0889 -0.2443
  793MPD2    H211692   4.502   2.227   9.545 -0.0362  0.3461  0.2221
  793MPD2    H311693   4.364   2.144   9.726 -0.5409  0.0474 -1.7596
  793MPD2     N11694   0.004   2.014   9.975  0.1228  0.5277  0.2993
  793MPD2    H511695   0.105   2.011   9.962  0.1283 -0.8518  0.6288
  793MPD2    N111696   0.048   2.212   9.550 -0.0269  0.3941  0.1831
  793MPD2    H711697   0.147   2.218   9.570  0.5884 -1.6633 -2.2313
  794MPD2     C11698   0.213   1.751  17.079 -0.4530 -0.0754  0.4700
  794MPD2    C111699   0.167   1.617  17.073  0.0573  0.5145  0.7146
  794MPD2    C211700   0.121   1.572  16.950  0.4333 -0.5239 -0.0174
  794MPD2    C311701   0.108   1.660  16.845  0.0744 -0.0469 -0.1879
  794MPD2    C411702   0.146   1.789  16.858 -0.0511  0.5638 -0.7571
  794MPD2    C511703   0.207   1.835  16.973  0.7359 -0.6065 -0.1859
  794MPD2     H11704   0.076   1.474  16.935 -2.7297  1.0513 -0.8708
  794MPD2    H111705   0.116   1.856  16.778  1.6044  1.5563 -0.5344
  794MPD2    H211706   0.251   1.805  17.165  2.9465  2.4707 -2.6175
  794MPD2    H311707   0.233   1.939  16.984 -2.9584  0.4471 -1.1838
  794MPD2     N11708   0.045   1.619  16.720 -0.0348  0.0300 -0.1709
  794MPD2    H511709   0.023   1.690  16.650 -0.4557  0.9598  0.9029
  794MPD2    N111710   0.166   1.534  17.185 -0.0966  0.8293  0.0470
  794MPD2    H711711   0.131   1.442  17.160 -2.8106  1.7629  0.4110
  795MPD2     C11712   1.976   3.820  13.844  0.5374  0.4634  0.5629
  795MPD2    C111713   1.992   3.755  13.723  0.2033  0.2986  0.9647
  795MPD2    C211714   2.100   3.658  13.700 -0.8699 -1.0132  0.7781
  795MPD2    C311715   2.181   3.629  13.808  0.5684  0.4730  0.0032
  795MPD2    C411716   2.168   3.696  13.931 -0.1208 -0.3629  0.1997
  795MPD2    C511717   2.065   3.789  13.944 -0.3344  0.3519 -0.1891
  795MPD2     H11718   2.126   3.618  13.603  1.3266 -1.6427  1.6299
  795MPD2    H111719   2.231   3.678  14.018  1.6856  1.2092 -0.8018
  795MPD2    H211720   1.898   3.889  13.873 -0.6165 -1.2884  1.6589
  795MPD2    H311721   2.045   3.831  14.042 -0.0455 -1.0886  0.4769
  795MPD2     N11722   2.287   3.541  13.791  0.7818  0.2190 -0.1207
  795MPD2    H511723   2.288   3.497  13.700  1.7713 -1.4244  0.6743
  795MPD2    N111724   1.909   3.778  13.614  0.0811  0.2615  0.0481
  795MPD2    H711725   1.902   3.708  13.540  1.1501 -0.2777  0.4671
  796MPD2     C11726   1.955   1.166  16.209 -0.5978  0.1474 -0.5470
  796MPD2    C111727   1.979   1.086  16.101  0.8400 -0.1948 -0.0726
  796MPD2    C211728   1.986   1.145  15.979  1.3744 -0.0014  0.1447
  796MPD2    C311729   1.966   1.280  15.960  0.2104 -0.1199  0.0969
  796MPD2    C411730   1.931   1.355  16.064  0.4279 -0.9158  0.6943
  796MPD2    C511731   1.926   1.293  16.190  0.5004 -0.0623  0.2466
  796MPD2     H11732   2.003   1.081  15.894  1.2571 -0.5375  0.5282
  796MPD2    H111733   1.900   1.459  16.058  2.6742 -0.4875 -2.9602
  796MPD2    H211734   1.955   1.131  16.312  0.4083 -0.9462 -0.9194
  796MPD2    H311735   1.900   1.347  16.280 -1.2327  0.0561 -0.3234
  796MPD2     N11736   1.983   1.331  15.830 -0.2601  0.6729 -0.0443
  796MPD2    H511737   2.000   1.276  15.746  2.0330 -1.7137  1.9724
  796MPD2    N111738   2.015   0.952  16.129 -0.4485 -0.3935 -0.4793
  796MPD2    H711739   2.010   0.920  16.225 -0.1099  1.5909  0.2005
  797MPD2     C11740   2.823   4.633  17.528  0.3437 -0.2896  0.0938
  797MPD2    C111741   2.873   0.010  17.454 -0.3793 -0.0457  0.2694
  797MPD2    C211742   2.792   0.103  17.384 -0.8347  0.7266 -0.2353
  797MPD2    C311743   2.652   0.092  17.395 -0.6979 -1.1539  0.1751
  797MPD2    C411744   2.601   4.719  17.474 -0.2955  0.8889  0.0413
  797MPD2    C511745   2.685   4.629  17.539 -0.2546 -0.8766  0.1228
  797MPD2     H11746   2.837   0.184  17.327  1.7805 -1.0079 -0.6025
  797MPD2    H111747   2.494   4.698  17.474 -0.0722 -0.3347 -2.9228
  797MPD2    H211748   2.882   4.554  17.574 -0.9902 -0.9852  0.6120
  797MPD2    H311749   2.637   4.555  17.603 -2.0997  1.1141  1.0248
  797MPD2     N11750   2.559   0.180  17.337 -0.5346 -0.2561  0.1032
  797MPD2    H511751   2.467   0.186  17.379 -1.0472 -1.4189 -0.8593
  797MPD2    N111752   3.011   0.016  17.428 -0.1259 -0.3776 -0.1174
  797MPD2    H711753   3.044   0.099  17.381  1.4370 -0.9887 -0.0789
  798MPD2     C11754   2.977   0.771  17.357 -0.3698 -0.4468  0.3347
  798MPD2    C111755   2.897   0.672  17.401  1.2565  0.0332 -0.1421
  798MPD2    C211756   2.951   0.558  17.453  0.0472  0.4368  0.4544
  798MPD2    C311757   3.089   0.541  17.462 -0.0365  0.7301 -0.4586
  798MPD2    C411758   3.170   0.643  17.423 -0.0867 -0.8849  0.0897
  798MPD2    C511759   3.111   0.757  17.381  0.3556  0.0375  0.0317
  798MPD2     H11760   2.894   0.470  17.481  0.4653  1.0580  3.3029
  798MPD2    H111761   3.278   0.631  17.418  0.0982  0.4269  0.9791
  798MPD2    H211762   2.947   0.863  17.310 -0.5351 -0.0505  1.2101
  798MPD2    H311763   3.169   0.831  17.327  3.2332 -2.1733  0.1095
  798MPD2     N11764   3.139   0.415  17.498 -0.2870  0.1260  0.5953
  798MPD2    H511765   3.074   0.338  17.512 -1.0860  0.9660  1.5041
  798MPD2    N111766   2.760   0.685  17.373  0.2691 -0.3971  0.4795
  798MPD2    H711767   2.731   0.753  17.304 -0.0989 -3.0998 -2.0119
  799MPD2     C11768   1.411   1.751  14.396 -0.3958 -0.0391  0.3273
  799MPD2    C111769   1.298   1.697  14.327  0.2514 -0.2659 -0.4100
  799MPD2    C211770   1.252   1.761  14.214 -0.0945 -0.7796  0.2277
  799MPD2    C311771   1.319   1.868  14.158 -0.6731  0.1982 -0.5349
  799MPD2    C411772   1.422   1.925  14.231  0.0237  0.2446 -0.0190
  799MPD2    C511773   1.470   1.870  14.354  0.6076 -0.5337  0.9199
  799MPD2     H11774   1.169   1.719  14.157 -1.1781  2.0196 -0.2958
  799MPD2    H111775   1.470   2.012  14.188 -3.3468  0.6760 -2.8336
  799MPD2    H211776   1.459   1.709  14.483 -0.6470  0.3677  0.6606
  799MPD2    H311777   1.558   1.908  14.405  1.0256 -1.8475  1.1877
  799MPD2     N11778   1.303   1.911  14.025 -0.0195  0.5428  0.3772
  799MPD2    H511779   1.375   1.979  14.007  0.1016  0.6905  1.4346
  799MPD2    N111780   1.234   1.573  14.358  0.2295 -0.4217 -0.4413
  799MPD2    H711781   1.160   1.537  14.300 -1.0333  2.3968 -0.5683
  800MPD2     C11782   2.309   3.213  14.231 -0.2778  0.4573 -0.3049
  800MPD2    C111783   2.435   3.170  14.244 -0.2408 -0.4701  0.5265
  800MPD2    C211784   2.466   3.040  14.265 -0.0686  0.2205  0.5378
  800MPD2    C311785   2.364   2.944  14.274  0.1755 -0.2168 -0.1503
  800MPD2    C411786   2.236   2.986  14.243 -0.2164  0.4579  0.2182
  800MPD2    C511787   2.209   3.118  14.229 -0.4542  0.4009  0.1334
  800MPD2     H11788   2.571   3.027  14.289 -0.2167 -0.0355  1.0302
  800MPD2    H111789   2.150   2.920  14.245 -0.5719  0.9269  0.6180
  800MPD2    H211790   2.286   3.319  14.239  0.3938  0.7095 -1.8289
  800MPD2    H311791   2.107   3.153  14.240 -0.4332  0.4852  0.0621
  800MPD2     N11792   2.394   2.810  14.297  0.0386 -0.8320  0.4414
  800MPD2    H511793   2.492   2.795  14.320  1.3522  2.6552 -2.8026
  800MPD2    N111794   2.529   3.271  14.235 -0.8769 -0.0617 -0.0568
  800MPD2    H711795   2.502   3.368  14.222  0.6233  0.2936 -0.5092
  801MPD2     C11796   2.496   3.912  14.479  0.3199  0.1168 -0.5397
  801MPD2    C111797   2.489   3.776  14.507 -0.0350 -0.0706 -0.1141
  801MPD2    C211798   2.381   3.726  14.583  0.0506 -0.3414  1.0948
  801MPD2    C311799   2.293   3.812  14.647  0.1764 -0.2933  0.2642
  801MPD2    C411800   2.311   3.948  14.629  0.1294 -0.5367  0.4581
  801MPD2    C511801   2.407   3.996  14.543 -0.0934  0.5352 -0.3787
  801MPD2     H11802   2.377   3.618  14.587 -2.0795 -0.3642 -2.1353
  801MPD2    H111803   2.245   4.023  14.671  0.8262  0.4427 -0.1900
  801MPD2    H211804   2.573   3.945  14.410 -0.4170  0.2345 -1.3098
  801MPD2    H311805   2.416   4.103  14.529 -0.3003  0.3779 -1.7612
  801MPD2     N11806   2.194   3.756  14.728  0.3767 -0.2664 -0.0664
  801MPD2    H511807   2.175   3.658  14.715  1.2367 -0.4197 -0.1199
  801MPD2    N111808   2.580   3.673  14.467  0.2815 -0.6157 -0.1258
  801MPD2    H711809   2.554   3.578  14.490  0.7090 -1.0887 -1.5828
  802MPD2     C11810   1.280   4.082  17.174  0.3995  0.3767  0.2693
  802MPD2    C111811   1.354   4.081  17.290  0.0803 -0.4126  0.0040
  802MPD2    C211812   1.417   3.968  17.330 -0.4799 -0.1637 -0.0481
  802MPD2    C311813   1.411   3.856  17.248  0.2533  0.2282  1.1170
  802MPD2    C411814   1.335   3.857  17.133 -0.4903  0.2752  0.6675
  802MPD2    C511815   1.281   3.969  17.086  0.6304 -0.1799 -0.0849
  802MPD2     H11816   1.470   3.962  17.424  1.3681 -1.1008 -1.1526
  802MPD2    H111817   1.326   3.770  17.068 -0.1356 -0.1797  1.2329
  802MPD2    H211818   1.241   4.173  17.131  0.8090  1.5081  2.2418
  802MPD2    H311819   1.223   3.972  16.995  1.1701  0.3145 -0.4103
  802MPD2     N11820   1.489   3.748  17.283  0.7103 -0.2219 -0.0575
  802MPD2    H511821   1.548   3.767  17.364 -0.5850 -1.3085  1.1481
  802MPD2    N111822   1.373   4.192  17.374 -0.1605  0.9608 -0.3905
  802MPD2    H711823   1.432   4.173  17.454 -1.8315 -0.6705  0.4569
  803MPD2     C11824   2.509   2.255  11.704 -0.6445 -0.2251  0.1596
  803MPD2    C111825   2.482   2.354  11.798  0.2706  0.9386 -0.0456
  803MPD2    C211826   2.407   2.321  11.910 -0.2732  0.4506 -0.3428
  803MPD2    C311827   2.347   2.194  11.921 -0.7418 -0.0240  0.4944
  803MPD2    C411828   2.367   2.106  11.814 -0.4747 -0.3556 -0.0851
  803MPD2    C511829   2.440   2.134  11.709 -0.0421 -0.1290  0.4809
  803MPD2     H11830   2.382   2.399  11.979 -2.2149 -0.9986  0.5884
  803MPD2    H111831   2.299   2.022  11.806  0.0966 -0.5734 -2.4936
  803MPD2    H211832   2.557   2.275  11.609 -0.6464  0.5381  0.3243
  803MPD2    H311833   2.447   2.074  11.619  0.5329  0.8031 -0.0970
  803MPD2     N11834   2.260   2.162  12.026 -0.4243 -0.1137  0.0504
  803MPD2    H511835   2.221   2.068  12.024 -0.0172 -0.2870  0.5073
  803MPD2    N111836   2.552   2.480  11.794 -0.3314  0.5885 -0.8033
  803MPD2    H711837   2.553   2.547  11.870 -0.1853  0.7318 -0.9317
  804MPD2     C11838   2.469   3.386  17.164  0.8041  0.0855  0.5937
  804MPD2    C111839   2.576   3.355  17.247 -0.0621  0.0595  0.3992
  804MPD2    C211840   2.641   3.451  17.321 -0.2576  0.1680  0.1550
  804MPD2    C311841   2.598   3.586  17.313  0.5706 -0.4871 -0.3408
  804MPD2    C411842   2.507   3.620  17.226 -0.1062 -0.8587 -0.2629
  804MPD2    C511843   2.438   3.521  17.152  0.1140 -0.0010  0.1637
  804MPD2     H11844   2.723   3.427  17.388  1.1912 -1.6675 -2.2783
  804MPD2    H111845   2.491   3.726  17.213 -3.1036 -1.2939 -0.1163
  804MPD2    H211846   2.419   3.316  17.098 -0.5262 -1.7960  3.6146
  804MPD2    H311847   2.357   3.544  17.084 -1.3557 -1.4483  1.4339
  804MPD2     N11848   2.660   3.685  17.392 -0.1349  0.3001  0.2154
  804MPD2    H511849   2.733   3.655  17.456 -1.5003 -1.3322  1.0192
  804MPD2    N111850   2.620   3.223  17.248  0.4192  0.2075  0.3674
  804MPD2    H711851   2.676   3.198  17.328  1.5300 -2.8699 -1.3703
  805MPD2     C11852   1.474   2.187  15.261 -0.0318 -0.1291 -0.8278
  805MPD2    C111853   1.559   2.128  15.172 -1.0675 -0.0871 -0.3953
  805MPD2    C211854   1.699   2.145  15.187 -0.4530  0.5133 -0.4111
  805MPD2    C311855   1.755   2.199  15.299 -0.2291 -0.3317  0.4981
  805MPD2    C411856   1.664   2.244  15.395 -0.2655  0.4698 -0.1560
  805MPD2    C511857   1.529   2.241  15.375  0.3400 -0.4211 -0.2774
  805MPD2     H11858   1.756   2.111  15.101 -0.1835 -0.2758  0.0802
  805MPD2    H111859   1.696   2.295  15.485 -0.7407  0.4775  0.0058
  805MPD2    H211860   1.367   2.168  15.257  0.0150 -0.8470  1.2758
  805MPD2    H311861   1.465   2.271  15.457  1.3884 -1.8644  1.0652
  805MPD2     N11862   1.894   2.188  15.310  0.6853  0.1622  0.6117
  805MPD2    H511863   1.922   2.125  15.236 -1.0564  0.6477 -0.4536
  805MPD2    N111864   1.508   2.045  15.072  0.4300 -0.1554  0.4667
  805MPD2    H711865   1.577   1.999  15.014 -0.2563 -1.3936  0.6261
  806MPD2     C11866   1.905   0.987   0.127  0.0667 -0.4076  0.3622
  806MPD2    C111867   2.029   0.924   0.148 -0.9950  0.0530 -0.2832
  806MPD2    C211868   2.139   0.970   0.073 -0.2878  0.1627 -0.4237
  806MPD2    C311869   2.132   1.083  17.701 -1.0095  0.7039  0.6838
  806MPD2    C411870   2.008   1.128  17.670 -0.4612  0.6377  0.0002
  806MPD2    C511871   1.892   1.087   0.032 -0.2338 -0.3518  0.0202
  806MPD2     H11872   2.244   0.946   0.083 -0.6829 -1.7426 -0.8571
  806MPD2    H111873   1.988   1.213  17.606 -0.8507  1.9845  1.9132
  806MPD2    H211874   1.826   0.957   0.195 -0.8746  1.6539  0.1982
  806MPD2    H311875   1.794   1.133   0.019 -0.0102  0.5165  1.4320
  806MPD2     N11876   2.249   1.139  17.647  0.0920  0.0146  0.2243
  806MPD2    H511877   2.336   1.090  17.669  1.3977  3.0471  1.7948
  806MPD2    N111878   2.044   0.829   0.256 -1.0758  0.8032 -0.3635
  806MPD2    H711879   1.969   0.821   0.324 -0.3247  0.7674  0.4633
  807MPD2     C11880   1.738   0.274   0.753 -0.4316 -0.1483  0.7127
  807MPD2    C111881   1.872   0.262   0.739 -0.0693  0.4256 -0.4384
  807MPD2    C211882   1.930   0.156   0.810 -0.0338  0.0716 -0.1099
  807MPD2    C311883   1.869   0.082   0.908  0.1669  0.5392 -0.4097
  807MPD2    C411884   1.736   0.106   0.931 -0.5178  0.1580 -0.0309
  807MPD2    C511885   1.670   0.200   0.850 -0.2379 -0.5468  0.4329
  807MPD2     H11886   2.038   0.148   0.795  0.3054  0.6658  2.0291
  807MPD2    H111887   1.671   0.056   1.002 -0.6912 -0.4043 -0.5917
  807MPD2    H211888   1.686   0.363   0.720  1.3284  0.3849 -0.6482
  807MPD2    H311889   1.566   0.220   0.874 -0.1820  1.9449 -1.3390
  807MPD2     N11890   1.942   4.701   0.961  0.1353 -0.0588 -0.8782
  807MPD2    H511891   2.033   4.687   0.919  1.5969  0.6411  2.0767
  807MPD2    N111892   1.959   0.324   0.643  0.6463 -0.0344  0.0395
  807MPD2    H711893   2.056   0.293   0.643  0.9309  0.9249  3.4043
  808MPD2     C11894   2.923   2.463   9.798 -0.3441  0.6491 -0.2118
  808MPD2    C111895   2.876   2.559   9.882  0.4647 -0.1469  0.5610
  808MPD2    C211896   2.947   2.681   9.894 -0.2211 -0.1828  0.1074
  808MPD2    C311897   3.059   2.713   9.818 -0.5549 -0.4830  0.8846
  808MPD2    C411898   3.106   2.616   9.734 -0.7441  0.0903 -0.3687
  808MPD2    C511899   3.040   2.494   9.725 -0.1185  0.0872 -0.2583
  808MPD2     H11900   2.902   2.761   9.952  4.2829  2.2494  0.2491
  808MPD2    H111901   3.196   2.629   9.675  3.5415 -4.1277  5.2403
  808MPD2    H211902   2.874   2.368   9.775 -0.6826  0.6608  0.4577
  808MPD2    H311903   3.070   2.420   9.652  1.2749  1.6144 -1.2210
  808MPD2     N11904   3.133   2.829   9.827 -0.0136  0.3460  0.5630
  808MPD2    H511905   3.217   2.841   9.772 -0.0809  1.6428  0.7446
  808MPD2    N111906   2.759   2.543   9.956  0.1933  0.3925 -0.4386
  808MPD2    H711907   2.736   2.628  10.007  0.7587 -0.6415  1.5368
  809MPD2     C11908   3.778   3.026   9.357 -0.2898  0.2270  0.3285
  809MPD2    C111909   3.816   3.100   9.464 -0.7629 -0.7308 -0.5274
  809MPD2    C211910   3.708   3.120   9.551  0.6167  0.0024 -0.1852
  809MPD2    C311911   3.582   3.060   9.544 -0.0600  0.4154 -0.2825
  809MPD2    C411912   3.547   2.989   9.435 -0.5636  0.2010  0.1380
  809MPD2    C511913   3.653   2.976   9.345  0.2264  0.1086 -0.1332
  809MPD2     H11914   3.732   3.180   9.638 -0.1330 -0.0699  0.0698
  809MPD2    H111915   3.448   2.951   9.416  0.5531 -1.9215 -1.5322
  809MPD2    H211916   3.844   3.014   9.271  1.3481  1.6997  1.3845
  809MPD2    H311917   3.633   2.940   9.244  0.2277  2.0471 -0.8306
  809MPD2     N11918   3.477   3.084   9.640 -0.1085 -0.3057  0.3526
  809MPD2    H511919   3.395   3.024   9.638 -0.2516 -0.1752  1.9316
  809MPD2    N111920   3.943   3.155   9.487  0.1546  0.3450  0.1267
  809MPD2    H711921   3.947   3.212   9.570  0.4588  0.4689  0.0250
  810MPD2     C11922   1.936   2.552  10.933 -0.2288 -0.7826 -0.3795
  810MPD2    C111923   1.973   2.581  10.807 -0.5361  0.4979  0.1325
  810MPD2    C211924   1.951   2.709  10.758  0.5918  0.1222 -0.0125
  810MPD2    C311925   1.879   2.801  10.828  0.0539  0.2493  0.3165
  810MPD2    C411926   1.852   2.776  10.960 -0.2545 -0.4894  0.3446
  810MPD2    C511927   1.875   2.650  11.013 -0.7161  0.4243  0.3887
  810MPD2     H11928   1.986   2.727  10.657 -0.5443 -1.6780 -0.7331
  810MPD2    H111929   1.799   2.849  11.022  0.5975  1.2251 -0.9405
  810MPD2    H211930   1.959   2.459  10.984  1.2710  0.0438  0.4401
  810MPD2    H311931   1.836   2.622  11.111 -0.7292 -0.5356  0.1069
  810MPD2     N11932   1.836   2.919  10.764  0.3759 -0.6649 -0.3985
  810MPD2    H511933   1.819   3.003  10.818  0.0743 -0.1370 -1.3047
  810MPD2    N111934   2.005   2.474  10.720  0.1267  0.8888  0.4364
  810MPD2    H711935   2.053   2.506  10.636 -0.9975 -0.6816 -0.8179
  811MPD2     C11936   1.807   2.290   9.927 -0.0656 -0.7268 -0.1666
  811MPD2    C111937   1.849   2.368  10.037  1.0632 -0.3510  0.1650
  811MPD2    C211938   1.844   2.503  10.024  0.5964 -0.6060  0.1617
  811MPD2    C311939   1.823   2.571   9.908 -0.0091 -0.9924  0.7121
  811MPD2    C411940   1.812   2.494   9.795  0.1023  0.1281  0.0801
  811MPD2    C511941   1.802   2.358   9.805  0.4551 -0.3576  0.5177
  811MPD2     H11942   1.866   2.576  10.101  1.4024 -0.5082 -0.1633
  811MPD2    H111943   1.796   2.546   9.701 -0.2241  0.2593  0.2057
  811MPD2    H211944   1.787   2.184   9.935  1.0707 -1.0274 -1.2919
  811MPD2    H311945   1.767   2.299   9.721  2.0374 -1.6888  0.7976
  811MPD2     N11946   1.825   2.712   9.904  0.5870 -0.9816  0.2207
  811MPD2    H511947   1.845   2.770   9.984  1.6849 -0.8931 -0.1087
  811MPD2    N111948   1.871   2.310  10.164 -0.0211  0.4755 -1.4043
  811MPD2    H711949   1.825   2.221  10.177  0.9506 -0.0443 -1.5021
  812MPD2     C11950   0.645   2.413  12.001  0.3293 -0.2547  0.4887
  812MPD2    C111951   0.540   2.449  12.082  0.2131  0.0099  0.1393
  812MPD2    C211952   0.490   2.353  12.166  0.5439 -0.0962  0.3329
  812MPD2    C311953   0.537   2.216  12.170 -0.5358 -0.3563 -0.2412
  812MPD2    C411954   0.643   2.191  12.077  0.2160  0.3646 -0.3792
  812MPD2    C511955   0.691   2.286  11.995  0.7401  0.3034  0.1629
  812MPD2     H11956   0.404   2.384  12.225  0.6444  0.8319 -0.0174
  812MPD2    H111957   0.702   2.101  12.082 -1.2889 -0.8560 -4.9621
  812MPD2    H211958   0.692   2.490  11.941  0.0751  0.2382  0.9263
  812MPD2    H311959   0.780   2.274  11.935  0.6279 -0.0513  0.0651
  812MPD2     N11960   0.470   2.121  12.257  0.0293 -0.5204  0.1648
  812MPD2    H511961   0.410   2.159  12.329 -0.9665 -0.8242 -0.5029
  812MPD2    N111962   0.491   2.577  12.064 -0.1143 -0.0633 -0.1101
  812MPD2    H711963   0.535   2.646  12.005  1.5473 -0.3530  0.7987
  813MPD2     C11964   4.008   4.240  12.391  0.2259  0.8519 -0.0334
  813MPD2    C111965   3.989   4.378  12.419  0.0797 -0.3348  0.3804
  813MPD2    C211966   3.886   4.410  12.508  0.4625 -0.6968 -0.3937
  813MPD2    C311967   3.798   4.317  12.556 -0.0788 -0.1257 -0.2640
  813MPD2    C411968   3.814   4.187  12.518 -0.6755 -0.1327  0.0656
  813MPD2    C511969   3.918   4.150  12.437 -0.2142 -0.3677  0.9616
  813MPD2     H11970   3.866   4.511  12.542 -1.7528 -1.5891  0.9490
  813MPD2    H111971   3.757   4.105  12.561 -0.4434 -0.3490 -0.0333
  813MPD2    H211972   4.089   4.196  12.335 -0.9846  0.0727 -1.1486
  813MPD2    H311973   3.937   4.048  12.408 -0.5708 -0.1095 -0.1678
  813MPD2     N11974   3.699   4.355  12.647 -0.3482 -0.0466  0.0515
  813MPD2    H511975   3.694   4.454  12.668 -0.2662 -0.0374  0.0249
  813MPD2    N111976   4.087   4.475  12.377 -0.3953 -0.4752  0.0410
  813MPD2    H711977   4.076   4.568  12.417  1.1041 -0.8367  1.2672
  814MPD2     C11978   4.644   1.033  11.768 -0.2924  0.6615 -0.1107
  814MPD2    C111979   0.057   1.007  11.768  0.2161 -0.1398 -0.4271
  814MPD2    C211980   0.143   1.112  11.781 -0.0627  0.4041 -1.0284
  814MPD2    C311981   0.094   1.241  11.793 -0.5681 -0.2858 -0.4252
  814MPD2    C411982   4.687   1.272  11.792 -0.1661  0.0806  0.3797
  814MPD2    C511983   4.602   1.164  11.776  0.5082 -0.6698 -1.0454
  814MPD2     H11984   0.249   1.100  11.759  0.1859 -1.3871  1.1294
  814MPD2    H111985   4.647   1.372  11.804 -0.6778 -0.3977  2.5107
  814MPD2    H211986   4.571   0.955  11.751 -1.1833  1.3060  0.8104
  814MPD2    H311987   4.495   1.175  11.766  0.5182  0.9789  0.6812
  814MPD2     N11988   0.166   1.350  11.829  0.3435 -0.0096  0.0333
  814MPD2    H511989   0.115   1.437  11.839 -0.2868 -0.2252 -1.4593
  814MPD2    N111990   0.114   0.887  11.723  0.3205 -0.4512  0.7101
  814MPD2    H711991   0.213   0.884  11.700  0.6940  0.3431  2.2395
  815MPD2     C11992   0.320   4.468  11.424 -0.1906  0.3809 -0.1477
  815MPD2    C111993   0.348   4.354  11.496  0.1894  0.5528  0.2295
  815MPD2    C211994   0.251   4.302  11.583 -0.3662 -0.1554 -0.1295
  815MPD2    C311995   0.133   4.368  11.593 -0.3377  0.0216 -0.2399
  815MPD2    C411996   0.109   4.484  11.524 -0.8816  0.9614 -0.7283
  815MPD2    C511997   0.202   4.535  11.440 -0.3223 -0.2952  0.3800
  815MPD2     H11998   0.260   4.201  11.621 -3.1704  0.4787  2.1806
  815MPD2    H111999   0.021   4.546  11.512 -0.8190  0.5706 -3.2884
  815MPD2    H212000   0.394   4.517  11.362  1.3286 -3.0023 -1.0078
  815MPD2    H312001   0.178   4.620  11.378  2.2701 -1.2879 -1.9905
  815MPD2     N12002   0.035   4.308  11.679  0.1632 -0.3645  0.0443
  815MPD2    H512003   0.053   4.226  11.735 -0.0772  0.8509  1.8867
  815MPD2    N112004   0.471   4.290  11.462 -0.0200  0.2945  0.2725
  815MPD2    H712005   0.528   4.340  11.395 -2.5209  1.2973 -1.1307
  816MPD2     C12006   0.615   2.794  17.086  0.2244  0.1854  0.0346
  816MPD2    C112007   0.669   2.908  17.016 -0.2240  0.2197 -0.5139
  816MPD2    C212008   0.806   2.912  16.981  0.1675 -0.1602 -0.5710
  816MPD2    C312009   0.889   2.805  17.014 -0.0990  0.0284  0.4649
  816MPD2    C412010   0.831   2.698  17.079 -0.2968 -0.3259  1.0484
  816MPD2    C512011   0.696   2.692  17.116 -0.0520 -0.4938  0.0095
  816MPD2     H12012   0.852   2.983  16.914  1.9561 -1.1274 -0.3756
  816MPD2    H112013   0.889   2.610  17.104 -0.2225 -0.5780  0.0001
  816MPD2    H212014   0.513   2.798  17.124 -0.8257 -3.1553 -2.4013
  816MPD2    H312015   0.666   2.610  17.180  1.0702 -1.0048 -0.1241
  816MPD2     N12016   1.021   2.808  16.973  0.5401  0.7057  0.7832
  816MPD2    H512017   1.041   2.885  16.909 -1.9776  0.8216  0.1100
  816MPD2    N112018   0.584   3.016  17.010 -0.2819  0.0527  0.1092
  816MPD2    H712019   0.489   2.989  17.035 -0.9446 -0.5905 -2.9955
  817MPD2     C12020   1.266   0.373   9.431 -0.2412 -1.3553 -0.2251
  817MPD2    C112021   1.146   0.340   9.367 -0.4110  0.1284  0.0982
  817MPD2    C212022   1.075   0.439   9.294  0.2552 -0.2087 -0.2305
  817MPD2    C312023   1.111   0.570   9.313  0.7897 -0.0179  0.1850
  817MPD2    C412024   1.225   0.601   9.383 -0.8666  0.0794 -0.0863
  817MPD2    C512025   1.309   0.504   9.434  0.4293 -0.5071  0.1223
  817MPD2     H12026   0.987   0.414   9.236 -0.2264  0.8192  0.0720
  817MPD2    H112027   1.265   0.702   9.381  2.0418 -1.0816 -0.8310
  817MPD2    H212028   1.333   0.293   9.460  0.1561 -1.1516 -0.5948
  817MPD2    H312029   1.407   0.530   9.471 -0.2890  0.3446  1.4121
  817MPD2     N12030   1.023   0.666   9.258 -0.2959  1.0532  0.4009
  817MPD2    H512031   0.943   0.624   9.212  0.6510 -0.6396  0.3048
  817MPD2    N112032   1.104   0.205   9.345  0.6306  0.0112 -0.2005
  817MPD2    H712033   1.020   0.176   9.296  1.2939 -0.9449 -0.7753
  818MPD2     C12034   4.503   0.250   9.572 -0.0977  0.6238  0.3826
  818MPD2    C112035   4.405   0.249   9.665 -0.1528 -0.1936  0.7248
  818MPD2    C212036   4.370   0.133   9.731  0.2136 -0.5315 -0.5579
  818MPD2    C312037   4.426   0.009   9.695 -0.1308 -0.3140 -0.6201
  818MPD2    C412038   4.524   0.017   9.598 -0.2410 -0.0488 -0.7348
  818MPD2    C512039   4.557   0.131   9.537 -0.7056  0.2473  0.1634
  818MPD2     H12040   4.301   0.135   9.815 -1.1352 -2.1336 -1.6352
  818MPD2    H112041   4.569   4.652   9.561 -0.6295 -0.1333 -0.9970
  818MPD2    H212042   4.545   0.342   9.533 -2.1762  0.6386 -1.7911
  818MPD2    H312043   4.638   0.124   9.466 -0.0661 -0.7126  0.9821
  818MPD2     N12044   4.396   4.608   9.756  0.2198  0.0433  0.1993
  818MPD2    H512045   4.310   4.609   9.811  1.3532  0.6520  1.9706
  818MPD2    N112046   4.350   0.368   9.710 -0.0186  0.0514  0.0439
  818MPD2    H712047   4.271   0.361   9.773  0.7228 -3.9664  0.4888
  819MPD2     C12048   2.658   1.569  15.195 -0.0234  0.3993 -0.6268
  819MPD2    C112049   2.573   1.534  15.296  0.1589 -0.5582  0.2712
  819MPD2    C212050   2.623   1.509  15.418  0.2225 -0.3936 -0.1725
  819MPD2    C312051   2.759   1.507  15.454  0.1938 -0.3242 -0.0856
  819MPD2    C412052   2.847   1.526  15.350  0.3305 -0.1724  0.2183
  819MPD2    C512053   2.795   1.556  15.227  0.0594  0.2015 -0.0104
  819MPD2     H12054   2.555   1.490  15.500 -1.1702 -0.5164 -1.3526
  819MPD2    H112055   2.955   1.514  15.357 -0.0810 -1.4586  4.1913
  819MPD2    H212056   2.625   1.614  15.102 -0.4487  1.1064 -0.1368
  819MPD2    H312057   2.854   1.564  15.137  0.2348 -1.1020 -0.0102
  819MPD2     N12058   2.788   1.473  15.587  0.0695 -0.2258 -0.8178
  819MPD2    H512059   2.717   1.430  15.646  0.9534  2.7476  2.4567
  819MPD2    N112060   2.433   1.551  15.273 -0.0041  0.2881 -0.0645
  819MPD2    H712061   2.406   1.548  15.175  0.3734  1.3616 -0.1992
  820MPD2     C12062   1.567   1.349  14.782  0.0187  0.1217 -0.1881
  820MPD2    C112063   1.617   1.468  14.825  0.1596 -0.0268 -0.8818
  820MPD2    C212064   1.726   1.465  14.909 -0.0402  0.2427  0.7207
  820MPD2    C312065   1.774   1.348  14.963  0.2237  0.2469 -0.0188
  820MPD2    C412066   1.722   1.231  14.919 -0.3172  0.0046  0.8755
  820MPD2    C512067   1.621   1.235  14.833  0.4589  0.1045  0.6145
  820MPD2     H12068   1.758   1.560  14.950 -1.2004  1.3415 -0.9156
  820MPD2    H112069   1.756   1.138  14.962 -3.0470 -1.6903 -0.6054
  820MPD2    H212070   1.483   1.339  14.714 -0.5453  0.7155  0.4136
  820MPD2    H312071   1.572   1.141  14.812  1.1387 -0.2629  0.6826
  820MPD2     N12072   1.869   1.341  15.066  0.1721 -0.0639  0.2022
  820MPD2    H512073   1.910   1.255  15.102  0.1665 -0.4440 -0.7192
  820MPD2    N112074   1.553   1.586  14.773 -0.2949  0.2026  0.1532
  820MPD2    H712075   1.471   1.575  14.715 -1.7131  0.7329  2.0847
  821MPD2     C12076   2.319   2.419  13.735  0.6851 -0.0001 -0.2520
  821MPD2    C112077   2.442   2.421  13.795 -0.0454 -0.3705  0.0835
  821MPD2    C212078   2.551   2.451  13.706  0.1010 -0.5676 -0.4944
  821MPD2    C312079   2.530   2.462  13.567  0.0047  0.1750 -0.1676
  821MPD2    C412080   2.399   2.468  13.522 -0.4034 -0.7567 -0.2512
  821MPD2    C512081   2.300   2.450  13.608 -0.1808  0.1337 -0.0355
  821MPD2     H12082   2.651   2.461  13.746 -0.5720  4.1255 -0.0571
  821MPD2    H112083   2.374   2.474  13.417  0.7055  0.3387 -0.4460
  821MPD2    H212084   2.229   2.415  13.794  0.3119 -2.1462 -0.9795
  821MPD2    H312085   2.196   2.454  13.577  0.0994 -0.7453 -1.0809
  821MPD2     N12086   2.641   2.487  13.484  0.0345  0.7818  0.0506
  821MPD2    H512087   2.733   2.473  13.525  0.0052 -0.1383 -0.1917
  821MPD2    N112088   2.468   2.403  13.932  0.3143  0.0522  0.3620
  821MPD2    H712089   2.563   2.427  13.957  0.2387 -0.1253  0.8187
  822MPD2     C12090   3.175   3.043  15.652 -0.0987 -0.3044 -0.0327
  822MPD2    C112091   3.200   2.993  15.779  0.9704  0.2544  0.4289
  822MPD2    C212092   3.116   3.025  15.883 -0.5256  0.4015  0.1224
  822MPD2    C312093   3.014   3.120  15.867  0.5277  0.2601 -0.3964
  822MPD2    C412094   2.985   3.163  15.740  0.0711 -0.3706 -0.5075
  822MPD2    C512095   3.055   3.116  15.637  0.3760 -0.0111  0.1665
  822MPD2     H12096   3.143   2.984  15.980 -0.7049  1.4622  0.6227
  822MPD2    H112097   2.903   3.231  15.724  0.7723  0.6490  0.2188
  822MPD2    H212098   3.230   3.012  15.564  0.1110 -1.2627  0.4260
  822MPD2    H312099   3.036   3.150  15.536  1.5765  2.4516  0.7704
  822MPD2     N12100   2.936   3.152  15.983 -0.4854 -0.2358  0.3159
  822MPD2    H512101   2.948   3.093  16.065  0.2376 -1.9320 -1.0070
  822MPD2    N112102   3.313   2.913  15.812  0.1240 -0.3848  0.7052
  822MPD2    H712103   3.321   2.891  15.911  2.1083 -1.5413  0.2790
  823MPD2     C12104   2.812   3.143  16.817  0.2043  0.7165 -0.2952
  823MPD2    C112105   2.819   3.079  16.697 -0.3564  0.1078 -0.2112
  823MPD2    C212106   2.862   2.947  16.689  0.9143 -1.0241 -0.0818
  823MPD2    C312107   2.888   2.875  16.806  0.3008  0.0580 -0.0014
  823MPD2    C412108   2.860   2.936  16.932  0.5358  0.5316 -0.1567
  823MPD2    C512109   2.833   3.068  16.930 -0.0228  1.1472  0.4694
  823MPD2     H12110   2.883   2.901  16.593 -2.1100  0.3252 -1.4009
  823MPD2    H112111   2.876   2.885  17.026  0.4700  1.7907  0.5302
  823MPD2    H212112   2.775   3.243  16.832 -0.3175  0.4705  0.0677
  823MPD2    H312113   2.824   3.124  17.022 -0.9000  3.2234 -0.8584
  823MPD2     N12114   2.957   2.751  16.807  0.2989  0.3933 -0.7470
  823MPD2    H512115   2.974   2.702  16.893 -1.1058 -1.7353 -1.6906
  823MPD2    N112116   2.790   3.164  16.583  0.5042 -0.4565 -0.0092
  823MPD2    H712117   2.758   3.258  16.603  2.1188 -0.3169  1.9525
  824MPD2     C12118   3.368   2.233  15.559 -0.2995  0.0966  0.4350
  824MPD2    C112119   3.494   2.282  15.586  0.0067 -0.6014 -0.2407
  824MPD2    C212120   3.605   2.200  15.554 -0.1050 -0.5476 -0.2589
  824MPD2    C312121   3.595   2.074  15.488  0.0445  0.4052  0.3271
  824MPD2    C412122   3.463   2.027  15.473  0.7442  0.1755 -0.0025
  824MPD2    C512123   3.352   2.109  15.494 -0.4089  0.4838 -0.3836
  824MPD2     H12124   3.706   2.235  15.574 -0.0653 -0.9260  0.2152
  824MPD2    H112125   3.445   1.933  15.423  1.8782 -0.5018  0.8621
  824MPD2    H212126   3.278   2.293  15.572 -0.5061 -0.1112 -0.0382
  824MPD2    H312127   3.259   2.074  15.452 -0.3282 -1.1145  0.7498
  824MPD2     N12128   3.709   2.000  15.454 -0.0399 -0.2118  0.2403
  824MPD2    H512129   3.799   2.046  15.458  0.4221 -1.0976  0.0437
  824MPD2    N112130   3.506   2.404  15.649 -0.2284 -0.4525  0.5536
  824MPD2    H712131   3.423   2.462  15.651 -0.3477 -0.4997 -2.6329
  825MPD2     C12132   4.419   1.816  14.983  0.1968  0.5637 -0.3625
  825MPD2    C112133   4.319   1.895  15.032 -0.5939 -0.2814  0.0863
  825MPD2    C212134   4.324   2.033  15.002  0.5630  0.6611  0.4536
  825MPD2    C312135   4.425   2.087  14.921 -0.0670  0.1822 -0.1793
  825MPD2    C412136   4.521   2.006  14.866 -0.0483  0.4058 -0.6929
  825MPD2    C512137   4.514   1.869  14.896 -0.6687 -0.2063 -0.0691
  825MPD2     H12138   4.242   2.101  15.021  0.4896  0.9319 -0.8357
  825MPD2    H112139   4.601   2.048  14.806  2.8122 -0.8255  2.2170
  825MPD2    H212140   4.422   1.709  15.002  0.0487  0.4828 -0.7854
  825MPD2    H312141   4.588   1.800  14.858  0.4805  0.7401  0.4323
  825MPD2     N12142   4.426   2.227  14.882 -0.1834  0.3200  0.1650
  825MPD2    H512143   4.498   2.266  14.822 -0.0014 -0.1478  0.0830
  825MPD2    N112144   4.218   1.835  15.117  0.3759 -0.2151  0.1008
  825MPD2    H712145   4.220   1.736  15.142 -2.6926 -0.3423 -0.2024
  826MPD2     C12146   3.638   1.744  13.751 -0.9115 -0.4499 -0.2150
  826MPD2    C112147   3.523   1.762  13.680  0.3792  0.1706  0.3074
  826MPD2    C212148   3.433   1.851  13.740  0.6217 -0.6081 -0.4584
  826MPD2    C312149   3.444   1.915  13.864  0.0186 -0.2217 -0.1448
  826MPD2    C412150   3.562   1.884  13.933 -0.5715  0.7821  0.0837
  826MPD2    C512151   3.648   1.806  13.873 -0.9778 -1.1209  0.1114
  826MPD2     H12152   3.367   1.905  13.673  0.8360  0.3616  0.1073
  826MPD2    H112153   3.583   1.927  14.030 -1.4946  0.5833  0.3704
  826MPD2    H212154   3.720   1.676  13.731 -0.9044 -0.9186  1.4269
  826MPD2    H312155   3.738   1.775  13.924  0.1325  1.3366 -0.3302
  826MPD2     N12156   3.351   2.003  13.921 -0.0598  0.3659  0.1600
  826MPD2    H512157   3.374   2.049  14.009 -1.9696 -1.2062  1.4913
  826MPD2    N112158   3.524   1.710  13.552  0.2960  0.0737  0.7974
  826MPD2    H712159   3.608   1.671  13.512 -0.7709 -1.6816  0.2687
  827MPD2     C12160   4.668   3.009   9.847  0.9695  0.2458 -0.2206
  827MPD2    C112161   4.552   3.050   9.908 -0.6265  0.0495  0.5541
  827MPD2    C212162   4.431   3.012   9.853  0.7799  0.2155  0.2573
  827MPD2    C312163   4.418   2.934   9.734  0.5690  0.1478  0.2876
  827MPD2    C412164   4.532   2.892   9.667  0.3810  0.0674  0.0445
  827MPD2    C512165   4.654   2.941   9.729 -0.3944  0.1505  0.0208
  827MPD2     H12166   4.343   3.053   9.900 -0.3186 -0.7455 -0.9594
  827MPD2    H112167   4.533   2.837   9.574 -1.7999  3.1304 -1.7891
  827MPD2    H212168   0.041   3.019   9.889  0.4262 -2.0184  1.6258
  827MPD2    H312169   0.023   2.903   9.695 -0.5699  0.5890 -0.9447
  827MPD2     N12170   4.285   2.895   9.704 -0.2798  0.4432 -0.1279
  827MPD2    H512171   4.223   2.912   9.783 -1.2804 -2.2432 -0.3265
  827MPD2    N112172   4.567   3.129  10.023 -0.6836 -0.2520  0.0734
  827MPD2    H712173   4.662   3.162  10.033 -0.9255 -0.1949  2.1064
  828MPD2     C12174   2.689   3.238  12.313  0.1471 -0.0897 -0.8731
  828MPD2    C112175   2.616   3.318  12.227 -0.4072 -0.5316 -0.4673
  828MPD2    C212176   2.671   3.352  12.105  1.2240 -0.5582 -0.0865
  828MPD2    C312177   2.795   3.305  12.071 -0.2928  0.2436  0.0900
  828MPD2    C412178   2.859   3.211  12.151  0.1800 -0.7686  0.0466
  828MPD2    C512179   2.807   3.187  12.276 -0.4421  0.4506  1.2796
  828MPD2     H12180   2.625   3.431  12.048  0.1985 -0.3373  1.0451
  828MPD2    H112181   2.958   3.182  12.117  0.9102  0.6120  1.0195
  828MPD2    H212182   2.667   3.226  12.418  1.9658  2.0962 -0.2521
  828MPD2    H312183   2.862   3.113  12.334  1.2542  1.5727  1.1070
  828MPD2     N12184   2.856   3.336  11.947  0.6753  0.0652  0.2926
  828MPD2    H512185   2.947   3.293  11.931 -0.0642 -0.4703 -2.4214
  828MPD2    N112186   2.490   3.368  12.261 -0.1475 -0.1711 -0.2289
  828MPD2    H712187   2.439   3.428  12.196  2.7480  0.7050 -1.6766
  829MPD2     C12188   1.954   3.772  11.703 -0.2438 -0.1626  0.0678
  829MPD2    C112189   1.876   3.772  11.817 -0.3640  0.1342  0.4571
  829MPD2    C212190   1.923   3.701  11.926  0.3480 -0.6465  0.6472
  829MPD2    C312191   2.040   3.624  11.919  0.8260  0.1687  0.0915
  829MPD2    C412192   2.123   3.637  11.809  0.3391  0.3940 -0.0497
  829MPD2    C512193   2.073   3.705  11.696  0.6275 -0.2896  0.5669
  829MPD2     H12194   1.864   3.708  12.016  0.7327  0.0189  0.8500
  829MPD2    H112195   2.222   3.595  11.812  0.6383  1.2650  2.2311
  829MPD2    H212196   1.928   3.824  11.612  1.1234 -0.9385 -0.7731
  829MPD2    H312197   2.144   3.723  11.616 -1.1511  1.5634 -0.6098
  829MPD2     N12198   2.093   3.551  12.031  0.1243 -0.1800  0.1925
  829MPD2    H512199   2.192   3.526  12.029  0.1612  0.0428 -0.4997
  829MPD2    N112200   1.752   3.845  11.807  0.0112 -0.2630  0.0472
  829MPD2    H712201   1.723   3.886  11.718 -4.1723  0.6847  1.8413
  830MPD2     C12202   2.842   1.019  15.620 -0.1063 -0.0323 -0.2043
  830MPD2    C112203   2.741   1.108  15.632 -0.7003 -0.5581  0.0231
  830MPD2    C212204   2.673   1.145  15.516  1.0650  0.0697  0.1785
  830MPD2    C312205   2.705   1.081  15.400  1.0809  0.1043  0.4121
  830MPD2    C412206   2.802   0.986  15.389  0.3599 -0.7667 -0.3007
  830MPD2    C512207   2.871   0.953  15.500 -0.1738  0.3829 -0.0151
  830MPD2     H12208   2.610   1.233  15.517 -0.6354 -1.1236 -0.9404
  830MPD2    H112209   2.828   0.941  15.294  0.4238  0.9354 -1.0915
  830MPD2    H212210   2.905   0.984  15.701 -2.0545  1.3918  1.9494
  830MPD2    H312211   2.951   0.879  15.495  0.9046  1.7587 -3.3739
  830MPD2     N12212   2.644   1.108  15.279 -0.5851  0.1536  0.0026
  830MPD2    H512213   2.695   1.075  15.198  0.1976 -1.4840  1.1482
  830MPD2    N112214   2.711   1.177  15.747 -0.5019  0.0654  0.6277
  830MPD2    H712215   2.637   1.247  15.750 -1.4896 -0.9072 -0.7623
  831MPD2     C12216   3.391   3.092  16.435 -0.3676 -0.4448 -0.0282
  831MPD2    C112217   3.310   3.130  16.329 -0.0960  0.1027  0.1744
  831MPD2    C212218   3.187   3.070  16.315 -0.2092  0.5507  0.0819
  831MPD2    C312219   3.149   2.966  16.393  0.2077  0.3203  0.2370
  831MPD2    C412220   3.229   2.929  16.499  0.4150 -0.2193 -0.4730
  831MPD2    C512221   3.345   2.996  16.522 -0.9190 -0.4009  0.1041
  831MPD2     H12222   3.129   3.098  16.228  0.3166  2.1000  0.2365
  831MPD2    H112223   3.197   2.850  16.566  0.3311 -0.0151 -0.2726
  831MPD2    H212224   3.482   3.144  16.463 -0.5181 -0.2966  0.1874
  831MPD2    H312225   3.398   2.967  16.613 -2.2218  1.7974  1.5695
  831MPD2     N12226   3.050   2.874  16.360 -0.2104  0.3826  0.5273
  831MPD2    H512227   3.019   2.806  16.429 -0.0724  0.4138  0.6204
  831MPD2    N112228   3.377   3.211  16.226 -0.5683 -0.6096  0.4604
  831MPD2    H712229   3.473   3.238  16.248 -1.0537  0.0007  1.8449
  832MPD2     C12230   1.705   3.868  16.985  0.6570  0.1527  0.0102
  832MPD2    C112231   1.641   3.986  16.984  0.1250 -0.7438 -0.7821
  832MPD2    C212232   1.549   4.019  16.888  0.2044  0.1019  0.2046
  832MPD2    C312233   1.496   3.918  16.817 -0.3078 -0.2242  0.4286
  832MPD2    C412234   1.538   3.788  16.832 -0.1192 -0.2493 -0.7207
  832MPD2    C512235   1.642   3.768  16.914  0.1740  0.2398  1.0006
  832MPD2     H12236   1.508   4.119  16.886 -1.1965 -0.4788 -0.1864
  832MPD2    H112237   1.495   3.704  16.778 -1.7040  0.8705 -1.2454
  832MPD2    H212238   1.785   3.828  17.046 -0.4895  0.3991  1.6783
  832MPD2    H312239   1.674   3.664  16.915 -0.4416  0.0570  2.0179
  832MPD2     N12240   1.389   3.943  16.726 -0.1589 -0.6503  0.2033
  832MPD2    H512241   1.343   3.863  16.685 -1.1985  0.0142  0.0527
  832MPD2    N112242   1.700   4.077  17.081 -0.2078 -1.1653 -0.3457
  832MPD2    H712243   1.764   4.034  17.148  1.3960  0.7479 -0.6631
  833MPD2     C12244   3.416   1.288  12.167  0.2266 -0.8758 -0.7781
  833MPD2    C112245   3.379   1.417  12.130 -0.0211 -0.5557 -0.2256
  833MPD2    C212246   3.440   1.474  12.019  0.1176 -0.2885  0.6965
  833MPD2    C312247   3.530   1.400  11.936  0.1196  0.1742  0.1529
  833MPD2    C412248   3.562   1.273  11.977  0.0555 -0.2452  0.1108
  833MPD2    C512249   3.508   1.222  12.088  0.4981  0.0516 -0.2269
  833MPD2     H12250   3.401   1.569  11.984 -0.0453  0.1459  2.0346
  833MPD2    H112251   3.632   1.217  11.916 -0.7421  1.3505 -2.2701
  833MPD2    H212252   3.393   1.239  12.261 -0.0584 -0.6891 -0.7495
  833MPD2    H312253   3.549   1.126  12.116 -2.1964 -0.9189  0.4365
  833MPD2     N12254   3.587   1.452  11.825  0.3525  0.3871 -0.2580
  833MPD2    H512255   3.634   1.388  11.762  1.2707  0.4502  0.3636
  833MPD2    N112256   3.278   1.486  12.204  0.5220  0.1102  0.0838
  833MPD2    H712257   3.228   1.430  12.272  2.8801 -3.1860 -0.8471
  834MPD2     C12258   3.803   1.516  10.825  0.3106 -0.2178  0.0379
  834MPD2    C112259   3.730   1.426  10.901  0.2887  0.0167  0.0364
  834MPD2    C212260   3.685   1.474  11.025  0.5815 -0.5779 -0.2215
  834MPD2    C312261   3.716   1.600  11.077 -0.3849  0.3956  0.4105
  834MPD2    C412262   3.784   1.688  10.995  0.1828 -0.0010 -0.1616
  834MPD2    C512263   3.831   1.639  10.876 -0.1324 -0.9332 -1.0121
  834MPD2     H12264   3.629   1.408  11.090  2.4546 -0.5898  1.3995
  834MPD2    H112265   3.805   1.790  11.024 -0.4700  0.6376 -1.9465
  834MPD2    H212266   3.846   1.495  10.728 -0.9221 -2.7062  0.0336
  834MPD2    H312267   3.883   1.712  10.815  0.4459 -1.1259 -0.7607
  834MPD2     N12268   3.702   1.642  11.214  0.7878  0.4571  0.0435
  834MPD2    H512269   3.728   1.738  11.231  2.0397  0.1796 -0.2793
  834MPD2    N112270   3.682   1.301  10.848 -0.1445 -0.1139  0.2627
  834MPD2    H712271   3.600   1.257  10.888  0.1083  1.1542  2.1742
  835MPD2     C12272   3.645   3.408  11.066  0.0665 -0.3665  0.0314
  835MPD2    C112273   3.550   3.480  11.127  0.3112  0.0941  0.0622
  835MPD2    C212274   3.546   3.490  11.263 -0.2316 -0.3903 -0.7252
  835MPD2    C312275   3.646   3.436  11.343 -1.0584 -0.6350 -0.1398
  835MPD2    C412276   3.744   3.359  11.280 -0.4688  0.0779 -0.7925
  835MPD2    C512277   3.746   3.352  11.144  0.5950 -0.0673 -0.2197
  835MPD2     H12278   3.482   3.564  11.310  0.5868  0.3875 -0.8200
  835MPD2    H112279   3.824   3.318  11.341  0.6819  1.1820 -1.5712
  835MPD2    H212280   3.657   3.390  10.960  0.2130  1.0316 -0.1905
  835MPD2    H312281   3.821   3.293  11.093  0.5091 -1.1130  0.8703
  835MPD2     N12282   3.651   3.444  11.488  0.1956  0.6925  0.4641
  835MPD2    H512283   3.729   3.406  11.539  0.8961  0.5706 -0.7066
  835MPD2    N112284   3.444   3.541  11.061 -0.0009  0.4679 -0.3598
  835MPD2    H712285   3.386   3.589  11.128 -0.0359 -0.4960  0.2952
  836MPD2     C12286   3.042   3.671  11.876  0.0785 -0.5006 -0.5261
  836MPD2    C112287   3.125   3.615  11.967 -0.9321 -0.0622  0.4615
  836MPD2    C212288   3.083   3.594  12.098 -0.0974  0.1578  0.1624
  836MPD2    C312289   2.951   3.615  12.133 -0.3592  0.1509 -0.4244
  836MPD2    C412290   2.866   3.662  12.037 -0.6520 -0.3327  0.1363
  836MPD2    C512291   2.909   3.696  11.912 -0.2226 -0.1814 -0.1694
  836MPD2     H12292   3.147   3.567  12.181  1.6185  1.9884 -0.5689
  836MPD2    H112293   2.766   3.693  12.065  0.2754  0.5947  2.3572
  836MPD2    H212294   3.071   3.692  11.774  1.1884  0.6533  0.0321
  836MPD2    H312295   2.841   3.741  11.840 -1.4909  1.4747  2.0765
  836MPD2     N12296   2.899   3.598  12.264  0.1718 -1.0506  0.2554
  836MPD2    H512297   2.805   3.630  12.284 -0.6149 -1.6546 -2.4301
  836MPD2    N112298   3.253   3.595  11.920  0.0388  0.1727  0.1991
  836MPD2    H712299   3.256   3.609  11.819 -0.0335 -0.6512  0.0825
  837MPD2     C12300   2.276   3.427   9.825  0.7873  0.1907 -0.5194
  837MPD2    C112301   2.157   3.411   9.895  0.7871 -0.3761 -0.0931
  837MPD2    C212302   2.111   3.529   9.956 -0.8642 -0.0392 -0.7236
  837MPD2    C312303   2.188   3.642   9.960  0.6335  0.2743 -0.2802
  837MPD2    C412304   2.308   3.644   9.898 -0.2498 -0.1968  0.2983
  837MPD2    C512305   2.354   3.537   9.830  1.0834  0.1569  0.1566
  837MPD2     H12306   2.014   3.530  10.005  0.1479 -0.5568  1.2897
  837MPD2    H112307   2.366   3.735   9.885 -2.2804  1.0465  0.0247
  837MPD2    H212308   2.310   3.351   9.756 -1.0804 -1.5917  0.5264
  837MPD2    H312309   2.451   3.532   9.781  0.1288  0.8228 -1.8003
  837MPD2     N12310   2.132   3.750  10.027 -0.0541 -0.0229  0.0000
  837MPD2    H512311   2.041   3.738  10.072  0.3428 -1.1288  0.5068
  837MPD2    N112312   2.067   3.300   9.885  0.1061 -0.0154 -0.2404
  837MPD2    H712313   1.983   3.315   9.940 -0.6110  0.0748 -1.3515
  838MPD2     C12314   0.030   1.759  11.067  0.3509 -0.0325 -0.0801
  838MPD2    C112315   0.047   1.683  11.181 -0.6439  0.5193  0.3163
  838MPD2    C212316   4.658   1.621  11.234  0.0862  0.6446  0.1013
  838MPD2    C312317   4.542   1.618  11.167  0.0586 -0.0286  0.2514
  838MPD2    C412318   4.533   1.693  11.049  0.3949 -0.3686 -0.1306
  838MPD2    C512319   4.636   1.762  11.007  0.0295 -0.5110  0.1625
  838MPD2     H12320   4.667   1.558  11.322 -2.0341  1.5238  0.9512
  838MPD2    H112321   4.442   1.686  10.989  0.3250  2.4053 -0.3538
  838MPD2    H212322   0.114   1.802  11.013 -0.3679  1.5738  0.0774
  838MPD2    H312323   4.627   1.822  10.918  2.4274  0.4494  0.5846
  838MPD2     N12324   4.431   1.549  11.216 -0.3342  0.1739 -0.3209
  838MPD2    H512325   4.454   1.475  11.282  0.2718 -0.6843 -1.4912
  838MPD2    N112326   0.177   1.666  11.239  0.4658 -0.4652  0.6620
  838MPD2    H712327   0.187   1.592  11.308 -0.2032 -0.7449  0.4660
  839MPD2     C12328   4.540   1.183  11.324  0.0776 -0.3126 -0.5916
  839MPD2    C112329   4.577   1.192  11.188  0.4639  0.2803  0.0254
  839MPD2    C212330   4.701   1.245  11.153  0.5265 -0.2784  0.5366
  839MPD2    C312331   0.071   1.259  11.250  0.3128 -0.0686  0.3763
  839MPD2    C412332   0.042   1.248  11.385 -0.4395 -0.1754 -0.1654
  839MPD2    C512333   4.637   1.210  11.418 -0.0132 -0.1332 -0.2175
  839MPD2     H12334   4.725   1.252  11.047  2.0416 -1.0712  0.8309
  839MPD2    H112335   0.108   1.277  11.466 -0.3243  1.6485 -0.9210
  839MPD2    H212336   4.444   1.160  11.368  0.8401 -0.9956  0.7263
  839MPD2    H312337   4.599   1.202  11.519 -0.5206  0.0982 -0.3928
  839MPD2     N12338   0.201   1.308  11.218 -0.4580  0.0237 -0.0822
  839MPD2    H512339   0.260   1.325  11.299 -0.4955  1.4107 -0.3478
  839MPD2    N112340   4.493   1.149  11.084 -0.3843 -0.4964 -0.4497
  839MPD2    H712341   4.528   1.135  10.989 -0.4840 -1.2013 -0.3839
  840MPD2     C12342   0.363   3.445  10.110  0.0135 -0.2651  0.1469
  840MPD2    C112343   0.285   3.492  10.210  0.3310 -0.0249 -0.1217
  840MPD2    C212344   0.329   3.596  10.285  0.4349  0.0796 -0.0444
  840MPD2    C312345   0.455   3.647  10.270  0.4847  0.0855 -0.2340
  840MPD2    C412346   0.532   3.595  10.174  0.3670 -0.0862  0.2298
  840MPD2    C512347   0.487   3.490  10.090  0.3110 -0.0604 -0.7479
  840MPD2     H12348   0.262   3.636  10.361  0.7704 -1.7084  1.1994
  840MPD2    H112349   0.637   3.621  10.164  0.0049  1.4284  0.4975
  840MPD2    H212350   0.334   3.357  10.054 -1.1084  0.1920  0.0117
  840MPD2    H312351   0.557   3.449  10.019  2.1543  1.3763  0.2481
  840MPD2     N12352   0.503   3.754  10.355  0.0920 -0.9636 -0.7779
  840MPD2    H512353   0.589   3.796  10.321 -0.7746  0.6553 -0.9380
  840MPD2    N112354   0.159   3.433  10.229  0.7937  0.7184  0.1215
  840MPD2    H712355   0.146   3.342  10.186  1.0647  1.0403 -0.6185
  841MPD2     C12356   4.521   3.086  14.901  0.6884  0.5079  0.5967
  841MPD2    C112357   4.557   3.086  14.762  1.0057  0.7013  0.1085
  841MPD2    C212358   4.540   3.203  14.693  0.0245 -1.0356  0.1724
  841MPD2    C312359   4.494   3.322  14.761  0.3658 -0.0376  0.3407
  841MPD2    C412360   4.450   3.316  14.890  0.3774  0.1384  0.0147
  841MPD2    C512361   4.458   3.194  14.959  0.7439 -1.1820  0.6726
  841MPD2     H12362   4.553   3.208  14.585 -3.6287 -0.3203 -0.2529
  841MPD2    H112363   4.395   3.397  14.935  1.8588  1.5122 -0.6574
  841MPD2    H212364   4.524   3.000  14.967  0.2928  1.2227  1.5434
  841MPD2    H312365   4.434   3.196  15.065 -0.0269 -0.4703  0.4866
  841MPD2     N12366   4.496   3.437  14.686  0.0967  0.4764 -0.2603
  841MPD2    H512367   4.532   3.427  14.592  1.3596  1.0254  0.1700
  841MPD2    N112368   4.600   2.973  14.692 -0.0087 -0.7925 -0.0451
  841MPD2    H712369   4.606   2.980  14.591 -0.1682 -2.3720 -0.1521
  842MPD2     C12370   0.859   4.295  16.434  0.1766  0.6794 -0.7237
  842MPD2    C112371   0.721   4.278  16.445 -0.5373  0.2773 -0.8094
  842MPD2    C212372   0.669   4.253  16.581  0.4901  0.6073 -0.2391
  842MPD2    C312373   0.756   4.265  16.688 -0.4184 -0.4692 -0.3858
  842MPD2    C412374   0.894   4.292  16.666  0.0566  0.1471 -0.7977
  842MPD2    C512375   0.941   4.302  16.542 -0.8578 -0.5432 -0.2653
  842MPD2     H12376   0.567   4.220  16.595  0.2027  1.1294 -1.1189
  842MPD2    H112377   0.959   4.321  16.747 -1.0682 -0.0075  0.1654
  842MPD2    H212378   0.896   4.303  16.332  1.5619 -0.7129 -0.3333
  842MPD2    H312379   1.047   4.314  16.521 -0.4417 -1.8965  1.0833
  842MPD2     N12380   0.714   4.252  16.825 -0.2982  0.1347 -0.1379
  842MPD2    H512381   0.782   4.269  16.898 -1.3951 -3.0959  1.6345
  842MPD2    N112382   0.647   4.268  16.330  0.6325 -0.4958  0.6826
  842MPD2    H712383   0.689   4.266  16.238 -0.0063  1.4089  0.3321
  843MPD2     C12384   3.024   4.171   0.293 -0.4861  0.2510  0.2012
  843MPD2    C112385   2.924   4.178   0.386 -0.3617  0.2479  0.0787
  843MPD2    C212386   2.913   4.295   0.453 -0.1834  0.1691 -0.3021
  843MPD2    C312387   2.981   4.413   0.417 -0.6147  0.1200 -0.0307
  843MPD2    C412388   3.079   4.397   0.317  0.1875 -0.0334 -0.4766
  843MPD2    C512389   3.104   4.276   0.265  0.5444  0.0324  0.0842
  843MPD2     H12390   2.844   4.300   0.536  0.9046 -0.0100  0.6128
  843MPD2    H112391   3.141   4.482   0.293 -2.8738  1.8250 -1.8679
  843MPD2    H212392   3.036   4.082   0.232  0.9777  1.4439 -1.2674
  843MPD2    H312393   3.179   4.266   0.188 -0.4759 -1.2681 -0.7350
  843MPD2     N12394   2.954   4.546   0.473 -0.2204 -0.6762  0.0830
  843MPD2    H512395   2.989   4.626   0.420 -1.8995 -0.6213 -0.9187
  843MPD2    N112396   2.838   4.067   0.412  0.1887  0.5482  0.0684
  843MPD2    H712397   2.843   3.985   0.352  0.4324  1.9088 -1.7689
  844MPD2     C12398   1.450   3.895  16.059  0.5437  0.4651 -0.0274
  844MPD2    C112399   1.494   3.784  16.134  0.6053 -0.0828  0.3505
  844MPD2    C212400   1.551   3.810  16.260  0.2501  0.4702 -0.0507
  844MPD2    C312401   1.574   3.938  16.307 -0.8862 -0.5946  0.4179
  844MPD2    C412402   1.532   4.041  16.231 -0.0477 -0.8915  0.2912
  844MPD2    C512403   1.457   4.018  16.114  0.5755  0.1343  0.0782
  844MPD2     H12404   1.570   3.728  16.327 -0.5540 -0.5345 -1.0402
  844MPD2    H112405   1.546   4.145  16.260 -0.3878 -0.3927 -1.3293
  844MPD2    H212406   1.400   3.882  15.964 -0.4582  1.5080  0.3643
  844MPD2    H312407   1.426   4.105  16.056  0.2581 -0.2819 -0.3680
  844MPD2     N12408   1.639   3.966  16.433  0.2341 -0.2143  0.4024
  844MPD2    H512409   1.685   3.889  16.481 -0.0163 -0.1339  0.7684
  844MPD2    N112410   1.485   3.656  16.071 -0.8615 -0.8539  0.1081
  844MPD2    H712411   1.440   3.649  15.981  1.9499  0.0107 -1.3683
  845MPD2     C12412   1.736   0.128  16.925 -0.3653 -1.0265 -0.2485
  845MPD2    C112413   1.627   0.046  16.940 -0.0780  0.0631  0.0116
  845MPD2    C212414   1.641   4.639  16.901 -0.3430 -0.0448 -0.5491
  845MPD2    C312415   1.764   4.592  16.850 -0.4700 -0.2489  0.1731
  845MPD2    C412416   1.865   4.675  16.822 -0.8332  0.2081 -0.1559
  845MPD2    C512417   1.850   0.081  16.863 -0.6733 -0.3098  0.2296
  845MPD2     H12418   1.561   4.566  16.907  0.3162 -0.6714  0.6050
  845MPD2    H112419   1.958   4.645  16.774 -0.2184 -2.2007  2.5379
  845MPD2    H212420   1.742   0.231  16.958  1.5409 -1.8577  1.9505
  845MPD2    H312421   1.941   0.138  16.854  1.1833 -3.3080  0.2451
  845MPD2     N12422   1.773   4.454  16.819  0.2783  0.1010 -0.4423
  845MPD2    H512423   1.693   4.395  16.839  0.2118  0.2743 -0.1934
  845MPD2    N112424   1.500   0.093  16.971  0.2733 -0.0918 -0.2939
  845MPD2    H712425   1.481   0.193  16.962  0.8057 -0.0258 -0.6940
  846MPD2     C12426   2.890   0.495  13.408  0.3797 -0.1498  0.5184
  846MPD2    C112427   2.811   0.598  13.455  0.4562 -0.6569  0.4369
  846MPD2    C212428   2.756   0.589  13.583 -0.0455 -0.2705  0.2447
  846MPD2    C312429   2.808   0.501  13.679 -0.5395  0.7886 -1.5701
  846MPD2    C412430   2.887   0.395  13.633  0.1130  0.4961  0.2649
  846MPD2    C512431   2.922   0.391  13.499  0.4953  0.8210 -0.2718
  846MPD2     H12432   2.698   0.676  13.614 -0.8686  0.3418 -2.9092
  846MPD2    H112433   2.913   0.314  13.700 -0.7071  0.0879  0.0940
  846MPD2    H212434   2.902   0.483  13.301 -2.2646  0.0881  0.1800
  846MPD2    H312435   2.985   0.314  13.457 -0.8936 -0.2950 -0.3110
  846MPD2     N12436   2.761   0.514  13.811  0.2146 -0.1063  0.4997
  846MPD2    H512437   2.677   0.570  13.826 -0.7308 -1.2848 -0.4243
  846MPD2    N112438   2.760   0.697  13.368  0.3454  0.5719 -0.2616
  846MPD2    H712439   2.702   0.768  13.412  0.5042 -0.3220  1.3826
  847MPD2     C12440   2.884   1.432  14.186 -0.3885  0.2284 -0.5302
  847MPD2    C112441   2.992   1.414  14.268 -0.2525  0.2016 -0.1835
  847MPD2    C212442   3.004   1.298  14.340  0.5318  0.0976 -0.9646
  847MPD2    C312443   2.911   1.191  14.322  0.8276 -0.2338  0.2576
  847MPD2    C412444   2.820   1.205  14.221  0.2733 -0.0710 -0.1306
  847MPD2    C512445   2.798   1.328  14.161 -0.1289 -0.6933 -0.4915
  847MPD2     H12446   3.094   1.284  14.400  0.2488 -2.1327 -1.0378
  847MPD2    H112447   2.749   1.125  14.206  1.5595 -1.2424  0.0474
  847MPD2    H212448   2.871   1.515  14.118 -0.3585 -1.0471 -2.0774
  847MPD2    H312449   2.717   1.328  14.089 -2.3841  0.8419  2.0560
  847MPD2     N12450   2.909   1.075  14.407  0.0296 -0.7929  0.1590
  847MPD2    H512451   2.838   1.005  14.387 -0.0102 -0.7256  0.0658
  847MPD2    N112452   3.076   1.525  14.312  0.1246 -0.5254 -0.2161
  847MPD2    H712453   3.158   1.498  14.365  0.9838  0.7956 -0.8486
  848MPD2     C12454   1.199   4.206  15.972 -0.4849 -0.1453 -0.0981
  848MPD2    C112455   1.215   4.278  16.091 -0.1123  0.1794 -0.5350
  848MPD2    C212456   1.247   4.410  16.075 -0.4403  0.6175 -0.4569
  848MPD2    C312457   1.248   4.471  15.951  0.2567 -0.0431  0.8555
  848MPD2    C412458   1.236   4.395  15.836 -0.5110 -0.1193  0.4994
  848MPD2    C512459   1.222   4.263  15.850  0.6017  0.5096  0.1288
  848MPD2     H12460   1.274   4.470  16.162 -0.2642  2.4741 -1.7802
  848MPD2    H112461   1.217   4.422  15.733  0.2484  0.3002  0.4737
  848MPD2    H212462   1.184   4.098  15.969  1.8690 -0.4179 -2.5325
  848MPD2    H312463   1.195   4.214  15.758 -3.9026 -0.2050  1.8073
  848MPD2     N12464   1.282   4.606  15.927 -0.4772 -0.3967 -0.1901
  848MPD2    H512465   1.279   4.630  15.828  0.2462 -0.2777 -0.1763
  848MPD2    N112466   1.196   4.224  16.220 -0.0321 -0.0346 -0.1674
  848MPD2    H712467   1.231   4.276  16.300  0.2644  0.5046 -0.6463
  849MPD2     C12468   3.663   3.841  13.722 -0.2005 -0.0832 -0.0666
  849MPD2    C112469   3.773   3.907  13.758 -0.4664  0.5851 -0.4206
  849MPD2    C212470   3.845   3.861  13.866 -0.0516 -0.1335 -0.7705
  849MPD2    C312471   3.799   3.762  13.946 -0.3183  1.3230  0.7144
  849MPD2    C412472   3.684   3.690  13.905  0.4378  0.1036 -0.0734
  849MPD2    C512473   3.625   3.732  13.794 -0.2308 -0.1179 -0.2386
  849MPD2     H12474   3.926   3.921  13.905 -0.2565  1.0367 -2.1191
  849MPD2    H112475   3.661   3.603  13.967 -1.3276  0.4868 -0.1854
  849MPD2    H212476   3.622   3.864  13.624  0.1921 -1.2101 -0.5055
  849MPD2    H312477   3.541   3.669  13.765 -1.3528  2.0066 -1.5851
  849MPD2     N12478   3.876   3.716  14.060 -0.3254  0.3462 -0.2659
  849MPD2    H512479   3.857   3.620  14.088  0.7652  0.2400  0.0827
  849MPD2    N112480   3.819   4.012  13.673  0.5189 -0.6032  0.1364
  849MPD2    H712481   3.754   4.046  13.603  0.7652 -0.0559  0.1765
  850MPD2     C12482   3.390   1.890  15.018 -0.5624 -1.1063 -0.1484
  850MPD2    C112483   3.330   2.013  15.045 -0.0031 -0.1423  0.4721
  850MPD2    C212484   3.409   2.120  15.080  0.8744  0.3235  0.5051
  850MPD2    C312485   3.544   2.109  15.101 -0.1829  0.4123 -0.7937
  850MPD2    C412486   3.595   1.978  15.087 -0.2846 -0.0166  0.9714
  850MPD2    C512487   3.520   1.873  15.044 -0.3832 -0.7150  0.0720
  850MPD2     H12488   3.358   2.214  15.097  0.5871  0.1463  0.6135
  850MPD2    H112489   3.702   1.961  15.085  0.3233  3.9504 -0.8133
  850MPD2    H212490   3.344   1.794  14.999 -0.0215 -1.3215 -0.4032
  850MPD2    H312491   3.570   1.781  15.018  0.0608 -0.6284  0.5971
  850MPD2     N12492   3.628   2.221  15.122  0.3801  0.3633 -0.4310
  850MPD2    H512493   3.727   2.211  15.101  0.1572  3.7857 -3.0262
  850MPD2    N112494   3.191   2.026  15.024  0.2187 -0.2111 -0.2977
  850MPD2    H712495   3.151   1.941  14.985 -1.5569  0.3779  0.2284
  851MPD2     C12496   2.781   1.632  14.550 -0.0040  0.4585 -0.7081
  851MPD2    C112497   2.795   1.658  14.683 -0.1895  0.0271 -0.2638
  851MPD2    C212498   2.773   1.550  14.770  0.7568 -0.2865  0.3112
  851MPD2    C312499   2.734   1.425  14.726  0.4643  0.0504  0.3761
  851MPD2    C412500   2.719   1.409  14.590 -0.2400 -0.3939 -0.3135
  851MPD2    C512501   2.753   1.509  14.507  0.6801 -0.7372  0.3803
  851MPD2     H12502   2.776   1.566  14.877  2.5623  1.2044  0.0538
  851MPD2    H112503   2.693   1.314  14.546  0.4898  0.6007 -2.8998
  851MPD2    H212504   2.796   1.705  14.472  1.7540  1.8914  0.9853
  851MPD2    H312505   2.738   1.498  14.400  1.1428 -0.2463  0.2650
  851MPD2     N12506   2.699   1.323  14.822 -0.8763 -0.5126  0.5613
  851MPD2    H512507   2.710   1.339  14.921  0.1339 -0.1716  0.3979
  851MPD2    N112508   2.811   1.793  14.725  0.3711 -0.2104 -0.0870
  851MPD2    H712509   2.860   1.855  14.661 -2.4338 -1.0474 -3.0588
  852MPD2     C12510   3.434   0.071  10.515  0.6508  0.3989  0.4902
  852MPD2    C112511   3.377   0.138  10.413 -0.0830  0.5137  0.1877
  852MPD2    C212512   3.403   0.102  10.290  0.7079  0.3748 -0.0952
  852MPD2    C312513   3.483   4.721  10.257  0.5622 -0.0888 -0.2949
  852MPD2    C412514   3.536   4.647  10.360  0.0499 -0.0604 -0.3187
  852MPD2    C512515   3.514   4.692  10.489 -0.5397  0.3547  0.6805
  852MPD2     H12516   3.354   0.151  10.207 -1.5796  0.9892  1.5979
  852MPD2    H112517   3.597   4.557  10.356 -2.1116 -1.5266 -0.8826
  852MPD2    H212518   3.427   0.097  10.620 -0.5073  0.5867  0.3682
  852MPD2    H312519   3.566   4.634  10.564 -1.4451 -1.2969  0.0321
  852MPD2     N12520   3.495   4.680  10.124  0.0607 -0.0612 -0.6573
  852MPD2    H512521   3.443   0.004  10.052 -1.7580  0.4294  0.9992
  852MPD2    N112522   3.290   0.246  10.436  0.7213  0.5400  0.0581
  852MPD2    H712523   3.266   0.301  10.354  0.3508  1.4004  0.7386
  853MPD2     C12524   4.429   0.028  12.122  0.1604  0.5400 -0.4268
  853MPD2    C112525   4.347   0.110  12.050  0.2548 -1.0504 -0.2502
  853MPD2    C212526   4.349   0.096  11.916  0.6106  0.6537 -0.4187
  853MPD2    C312527   4.430   0.004  11.851 -0.2353  0.4076  0.5682
  853MPD2    C412528   4.520   4.653  11.924 -0.1935 -0.5311 -0.7923
  853MPD2    C512529   4.514   4.666  12.061  0.0897 -0.3252  0.2296
  853MPD2     H12530   4.276   0.157  11.864 -0.8677 -1.0446 -0.3353
  853MPD2    H112531   4.599   4.591  11.884  0.4000  0.9927 -1.9667
  853MPD2    H212532   4.449   0.046  12.227 -1.2973  3.0319 -0.5667
  853MPD2    H312533   4.588   4.622  12.128  1.3393 -0.2894 -1.1446
  853MPD2     N12534   4.426   4.709  11.715 -0.0554  0.0831  0.1819
  853MPD2    H512535   4.502   4.661  11.669  0.3267  0.1223  0.7702
  853MPD2    N112536   4.272   0.211  12.117 -0.4308 -0.4980  0.3241
  853MPD2    H712537   4.280   0.204  12.218  0.6976 -0.7884  0.2177
  854MPD2     C12538   1.188   0.336  13.092  0.0279 -0.6576 -0.3992
  854MPD2    C112539   1.227   0.289  12.971  0.1899 -0.2461 -0.6579
  854MPD2    C212540   1.347   0.222  12.955  0.0496 -0.1926 -0.9250
  854MPD2    C312541   1.426   0.203  13.065 -0.3999 -0.1670 -0.0373
  854MPD2    C412542   1.377   0.251  13.186 -0.0388  0.0745 -0.8658
  854MPD2    C512543   1.261   0.321  13.200 -0.2828  0.0154  0.6357
  854MPD2     H12544   1.371   0.185  12.856 -0.8754 -0.3870 -1.0780
  854MPD2    H112545   1.435   0.244  13.277  1.5849 -0.3098 -1.9213
  854MPD2    H212546   1.102   0.400  13.100 -1.3213 -2.3448 -1.3309
  854MPD2    H312547   1.239   0.365  13.297 -1.2183  1.9736 -0.4755
  854MPD2     N12548   1.549   0.137  13.073  0.4300 -0.8443  0.3234
  854MPD2    H512549   1.592   0.134  13.165  1.5268  0.1992 -0.1605
  854MPD2    N112550   1.137   0.317  12.863 -0.7403  0.2392  0.6244
  854MPD2    H712551   1.044   0.345  12.892 -0.6908 -0.8994  1.8814
  855MPD2     C12552   2.072   0.109  13.749  0.1016  0.1833 -0.4986
  855MPD2    C112553   2.006   4.715  13.733  0.6165 -0.0418 -0.5138
  855MPD2    C212554   1.957   4.682  13.606  0.5241  0.4956 -0.3831
  855MPD2    C312555   1.963   0.047  13.504 -0.5340 -0.8067 -0.4976
  855MPD2    C412556   2.025   0.170  13.523  0.0862  0.7102 -0.2021
  855MPD2    C512557   2.078   0.201  13.650  0.0148  0.2628 -0.0024
  855MPD2     H12558   1.905   4.587  13.601 -1.0414  1.2076  2.0337
  855MPD2    H112559   2.045   0.242  13.445 -0.8463  2.4968  1.1984
  855MPD2    H212560   2.122   0.129  13.843  1.4477 -1.3226 -0.9064
  855MPD2    H312561   2.119   0.299  13.668  2.4102 -0.4473 -1.5548
  855MPD2     N12562   1.923   0.018  13.371  0.0030 -0.0738 -0.8073
  855MPD2    H512563   1.919   0.097  13.307 -0.1101  1.6546  1.3631
  855MPD2    N112564   1.997   4.619  13.840 -0.0980  0.3962  0.1087
  855MPD2    H712565   1.946   4.536  13.810  2.1503 -0.6375 -0.8225
  856MPD2     C12566   3.777   0.790  13.351  0.7155 -0.5631  0.7027
  856MPD2    C112567   3.862   0.853  13.437  0.2340 -0.7166 -0.1896
  856MPD2    C212568   3.815   0.894  13.563 -0.5313 -0.8350 -0.2855
  856MPD2    C312569   3.681   0.872  13.593 -0.1644  0.7726 -0.0963
  856MPD2    C412570   3.604   0.796  13.511 -0.4542  1.1205  0.3545
  856MPD2    C512571   3.652   0.760  13.389  0.0453  0.0314  0.2559
  856MPD2     H12572   3.877   0.962  13.620  1.3302 -1.7864 -1.1561
  856MPD2    H112573   3.499   0.780  13.529 -0.5203 -1.4673 -2.4849
  856MPD2    H212574   3.793   0.780  13.245 -1.1056 -0.5781  0.4189
  856MPD2    H312575   3.591   0.700  13.322  1.4873 -0.9471 -0.1658
  856MPD2     N12576   3.612   0.940  13.702  0.2601 -0.8331 -0.4935
  856MPD2    H512577   3.517   0.909  13.723 -0.2401  0.2539 -1.1483
  856MPD2    N112578   3.996   0.885  13.406  0.1301 -0.0690 -0.5749
  856MPD2    H712579   4.046   0.942  13.474  0.9327 -1.9503  0.4116
  857MPD2     C12580   0.174   2.843  12.926 -0.4079 -0.1224  0.3163
  857MPD2    C112581   0.305   2.841  12.883  0.0280  0.5274  0.4449
  857MPD2    C212582   0.380   2.952  12.896  0.7022  0.8944  0.5238
  857MPD2    C312583   0.339   3.067  12.956 -0.3018  0.5347  0.2403
  857MPD2    C412584   0.214   3.070  13.004 -0.7996 -0.2268 -0.2738
  857MPD2    C512585   0.132   2.956  12.988  0.1190 -0.7675 -0.3291
  857MPD2     H12586   0.477   2.950  12.848 -0.1386 -0.0563 -1.1282
  857MPD2    H112587   0.178   3.159  13.055 -0.4901  0.0134 -0.4746
  857MPD2    H212588   0.120   2.749  12.926  0.5721 -0.7074 -1.8493
  857MPD2    H312589   0.032   2.971  13.028  0.6358 -2.6877  1.7156
  857MPD2     N12590   0.427   3.175  12.977 -0.2600 -0.3827 -0.2133
  857MPD2    H512591   0.525   3.149  12.982  0.1732  0.8773 -2.0492
  857MPD2    N112592   0.352   2.721  12.829  0.0335  0.0539 -0.0263
  857MPD2    H712593   0.280   2.654  12.805 -1.5271  0.4767  3.4743
  858MPD2     C12594   1.927   1.547  16.655  0.4377 -0.5015  0.7075
  858MPD2    C112595   1.812   1.611  16.686 -0.4169 -0.2585 -0.1468
  858MPD2    C212596   1.800   1.692  16.794  0.5078  0.1348 -0.1613
  858MPD2    C312597   1.909   1.715  16.876  0.2257  0.2280 -0.2795
  858MPD2    C412598   2.028   1.646  16.844  0.5776  0.8822  0.1921
  858MPD2    C512599   2.036   1.563  16.736  0.2084  0.6013 -0.0061
  858MPD2     H12600   1.712   1.750  16.816  1.2856  0.8969  0.9315
  858MPD2    H112601   2.117   1.672  16.901  0.8852  1.1142 -0.3947
  858MPD2    H212602   1.945   1.487  16.567 -0.8091  1.7250 -1.0786
  858MPD2    H312603   2.126   1.504  16.727 -0.4205 -0.2672 -0.5847
  858MPD2     N12604   1.906   1.812  16.977  0.0180 -0.3966 -0.8811
  858MPD2    H512605   1.985   1.812  17.041  0.3516  0.6259 -1.2784
  858MPD2    N112606   1.710   1.604  16.589  0.1063 -0.3678  0.3485
  858MPD2    H712607   1.737   1.545  16.510 -0.3985 -0.8716  0.5523
  859MPD2     C12608   4.650   3.496  15.246  0.1853 -0.1907 -0.2565
  859MPD2    C112609   0.028   3.529  15.169 -0.3206 -0.0040  0.4872
  859MPD2    C212610   0.110   3.432  15.108 -1.0983 -0.8839 -0.0627
  859MPD2    C312611   0.080   3.299  15.135  1.1657  0.6839 -0.0991
  859MPD2    C412612   4.693   3.265  15.205 -0.4890  1.3185 -0.3871
  859MPD2    C512613   4.616   3.364  15.265  0.0589 -0.4028  0.6991
  859MPD2     H12614   0.194   3.451  15.042 -1.2397 -0.4742 -0.1209
  859MPD2    H112615   4.667   3.160  15.215 -0.6938  1.4556  0.5425
  859MPD2    H212616   4.589   3.562  15.307 -2.9255 -2.2154 -1.1774
  859MPD2    H312617   4.543   3.342  15.342  0.1389  0.2128  0.9512
  859MPD2     N12618   0.157   3.192  15.087 -0.8009 -0.1327 -0.3248
  859MPD2    H512619   0.107   3.105  15.076  0.9397 -1.5375  2.9940
  859MPD2    N112620   0.039   3.668  15.157  0.3902 -0.0770  0.0210
  859MPD2    H712621   4.694   3.721  15.206 -0.8443 -0.9707 -0.8171
  860MPD2     C12622   2.456   4.537  11.453  0.1249  0.1079  0.7502
  860MPD2    C112623   2.386   4.435  11.522 -0.0871  0.2144  0.4872
  860MPD2    C212624   2.258   4.462  11.571 -0.0647  0.8283  0.6230
  860MPD2    C312625   2.212   4.593  11.577 -0.6311 -0.4965 -0.0020
  860MPD2    C412626   2.291   4.696  11.531 -0.9081 -0.5348 -0.0471
  860MPD2    C512627   2.406   4.664  11.459  0.2705  0.0110  0.1557
  860MPD2     H12628   2.216   4.374  11.618 -0.4194 -0.4864 -2.1423
  860MPD2    H112629   2.281   0.076  11.547 -0.5775 -0.7387  1.5250
  860MPD2    H212630   2.549   4.532  11.397  0.3097  0.5586  1.0172
  860MPD2    H312631   2.467   0.019  11.421 -2.6937  1.1182 -2.1610
  860MPD2     N12632   2.102   4.618  11.665  0.0900 -0.1327  0.2148
  860MPD2    H512633   2.048   4.541  11.702  0.8641 -0.6141  0.3390
  860MPD2    N112634   2.443   4.311  11.545  0.3110 -0.1242  0.1769
  860MPD2    H712635   2.398   4.253  11.615 -1.3043  0.3691 -0.4567
  861MPD2     C12636   1.068   2.826  10.937 -0.4191  0.5582  0.3817
  861MPD2    C112637   1.063   2.959  10.976 -0.1032  1.6938 -0.8141
  861MPD2    C212638   1.026   3.053  10.881  0.3545 -0.4128  0.5671
  861MPD2    C312639   0.976   3.017  10.760 -0.3705 -0.4089  0.1366
  861MPD2    C412640   0.977   2.886  10.724  0.1261  0.2048 -0.3245
  861MPD2    C512641   1.023   2.789  10.811 -0.1763 -0.4894  0.2907
  861MPD2     H12642   1.025   3.157  10.913 -0.6813 -0.8826  2.0989
  861MPD2    H112643   0.946   2.858  10.624 -0.7122  0.8062 -0.2364
  861MPD2    H212644   1.093   2.743  11.002 -2.4499  0.5483  1.1540
  861MPD2    H312645   1.015   2.684  10.786  1.7680 -1.1163  2.3758
  861MPD2     N12646   0.926   3.106  10.659  0.4253  0.5271 -0.4407
  861MPD2    H512647   0.888   3.059  10.578  1.6396  0.9221 -1.2520
  861MPD2    N112648   1.105   3.012  11.098  0.3593 -0.7602  0.4275
  861MPD2    H712649   1.114   3.113  11.091 -0.1952 -0.8091 -1.1418
  862MPD2     C12650   0.878   3.246   9.944  0.2184  0.6608 -0.2063
  862MPD2    C112651   0.919   3.188  10.062  0.5127 -0.4941 -0.5219
  862MPD2    C212652   0.953   3.051  10.069  0.1165 -0.4004 -0.0769
  862MPD2    C312653   0.946   2.970   9.961 -0.1179  0.1246  0.0739
  862MPD2    C412654   0.922   3.032   9.839 -0.2068 -0.2608 -0.7115
  862MPD2    C512655   0.885   3.164   9.832 -0.6233 -0.4199  0.7932
  862MPD2     H12656   0.969   3.009  10.168 -1.7315 -0.6775  0.1074
  862MPD2    H112657   0.924   2.967   9.752 -0.3495 -1.7737  0.3975
  862MPD2    H212658   0.845   3.349   9.943 -0.4033  0.4350 -1.8059
  862MPD2    H312659   0.844   3.201   9.739 -1.4404  1.4709  1.9014
  862MPD2     N12660   0.986   2.836   9.963 -1.2311 -0.3615  0.0345
  862MPD2    H512661   0.980   2.786   9.875 -1.2191 -1.1431  0.4801
  862MPD2    N112662   0.917   3.255  10.187 -0.0384 -0.1979  0.1410
  862MPD2    H712663   0.938   3.192  10.264 -0.0745 -2.5144 -1.7537
  863MPD2     C12664   4.385   0.797  16.968 -0.0317  0.5097 -0.2673
  863MPD2    C112665   4.489   0.808  16.873  0.6154 -0.7608  0.8479
  863MPD2    C212666   4.610   0.747  16.898  0.0077 -0.0138  0.5961
  863MPD2    C312667   4.628   0.686  17.024 -0.6396  0.6824  0.6145
  863MPD2    C412668   4.528   0.682  17.116 -0.0300 -0.4525  0.2928
  863MPD2    C512669   4.405   0.731  17.083 -0.4605 -0.0588  0.0215
  863MPD2     H12670   4.692   0.751  16.828  0.7205 -1.9612  1.3275
  863MPD2    H112671   4.530   0.642  17.217  0.6817 -2.5361 -0.5331
  863MPD2    H212672   4.290   0.848  16.954 -1.0295 -1.0101  0.8367
  863MPD2    H312673   4.331   0.750  17.160 -1.3636  1.2338 -1.1669
  863MPD2     N12674   0.030   0.625  17.062 -0.5228  0.9165 -0.2615
  863MPD2    H512675   0.030   0.571  17.148 -2.1245  1.0723 -0.1614
  863MPD2    N112676   4.465   0.864  16.745  0.5205  0.1137 -0.6538
  863MPD2    H712677   4.368   0.887  16.724  0.2582  0.5032  0.9947
  864MPD2     C12678   0.450   2.012  17.194  0.4371  0.2318 -0.2788
  864MPD2    C112679   0.535   1.955  17.099 -0.4372 -0.4002 -0.0824
  864MPD2    C212680   0.624   2.043  17.040  0.3260  0.0030 -0.1969
  864MPD2    C312681   0.625   2.181  17.076 -0.4821 -0.3504  0.2226
  864MPD2    C412682   0.533   2.226  17.163 -0.3061  0.4085 -0.1341
  864MPD2    C512683   0.447   2.141  17.223  0.1771 -0.2313  0.4738
  864MPD2     H12684   0.677   2.009  16.952  2.3022 -0.1370  1.0526
  864MPD2    H112685   0.524   2.332  17.184  2.8779  0.5311  0.4916
  864MPD2    H212686   0.381   1.944  17.243  0.7877 -0.8118 -1.2369
  864MPD2    H312687   0.369   2.190  17.280 -0.2582  1.1848 -1.3457
  864MPD2     N12688   0.703   2.277  17.016 -0.3102 -0.5802  0.6546
  864MPD2    H512689   0.660   2.369  17.021 -1.5975 -1.1745  0.4993
  864MPD2    N112690   0.519   1.822  17.065 -0.9847  0.3334  0.2657
  864MPD2    H712691   0.465   1.760  17.124 -1.3332 -0.5928 -1.0125
  865MPD2     C12692   0.648   2.578  16.070  0.4914 -1.2400  0.0192
  865MPD2    C112693   0.620   2.466  16.147  0.3380 -0.3406 -0.4226
  865MPD2    C212694   0.656   2.458  16.280  0.2278  0.0837  0.7497
  865MPD2    C312695   0.710   2.573  16.342  0.0425 -0.0648  0.0792
  865MPD2    C412696   0.737   2.686  16.268 -0.0266  0.2300 -0.8225
  865MPD2    C512697   0.711   2.683  16.131  0.0039 -0.0806  0.2829
  865MPD2     H12698   0.650   2.361  16.329  0.1663 -0.7405 -0.8921
  865MPD2    H112699   0.785   2.775  16.307  0.0709 -0.7079  1.1680
  865MPD2    H212700   0.622   2.596  15.967  0.8260 -0.8802 -0.0003
  865MPD2    H312701   0.728   2.770  16.068 -0.7490 -0.3472 -0.2988
  865MPD2     N12702   0.741   2.587  16.475  0.0342  0.0684  0.3895
  865MPD2    H512703   0.786   2.670  16.513  0.5190 -0.1513  0.2920
  865MPD2    N112704   0.556   2.363  16.070  0.7065 -0.1869 -0.2388
  865MPD2    H712705   0.546   2.381  15.970 -1.1039 -0.1700 -0.0473
  866MPD2     C12706   1.465   3.656  11.639 -0.2059 -0.2651  0.2380
  866MPD2    C112707   1.531   3.691  11.519  0.3178  0.8255  0.8111
  866MPD2    C212708   1.453   3.735  11.416  0.2369 -0.3719 -0.0757
  866MPD2    C312709   1.314   3.747  11.429 -0.3845 -0.5186  0.6158
  866MPD2    C412710   1.250   3.723  11.552  0.0848 -0.1978  0.2386
  866MPD2    C512711   1.333   3.672  11.652  0.4588  0.0197 -0.2647
  866MPD2     H12712   1.494   3.722  11.316  0.6413  1.3111 -0.1291
  866MPD2    H112713   1.143   3.730  11.562 -0.1471 -0.3270 -2.3808
  866MPD2    H212714   1.515   3.595  11.714 -2.3444 -0.8464  1.1836
  866MPD2    H312715   1.293   3.650  11.750 -0.3906 -0.5865 -0.7487
  866MPD2     N12716   1.231   3.761  11.321 -0.6969  0.6996  0.0017
  866MPD2    H512717   1.131   3.752  11.333 -1.0418  1.5350 -2.2903
  866MPD2    N112718   1.662   3.660  11.498  0.0923  0.5165 -0.2062
  866MPD2    H712719   1.705   3.610  11.575  2.0769  1.9928 -0.3463
  867MPD2     C12720   4.251   1.912  16.146 -0.4612 -0.5609 -0.7367
  867MPD2    C112721   4.316   1.905  16.269 -0.1299 -0.1941  0.3476
  867MPD2    C212722   4.331   2.018  16.348  0.2745 -0.2239 -0.4471
  867MPD2    C312723   4.274   2.143  16.307  1.0434  0.3040 -0.5032
  867MPD2    C412724   4.211   2.147  16.183 -0.2191  0.2468  0.0357
  867MPD2    C512725   4.206   2.034  16.098 -0.7684 -0.1915  0.4130
  867MPD2     H12726   4.392   2.015  16.437 -0.6041 -0.9683  0.1252
  867MPD2    H112727   4.181   2.240  16.137 -0.2730 -0.2808 -0.9817
  867MPD2    H212728   4.239   1.820  16.090 -2.9870 -0.4907 -0.2989
  867MPD2    H312729   4.167   2.047  15.997 -0.4217 -1.3387  0.1356
  867MPD2     N12730   4.275   2.261  16.384  0.0256  0.1573 -1.2503
  867MPD2    H512731   4.245   2.351  16.346 -2.7316  0.6816  2.2219
  867MPD2    N112732   4.374   1.780  16.305 -0.2178  0.1525  0.3803
  867MPD2    H712733   4.366   1.702  16.241  1.6516 -0.5664  1.0181
  868MPD2     C12734   0.919   1.700  12.965 -0.5288  0.2140 -0.0137
  868MPD2    C112735   0.857   1.578  12.991 -0.5577 -0.1880  0.8361
  868MPD2    C212736   0.738   1.573  13.059 -0.5133 -0.5579 -0.1365
  868MPD2    C312737   0.674   1.687  13.096 -0.5443 -0.0024 -0.0425
  868MPD2    C412738   0.733   1.808  13.073 -0.0189 -0.2659  0.4168
  868MPD2    C512739   0.855   1.815  13.006  0.4543  0.5160 -0.1824
  868MPD2     H12740   0.697   1.475  13.080  0.6716 -1.2987 -1.2788
  868MPD2    H112741   0.686   1.899  13.109  0.2939  0.2605 -0.5045
  868MPD2    H212742   1.012   1.702  12.909 -1.4833 -0.7757 -1.6197
  868MPD2    H312743   0.891   1.916  12.988 -0.0948  0.5985 -0.8126
  868MPD2     N12744   0.544   1.674  13.151  0.2684  0.1363  0.6624
  868MPD2    H512745   0.498   1.587  13.129  1.7921 -0.1270 -1.4756
  868MPD2    N112746   0.933   1.467  12.949  0.0380 -0.6549  0.1731
  868MPD2    H712747   1.009   1.486  12.885 -0.6862 -2.8572 -1.3284
  869MPD2     C12748   2.348   2.792   1.704  0.7905  0.2562 -0.9210
  869MPD2    C112749   2.308   2.890   1.791  1.1390  0.1551  0.0412
  869MPD2    C212750   2.283   3.019   1.745 -0.1172  0.4369 -0.7248
  869MPD2    C312751   2.292   3.042   1.608 -0.3891 -0.6611 -0.6830
  869MPD2    C412752   2.337   2.941   1.525  0.1869 -0.1893  0.1766
  869MPD2    C512753   2.358   2.812   1.570 -0.6981  0.5954  0.2163
  869MPD2     H12754   2.239   3.095   1.808  0.7479 -0.3656  0.8458
  869MPD2    H112755   2.352   2.953   1.418 -0.3458 -0.9428  0.0180
  869MPD2    H212756   2.364   2.689   1.735  1.4455  1.0276  1.3055
  869MPD2    H312757   2.391   2.728   1.511 -0.0140  0.6301  0.5565
  869MPD2     N12758   2.281   3.169   1.551  0.1357 -0.4808 -0.0316
  869MPD2    H512759   2.325   3.188   1.461 -1.4281  0.8960 -0.5103
  869MPD2    N112760   2.289   2.851   1.930 -0.3008  0.1151  0.0118
  869MPD2    H712761   2.296   2.751   1.947 -1.8297  0.0358  0.0982
  870MPD2     C12762   2.688   2.445   1.919 -0.5498  0.3600  0.2217
  870MPD2    C112763   2.793   2.454   1.827  0.7019 -0.5250  0.2447
  870MPD2    C212764   2.813   2.577   1.775  0.4965 -0.3277  0.2576
  870MPD2    C312765   2.728   2.686   1.808  0.7540 -0.1719 -0.2777
  870MPD2    C412766   2.613   2.675   1.893 -0.0572 -0.5783 -0.0015
  870MPD2    C512767   2.596   2.547   1.948  0.5515  0.1068  0.2907
  870MPD2     H12768   2.888   2.596   1.699  0.7074  0.7067  0.7161
  870MPD2    H112769   2.535   2.749   1.904 -0.4263 -1.1816  1.4325
  870MPD2    H212770   2.654   2.351   1.962 -0.4018  0.4538  0.5414
  870MPD2    H312771   2.518   2.519   2.017 -0.1706 -0.2285 -0.6760
  870MPD2     N12772   2.759   2.814   1.745  0.3131  0.6121 -0.1372
  870MPD2    H512773   2.805   2.804   1.654  0.5777 -1.6584  0.2446
  870MPD2    N112774   2.877   2.342   1.799 -0.0440  0.2664  0.0252
  870MPD2    H712775   2.846   2.253   1.838  0.6171 -0.5179 -1.2285
  871MPD2     C12776   3.218   2.498  16.153 -0.0242 -0.2716 -0.1779
  871MPD2    C112777   3.221   2.390  16.238 -0.1161 -0.3479 -0.2980
  871MPD2    C212778   3.287   2.275  16.193  0.2363  0.4349 -0.4935
  871MPD2    C312779   3.350   2.266  16.076  0.1664 -0.5159 -0.8302
  871MPD2    C412780   3.357   2.374  15.997 -1.1182 -0.3935 -0.4058
  871MPD2    C512781   3.286   2.488  16.034 -0.4181  0.3069 -0.2382
  871MPD2     H12782   3.287   2.186  16.255  2.0932  2.4505  2.3786
  871MPD2    H112783   3.406   2.368  15.900  2.0802 -1.1183  1.2402
  871MPD2    H212784   3.177   2.592  16.187 -0.3519  0.3747 -2.3391
  871MPD2    H312785   3.284   2.575  15.970  0.6058  0.1277 -0.5177
  871MPD2     N12786   3.393   2.135  16.039  0.1262  0.0269  0.3905
  871MPD2    H512787   3.352   2.051  16.080 -1.1934 -0.3864 -1.7999
  871MPD2    N112788   3.172   2.397  16.376  0.3376 -0.0927 -0.3309
  871MPD2    H712789   3.138   2.489  16.404 -0.4906  0.0525 -1.7839
  872MPD2     C12790   3.550   0.594  13.862  0.1670 -0.0625 -0.7393
  872MPD2    C112791   3.562   0.480  13.792  0.0308  0.2439 -0.7723
  872MPD2    C212792   3.473   0.373  13.813 -0.0371  0.3040  0.3835
  872MPD2    C312793   3.388   0.380  13.918  0.5066  0.1533 -0.1171
  872MPD2    C412794   3.388   0.489  14.001  0.0231  0.4643 -0.1991
  872MPD2    C512795   3.461   0.599  13.968 -0.5228 -0.2929 -0.0136
  872MPD2     H12796   3.475   0.288  13.746 -0.3564  0.9023 -0.3872
  872MPD2    H112797   3.327   0.494  14.090  1.8191 -2.2147  1.1631
  872MPD2    H212798   3.612   0.682  13.847 -1.0652  0.8683 -0.4070
  872MPD2    H312799   3.455   0.687  14.031 -1.8721  0.2575 -0.9015
  872MPD2     N12800   3.314   0.271  13.966  0.3470 -0.2374 -0.0866
  872MPD2    H512801   3.264   0.285  14.053 -0.9871 -1.1970 -0.7047
  872MPD2    N112802   3.669   0.461  13.703  0.5349 -0.2632 -0.5205
  872MPD2    H712803   3.670   0.372  13.655 -2.1810  0.5349 -2.0493
  873MPD2     C12804   0.532   0.034   0.524 -0.3321 -0.2003  0.0603
  873MPD2    C112805   0.613   4.724   0.629  0.3984 -0.1690  0.5718
  873MPD2    C212806   0.689   4.609   0.624 -0.4072  0.2491  0.5733
  873MPD2    C312807   0.664   4.525   0.510  0.2337  0.2244 -0.0230
  873MPD2    C412808   0.570   4.551   0.415 -0.1276 -0.2800 -0.5717
  873MPD2    C512809   0.503   4.676   0.420  0.1835  0.3412  1.0389
  873MPD2     H12810   0.758   4.565   0.695 -2.0478 -0.7422  1.5492
  873MPD2    H112811   0.557   4.501   0.320 -0.9812 -1.6755  0.2919
  873MPD2    H212812   0.484   0.130   0.538  1.1628  0.8594 -2.0347
  873MPD2    H312813   0.433   4.698   0.340 -0.0973 -1.7957  0.7111
  873MPD2     N12814   0.759   4.419   0.481  0.0672 -0.3358 -0.1704
  873MPD2    H512815   0.728   4.343   0.421  1.6172 -0.0137 -1.3698
  873MPD2    N112816   0.625   0.084   0.744  0.0986 -0.0540 -0.8720
  873MPD2    H712817   0.572   0.170   0.743 -0.7391 -0.5517  0.6386
  874MPD2     C12818   0.561   0.014  15.658  0.3795 -0.3902  0.0580
  874MPD2    C112819   0.600   4.707  15.781  0.0483 -0.2671  0.4187
  874MPD2    C212820   0.716   0.043  15.828 -0.1908  0.4663  0.9966
  874MPD2    C312821   0.794   0.132  15.756  0.1543 -0.0709 -0.2746
  874MPD2    C412822   0.756   0.161  15.631  0.5264  0.4042 -0.0440
  874MPD2    C512823   0.639   0.099  15.585  0.2044  0.1729  0.1408
  874MPD2     H12824   0.745   0.017  15.929 -2.7463  0.0603  1.6366
  874MPD2    H112825   0.811   0.216  15.556 -0.0301  3.9886  2.1924
  874MPD2    H212826   0.472   4.702  15.610 -0.2063  1.8201 -0.6108
  874MPD2    H312827   0.609   0.113  15.482  1.7356  0.3681 -0.2825
  874MPD2     N12828   0.912   0.180  15.811  0.3003  0.2096  0.2804
  874MPD2    H512829   0.930   0.146  15.905 -2.1346  0.1925  0.7436
  874MPD2    N112830   0.519   4.616  15.855 -1.0305  0.2912  0.3884
  874MPD2    H712831   0.424   4.608  15.821 -0.7920 -0.2064 -0.1615
  875MPD2     C12832   0.831   2.933  14.458  0.8863  0.9300  0.1655
  875MPD2    C112833   0.933   3.004  14.392  0.4329 -0.0169 -0.6474
  875MPD2    C212834   0.993   3.106  14.464 -0.2146  0.3784 -0.6208
  875MPD2    C312835   0.968   3.132  14.597  0.5970 -0.5708 -0.0519
  875MPD2    C412836   0.878   3.050  14.657  0.5789  0.0602 -0.1311
  875MPD2    C512837   0.806   2.953  14.591 -0.1457  0.0703 -0.0238
  875MPD2     H12838   1.073   3.161  14.415  1.4948 -0.5613  1.0769
  875MPD2    H112839   0.865   3.050  14.765  0.2366  1.0135 -0.1779
  875MPD2    H212840   0.781   2.850  14.410  0.2427  1.6285 -0.3750
  875MPD2    H312841   0.753   2.880  14.652  0.7802 -0.5776  0.0203
  875MPD2     N12842   1.037   3.232  14.666  0.4962  0.7443  0.1538
  875MPD2    H512843   1.014   3.230  14.765  1.7637 -0.3017  0.4265
  875MPD2    N112844   0.969   2.983  14.257  0.4007  0.1256  0.3473
  875MPD2    H712845   1.038   3.046  14.218 -1.5829  1.3629 -1.1183
  876MPD2     C12846   0.291   4.184  15.707  0.1216  0.3180  0.1849
  876MPD2    C112847   0.422   4.228  15.686 -0.8146  0.2889 -0.7045
  876MPD2    C212848   0.519   4.187  15.774 -0.4338 -0.2211  0.3265
  876MPD2    C312849   0.489   4.106  15.885 -0.7598  0.3585  0.2726
  876MPD2    C412850   0.361   4.057  15.899 -0.4726 -0.2338  0.1297
  876MPD2    C512851   0.264   4.096  15.812 -0.4664  0.5460 -0.1464
  876MPD2     H12852   0.617   4.229  15.755 -0.6911  0.2255 -0.0004
  876MPD2    H112853   0.328   3.990  15.978 -1.3449  0.3617  0.2677
  876MPD2    H212854   0.210   4.217  15.642  2.1881  1.6487 -1.7348
  876MPD2    H312855   0.162   4.065  15.832  0.3081 -1.8405  0.0745
  876MPD2     N12856   0.594   4.060  15.970  0.0512  0.3278  0.2686
  876MPD2    H512857   0.686   4.076  15.931 -0.4317  0.2478 -0.8921
  876MPD2    N112858   0.437   4.308  15.570  0.6594  0.6978  1.0577
  876MPD2    H712859   0.350   4.312  15.519  1.7781  0.9663 -0.8467
  877MPD2     C12860   4.722   4.521  15.050  0.0069  0.0716 -0.4349
  877MPD2    C112861   0.125   4.545  14.997 -0.1722  0.2470 -0.3685
  877MPD2    C212862   0.130   4.552  14.863  0.1871  0.0921  0.2494
  877MPD2    C312863   0.018   4.531  14.783 -0.2078 -0.4835 -0.7002
  877MPD2    C412864   4.620   4.508  14.841 -0.3160 -0.0424 -0.0803
  877MPD2    C512865   4.613   4.511  14.972  0.0784 -0.4785  0.1907
  877MPD2     H12866   0.229   4.560  14.820 -0.3243 -1.4429 -1.2299
  877MPD2    H112867   4.527   4.501  14.786 -1.7467  1.7573  2.1285
  877MPD2    H212868   4.706   4.525  15.157 -0.4525 -3.6535 -0.3697
  877MPD2    H312869   4.517   4.488  15.016 -0.2726 -0.8825 -0.7923
  877MPD2     N12870   0.032   4.521  14.642 -0.2303 -0.2196 -0.1492
  877MPD2    H512871   4.681   4.488  14.584 -1.5537 -2.8426  3.1278
  877MPD2    N112872   0.237   4.557  15.082  0.3971 -0.0594  0.7398
  877MPD2    H712873   0.321   4.586  15.034  0.6721  0.4688  1.5492
  878MPD2     C12874   4.086   4.207  12.749 -0.1602  0.3587 -0.5034
  878MPD2    C112875   4.169   4.299  12.801 -0.6728  0.6221 -0.2393
  878MPD2    C212876   4.152   4.324  12.937  0.7067 -0.4074  0.2875
  878MPD2    C312877   4.068   4.249  13.020  0.4902 -0.1714 -0.4131
  878MPD2    C412878   3.981   4.166  12.960 -0.3853  0.1939  0.9003
  878MPD2    C512879   3.986   4.147  12.821  0.0630  0.5812 -0.1187
  878MPD2     H12880   4.211   4.403  12.981  1.2006 -0.2882 -0.5796
  878MPD2    H112881   3.922   4.093  13.015 -0.4820  0.1535  0.7438
  878MPD2    H212882   4.091   4.177  12.645 -0.1765  1.3655 -0.7852
  878MPD2    H312883   3.926   4.069  12.775  0.4835  1.0979 -1.5500
  878MPD2     N12884   4.071   4.266  13.160 -0.0113 -0.6198  0.2124
  878MPD2    H512885   4.141   4.325  13.202 -0.9282 -0.8034  1.9685
  878MPD2    N112886   4.246   4.366  12.713  0.4121 -0.8002  0.0801
  878MPD2    H712887   4.235   4.334  12.617  0.0095 -0.6431  0.0735
  879MPD2     C12888   1.046   1.093  16.799  0.5763  0.2152  0.2728
  879MPD2    C112889   1.016   1.003  16.899 -0.0243 -0.9463  0.4463
  879MPD2    C212890   0.930   0.900  16.866 -0.0278 -0.5777  0.6664
  879MPD2    C312891   0.867   0.891  16.739  0.2959 -0.7611  0.5497
  879MPD2    C412892   0.898   0.992  16.652  0.2430  0.1349 -0.2433
  879MPD2    C512893   0.991   1.093  16.677 -0.5133 -0.1547  0.4250
  879MPD2     H12894   0.909   0.834  16.949 -1.0147 -2.4302 -1.0474
  879MPD2    H112895   0.864   0.993  16.549  0.1984  0.6385 -0.2228
  879MPD2    H212896   1.114   1.176  16.814  0.1455  0.7711 -0.8137
  879MPD2    H312897   1.015   1.172  16.607 -1.0114 -1.1417 -0.8652
  879MPD2     N12898   0.784   0.783  16.699  0.3180  0.0512 -0.1813
  879MPD2    H512899   0.742   0.782  16.607  1.7861  1.0249 -0.8623
  879MPD2    N112900   1.082   1.018  17.018  0.2652  0.8618 -1.2340
  879MPD2    H712901   1.150   1.094  17.023  1.2804 -0.1288 -0.0306
  880MPD2     C12902   2.638   2.065   0.489 -0.2225  0.1061 -0.3658
  880MPD2    C112903   2.616   2.142   0.598  0.0138  0.5609  0.2852
  880MPD2    C212904   2.573   2.076   0.714  0.0746  0.0704  0.7255
  880MPD2    C312905   2.570   1.941   0.723 -0.0194  0.3820 -0.7568
  880MPD2    C412906   2.589   1.872   0.610  0.4189  0.0092  0.2109
  880MPD2    C512907   2.618   1.927   0.494  0.3875 -0.5652  0.2265
  880MPD2     H12908   2.545   2.131   0.803 -1.5977  0.4817 -0.0707
  880MPD2    H112909   2.605   1.764   0.610  2.9372  0.3837  2.5052
  880MPD2    H212910   2.678   2.104   0.395  0.6110  1.3924  0.5166
  880MPD2    H312911   2.627   1.864   0.406 -0.8095 -0.8769  0.3360
  880MPD2     N12912   2.521   1.881   0.835  0.1080  0.0611 -0.1857
  880MPD2    H512913   2.523   1.943   0.915 -0.2243  0.2017 -0.2893
  880MPD2    N112914   2.640   2.281   0.588  0.2237 -0.3766 -0.0351
  880MPD2    H712915   2.682   2.313   0.501  0.8485  0.2090  0.4912
  881MPD2     C12916   2.341   3.063   0.090 -1.1301 -0.1587 -0.0223
  881MPD2    C112917   2.403   2.952   0.045  0.7415  0.3946  0.4513
  881MPD2    C212918   2.462   2.872   0.141  0.6808  0.5042 -0.1972
  881MPD2    C312919   2.448   2.910   0.276  0.1010 -0.0884 -0.3264
  881MPD2    C412920   2.369   3.014   0.313 -0.3534 -0.2174  0.0223
  881MPD2    C512921   2.304   3.087   0.219  0.1338 -0.3157  0.1168
  881MPD2     H12922   2.538   2.799   0.115 -0.4580 -1.4126  1.8857
  881MPD2    H112923   2.353   3.056   0.412 -0.9303 -0.3872 -0.0013
  881MPD2    H212924   2.286   3.128   0.022  0.0394  0.0584 -0.7566
  881MPD2    H312925   2.239   3.168   0.248 -0.7575 -1.7564  2.1084
  881MPD2     N12926   2.533   2.851   0.377  0.1530  0.1547  0.1044
  881MPD2    H512927   2.530   2.895   0.469 -1.1643  0.4234 -0.0693
  881MPD2    N112928   2.422   2.939  17.615 -0.0478 -0.2694 -0.3934
  881MPD2    H712929   2.385   3.011  17.554  1.1647 -0.5539 -1.4502
  882MPD2     C12930   0.243   0.326  14.229  0.3728  0.3972  0.3249
  882MPD2    C112931   0.159   0.232  14.182 -0.5754  0.2267 -0.0219
  882MPD2    C212932   0.027   0.264  14.151  0.2420 -0.0608 -0.6567
  882MPD2    C312933   4.702   0.390  14.181 -0.4598 -0.0599 -0.6782
  882MPD2    C412934   0.058   0.472  14.257  1.0357 -0.1937  0.1112
  882MPD2    C512935   0.192   0.441  14.281 -0.6153  0.2967 -0.2016
  882MPD2     H12936   4.683   0.189  14.117  0.4190  0.0429 -1.2472
  882MPD2    H112937   0.020   0.562  14.305  1.5087 -1.5158  2.9765
  882MPD2    H212938   0.346   0.299  14.251  0.0026 -0.6425  0.7673
  882MPD2    H312939   0.251   0.507  14.343  2.0821  0.3826 -2.8950
  882MPD2     N12940   4.566   0.423  14.162  0.7011  0.2743  0.6168
  882MPD2    H512941   4.548   0.519  14.188  0.1784 -0.2906  2.3543
  882MPD2    N112942   0.214   0.103  14.179  0.2559  0.2927  0.6036
  882MPD2    H712943   0.310   0.093  14.208  0.4100  0.1123  0.0341
  883MPD2     C12944   2.574   0.308  16.291  0.0218  0.4585 -0.0077
  883MPD2    C112945   2.668   0.330  16.192  0.5168 -0.3774 -0.0391
  883MPD2    C212946   2.803   0.352  16.226  0.5072  0.2154 -0.0492
  883MPD2    C312947   2.848   0.349  16.358 -0.3294 -0.9650 -0.2916
  883MPD2    C412948   2.750   0.339  16.455 -0.4264 -0.3877  0.5570
  883MPD2    C512949   2.620   0.319  16.419  0.8439 -0.3005  0.4489
  883MPD2     H12950   2.877   0.382  16.153  0.1113 -0.6623 -0.7987
  883MPD2    H112951   2.769   0.340  16.562 -1.8838 -0.7762  0.8295
  883MPD2    H212952   2.468   0.286  16.280  0.0195  0.0933  0.7175
  883MPD2    H312953   2.553   0.311  16.504 -0.7501  0.0232 -0.7654
  883MPD2     N12954   2.990   0.376  16.387  0.8820  0.0485  0.6421
  883MPD2    H512955   3.051   0.402  16.311  1.5412  2.3014  1.9539
  883MPD2    N112956   2.635   0.338  16.054 -0.1203 -0.0345  0.3981
  883MPD2    H712957   2.710   0.375  15.996  0.0266  0.4378  0.8883
  884MPD2     C12958   4.349   0.702  15.014 -0.3915 -0.1346  0.2250
  884MPD2    C112959   4.355   0.842  15.017 -0.2928 -0.1214  0.1337
  884MPD2    C212960   4.249   0.912  15.074 -0.0207  0.9806 -0.0476
  884MPD2    C312961   4.140   0.841  15.120 -0.6077 -0.2592  0.3788
  884MPD2    C412962   4.146   0.703  15.129  0.1227 -0.0473  0.1495
  884MPD2    C512963   4.243   0.637  15.069 -0.1346  1.0267 -0.2997
  884MPD2     H12964   4.254   1.020  15.070  1.8798  0.9164  0.3577
  884MPD2    H112965   4.071   0.635  15.169  0.4011  0.7049  1.9815
  884MPD2    H212966   4.418   0.626  14.978  0.2360  0.4886  0.1202
  884MPD2    H312967   4.230   0.529  15.071  0.8543  0.9690  3.3429
  884MPD2     N12968   4.021   0.914  15.158 -0.4546  0.0680 -0.7527
  884MPD2    H512969   4.021   1.015  15.148 -0.4574 -0.0236 -1.6180
  884MPD2    N112970   4.469   0.909  14.964  0.1618 -0.1024  0.7461
  884MPD2    H712971   4.475   1.006  14.992  2.3393 -0.6882  2.2633
  885MPD2     C12972   2.635   0.914   0.004 -0.5135  0.1861  0.0781
  885MPD2    C112973   2.755   0.968  17.672  0.2183  0.3706 -0.4632
  885MPD2    C212974   2.774   1.001  17.541 -0.5785  0.2524  0.4052
  885MPD2    C312975   2.677   0.986  17.445 -0.2638 -1.0014  0.4895
  885MPD2    C412976   2.556   0.931  17.485  0.5495  0.1042 -0.0376
  885MPD2    C512977   2.537   0.897  17.616  0.5208 -0.0565  0.1726
  885MPD2     H12978   2.868   1.032  17.497 -2.2370  2.7212 -1.4098
  885MPD2    H112979   2.480   0.909  17.411 -0.4965  2.7728  0.2450
  885MPD2    H212980   2.621   0.880   0.106  2.0474 -2.1840 -0.3421
  885MPD2    H312981   2.447   0.844  17.644 -0.0590  1.3650  1.0331
  885MPD2     N12982   2.697   1.026  17.316  0.1618  0.1001  0.2836
  885MPD2    H512983   2.783   1.069  17.286 -0.7211  0.1117 -2.2257
  885MPD2    N112984   2.853   0.981   0.063  0.5817 -0.1730  0.4580
  885MPD2    H712985   2.836   0.955   0.159  1.5029 -1.1969  0.3563
  886MPD2     C12986   4.097   4.718  15.922  0.1321  0.3522  0.9239
  886MPD2    C112987   4.145   4.616  15.843 -0.3094 -0.3834  0.1304
  886MPD2    C212988   4.113   4.617  15.706  0.1395 -0.1887 -0.1216
  886MPD2    C312989   4.033   4.715  15.654  0.1933 -1.1995 -0.1489
  886MPD2    C412990   3.983   0.090  15.738  0.6107 -0.2794  0.3979
  886MPD2    C512991   3.999   0.074  15.871 -0.0831  0.4741  0.0911
  886MPD2     H12992   4.147   4.541  15.636  1.5257  0.6268 -0.3403
  886MPD2    H112993   3.906   0.157  15.701  1.1738  0.7714  1.1007
  886MPD2    H212994   4.108   4.714  16.030  1.7813  0.7172  0.7581
  886MPD2    H312995   3.929   0.129  15.932  0.8038  0.5892  1.0051
  886MPD2     N12996   4.020   4.707  15.511  0.9994 -0.4459  0.2162
  886MPD2    H512997   4.072   4.629  15.474  1.1223 -0.8229  1.1823
  886MPD2    N112998   4.250   4.536  15.882 -0.2808 -0.4968 -0.3809
  886MPD2    H712999   4.292   4.481  15.808 -1.1657 -0.0087 -1.2560
  887MPD2     C13000   4.522   4.653  15.449  0.3199 -0.1154  0.7612
  887MPD2    C113001   4.472   4.704  15.563 -0.3767 -0.5530  0.2514
  887MPD2    C213002   4.371   0.072  15.547 -0.3251 -0.7151 -0.2999
  887MPD2    C313003   4.343   0.131  15.423 -0.1570 -0.2301  0.3448
  887MPD2    C413004   4.405   0.081  15.306  0.1469  1.0219 -0.0208
  887MPD2    C513005   4.481   4.698  15.327  0.2847  0.2443 -0.4566
  887MPD2     H13006   4.328   0.109  15.640  0.2542 -1.5683  0.3129
  887MPD2    H113007   4.389   0.110  15.202  1.0789  0.1125 -0.4120
  887MPD2    H213008   4.607   4.585  15.451  0.1330 -0.2982  2.3703
  887MPD2    H313009   4.528   4.644  15.246  0.7543  1.0905 -0.7501
  887MPD2     N13010   4.252   0.238  15.415  0.5024  0.2774  0.0889
  887MPD2    H513011   4.190   0.257  15.493  0.3638 -1.4558  0.3972
  887MPD2    N113012   4.516   4.673  15.696 -0.1297 -0.0142 -0.5106
  887MPD2    H713013   4.463   0.002  15.763 -2.0391 -1.0359 -1.1860
  888MPD2     C13014   1.372   4.455  14.407 -0.0326  0.2721 -0.0695
  888MPD2    C113015   1.425   4.463  14.529 -0.7523 -0.4725 -0.5546
  888MPD2    C213016   1.496   4.574  14.577 -0.2100  0.1827 -0.6302
  888MPD2    C313017   1.499   4.685  14.495  0.3010  0.7069 -0.1080
  888MPD2    C413018   1.461   4.674  14.363  0.1217 -0.0271  0.1433
  888MPD2    C513019   1.393   4.562  14.323  0.1728  0.1283  0.6043
  888MPD2     H13020   1.538   4.562  14.676  1.5462 -1.6825 -1.5897
  888MPD2    H113021   1.462   0.026  14.288  2.6188 -0.3152 -0.1049
  888MPD2    H213022   1.318   4.370  14.368  0.5405  0.0613 -0.4004
  888MPD2    H313023   1.376   4.562  14.216  0.1674 -0.9312  0.6099
  888MPD2     N13024   1.556   0.071  14.556 -0.1201  0.0844 -0.9245
  888MPD2    H513025   1.574   0.073  14.656 -4.7769 -0.8225 -0.0743
  888MPD2    N113026   1.425   4.352  14.615 -0.3945  0.1769  0.2000
  888MPD2    H713027   1.472   4.358  14.705  1.4988 -1.7853 -0.6507
  889MPD2     C13028   0.536   4.037  13.092 -0.3522 -0.1868  0.0937
  889MPD2    C113029   0.658   3.962  13.095 -0.0347  0.7485 -0.3638
  889MPD2    C213030   0.773   4.028  13.128  0.4090  0.0644  0.7449
  889MPD2    C313031   0.779   4.163  13.161 -0.3745  0.1962  0.1055
  889MPD2    C413032   0.660   4.239  13.138 -0.3066  0.4037  0.0715
  889MPD2    C513033   0.543   4.175  13.098  0.2542  0.0415 -0.3995
  889MPD2     H13034   0.862   3.967  13.134 -0.4108 -1.2447 -0.2643
  889MPD2    H113035   0.664   4.347  13.124 -0.9572  0.5063  0.6391
  889MPD2    H213036   0.442   3.990  13.068 -0.1598 -0.1237 -0.8059
  889MPD2    H313037   0.451   4.231  13.085  1.5017  2.1655  0.0145
  889MPD2     N13038   0.895   4.236  13.179 -0.4142  0.3258 -0.2236
  889MPD2    H513039   0.887   4.337  13.180  1.8898  0.5116 -0.8336
  889MPD2    N113040   0.661   3.817  13.106  1.0371  0.3629  0.1435
  889MPD2    H713041   0.755   3.782  13.119  1.2284  1.6963  2.4097
  890MPD2     C13042   0.161   0.742  14.586  0.5308 -0.6865  0.0049
  890MPD2    C113043   0.294   0.744  14.615  1.5676  0.0715  0.7157
  890MPD2    C213044   0.345   0.639  14.701  0.3139 -0.2928 -0.2884
  890MPD2    C313045   0.265   0.552  14.770 -0.0233 -0.4089  0.5435
  890MPD2    C413046   0.132   0.560  14.746 -0.1947  0.1480 -0.2433
  890MPD2    C513047   0.089   0.648  14.649  0.0060  0.6558 -0.0632
  890MPD2     H13048   0.447   0.647  14.735  0.5342 -0.1731 -0.9733
  890MPD2    H113049   0.073   0.481  14.791 -1.3956  1.8475  1.1313
  890MPD2    H213050   0.104   0.797  14.511  1.2952  1.4628  1.0043
  890MPD2    H313051   4.712   0.642  14.616  0.4554  1.2499 -1.5813
  890MPD2     N13052   0.322   0.454  14.853 -0.2443 -0.5280  0.0765
  890MPD2    H513053   0.423   0.438  14.855  0.0045  1.0240 -0.7585
  890MPD2    N113054   0.372   0.845  14.554  1.0431  0.1968 -0.2119
  890MPD2    H713055   0.320   0.925  14.520 -0.7054 -1.1096 -0.5936
  891MPD2     C13056   3.312   3.430  16.921 -0.0765 -0.7868 -0.2395
  891MPD2    C113057   3.260   3.518  17.014  0.0117  0.7818 -0.5790
  891MPD2    C213058   3.344   3.581  17.111 -0.4168  0.0676  0.0517
  891MPD2    C313059   3.477   3.561  17.104  0.5255 -0.1433 -0.1429
  891MPD2    C413060   3.524   3.469  17.016  0.1694  0.0634 -0.3900
  891MPD2    C513061   3.443   3.408  16.923 -0.0520  0.4292 -0.3304
  891MPD2     H13062   3.299   3.651  17.180  0.8253 -0.2980  1.2467
  891MPD2    H113063   3.630   3.450  17.003  0.6598  3.3117 -1.1334
  891MPD2    H213064   3.254   3.374  16.849  0.3942 -2.2729  0.5288
  891MPD2    H313065   3.489   3.346  16.847 -1.9918 -1.2709 -0.1052
  891MPD2     N13066   3.560   3.640  17.188 -0.1548 -0.5264  0.6280
  891MPD2    H513067   3.521   3.696  17.263  0.0327  0.8543 -0.3217
  891MPD2    N113068   3.127   3.556  16.992 -0.2004 -0.4658 -0.1655
  891MPD2    H713069   3.086   3.517  16.908 -0.8411 -1.4204  0.5964
  892MPD2     C13070   4.163   0.329  14.897  0.2270 -0.0219  0.2558
  892MPD2    C113071   4.081   0.429  14.845  0.3133 -0.1070 -0.6291
  892MPD2    C213072   4.095   0.454  14.708 -0.3907  0.0351  0.6579
  892MPD2    C313073   4.200   0.402  14.631  0.5457 -0.1078 -0.9921
  892MPD2    C413074   4.283   0.308  14.693 -0.8868 -0.1511 -0.1263
  892MPD2    C513075   4.257   0.269  14.820  0.5905 -0.3809 -0.1812
  892MPD2     H13076   4.029   0.531  14.668 -0.8823 -1.3070 -1.1393
  892MPD2    H113077   4.363   0.256  14.642 -0.3641  0.9533 -0.4336
  892MPD2    H213078   4.155   0.291  14.998 -1.2166  1.3671  0.6718
  892MPD2    H313079   4.328   0.203  14.869  0.5824 -0.3069 -0.0685
  892MPD2     N13080   4.214   0.413  14.491 -0.0227 -0.2150  0.0946
  892MPD2    H513081   4.297   0.364  14.459  1.3834  0.2220  3.0945
  892MPD2    N113082   3.969   0.480  14.909 -0.3259  1.0252 -0.0918
  892MPD2    H713083   3.915   0.548  14.857 -1.4235  1.6170  1.8555
  893MPD2     C13084   3.158   2.070   2.010  0.0431  0.0153  0.0748
  893MPD2    C113085   3.246   2.169   1.980 -0.5160  0.0602 -0.8410
  893MPD2    C213086   3.364   2.137   1.914  0.8606  0.4840 -0.6707
  893MPD2    C313087   3.386   2.003   1.880 -0.3929 -0.2368  0.5559
  893MPD2    C413088   3.286   1.911   1.910  0.2623 -0.0544 -0.3833
  893MPD2    C513089   3.172   1.944   1.976 -0.4753  0.6428 -0.6840
  893MPD2     H13090   3.437   2.212   1.885  0.0766  0.9709 -1.3609
  893MPD2    H113091   3.294   1.807   1.881  0.3194 -0.2103  0.1918
  893MPD2    H213092   3.068   2.095   2.065 -0.3502 -1.0090 -0.1067
  893MPD2    H313093   3.094   1.873   2.002 -1.3450  1.4479 -1.1277
  893MPD2     N13094   3.507   1.960   1.815  0.5602 -0.4490  0.1771
  893MPD2    H513095   3.510   1.871   1.767  1.3257 -1.0085  1.2671
  893MPD2    N113096   3.210   2.307   2.018 -0.5920  0.2999  0.1870
  893MPD2    H713097   3.129   2.318   2.078 -1.5767  0.0078 -1.1086
  894MPD2     C13098   4.313   0.873   1.022 -0.5735 -0.4925  0.2428
  894MPD2    C113099   4.378   0.921   1.128  0.0721 -0.5075 -0.2850
  894MPD2    C213100   4.442   1.046   1.124  0.6061  0.0798 -0.3606
  894MPD2    C313101   4.430   1.122   1.006 -0.2489  0.2362  0.2212
  894MPD2    C413102   4.357   1.070   0.899 -0.6897  0.0975 -0.0809
  894MPD2    C513103   4.287   0.950   0.909  0.5025  0.5494  0.0732
  894MPD2     H13104   4.497   1.085   1.209  1.8379  0.1024 -1.1703
  894MPD2    H113105   4.343   1.133   0.812 -0.4444 -2.3503 -1.8867
  894MPD2    H213106   4.261   0.778   1.025 -0.4577 -0.5800 -0.4843
  894MPD2    H313107   4.231   0.909   0.826  2.0916  0.6858 -1.0812
  894MPD2     N13108   4.491   1.249   1.011 -0.1679  0.3504  0.0034
  894MPD2    H513109   4.545   1.266   1.095  1.0118  0.5000 -0.7906
  894MPD2    N113110   4.379   0.851   1.250  0.9348  0.6232  0.1793
  894MPD2    H713111   4.403   0.904   1.332  1.8828  0.8225 -0.2289
  895MPD2     C13112   2.765   4.452  13.948  0.4258  0.0724  0.5348
  895MPD2    C113113   2.748   4.502  13.823 -0.4261 -0.0640 -0.1561
  895MPD2    C213114   2.860   4.497  13.739  0.2638  0.0922 -0.2216
  895MPD2    C313115   2.979   4.433  13.765  0.1310  0.2470  0.0888
  895MPD2    C413116   2.994   4.383  13.891 -0.2101 -0.1445  0.1750
  895MPD2    C513117   2.893   4.402  13.980 -0.6797  0.5494  0.3009
  895MPD2     H13118   2.841   4.512  13.633  1.3063  0.2662 -0.3905
  895MPD2    H113119   3.087   4.340  13.927  0.7960  0.3229 -1.8836
  895MPD2    H213120   2.692   4.458  14.027  0.5046  0.4212  0.5849
  895MPD2    H313121   2.918   4.370  14.080  0.5790  0.7504  0.0467
  895MPD2     N13122   3.081   4.412  13.669 -0.0341 -0.7381  0.0493
  895MPD2    H513123   3.140   4.330  13.685 -1.2894 -1.7164 -0.3725
  895MPD2    N113124   2.617   4.528  13.770  0.6349  0.3128  1.0647
  895MPD2    H713125   2.623   4.573  13.679  1.6076  1.6930  1.7999
  896MPD2     C13126   1.687   2.086   1.785 -0.0105  0.0548  0.1732
  896MPD2    C113127   1.683   2.034   1.657  1.1727  0.3326 -0.3668
  896MPD2    C213128   1.556   1.998   1.610  0.0683  0.2492 -0.1415
  896MPD2    C313129   1.438   1.992   1.695  0.1445 -0.1505  0.0985
  896MPD2    C413130   1.459   2.050   1.821  0.3331 -0.2926  0.8364
  896MPD2    C513131   1.582   2.095   1.861  0.4120 -0.3206 -0.7551
  896MPD2     H13132   1.547   1.967   1.507 -2.6588  2.0718 -0.4471
  896MPD2    H113133   1.385   2.038   1.900  0.2068  2.7056  1.1495
  896MPD2    H213134   1.777   2.133   1.823 -0.1255 -0.9919  1.7357
  896MPD2    H313135   1.597   2.132   1.962 -2.9329 -0.1916 -0.3224
  896MPD2     N13136   1.320   1.933   1.653 -0.3225  0.1555  0.1021
  896MPD2    H513137   1.323   1.882   1.565 -0.4458 -0.7746  0.6380
  896MPD2    N113138   1.797   2.022   1.580  0.6670 -0.4354 -0.5435
  896MPD2    H713139   1.885   2.033   1.629 -1.0964  2.4349  1.9811
  897MPD2     C13140   1.872   3.689  10.546  0.1001  0.6241 -0.4800
  897MPD2    C113141   1.901   3.822  10.533  0.5962  0.1978 -0.4565
  897MPD2    C213142   1.809   3.917  10.571  0.1699  0.3523  0.5724
  897MPD2    C313143   1.694   3.884  10.647  0.1593 -0.3084  0.0377
  897MPD2    C413144   1.662   3.747  10.665 -0.2100 -0.0234  0.2357
  897MPD2    C513145   1.752   3.654  10.617 -0.6937  0.6473  0.0044
  897MPD2     H13146   1.842   4.020  10.572  0.6550  0.2079 -0.5435
  897MPD2    H113147   1.573   3.717  10.720 -0.6444  0.1178 -0.3918
  897MPD2    H213148   1.943   3.609  10.526 -0.5126  0.1795 -0.8967
  897MPD2    H313149   1.716   3.553  10.630 -0.2026  0.7795  2.4563
  897MPD2     N13150   1.610   3.992  10.691 -0.0612 -0.3469  0.5400
  897MPD2    H513151   1.622   4.086  10.654  2.1763 -0.4068  1.1475
  897MPD2    N113152   2.020   3.869  10.469  0.4413 -0.4914 -0.5125
  897MPD2    H713153   2.032   3.970  10.466 -3.3019 -0.0498 -0.2881
  898MPD2     C13154   3.793   4.723   0.092  0.0353  0.3204  0.5708
  898MPD2    C113155   3.878   4.675  17.697 -0.1114  0.2917  0.2268
  898MPD2    C213156   3.909   0.035  17.591 -0.4303  0.0892 -0.5085
  898MPD2    C313157   3.855   0.154  17.569  1.3172 -0.5023 -0.5033
  898MPD2    C413158   3.761   0.196  17.668 -0.4985 -0.2646  0.1495
  898MPD2    C513159   3.726   0.115   0.062  0.4040 -0.8994 -1.1534
  898MPD2     H13160   3.983   0.003  17.518 -0.9525  0.3673 -1.1582
  898MPD2    H113161   3.706   0.288  17.653  0.0301  0.3533  2.0395
  898MPD2    H213162   3.764   4.662   0.176 -1.8416  0.3579 -0.0454
  898MPD2    H313163   3.656   0.152   0.136  1.7661 -2.2873  0.8610
  898MPD2     N13164   3.890   0.228  17.453 -0.0585  0.1048  0.1219
  898MPD2    H513165   3.954   0.185  17.387 -0.8600 -1.6239  0.4879
  898MPD2    N113166   3.941   4.549  17.699  0.3800  0.0206 -0.0222
  898MPD2    H713167   3.993   4.519  17.618 -0.1282 -0.2808 -0.2385
  899MPD2     C13168   0.031   0.139  17.440 -0.7219 -0.0149  0.3185
  899MPD2    C113169   0.092   0.256  17.477  0.5842 -0.2747 -0.3164
  899MPD2    C213170   0.084   0.300  17.608  0.2030 -0.3301  0.1492
  899MPD2    C313171   0.004   0.229  17.696 -0.1712  0.3120 -0.1701
  899MPD2    C413172   4.682   0.102  17.659  0.2522 -0.3356  0.0479
  899MPD2    C513173   4.696   0.064  17.535  0.0023 -0.4483 -0.3032
  899MPD2     H13174   0.148   0.382  17.638  0.4243  0.1812 -1.7381
  899MPD2    H113175   4.628   0.036   0.019  0.0470  1.4910  1.7095
  899MPD2    H213176   0.042   0.094  17.342 -2.0196  1.8884 -0.6967
  899MPD2    H313177   4.653   4.696  17.500 -1.3710 -0.5211  1.5834
  899MPD2     N13178   4.697   0.276   0.119 -0.3446 -0.6252 -0.5371
  899MPD2    H513179   4.646   0.223   0.190 -0.6484  1.6343  0.9332
  899MPD2    N113180   0.157   0.330  17.374 -0.6899 -0.3394 -0.0057
  899MPD2    H713181   0.134   0.311  17.277  0.7522 -1.0333 -0.2229
  900MPD2     C13182   4.177   2.657  12.219  0.2159 -0.0183  0.0092
  900MPD2    C113183   4.088   2.555  12.197 -0.8847 -0.2488  0.2667
  900MPD2    C213184   3.959   2.588  12.148 -0.9328 -0.6119  0.3757
  900MPD2    C313185   3.912   2.718  12.140  0.4255 -0.7397 -0.2020
  900MPD2    C413186   4.005   2.823  12.167 -0.4653 -0.1642  0.4942
  900MPD2    C513187   4.137   2.788  12.197 -0.0849  1.3351  0.1468
  900MPD2     H13188   3.896   2.505  12.117 -1.4837 -0.3474  0.8064
  900MPD2    H113189   3.994   2.929  12.144  0.0838 -0.6281 -1.9130
  900MPD2    H213190   4.279   2.649  12.255 -0.4826 -2.2054  1.5117
  900MPD2    H313191   4.214   2.864  12.204 -0.9564  2.2203  0.0192
  900MPD2     N13192   3.781   2.739  12.097  0.1880 -0.0351 -0.5351
  900MPD2    H513193   3.723   2.658  12.080  2.2861 -2.0936  1.9937
  900MPD2    N113194   4.136   2.426  12.209 -0.1943 -0.0734 -1.0491
  900MPD2    H713195   4.226   2.423  12.256 -0.8634  1.4019  0.3291
  901MPD2     C13196   3.859   1.343  12.208  0.0570 -0.2552  0.4031
  901MPD2    C113197   3.994   1.347  12.250 -0.0825  0.2731 -0.5369
  901MPD2    C213198   4.051   1.472  12.272 -0.0182  0.0581 -0.5076
  901MPD2    C313199   3.987   1.593  12.235  0.4821  0.3144  0.1480
  901MPD2    C413200   3.857   1.583  12.199  0.2959 -0.5242 -0.2556
  901MPD2    C513201   3.793   1.460  12.190  0.4579 -1.0683  0.2937
  901MPD2     H13202   4.155   1.485  12.300  0.7305  0.6287 -3.5494
  901MPD2    H113203   3.788   1.665  12.185 -0.2287 -0.4824  2.4931
  901MPD2    H213204   3.796   1.255  12.215 -1.8634  1.0333 -0.7416
  901MPD2    H313205   3.687   1.457  12.168  0.5975 -2.2349 -0.2561
  901MPD2     N13206   4.060   1.715  12.233 -0.4029 -0.4917 -0.5359
  901MPD2    H513207   4.158   1.701  12.254 -1.1565 -2.3903  1.6724
  901MPD2    N113208   4.050   1.222  12.278  0.0994 -0.4343  0.1180
  901MPD2    H713209   3.995   1.139  12.256 -2.2525  0.4781  2.5469
  902MPD2     C13210   3.275   4.303  12.540  0.2133 -0.5385  0.2930
  902MPD2    C113211   3.296   4.380  12.429 -0.2174  0.3804 -0.1547
  902MPD2    C213212   3.383   4.341  12.331  0.1478 -0.2268  0.5866
  902MPD2    C313213   3.459   4.227  12.347  0.6057  0.8975 -0.3497
  902MPD2    C413214   3.447   4.155  12.464  0.0349  0.3092 -0.4889
  902MPD2    C513215   3.357   4.193  12.559 -0.5549 -0.2102 -0.6604
  902MPD2     H13216   3.399   4.389  12.235  0.1716  1.8472  1.6428
  902MPD2    H113217   3.508   4.067  12.475  1.5882  1.7362  2.2685
  902MPD2    H213218   3.209   4.343  12.617 -0.1274  0.0749 -0.3125
  902MPD2    H313219   3.345   4.132  12.648  1.6327  0.4261  0.0612
  902MPD2     N13220   3.556   4.184  12.256 -0.0480  0.1756  0.8756
  902MPD2    H513221   3.593   4.090  12.260  3.0263  1.3101 -0.6747
  902MPD2    N113222   3.215   4.499  12.424 -0.1937  0.2116  0.0945
  902MPD2    H713223   3.169   4.530  12.509  0.4552  0.7125  0.2598
  903MPD2     C13224   3.435   3.875  11.599  0.9598  0.3773 -0.9935
  903MPD2    C113225   3.401   3.950  11.707 -0.3814  0.2757 -0.3581
  903MPD2    C213226   3.274   3.990  11.718  0.3675 -0.4375  0.0608
  903MPD2    C313227   3.180   3.965  11.626  0.2455  0.1865 -0.1843
  903MPD2    C413228   3.211   3.887  11.520 -0.6966  0.8728  0.1671
  903MPD2    C513229   3.336   3.837  11.507  0.5875  0.1355  0.3419
  903MPD2     H13230   3.243   4.052  11.801 -0.3092 -0.7231  0.0190
  903MPD2    H113231   3.142   3.852  11.443  1.0342 -0.4779 -0.7765
  903MPD2    H213232   3.536   3.839  11.582  1.0211 -0.0157  0.1896
  903MPD2    H313233   3.370   3.783  11.420 -0.1142  3.8149 -2.1995
  903MPD2     N13234   3.056   4.014  11.650 -0.2694  0.2217  0.4275
  903MPD2    H513235   3.032   4.048  11.742 -2.0452 -0.0862  0.0788
  903MPD2    N113236   3.498   3.992  11.808  0.2840 -0.3198 -0.4395
  903MPD2    H713237   3.464   4.054  11.881  1.8708 -2.2973  1.9656
  904MPD2     C13238   2.790   3.946  13.809 -0.7091  0.1948 -0.3696
  904MPD2    C113239   2.854   3.852  13.898  0.9341 -0.1248  0.4295
  904MPD2    C213240   2.995   3.867  13.908  0.5531 -0.3072 -0.2442
  904MPD2    C313241   3.057   3.982  13.870 -0.3907  0.0984  0.1742
  904MPD2    C413242   2.982   4.074  13.795  0.4256  0.8033 -0.3305
  904MPD2    C513243   2.851   4.052  13.761 -0.4157  0.4346 -0.0703
  904MPD2     H13244   3.053   3.808  13.979  1.0526 -2.4014 -2.3756
  904MPD2    H113245   3.031   4.157  13.746  1.1092 -0.1206 -1.2158
  904MPD2    H213246   2.696   3.917  13.763 -0.6107 -3.5626  1.8825
  904MPD2    H313247   2.795   4.123  13.701 -0.7054 -0.5150 -0.9234
  904MPD2     N13248   3.198   3.996  13.889  0.1986  0.1303  0.2397
  904MPD2    H513249   3.234   3.917  13.941 -0.8496  0.3659  1.3094
  904MPD2    N113250   2.784   3.764  13.987 -0.3047 -0.7351  0.0526
  904MPD2    H713251   2.847   3.701  14.036 -0.4828 -0.6943  0.3347
  905MPD2     C13252   2.469   3.844  13.427 -0.5550  0.7388 -0.0985
  905MPD2    C113253   2.510   3.952  13.508 -0.2833  0.1444 -1.0725
  905MPD2    C213254   2.597   4.045  13.460  0.1470  0.6949  0.1546
  905MPD2    C313255   2.654   4.024  13.334 -0.0303 -0.5880  0.9971
  905MPD2    C413256   2.620   3.912  13.262 -0.0617 -0.5724  0.6576
  905MPD2    C513257   2.526   3.827  13.304  0.3526  0.0830  0.1867
  905MPD2     H13258   2.639   4.129  13.513  0.9278  0.5961 -0.3072
  905MPD2    H113259   2.677   3.888  13.173 -0.0565  1.8917 -0.0040
  905MPD2    H213260   2.397   3.767  13.453 -1.8643  1.7329 -0.7906
  905MPD2    H313261   2.502   3.744  13.239 -0.4796  0.7589 -0.3805
  905MPD2     N13262   2.756   4.104  13.278 -0.0576  0.4592 -0.2007
  905MPD2    H513263   2.805   4.069  13.196 -1.5170  1.1025 -1.3420
  905MPD2    N113264   2.455   3.960  13.641  0.3945 -0.6195  0.4848
  905MPD2    H713265   2.392   3.887  13.673 -1.6071  0.2979 -1.2879
  906MPD2     C13266   0.305   4.193  11.075 -0.2206 -0.1850  0.0157
  906MPD2    C113267   0.318   4.075  11.014  0.6327 -0.2432  0.7517
  906MPD2    C213268   0.280   3.962  11.075 -0.0485  0.2579 -0.0188
  906MPD2    C313269   0.226   3.963  11.198  0.0344 -0.2998 -0.2887
  906MPD2    C413270   0.192   4.083  11.250 -0.1143 -0.3158  0.4212
  906MPD2    C513271   0.239   4.200  11.193  0.5378  0.2819 -0.2043
  906MPD2     H13272   0.299   3.869  11.023 -1.8550 -0.3644  0.4247
  906MPD2    H113273   0.138   4.089  11.344 -0.1303  0.7055  0.3535
  906MPD2    H213274   0.334   4.288  11.030 -0.7026 -0.0883 -0.0947
  906MPD2    H313275   0.233   4.299  11.237 -0.3297 -0.1797  0.7142
  906MPD2     N13276   0.202   3.846  11.270 -0.1152  0.8276  0.1689
  906MPD2    H513277   0.152   3.851  11.357 -2.3667 -0.0707 -1.0898
  906MPD2    N113278   0.378   4.054  10.884  0.1445 -0.0491 -0.4062
  906MPD2    H713279   0.387   3.957  10.857 -0.0080  0.4441 -2.2356
  907MPD2     C13280   4.244   3.003  15.136 -0.1080  0.1819 -0.1609
  907MPD2    C113281   4.348   2.911  15.139 -0.5069 -0.0513 -0.0406
  907MPD2    C213282   4.444   2.924  15.241  0.0445  1.1245 -0.1698
  907MPD2    C313283   4.445   3.024  15.334  0.0937 -0.4734  0.1186
  907MPD2    C413284   4.334   3.100  15.337  0.1493  0.6246 -0.2520
  907MPD2    C513285   4.239   3.096  15.239 -0.1102 -0.0141  0.8541
  907MPD2     H13286   4.519   2.846  15.237  1.2949  2.3336 -0.4365
  907MPD2    H113287   4.330   3.183  15.407  0.8328  1.2996 -1.0231
  907MPD2    H213288   4.164   2.998  15.063  0.2946  1.7419 -0.6895
  907MPD2    H313289   4.160   3.168  15.254 -0.1149  0.0332  0.6035
  907MPD2     N13290   4.541   3.026  15.433 -0.0511  0.3062 -0.1355
  907MPD2    H513291   4.622   2.965  15.425 -0.9479 -0.9836  0.6456
  907MPD2    N113292   4.353   2.808  15.042 -0.1394 -0.3389  0.4487
  907MPD2    H713293   4.427   2.740  15.058 -0.8231 -0.8582  1.4333
  908MPD2     C13294   2.782   3.600   9.825  0.2120  0.0309 -0.2711
  908MPD2    C113295   2.692   3.512   9.889 -0.1584  0.1600 -0.4828
  908MPD2    C213296   2.616   3.559   9.995 -0.2462 -0.0535  0.4022
  908MPD2    C313297   2.635   3.690  10.037 -0.6917  0.2271 -0.1975
  908MPD2    C413298   2.728   3.772   9.978 -0.6560  0.0398 -0.4565
  908MPD2    C513299   2.803   3.727   9.869  0.5421 -0.2350  0.1295
  908MPD2     H13300   2.552   3.501  10.060 -1.7921  1.6210  0.3705
  908MPD2    H113301   2.750   3.869  10.022 -1.2318  0.0062 -0.0846
  908MPD2    H213302   2.848   3.554   9.752 -1.6294  1.9399 -3.1435
  908MPD2    H313303   2.883   3.784   9.824 -1.7997  2.7495 -0.2177
  908MPD2     N13304   2.545   3.730  10.142  0.0785  0.4009  0.2058
  908MPD2    H513305   2.473   3.666  10.174 -0.2604  1.1401  0.9270
  908MPD2    N113306   2.679   3.384   9.833 -0.4108 -0.0553  0.7637
  908MPD2    H713307   2.724   3.357   9.746 -0.4456  0.4790  0.5766
  909MPD2     C13308   2.048   1.756  11.821 -0.4757 -0.2022  0.0175
  909MPD2    C113309   2.037   1.874  11.760  0.1438 -0.0933  0.5156
  909MPD2    C213310   1.954   1.968  11.807  0.5409 -0.0941 -0.2899
  909MPD2    C313311   1.884   1.944  11.929 -0.0435  0.0080 -0.5913
  909MPD2    C413312   1.904   1.829  11.989 -0.9056  0.2193 -0.3930
  909MPD2    C513313   1.995   1.734  11.939  0.5596  0.0567 -0.1363
  909MPD2     H13314   1.930   2.060  11.756 -2.4386 -1.7178 -1.8267
  909MPD2    H113315   1.858   1.795  12.081  1.0963 -0.5991  0.3061
  909MPD2    H213316   2.123   1.683  11.796  0.2833  0.0384  1.5389
  909MPD2    H313317   2.006   1.634  11.979  0.8502  0.1260 -0.0395
  909MPD2     N13318   1.794   2.038  11.973 -0.1760  0.0473  0.1081
  909MPD2    H513319   1.770   2.108  11.904 -1.2198 -0.6877 -0.2702
  909MPD2    N113320   2.096   1.895  11.630 -0.2060 -0.6927  0.3320
  909MPD2    H713321   2.066   1.972  11.572  0.3220 -1.6549 -1.2242
  910MPD2     C13322   3.786   3.504  15.917 -0.3480 -0.3853  0.4473
  910MPD2    C113323   3.850   3.512  15.802  0.2480 -0.3196  0.1712
  910MPD2    C213324   3.779   3.562  15.694  0.4501  0.2704  0.7777
  910MPD2    C313325   3.655   3.610  15.703 -0.6280  0.1219 -0.1977
  910MPD2    C413326   3.590   3.611  15.823  0.2001 -0.3834  0.4933
  910MPD2    C513327   3.653   3.552  15.930  0.4093 -0.5324  0.2624
  910MPD2     H13328   3.825   3.552  15.596 -0.8027 -0.6595  0.2902
  910MPD2    H113329   3.497   3.665  15.842  0.5113  0.1069  0.6198
  910MPD2    H213330   3.820   3.442  15.999  1.5103  0.5996  0.4331
  910MPD2    H313331   3.586   3.544  16.015  1.0678  0.9832  0.9059
  910MPD2     N13332   3.586   3.675  15.596  0.6738  0.2284 -0.0123
  910MPD2    H513333   3.488   3.693  15.616  0.0403 -1.1509 -1.9151
  910MPD2    N113334   3.974   3.452  15.780  0.4608 -0.0986 -0.1433
  910MPD2    H713335   3.999   3.457  15.682 -0.2866 -1.4589 -0.3976
  911MPD2     C13336   1.733   4.574  16.196 -0.1297  0.7711  0.1039
  911MPD2    C113337   1.727   4.438  16.159  0.1463  0.4969 -0.1888
  911MPD2    C213338   1.658   4.395  16.049  0.5983  0.8836  0.3068
  911MPD2    C313339   1.616   4.494  15.958  0.3146 -0.5425  0.3731
  911MPD2    C413340   1.622   4.627  15.989  0.0817  0.9669  0.1184
  911MPD2    C513341   1.666   4.663  16.114  0.9054  0.1330  0.0394
  911MPD2     H13342   1.666   4.290  16.027 -3.8185  0.5332  0.4636
  911MPD2    H113343   1.593   4.714  15.932 -0.1847  0.7886 -0.0155
  911MPD2    H213344   1.782   4.612  16.284  0.0067  0.5681  0.1156
  911MPD2    H313345   1.672   0.042  16.139  1.8005 -0.2348  1.4056
  911MPD2     N13346   1.599   4.464  15.821 -0.2031  0.3307 -0.3249
  911MPD2    H513347   1.590   4.541  15.756  0.2754  1.0734  0.4887
  911MPD2    N113348   1.800   4.343  16.236 -0.0240 -0.4890  0.4806
  911MPD2    H713349   1.823   4.252  16.197 -1.5703 -1.0929  0.9927
  912MPD2     C13350   1.623   3.725  15.277 -0.5276  0.3240 -0.3687
  912MPD2    C113351   1.585   3.791  15.393  0.1884  0.3454 -0.0257
  912MPD2    C213352   1.546   3.726  15.505  0.1546  0.1349 -0.0706
  912MPD2    C313353   1.529   3.590  15.507 -0.3141  0.1188 -0.5641
  912MPD2    C413354   1.563   3.525  15.390  0.4548  0.4318  0.2699
  912MPD2    C513355   1.604   3.591  15.279 -0.1598  0.0891  0.1644
  912MPD2     H13356   1.529   3.774  15.601 -1.9734 -0.4697 -0.1438
  912MPD2    H113357   1.544   3.419  15.376 -1.1792  0.8589 -0.6718
  912MPD2    H213358   1.667   3.774  15.191  0.9259 -0.3432 -0.0025
  912MPD2    H313359   1.623   3.526  15.194 -1.4159 -0.0348 -0.0303
  912MPD2     N13360   1.490   3.523  15.622 -0.5029  0.3072  0.5467
  912MPD2    H513361   1.452   3.586  15.693  0.8531  1.7199  0.0341
  912MPD2    N113362   1.611   3.930  15.399  0.2781 -0.6442  0.0345
  912MPD2    H713363   1.656   3.983  15.325  0.4374 -1.4243 -0.4289
  913MPD2     C13364   1.931   0.886  11.187 -0.6568  0.0302  0.4665
  913MPD2    C113365   1.864   1.004  11.165 -0.2218  0.4041  0.1820
  913MPD2    C213366   1.886   1.066  11.042 -0.0848 -0.0928  0.1114
  913MPD2    C313367   1.969   1.009  10.947 -0.6672 -0.1455 -0.5948
  913MPD2    C413368   2.039   0.893  10.974  0.0114  0.2881  0.2118
  913MPD2    C513369   2.017   0.828  11.093 -0.2036  0.4148 -0.2683
  913MPD2     H13370   1.838   1.162  11.026  0.2164  0.1528  0.6421
  913MPD2    H113371   2.106   0.851  10.900 -0.3628 -0.4481  0.2955
  913MPD2    H213372   1.917   0.831  11.279 -2.7988 -1.5902 -0.8014
  913MPD2    H313373   2.061   0.733  11.117 -2.7851 -1.1370 -1.6620
  913MPD2     N13374   1.984   1.060  10.818 -0.0712  0.8557  0.7856
  913MPD2    H513375   2.064   1.031  10.762  0.5247 -0.0060  2.0791
  913MPD2    N113376   1.795   1.068  11.274 -0.5761 -0.1631 -0.0250
  913MPD2    H713377   1.798   1.025  11.366 -1.2097 -0.7221 -0.2656
  914MPD2     C13378   4.307   0.956  11.507  0.1869  0.3408 -0.2734
  914MPD2    C113379   4.250   1.067  11.565 -0.0618 -0.1843 -0.4816
  914MPD2    C213380   4.246   1.076  11.704  0.6507  0.2453  0.1792
  914MPD2    C313381   4.280   0.966  11.779 -0.2685  0.3697 -0.0446
  914MPD2    C413382   4.324   0.853  11.716 -0.5349 -0.5077  0.8593
  914MPD2    C513383   4.345   0.849  11.582 -0.3637 -0.2374  0.2147
  914MPD2     H13384   4.226   1.170  11.755 -0.5936  1.4502 -2.5399
  914MPD2    H113385   4.359   0.760  11.759 -0.0534 -1.0737 -0.7572
  914MPD2    H213386   4.326   0.950  11.401  2.5091  1.0759  0.1070
  914MPD2    H313387   4.395   0.761  11.543 -0.0297 -0.8503  2.0507
  914MPD2     N13388   4.269   0.975  11.917 -0.4644  0.0690  0.3782
  914MPD2    H513389   4.266   1.067  11.960  0.3211  0.5291 -0.5304
  914MPD2    N113390   4.204   1.170  11.487 -0.8824  0.2196  0.4429
  914MPD2    H713391   4.215   1.178  11.387 -1.3201  0.1949  0.3918
  915MPD2     C13392   2.488   0.615  15.319 -0.2864 -0.4980 -0.8154
  915MPD2    C113393   2.397   0.710  15.279 -0.0430  0.2124  0.3105
  915MPD2    C213394   2.374   0.823  15.366 -0.0734  0.1810 -0.6487
  915MPD2    C313395   2.437   0.835  15.491 -0.1236 -0.2058  0.5092
  915MPD2    C413396   2.542   0.748  15.510  0.1545  0.3713  0.2901
  915MPD2    C513397   2.565   0.638  15.426  0.2977 -0.3566  0.3695
  915MPD2     H13398   2.299   0.898  15.343 -0.3464  0.2475  0.4796
  915MPD2    H113399   2.617   0.775  15.583 -1.0443 -3.3788  2.9053
  915MPD2    H213400   2.514   0.531  15.257 -0.6920 -2.4880  1.6968
  915MPD2    H313401   2.646   0.568  15.442 -0.6709 -1.7390 -0.8660
  915MPD2     N13402   2.405   0.936  15.588 -0.9705  0.3667 -0.0810
  915MPD2    H513403   2.340   1.009  15.562 -0.3397  0.4780 -1.3747
  915MPD2    N113404   2.326   0.691  15.156  0.4749 -0.5686 -0.2850
  915MPD2    H713405   2.321   0.594  15.127  0.6128  0.0118 -2.2601
  916MPD2     C13406   1.111   3.881  15.620  0.2622 -0.6219  0.0726
  916MPD2    C113407   1.049   3.775  15.690 -0.0706  0.4009 -0.1026
  916MPD2    C213408   1.051   3.648  15.635 -0.2336  1.2336  0.6886
  916MPD2    C313409   1.119   3.619  15.519  0.8299 -0.7461  0.3647
  916MPD2    C413410   1.199   3.716  15.457 -0.0436 -0.1771 -0.2077
  916MPD2    C513411   1.190   3.842  15.512  0.3168 -0.1535 -0.6209
  916MPD2     H13412   1.004   3.565  15.686  0.2969  0.3794 -0.2126
  916MPD2    H113413   1.271   3.706  15.376  0.6021 -0.1816  0.3675
  916MPD2    H213414   1.113   3.982  15.660 -0.0932 -1.0656  1.2100
  916MPD2    H313415   1.255   3.922  15.475  1.3541 -0.3416  0.8058
  916MPD2     N13416   1.107   3.490  15.456  0.2638 -0.0969  0.6809
  916MPD2    H513417   1.056   3.421  15.510  0.6124  0.1298  1.3018
  916MPD2    N113418   0.983   3.809  15.813  0.2374  0.6081 -0.6900
  916MPD2    H713419   0.974   3.908  15.833  0.3138  0.5326 -0.2855
  917MPD2     C13420   0.938   1.409  10.794  1.0260 -0.0988  0.3005
  917MPD2    C113421   0.980   1.459  10.920 -0.0776 -0.4569  0.3144
  917MPD2    C213422   1.079   1.558  10.918 -0.3511  1.4483 -0.6960
  917MPD2    C313423   1.143   1.597  10.804  0.5259 -0.2029 -0.2219
  917MPD2    C413424   1.094   1.553  10.687  0.7439 -0.0009 -0.3100
  917MPD2    C513425   0.994   1.459  10.678  0.2016  0.5718 -0.0339
  917MPD2     H13426   1.115   1.580  11.018 -0.1678  0.0442 -0.4523
  917MPD2    H113427   1.146   1.570  10.593  2.5396 -2.0121  0.2847
  917MPD2    H213428   0.860   1.336  10.782  2.0462 -0.6727 -2.8477
  917MPD2    H313429   0.963   1.422  10.581  1.6039 -0.6163 -0.0227
  917MPD2     N13430   1.247   1.692  10.801 -0.1563  0.0292  0.3160
  917MPD2    H513431   1.279   1.724  10.710  0.5632 -1.7354 -0.0618
  917MPD2    N113432   0.901   1.427  11.038 -0.1749  0.1918 -0.0408
  917MPD2    H713433   0.827   1.360  11.020  2.3754 -2.0632 -2.0628
  918MPD2     C13434   0.947   1.909  11.869 -0.2690  0.6668 -0.2161
  918MPD2    C113435   1.017   1.791  11.858 -0.1293 -0.5311 -0.1431
  918MPD2    C213436   0.955   1.698  11.782  0.5544  0.4421 -0.2991
  918MPD2    C313437   0.832   1.710  11.721 -0.2081  0.4870  0.2280
  918MPD2    C413438   0.764   1.828  11.743  0.7382 -0.3359 -0.1668
  918MPD2    C513439   0.821   1.928  11.820  0.3716  0.2582  0.6592
  918MPD2     H13440   1.004   1.603  11.764 -1.2933 -0.4634 -0.6040
  918MPD2    H113441   0.669   1.843  11.693  0.5985 -1.4307 -0.2119
  918MPD2    H213442   0.990   1.990  11.928 -1.2307  0.7616  0.3572
  918MPD2    H313443   0.775   2.023  11.847 -0.0838  0.1750  0.1856
  918MPD2     N13444   0.793   1.609  11.630  0.1873  0.5325  0.5475
  918MPD2    H513445   0.859   1.536  11.607 -0.2991  0.3625 -0.2814
  918MPD2    N113446   1.149   1.769  11.910  0.1082 -0.0399 -0.2509
  918MPD2    H713447   1.193   1.678  11.905 -1.0566 -0.7647  2.3342
  919MPD2     C13448   1.279   0.856  11.462  0.4595  0.4806 -0.1269
  919MPD2    C113449   1.369   0.756  11.477 -0.5850  0.7187  0.1678
  919MPD2    C213450   1.460   0.731  11.374 -0.2175 -0.2905  0.0602
  919MPD2    C313451   1.456   0.809  11.258 -0.1372 -0.0207  0.1492
  919MPD2    C413452   1.371   0.911  11.253 -0.5124 -0.0674 -0.0623
  919MPD2    C513453   1.288   0.940  11.361 -0.5351 -0.3239 -0.2285
  919MPD2     H13454   1.523   0.643  11.369 -0.3865 -0.5133  1.8336
  919MPD2    H113455   1.376   0.983  11.172  0.2444 -0.6226 -0.5134
  919MPD2    H213456   1.188   0.868  11.520  0.4717  0.4286 -0.0978
  919MPD2    H313457   1.202   1.001  11.333  0.8773  1.5765 -0.4334
  919MPD2     N13458   1.543   0.787  11.151  0.0269 -0.3168  0.5037
  919MPD2    H513459   1.532   0.849  11.071 -0.5836 -0.5122  0.4290
  919MPD2    N113460   1.355   0.650  11.576 -0.3890  0.7816  0.2308
  919MPD2    H713461   1.414   0.569  11.565 -1.3224  0.0325  0.7552
  920MPD2     C13462   1.781   0.745  10.177 -0.5611 -0.1165 -0.2117
  920MPD2    C113463   1.653   0.720  10.229  0.1731  0.5845 -0.4658
  920MPD2    C213464   1.648   0.714  10.365 -0.0638  0.4481  0.1010
  920MPD2    C313465   1.757   0.735  10.448  0.0553  0.7525  0.3830
  920MPD2    C413466   1.882   0.757  10.391  0.0506  0.4527 -0.4368
  920MPD2    C513467   1.891   0.764  10.257  0.0504 -0.4701  0.4052
  920MPD2     H13468   1.559   0.685  10.419 -0.5033  1.8618  0.1337
  920MPD2    H113469   1.967   0.756  10.458  1.3268 -0.6109 -2.0548
  920MPD2    H213470   1.811   0.753  10.074  0.1462 -1.3337 -0.0994
  920MPD2    H313471   1.989   0.772  10.210 -0.3530 -2.4532 -0.7753
  920MPD2     N13472   1.759   0.716  10.583  0.7684  0.2966  0.6652
  920MPD2    H513473   1.849   0.696  10.627  1.5403  2.3370  0.0337
  920MPD2    N113474   1.537   0.707  10.149 -0.8470  0.9426 -0.1686
  920MPD2    H713475   1.446   0.700  10.195 -0.8118  0.4727 -0.1686
  921MPD2     C13476   2.524   4.157  16.949 -0.3981  0.7159 -0.5066
  921MPD2    C113477   2.496   4.043  16.876  0.0294  0.0474  0.0012
  921MPD2    C213478   2.408   4.056  16.767  0.1097  0.8736 -0.3711
  921MPD2    C313479   2.358   4.182  16.728  0.3013  0.5289  0.1898
  921MPD2    C413480   2.396   4.297  16.810 -0.7265  0.5870  0.3770
  921MPD2    C513481   2.473   4.283  16.925  0.4055 -0.1538 -0.0660
  921MPD2     H13482   2.385   3.969  16.707  1.7085  0.5790 -0.5455
  921MPD2    H113483   2.366   4.398  16.784  3.8055  1.0023 -3.2192
  921MPD2    H213484   2.594   4.159  17.033 -1.1759  3.7920  0.0456
  921MPD2    H313485   2.497   4.373  16.980  1.7827  0.5055 -1.7513
  921MPD2     N13486   2.281   4.203  16.616 -0.5784 -0.1316 -0.2061
  921MPD2    H513487   2.262   4.301  16.596 -1.8394 -0.0997  1.1434
  921MPD2    N113488   2.546   3.912  16.901 -0.5925  0.0256  0.3462
  921MPD2    H713489   2.525   3.844  16.829  0.3082 -0.3182  0.4124
  922MPD2     C13490   3.317   1.295  17.042  0.5123  0.3458 -0.1785
  922MPD2    C113491   3.267   1.424  17.037 -0.2031 -0.1458 -0.4195
  922MPD2    C213492   3.155   1.446  16.954  0.3716 -1.0205 -0.5247
  922MPD2    C313493   3.113   1.352  16.860 -0.4923 -0.0774 -0.2961
  922MPD2    C413494   3.170   1.227  16.858  0.1668  1.2013  1.0281
  922MPD2    C513495   3.270   1.208  16.948  0.1817  0.4468 -0.1515
  922MPD2     H13496   3.108   1.544  16.955  1.3658 -0.5655  0.8384
  922MPD2    H113497   3.139   1.147  16.793  1.2690 -0.8237  2.9980
  922MPD2    H213498   3.409   1.268  17.093 -0.0850 -1.0426  0.1673
  922MPD2    H313499   3.316   1.109  16.947 -0.5203  0.1275 -1.2120
  922MPD2     N13500   3.023   1.394  16.760 -0.3214 -0.4476  0.0509
  922MPD2    H513501   2.998   1.491  16.777  3.1063  0.4256  0.0295
  922MPD2    N113502   3.322   1.533  17.112 -0.1559  0.1337 -0.0050
  922MPD2    H713503   3.276   1.622  17.099  1.8704  0.7801 -2.6286
  923MPD2     C13504   0.587   3.798   9.855  0.6348 -0.3473 -0.8828
  923MPD2    C113505   0.547   3.928   9.843  0.9924  0.2540  0.1873
  923MPD2    C213506   0.618   4.022   9.910 -1.1344 -0.2277 -0.2597
  923MPD2    C313507   0.734   3.996   9.981 -0.3452 -0.1696  0.2561
  923MPD2    C413508   0.767   3.858   9.999 -0.0281  0.3226  0.3838
  923MPD2    C513509   0.687   3.762   9.942  0.7666  0.6168  0.3641
  923MPD2     H13510   0.583   4.124   9.897  0.0889  0.0112 -1.7129
  923MPD2    H113511   0.845   3.832  10.070  1.2603  0.2568 -1.0431
  923MPD2    H213512   0.533   3.719   9.805 -0.2769  0.1065 -0.6358
  923MPD2    H313513   0.724   3.660   9.947  2.6834  1.2600 -1.0324
  923MPD2     N13514   0.813   4.095  10.050  0.2653  0.0933  0.3615
  923MPD2    H513515   0.883   4.060  10.114  0.0242 -1.9623 -0.5055
  923MPD2    N113516   0.455   3.950   9.746  0.2830  0.4634 -0.1059
  923MPD2    H713517   0.428   3.874   9.685 -1.8355 -0.4780  1.9862
  924MPD2     C13518   0.296   2.578  15.192  0.4007  0.0856 -0.1483
  924MPD2    C113519   0.289   2.563  15.333 -0.4592 -0.1213  0.1130
  924MPD2    C213520   0.292   2.682  15.409  0.3993 -0.5174 -0.1057
  924MPD2    C313521   0.290   2.807  15.352 -0.1013 -0.3838  0.3517
  924MPD2    C413522   0.298   2.825  15.218 -0.1500  0.7539  0.2373
  924MPD2    C513523   0.298   2.712  15.137 -0.1696  0.7007  0.8769
  924MPD2     H13524   0.297   2.672  15.517 -0.2357 -1.6507 -0.1759
  924MPD2    H113525   0.292   2.923  15.171  1.3080 -0.8698 -3.3796
  924MPD2    H213526   0.304   2.498  15.119  1.4300  2.0678 -2.2085
  924MPD2    H313527   0.309   2.728  15.030 -3.5654 -0.9035  0.2828
  924MPD2     N13528   0.265   2.920  15.431  0.1704  0.0992  0.2675
  924MPD2    H513529   0.241   3.004  15.380  4.4625  0.8258 -0.6187
  924MPD2    N113530   0.269   2.438  15.390 -0.0888  0.3904 -0.3690
  924MPD2    H713531   0.256   2.353  15.336 -2.1214  0.6240 -0.2404
  925MPD2     C13532   3.568   4.723  14.506 -0.0917 -0.4352  0.4231
  925MPD2    C113533   3.433   4.699  14.501  0.7657 -0.4634 -0.5342
  925MPD2    C213534   3.370   4.650  14.612  0.6845  0.0883 -0.4120
  925MPD2    C313535   3.442   4.608  14.721 -0.1610 -0.1326 -0.0944
  925MPD2    C413536   3.579   4.617  14.722 -0.1686  0.6629  0.2792
  925MPD2    C513537   3.639   4.672  14.612 -0.4187  0.3353  0.5398
  925MPD2     H13538   3.261   4.645  14.618  0.7365 -2.0302 -1.2707
  925MPD2    H113539   3.641   4.565  14.794 -0.3228  0.3589  0.1928
  925MPD2    H213540   3.620   0.044  14.424 -0.7311 -0.6518 -0.0990
  925MPD2    H313541   3.745   4.691  14.625 -0.0977 -1.3790  0.4433
  925MPD2     N13542   3.383   4.558  14.838 -0.3176  0.5136 -0.9483
  925MPD2    H513543   3.456   4.522  14.899 -0.8590 -1.2189 -1.3249
  925MPD2    N113544   3.366   0.022  14.382 -0.2208  0.0241  0.7507
  925MPD2    H713545   3.422   0.076  14.318 -0.8777  0.8230  0.8518
  926MPD2     C13546   1.699   3.119  13.563  0.5776  0.4483 -0.0200
  926MPD2    C113547   1.686   3.255  13.574  0.5109 -0.1585 -0.5321
  926MPD2    C213548   1.782   3.343  13.514 -0.3037 -0.5882 -0.2590
  926MPD2    C313549   1.900   3.297  13.448  0.2485 -0.2349 -0.3988
  926MPD2    C413550   1.916   3.157  13.451 -0.2579  0.0906 -0.5744
  926MPD2    C513551   1.812   3.072  13.496  0.2446  0.2040 -0.0533
  926MPD2     H13552   1.758   3.448  13.520  0.5060 -0.3526 -1.1882
  926MPD2    H113553   1.994   3.114  13.389 -0.5981 -1.4709  0.0909
  926MPD2    H213554   1.629   3.047  13.604  0.5622  0.1138 -0.6384
  926MPD2    H313555   1.827   2.964  13.496 -0.2241  0.1417  0.3970
  926MPD2     N13556   1.989   3.376  13.374  0.1146 -0.2604 -0.2850
  926MPD2    H513557   2.054   3.327  13.314 -0.4255  1.4773 -2.2532
  926MPD2    N113558   1.571   3.312  13.627 -0.0719  0.0246 -0.4333
  926MPD2    H713559   1.557   3.412  13.616  0.8787  0.1287 -0.7639
  927MPD2     C13560   1.632   0.732   0.073 -0.3613 -0.2282 -0.1673
  927MPD2    C113561   1.712   0.626   0.098 -0.4094  0.0076  0.0534
  927MPD2    C213562   1.809   0.603   0.008  0.8889 -0.9177  0.4223
  927MPD2    C313563   1.837   0.690  17.613 -0.2257 -0.5546 -0.4991
  927MPD2    C413564   1.747   0.793  17.589 -0.9708 -0.5305  0.1644
  927MPD2    C513565   1.645   0.812  17.673  0.5893  0.5420 -0.1015
  927MPD2     H13566   1.878   0.521   0.021  0.0377 -1.2993  2.5979
  927MPD2    H113567   1.757   0.868  17.511  1.8346 -1.0855  0.0116
  927MPD2    H213568   1.549   0.760   0.137  2.0645  1.5036  2.2148
  927MPD2    H313569   1.570   0.886  17.648  0.3030  0.7558  1.4082
  927MPD2     N13570   1.953   0.674  17.535 -0.7639  0.5348  0.2825
  927MPD2    H513571   1.999   0.585  17.554 -0.2699  0.6166 -0.5671
  927MPD2    N113572   1.679   0.541   0.209 -0.4359  0.0865 -0.3068
  927MPD2    H713573   1.607   0.573   0.273 -1.9837 -0.0271 -1.9815
  928MPD2     C13574   0.224   3.344   0.768  0.4836 -0.2491 -1.3163
  928MPD2    C113575   0.200   3.472   0.816  0.0251 -0.2413  0.2056
  928MPD2    C213576   0.172   3.568   0.722 -0.3974  0.3933  0.5046
  928MPD2    C313577   0.172   3.536   0.581  0.1666  0.5715 -0.4687
  928MPD2    C413578   0.184   3.408   0.544  0.2968 -0.1506  0.2238
  928MPD2    C513579   0.215   3.318   0.635 -0.4938  0.1094 -0.3278
  928MPD2     H13580   0.157   3.672   0.746  0.6595  0.3278  1.4295
  928MPD2    H113581   0.179   3.382   0.439  0.9277  0.5035  0.0338
  928MPD2    H213582   0.244   3.250   0.818  2.8483  1.3575  0.7538
  928MPD2    H313583   0.227   3.216   0.601 -0.2726 -0.0680  0.2914
  928MPD2     N13584   0.162   3.631   0.476 -0.5330 -0.2700  0.5009
  928MPD2    H513585   0.179   3.594   0.383  0.6479  2.0770 -0.2173
  928MPD2    N113586   0.206   3.496   0.952 -0.1378  0.2237 -0.2893
  928MPD2    H713587   0.244   3.420   1.008  0.8133  0.2040 -0.9666
  929MPD2     C13588   0.155   3.859  10.175  0.4216 -0.9784 -0.5705
  929MPD2    C113589   0.034   3.882  10.229  1.2679 -0.2906  0.0613
  929MPD2    C213590   4.668   3.951  10.154 -0.6628 -0.8418 -0.7730
  929MPD2    C313591   4.699   3.996  10.028  0.0313 -0.2759 -0.9561
  929MPD2    C413592   0.095   3.975   9.977  0.4170  0.3518 -0.3542
  929MPD2    C513593   0.186   3.901  10.051 -0.2149 -0.3904 -0.0795
  929MPD2     H13594   4.563   3.954  10.181 -0.5124  0.8805 -0.3705
  929MPD2    H113595   0.114   4.008   9.876  0.6371  0.5510 -0.2474
  929MPD2    H213596   0.236   3.803  10.219  0.4237 -1.4426 -1.1582
  929MPD2    H313597   0.278   3.887   9.995 -0.3075 -2.7281  0.3413
  929MPD2     N13598   4.614   4.057   9.934 -0.5722  0.1606 -0.1715
  929MPD2    H513599   4.652   4.061   9.840  3.0835  0.6432  1.3147
  929MPD2    N113600   0.004   3.832  10.356 -0.0790 -1.0111 -0.4484
  929MPD2    H713601   0.049   3.749  10.393  0.9438 -0.7213 -1.0269
  930MPD2     C13602   0.958   1.286  13.904  0.1866 -0.3328 -0.0057
  930MPD2    C113603   1.096   1.289  13.892 -0.6676 -0.4725  1.4619
  930MPD2    C213604   1.161   1.231  13.787 -0.5491 -0.9339  0.4128
  930MPD2    C313605   1.088   1.185  13.681  0.0908 -0.7566 -0.4817
  930MPD2    C413606   0.951   1.180  13.688 -0.2461  0.0887 -0.0970
  930MPD2    C513607   0.888   1.229  13.801  0.2331 -0.3860 -0.5196
  930MPD2     H13608   1.268   1.217  13.781 -0.3448  1.4561 -1.4947
  930MPD2    H113609   0.889   1.143  13.607 -0.9109  3.3050 -1.0795
  930MPD2    H213610   0.905   1.337  13.983  0.5486  1.6453 -1.0388
  930MPD2    H313611   0.780   1.225  13.815  0.5245 -1.0625  1.6004
  930MPD2     N13612   1.148   1.143  13.554  0.1623 -0.0527  0.2528
  930MPD2    H513613   1.086   1.125  13.475  1.6888  0.4518 -1.0736
  930MPD2    N113614   1.166   1.356  13.996 -0.0680 -0.1098  0.7293
  930MPD2    H713615   1.118   1.426  14.052 -0.3436 -0.3559  0.7991
  931MPD2     C13616   1.889   4.593   0.580 -0.8876  0.0717 -0.5230
  931MPD2    C113617   1.759   4.628   0.615 -0.9092 -0.4816  0.6388
  931MPD2    C213618   1.692   4.555   0.712  0.1862 -0.9053  0.2275
  931MPD2    C313619   1.759   4.460   0.785  0.1503  0.5193  0.3184
  931MPD2    C413620   1.892   4.423   0.749 -0.2047 -0.2357  0.1596
  931MPD2    C513621   1.950   4.487   0.643  0.2475 -0.0687  0.0502
  931MPD2     H13622   1.597   4.591   0.748 -0.3925 -0.9683 -1.2643
  931MPD2    H113623   1.941   4.343   0.805  2.0401 -1.2156 -3.2198
  931MPD2    H213624   1.945   4.636   0.498  0.3799 -0.5642  0.0079
  931MPD2    H313625   2.053   4.456   0.632  0.3403  0.0667  0.5548
  931MPD2     N13626   1.711   4.384   0.890 -0.6004  0.7496  0.6266
  931MPD2    H513627   1.775   4.334   0.952 -1.6092  0.3333  1.3309
  931MPD2    N113628   1.712   0.018   0.545 -0.1832  0.1935 -0.5317
  931MPD2    H713629   1.773   0.077   0.490 -0.9340 -3.1030 -4.8436
  932MPD2     C13630   3.451   0.692  11.182 -0.1495 -0.2906  0.3966
  932MPD2    C113631   3.497   0.647  11.062  0.0063  0.2078  0.7043
  932MPD2    C213632   3.517   0.509  11.054  0.0218 -0.5270  0.2668
  932MPD2    C313633   3.493   0.419  11.156  0.1946 -0.2476 -0.1955
  932MPD2    C413634   3.443   0.464  11.274 -0.7041 -1.0110  0.3217
  932MPD2    C513635   3.422   0.602  11.281 -0.3440  0.3069 -0.1784
  932MPD2     H13636   3.559   0.487  10.956  0.2615  0.7263  0.0898
  932MPD2    H113637   3.420   0.399  11.358  2.2328  0.3607  2.1755
  932MPD2    H213638   3.424   0.795  11.204 -0.6423  0.0148 -1.6754
  932MPD2    H313639   3.392   0.646  11.375  0.0569  1.0154 -0.3854
  932MPD2     N13640   3.541   0.287  11.153  0.4237  0.1337 -0.1141
  932MPD2    H513641   3.538   0.224  11.233  0.0056  0.3375  0.0301
  932MPD2    N113642   3.537   0.723  10.954 -0.1729  0.1559 -0.7168
  932MPD2    H713643   3.575   0.681  10.869  0.3534  0.2905 -0.5499
  933MPD2     C13644   0.372   4.257   1.491 -0.5282 -0.3645 -0.2141
  933MPD2    C113645   0.289   4.205   1.393 -0.3316  0.3955  0.1292
  933MPD2    C213646   0.188   4.286   1.353  0.1773 -0.2670 -0.3063
  933MPD2    C313647   0.162   4.415   1.397  0.2339  0.0826 -0.1684
  933MPD2    C413648   0.236   4.458   1.501 -0.3885 -0.2966  0.4282
  933MPD2    C513649   0.337   4.376   1.546  0.6085 -0.5730  0.2028
  933MPD2     H13650   0.125   4.251   1.273  0.3348  1.4074 -1.1644
  933MPD2    H113651   0.238   4.559   1.540 -2.6109 -1.1095  2.6510
  933MPD2    H213652   0.455   4.197   1.527  1.1036  1.7335 -0.4665
  933MPD2    H313653   0.386   4.404   1.639  0.1014  1.3209 -0.0913
  933MPD2     N13654   0.062   4.491   1.340  0.0659 -0.1014 -0.6603
  933MPD2    H513655   0.016   4.453   1.257  2.5743 -1.2997 -1.4960
  933MPD2    N113656   0.322   4.078   1.340 -0.7327  0.4147 -0.4630
  933MPD2    H713657   0.408   4.035   1.373 -0.8018 -1.1801 -2.3286
  934MPD2     C13658   1.170   1.726   1.963  0.2479  0.6061  0.7802
  934MPD2    C113659   1.235   1.639   1.883 -0.4161 -0.7161 -0.4880
  934MPD2    C213660   1.165   1.544   1.803  0.7231  0.6799  0.2165
  934MPD2    C313661   1.024   1.539   1.807 -0.4793 -0.7290 -0.6539
  934MPD2    C413662   0.961   1.630   1.888 -0.0836 -0.0645  0.3981
  934MPD2    C513663   1.031   1.725   1.952 -0.5434  0.1474  0.4387
  934MPD2     H13664   1.220   1.467   1.750 -0.3962 -0.4290  0.7025
  934MPD2    H113665   0.854   1.622   1.902  0.5911 -3.2116  3.7225
  934MPD2    H213666   1.218   1.804   2.021  0.5461  1.8272 -1.1173
  934MPD2    H313667   0.982   1.798   2.016 -1.5837 -0.1989  0.0342
  934MPD2     N13668   0.948   1.452   1.735  0.3780  0.4563 -0.1071
  934MPD2    H513669   0.848   1.456   1.748  0.1235 -1.7700 -1.3776
  934MPD2    N113670   1.377   1.638   1.875 -0.5773 -0.4177 -0.4742
  934MPD2    H713671   1.418   1.575   1.807 -0.8769  1.5669 -2.4831
  935MPD2     C13672   1.036   0.553   1.313  0.1289 -0.4303 -0.4038
  935MPD2    C113673   0.965   0.628   1.227 -0.1502  0.1195 -0.0975
  935MPD2    C213674   0.920   0.756   1.262  0.6881 -0.3360  0.3510
  935MPD2    C313675   0.954   0.815   1.377  0.4102  0.3023 -0.7252
  935MPD2    C413676   1.021   0.739   1.472 -0.2278  0.3155 -0.1195
  935MPD2    C513677   1.058   0.607   1.441  0.4905 -0.0554 -0.4357
  935MPD2     H13678   0.860   0.804   1.186 -0.2308  1.8429  2.4486
  935MPD2    H113679   1.040   0.779   1.571 -4.2069 -0.9636  1.1868
  935MPD2    H213680   1.064   0.450   1.296 -0.0809 -0.9918  2.7994
  935MPD2    H313681   1.116   0.547   1.510 -0.9068 -1.9951 -0.9402
  935MPD2     N13682   0.920   0.949   1.413  0.4540 -0.4103 -0.1615
  935MPD2    H513683   0.938   0.978   1.509 -0.3014 -1.3522  0.2586
  935MPD2    N113684   0.931   0.577   1.100 -0.6143  0.0625 -0.0586
  935MPD2    H713685   0.880   0.639   1.038 -0.1029  1.6492  1.1159
  936MPD2     C13686   3.429   3.211  12.399  0.7213 -0.2608  0.4560
  936MPD2    C113687   3.538   3.193  12.477  0.0312  0.3324  0.0173
  936MPD2    C213688   3.611   3.300  12.515 -0.2451  0.3660 -0.1832
  936MPD2    C313689   3.567   3.427  12.485  0.0630  0.5298 -0.2865
  936MPD2    C413690   3.449   3.445  12.412  0.2989 -0.4136 -0.1966
  936MPD2    C513691   3.389   3.336  12.357  0.0643  0.6086 -0.4860
  936MPD2     H13692   3.706   3.290  12.565 -0.5304 -1.0019  0.0934
  936MPD2    H113693   3.414   3.544  12.387 -0.2748 -0.3607  0.8450
  936MPD2    H213694   3.386   3.126  12.346  2.3007 -0.0847 -1.1030
  936MPD2    H313695   3.306   3.357  12.291  1.0965  1.7579 -1.4258
  936MPD2     N13696   3.642   3.535  12.540 -0.6122  0.3496 -0.0265
  936MPD2    H513697   3.724   3.507  12.593  0.2056 -1.2703 -2.1233
  936MPD2    N113698   3.598   3.066  12.515 -0.0602  0.5221 -0.1896
  936MPD2    H713699   3.682   3.062  12.571  0.7624  1.7225 -1.3510
  937MPD2     C13700   1.572   4.719  11.797  0.4685 -0.0699  0.4617
  937MPD2    C113701   1.564   0.103  11.711 -0.1519 -0.7714  0.3174
  937MPD2    C213702   1.654   0.099  11.607 -0.2152  0.0150 -0.0178
  937MPD2    C313703   1.712   4.710  11.559  0.4062 -0.2395  0.2483
  937MPD2    C413704   1.702   4.594  11.640  0.0834 -0.0333  0.2388
  937MPD2    C513705   1.626   4.602  11.754 -0.1287  0.5392 -0.0224
  937MPD2     H13706   1.655   0.187  11.542 -1.4436 -0.0453 -0.1192
  937MPD2    H113707   1.740   4.496  11.612  0.8240  0.7823 -1.6755
  937MPD2    H213708   1.533   4.722  11.898  0.5247  0.2643  0.4736
  937MPD2    H313709   1.614   4.512  11.814  1.3410 -0.0593 -0.6208
  937MPD2     N13710   1.784   4.713  11.436  0.0592  0.3521  0.1404
  937MPD2    H513711   1.805   0.076  11.392 -0.3591  1.1054  1.4595
  937MPD2    N113712   1.518   0.231  11.759  0.2334  0.0924 -0.2280
  937MPD2    H713713   1.511   0.306  11.692  1.4376 -0.9758 -1.5330
  938MPD2     C13714   0.061   1.411   0.497 -0.2789 -0.3597 -0.4884
  938MPD2    C113715   0.151   1.378   0.593 -0.6010 -0.2714  0.0465
  938MPD2    C213716   0.124   1.270   0.686 -0.4366 -0.2928 -0.5109
  938MPD2    C313717   0.010   1.193   0.666 -0.1685 -0.1055 -1.0884
  938MPD2    C413718   4.660   1.221   0.557 -0.0506 -0.7113  0.6656
  938MPD2    C513719   4.677   1.331   0.478 -0.2137  0.5513 -0.7626
  938MPD2     H13720   0.192   1.243   0.765 -0.6104 -1.0414 -0.6126
  938MPD2    H113721   4.577   1.153   0.546  0.2169 -1.1784  1.5379
  938MPD2    H213722   0.067   1.486   0.419  1.1821  0.8980  0.8289
  938MPD2    H313723   4.608   1.360   0.399 -0.3134 -0.2914 -0.9819
  938MPD2     N13724   4.700   1.085   0.747 -0.0343 -0.3391 -0.0999
  938MPD2    H513725   4.611   1.042   0.723 -0.2211 -0.6194  1.0864
  938MPD2    N113726   0.274   1.444   0.604  0.1469 -0.1067  0.6805
  938MPD2    H713727   0.322   1.420   0.690  0.6855 -1.9541 -0.1434
  939MPD2     C13728   2.137   2.252   1.360  0.1825 -0.0530 -0.4160
  939MPD2    C113729   2.010   2.277   1.321 -0.2770  0.0252  0.5320
  939MPD2    C213730   1.985   2.249   1.186  0.2730 -0.5725  0.6234
  939MPD2    C313731   2.078   2.183   1.109  0.4389  0.4715  0.0498
  939MPD2    C413732   2.202   2.155   1.158  0.2710  0.0945 -0.8669
  939MPD2    C513733   2.232   2.198   1.282  1.3575  0.5343 -0.4685
  939MPD2     H13734   1.891   2.275   1.138 -0.7541 -2.8211  1.4382
  939MPD2    H113735   2.285   2.106   1.107  1.0157  1.5223 -1.0204
  939MPD2    H213736   2.157   2.278   1.463 -1.2864 -1.6502  0.2657
  939MPD2    H313737   2.330   2.173   1.319  1.5903 -0.9281 -2.0979
  939MPD2     N13738   2.043   2.141   0.980  0.1952 -0.7031  0.0259
  939MPD2    H513739   1.951   2.167   0.946  0.2398 -1.6898 -0.8498
  939MPD2    N113740   1.910   2.321   1.407  0.5334 -0.3485 -0.4513
  939MPD2    H713741   1.939   2.349   1.500  0.1101 -0.9823 -0.1318
  940MPD2     C13742   4.470   3.380  13.203  0.2619 -0.3916 -0.4540
  940MPD2    C113743   4.450   3.246  13.175 -0.4557 -0.3488  0.1114
  940MPD2    C213744   4.485   3.194  13.053 -0.5462 -0.9189 -0.0071
  940MPD2    C313745   4.553   3.268  12.958  1.1845 -0.4107  0.1897
  940MPD2    C413746   4.580   3.398  12.994  0.6884  0.1760 -0.4241
  940MPD2    C513747   4.549   3.446  13.111 -0.7434  0.4999  0.1687
  940MPD2     H13748   4.463   3.089  13.038 -3.2842 -0.1414 -1.5503
  940MPD2    H113749   4.643   3.455  12.927 -0.1688 -0.0829 -1.4488
  940MPD2    H213750   4.442   3.434  13.293  0.4947  0.9649 -1.2007
  940MPD2    H313751   4.584   3.545  13.137 -0.3122  0.0263  1.3816
  940MPD2     N13752   4.606   3.212  12.841 -0.0134  0.4732 -0.0829
  940MPD2    H513753   4.671   3.275  12.794 -1.3593  1.4124 -0.6675
  940MPD2    N113754   4.387   3.158  13.267 -0.0380  0.4035  0.2801
  940MPD2    H713755   4.382   3.061  13.239  0.3949  0.6488 -0.6694
  941MPD2     C13756   4.271   2.396   9.319  0.1076  0.9469  0.0681
  941MPD2    C113757   4.275   2.438   9.449  0.9796 -0.5219  0.1852
  941MPD2    C213758   4.157   2.439   9.525 -0.2167 -0.0578  1.2027
  941MPD2    C313759   4.039   2.377   9.478  0.0973  0.1010 -0.2955
  941MPD2    C413760   4.049   2.321   9.352 -0.4699  0.4672 -0.3242
  941MPD2    C513761   4.160   2.337   9.271 -0.2578  0.1465  0.7683
  941MPD2     H13762   4.161   2.487   9.623 -0.3358 -1.6332  1.9817
  941MPD2    H113763   3.965   2.278   9.299 -0.3756 -0.5289  0.3261
  941MPD2    H213764   4.353   2.397   9.249  0.4538 -0.3167  0.4673
  941MPD2    H313765   4.164   2.294   9.172  1.0225 -1.0432  1.3353
  941MPD2     N13766   3.911   2.375   9.542  0.2492 -0.7628 -0.4382
  941MPD2    H513767   3.825   2.346   9.495  0.0227  0.6066 -0.8797
  941MPD2    N113768   4.394   2.489   9.506  0.0393  0.2556 -0.1866
  941MPD2    H713769   4.390   2.523   9.602  0.1367  0.4087 -0.2352
  942MPD2     C13770   3.511   3.592   9.691  0.4594 -0.1777  0.3428
  942MPD2    C113771   3.527   3.527   9.573 -0.2401 -0.7223 -0.6352
  942MPD2    C213772   3.651   3.519   9.511 -0.9254 -0.1859  0.2086
  942MPD2    C313773   3.764   3.581   9.571  0.3785  0.3788 -0.2896
  942MPD2    C413774   3.743   3.644   9.693 -0.6980  0.6449  0.1062
  942MPD2    C513775   3.616   3.650   9.747 -0.4272  0.4969 -0.4919
  942MPD2     H13776   3.672   3.455   9.426  0.8250  1.0775 -0.3266
  942MPD2    H113777   3.829   3.692   9.738 -0.8966  1.7117 -0.6599
  942MPD2    H213778   3.420   3.590   9.749  0.5886 -1.1548  0.5107
  942MPD2    H313779   3.592   3.704   9.838 -0.4347 -2.5559  1.2822
  942MPD2     N13780   3.896   3.581   9.521 -0.5796  0.0661  0.7082
  942MPD2    H513781   3.970   3.602   9.588  0.3780 -2.4700  0.4512
  942MPD2    N113782   3.419   3.459   9.515 -0.6325  0.1613  0.3786
  942MPD2    H713783   3.435   3.421   9.422  1.7149  2.4812 -0.1805
  943MPD2     C13784   2.940   1.316   9.396  0.1951  0.2977 -0.4488
  943MPD2    C113785   2.825   1.322   9.467 -0.8181  0.3697  0.2265
  943MPD2    C213786   2.706   1.267   9.414 -0.9501  0.1386 -0.1603
  943MPD2    C313787   2.702   1.204   9.295  0.0789 -1.1603 -0.1239
  943MPD2    C413788   2.825   1.190   9.229 -0.3018 -0.0563 -0.2125
  943MPD2    C513789   2.939   1.245   9.281 -0.0824  0.2774  0.0165
  943MPD2     H13790   2.617   1.282   9.474 -0.1356  0.5205  0.9584
  943MPD2    H113791   2.833   1.134   9.137 -0.0188 -0.7295  0.2183
  943MPD2    H213792   3.037   1.353   9.428  0.0481  0.3537 -0.0787
  943MPD2    H313793   3.027   1.226   9.221 -0.9474  0.6853 -1.3898
  943MPD2     N13794   2.582   1.160   9.238 -0.5672  0.3218  0.0392
  943MPD2    H513795   2.584   1.102   9.155 -0.2509 -0.9232  0.9124
  943MPD2    N113796   2.841   1.364   9.600 -0.2878  0.4723  0.2619
  943MPD2    H713797   2.933   1.393   9.628  0.1714 -0.2935 -0.4366
  944MPD2     C13798   2.370   0.632  11.168 -0.1953  0.2499 -0.7023
  944MPD2    C113799   2.401   0.739  11.092  0.0107 -0.1146  0.1327
  944MPD2    C213800   2.383   0.870  11.132  0.6285 -0.4266  0.4457
  944MPD2    C313801   2.310   0.893  11.248  0.5581  0.3501  0.5264
  944MPD2    C413802   2.257   0.786  11.321  0.7783  0.3728  0.3962
  944MPD2    C513803   2.296   0.656  11.282 -0.1685  0.0339 -0.5088
  944MPD2     H13804   2.423   0.947  11.068  0.8607 -0.5551  0.4362
  944MPD2    H113805   2.189   0.798  11.404 -0.0628 -1.0940 -0.0794
  944MPD2    H213806   2.378   0.528  11.139 -2.1609  0.1348 -0.8018
  944MPD2    H313807   2.250   0.570  11.329  0.0957  0.9293  1.3839
  944MPD2     N13808   2.271   1.021  11.263 -0.2479  0.2521 -0.6408
  944MPD2    H513809   2.300   1.080  11.186  3.7457 -2.9433 -1.6059
  944MPD2    N113810   2.467   0.701  10.963 -0.7921  0.0453  0.4367
  944MPD2    H713811   2.474   0.602  10.941 -2.2652  0.2452 -1.0022
    1TCq1    O113812   0.674   2.585  14.504  0.2867  0.1899  0.6820
    1TCq1    C113813   0.722   2.506  14.406 -0.0650  0.8800  0.7390
    1TCq1    O213814   0.837   2.474  14.383 -0.7922 -0.2105  0.7652
    1TCq1    C213815   0.615   2.485  14.308  0.6637 -0.2140  0.1548
    1TCq1    C313816   0.494   2.453  14.366  0.0559  0.2744  0.1471
    1TCq1    C413817   0.383   2.458  14.286 -0.3273  0.0575 -0.2951
    1TCq1    C513818   0.395   2.484  14.154 -0.3054  0.1781 -0.5100
    1TCq1    C613819   0.517   2.523  14.104  0.4501 -0.1457  1.2914
    1TCq1    C713820   0.638   2.518  14.178 -0.0646 -0.6310  0.2875
    1TCq1    C813821   0.522   2.601  13.981 -0.2182  0.9794  0.6075
    1TCq1    O413822   0.455   2.570  13.880 -0.1267 -0.2131 -0.3809
    1TCq1    C913823   0.258   2.428  14.349 -1.2135 -0.3260 -0.3300
    1TCq1    O513824   0.254   2.413  14.471 -0.0252 -0.2006 -0.1157
    1TCq1    O613825   0.156   2.410  14.275 -0.4246 -0.1217  0.1079
    1TCq1    H113826   0.587   2.621  14.479  1.6051  3.0661  0.2740
    1TCq1    H213827   0.499   2.419  14.469 -1.3578 -0.8982 -0.1671
    1TCq1    H313828   0.311   2.488  14.086 -1.4647  2.2219  1.0289
    1TCq1    H413829   0.733   2.544  14.133 -0.2351 -0.2404  0.1519
    2MPD2     C13830   0.644   3.037  13.741  1.3025  0.0932 -0.3401
    2MPD2    C113831   0.653   3.057  13.875 -0.0614 -0.0022 -0.5234
    2MPD2    C213832   0.654   2.951  13.964  0.3447  0.1069  0.0009
    2MPD2    C313833   0.618   2.822  13.916 -0.5392 -0.0270  0.3145
    2MPD2    C413834   0.584   2.810  13.780  0.4284  0.6169 -0.1501
    2MPD2    C513835   0.590   2.920  13.697  0.7018 -0.2095 -0.1740
    2MPD2     H13836   0.679   2.962  14.069  0.7373 -1.3932  0.0641
    2MPD2    H113837   0.572   2.715  13.730  1.0429  0.3652  0.1728
    2MPD2    H213838   0.661   3.116  13.670 -0.4618 -0.8041 -1.7478
    2MPD2    H313839   0.571   2.917  13.590 -4.1449 -1.1925  0.7100
    2MPD2     N13840   0.595   2.717  14.008  0.8137 -0.4797  0.6531
    2MPD2    H513841   0.622   2.737  14.104  1.1945  0.5711  0.3177
    2MPD2    N113842   0.698   3.186  13.915  0.6537  0.1500  0.1346
    2MPD2    H713843   0.717   3.248  13.837  1.5898  0.6392  0.7372
    3TMC2    C113844   0.762   3.364  14.050 -0.0900  1.6440  0.0785
    3TMC2    C213845   0.834   3.402  14.166  0.2922 -1.1384 -0.1347
    3TMC2    C313846   0.842   3.537  14.182 -0.6196 -0.2237 -0.0586
    3TMC2    C413847   0.714   3.452  13.954  0.0811 -0.2786 -0.9662
    3TMC2    C513848   0.722   3.585  13.985  0.1195  0.6302 -0.3992
    3TMC2    C613849   0.783   3.624  14.100 -0.3101  0.1834 -0.5881
    3TMC2     C13850   0.728   3.224  14.044  0.3105  0.0175  0.0552
    3TMC2     O13851   0.751   3.162  14.147 -0.3198 -0.0216 -0.2061
    3TMC2     H13852   0.878   3.339  14.242  1.2708 -1.9628 -1.3799
    3TMC2    H113853   0.673   3.417  13.859 -1.5420 -0.3476 -0.2394
    3TMC2    H213854   0.783   3.729  14.127  0.6835  0.0226  0.0545
    3TMC2    C713855   0.693   3.682  13.879  0.1353 -0.5109 -0.0362
    3TMC2    C813856   0.878   3.585  14.307 -0.3792  0.2043 -0.5276
    3TMC2    O113857   0.764   3.787  13.870  0.4724 -0.3119  0.2674
    3TMC2    O213858   0.943   3.690  14.324  0.0446 -0.1463 -0.1779
    3TMC2    O513859   0.760   3.563  14.371  0.2852 -0.3619 -0.2550
    3TMC2    H513860   0.709   3.484  14.342  0.4859 -0.1603 -1.1323
    4MPD2     C13861   3.908   3.368  13.766 -0.3083 -0.4528  0.6890
    4MPD2    C113862   3.919   3.412  13.637  0.2517 -0.7961  0.0156
    4MPD2    C213863   4.049   3.450  13.599 -0.4125 -0.2252 -0.7251
    4MPD2    C313864   4.158   3.441  13.681 -0.0702 -0.3079  0.3585
    4MPD2    C413865   4.154   3.392  13.805 -0.0185  0.0158 -0.5982
    4MPD2    C513866   4.022   3.360  13.844 -0.4871 -0.3371 -0.2062
    4MPD2     H13867   4.066   3.491  13.500 -1.3758  1.5348 -0.1649
    4MPD2    H113868   4.240   3.394  13.870 -2.4831 -0.0272  2.6766
    4MPD2    H213869   3.810   3.339  13.801  0.2983 -2.4226  0.7453
    4MPD2    H313870   4.005   3.319  13.943 -1.5024  0.8412  0.1006
    4MPD2     N13871   4.277   3.494  13.625  0.1482 -0.0973 -0.6339
    4MPD2    H513872   4.268   3.536  13.533 -0.6182 -1.7728 -1.3359
    4MPD2    N113873   3.803   3.420  13.558 -0.1129 -0.1755  0.2555
    4MPD2    H713874   3.721   3.376  13.599  0.2992 -0.4313  0.8056
    5TCq2    C113875   4.402   3.488  13.680  0.5696  0.6152 -0.6649
    5TCq2    O213876   4.433   3.423  13.777 -0.5038  0.4214  0.2639
    5TCq2    C213877   4.493   3.565  13.599  0.9047 -0.4806 -0.3034
    5TCq2    C313878   4.450   3.643  13.491  0.6049 -0.4497 -0.1215
    5TCq2    C413879   4.538   3.698  13.412 -0.2252 -0.3250 -0.4974
    5TCq2    C513880   4.671   3.695  13.433 -0.1284  0.0694  0.3690
    5TCq2    C613881   4.713   3.613  13.532  0.1900 -0.6434  0.6383
    5TCq2    C713882   4.628   3.532  13.603 -0.1528  0.2488  0.1100
    5TCq2    C813883   0.129   3.594  13.569 -0.1486 -0.0840 -0.0207
    5TCq2    O413884   0.146   3.517  13.657 -0.2967 -0.1110  0.2359
    5TCq2    C913885   4.484   3.779  13.309  0.2418 -0.2030  0.0806
    5TCq2    O513886   4.561   3.829  13.221 -0.3989  0.2933 -0.5432
    5TCq2    O613887   4.359   3.798  13.313 -0.5244  0.1914 -0.7848
    5TCq2    H213888   4.345   3.662  13.472  1.4661  3.7244 -0.5006
    5TCq2    H313889   0.004   3.756  13.366 -0.2889  1.4246  1.4761
    5TCq2    H413890   4.665   3.475  13.688  0.2002  1.2843  0.6458
    6MPD1     C13891   2.751   4.474  12.267  0.0429  0.3656  0.0336
    6MPD1    C113892   2.695   4.459  12.393  0.5682  1.3675 -0.7351
    6MPD1    C213893   2.751   4.382  12.489 -0.0391 -0.6173 -0.0203
    6MPD1    C313894   2.870   4.316  12.454  0.1196  0.0653  1.0811
    6MPD1    C413895   2.916   4.323  12.325 -0.0464 -0.3989  0.1565
    6MPD1    C513896   2.858   4.393  12.230  0.6019  0.0647 -0.0867
    6MPD1     H13897   2.712   4.374  12.589 -1.0681  2.5245 -0.1566
    6MPD1    H113898   3.005   4.268  12.298 -0.9759 -1.8282 -0.0324
    6MPD1    H213899   2.714   4.534  12.185 -1.4762  0.1206  0.5383
    6MPD1    H313900   2.896   4.394  12.129 -1.4689  1.4424 -0.8631
    6MPD1     N13901   2.944   4.239  12.547 -0.3389  0.1640 -0.2589
    6MPD1    H513902   3.033   4.194  12.526  0.5498  3.0501 -2.7662
    6MPD1    N113903   2.594   4.547  12.429  0.1211  0.1842 -0.1333
    6MPD1    H613904   2.519   4.550  12.360  0.5399  2.6793 -0.4545
    6MPD1    H713905   2.540   4.510  12.507 -1.8687  0.8929 -1.1727
    7MPD2     C13906   2.957   3.773  13.195 -0.3866 -1.0727  0.0499
    7MPD2    C113907   3.093   3.806  13.189  0.1313 -0.1785 -0.1924
    7MPD2    C213908   3.189   3.721  13.246 -0.4917  0.3185  0.5252
    7MPD2    C313909   3.149   3.601  13.305  0.1591  0.2406  0.4709
    7MPD2    C413910   3.016   3.564  13.312 -0.2605  0.4355  0.0503
    7MPD2    C513911   2.921   3.656  13.268 -0.3391 -1.0133  0.1878
    7MPD2     H13912   3.293   3.748  13.232 -0.4746 -0.8985 -1.6810
    7MPD2    H113913   2.972   3.472  13.350 -1.7915  0.3032 -2.0586
    7MPD2    H213914   2.874   3.837  13.167  1.9792  2.1825  0.5319
    7MPD2    H313915   2.817   3.628  13.264 -1.1537  2.3628 -2.5432
    7MPD2     N13916   3.237   3.502  13.347 -0.2479  0.3700  0.3845
    7MPD2    H513917   3.203   3.407  13.342 -1.1059  0.7292 -0.6562
    7MPD2    N113918   3.142   3.925  13.125  0.7639 -0.6123 -0.2112
    7MPD2    H713919   3.242   3.939  13.116  0.6913 -0.8973 -1.4676
    8TMC3    C113920   3.451   3.402  13.344  0.5978  0.4347  0.6211
    8TMC3    C213921   3.567   3.419  13.409 -0.6701  0.1220 -0.2033
    8TMC3    C313922   3.686   3.412  13.347  0.0512 -0.5454 -0.2102
    8TMC3    C413923   3.465   3.383  13.207  1.2825  0.5419  0.3459
    8TMC3    C513924   3.587   3.389  13.139  0.3547  0.8658  0.5723
    8TMC3    C613925   3.697   3.407  13.216  0.1102 -0.3944  0.0481
    8TMC3     C13926   3.367   3.518  13.372 -0.2706 -0.0469  0.5521
    8TMC3     O13927   3.432   3.617  13.389  0.5640  0.4617  0.2925
    8TMC3     H13928   3.562   3.448  13.514 -0.1577 -1.0339  0.1416
    8TMC3    H113929   3.372   3.398  13.153 -0.1745  0.1540  2.7694
    8TMC3    H213930   3.789   3.414  13.158 -0.2931  1.1072 -0.4104
    8TMC3    C713931   3.583   3.450  13.007  0.0644  0.4859 -0.3561
    8TMC3    C813932   3.804   3.454  13.426  0.4494  0.2258  0.3136
    8TMC3    O113933   3.613   3.567  12.999  0.0531 -0.1302 -0.3385
    8TMC3    O213934   3.899   3.484  13.356 -0.3031  0.1128 -0.3533
    9TMC3    C113935   3.006   4.134  12.748 -0.3665 -0.0204 -1.2183
    9TMC3    C213936   3.078   4.045  12.665  0.5085 -0.4055  0.5890
    9TMC3    C313937   3.168   3.968  12.731  0.7772 -0.1327 -0.0922
    9TMC3    C413938   3.031   4.151  12.876 -0.3792  0.0564  0.9957
    9TMC3    C513939   3.123   4.073  12.946  0.1716  0.3162 -0.7951
    9TMC3    C613940   3.189   3.981  12.872 -0.7370 -0.6007  0.3259
    9TMC3     C13941   2.914   4.221  12.680 -0.2558  0.0041 -0.3218
    9TMC3     O13942   2.847   4.301  12.743 -0.8019  0.0032  0.4093
    9TMC3     H13943   3.044   4.023  12.565 -0.0836  2.3992  0.1637
    9TMC3    H113944   2.974   4.215  12.942  0.3616 -0.2628  1.9454
    9TMC3    H213945   3.264   3.925  12.926  2.0236  3.0873  0.2892
    9TMC3    C713946   3.059   4.015  13.060  1.2395 -0.0033  0.0402
    9TMC3    C813947   3.177   3.835  12.680 -0.3236  0.3076 -0.7024
    9TMC3    O113948   2.940   4.035  13.077  0.2458  0.1560  0.0520
    9TMC3    O213949   3.081   3.797  12.617 -0.0856  0.3205 -0.0206
   10MPD2     C13950   3.342   3.351  12.760  0.2820 -0.2024  0.9010
   10MPD2    C113951   3.409   3.432  12.839 -0.5638  0.3152  0.1331
   10MPD2    C213952   3.393   3.570  12.829 -0.3925  0.1565  0.4512
   10MPD2    C313953   3.304   3.630  12.739  0.1453  0.1215  0.5322
   10MPD2    C413954   3.226   3.540  12.662  0.3316 -0.1583  0.3977
   10MPD2    C513955   3.250   3.402  12.667  0.4130  1.2343 -0.1555
   10MPD2     H13956   3.450   3.634  12.894  2.2090 -2.3839  0.6789
   10MPD2    H113957   3.156   3.566  12.583 -1.0285 -0.7870  1.3972
   10MPD2    H213958   3.355   3.244  12.749 -0.4333 -0.3144  1.1683
   10MPD2    H313959   3.222   3.333  12.589 -0.5052  1.5371 -0.0968
   10MPD2     N13960   3.281   3.766  12.740  0.3951  0.4227  0.0645
   10MPD2    H513961   3.356   3.822  12.779  1.5330 -1.5914  0.7177
   10MPD2    N113962   3.496   3.374  12.931 -0.2688  0.1521  0.0086
   10MPD2    H713963   3.497   3.274  12.947  1.6140  0.2792  0.7211
   11MPD2     C13964   0.612   3.789  13.612  0.1178  0.0734  0.3076
   11MPD2    C113965   0.537   3.704  13.690  0.4015 -0.7100  0.6108
   11MPD2    C213966   0.413   3.657  13.648  0.3756  0.0504 -0.1820
   11MPD2    C313967   0.355   3.703  13.533 -0.2520  0.2928  0.4898
   11MPD2    C413968   0.426   3.792  13.453 -0.2267 -0.8020  0.0150
   11MPD2    C513969   0.554   3.836  13.494  0.1011  0.0326  0.0775
   11MPD2     H13970   0.353   3.607  13.723  0.7629 -0.7991 -0.4439
   11MPD2    H113971   0.403   3.837  13.357 -1.5335 -1.3340  0.0881
   11MPD2    H213972   0.713   3.823  13.632  0.2489  0.1688 -0.5128
   11MPD2    H313973   0.608   3.907  13.432 -1.4515  0.1494 -1.1567
   11MPD2     N13974   0.218   3.680  13.499 -0.5909 -0.1310 -0.3900
   11MPD2    H513975   0.179   3.747  13.434  1.8389 -1.3457 -3.0892
   11MPD2    N113976   0.579   3.652  13.812 -0.0614 -0.1204 -0.1937
   11MPD2    H713977   0.524   3.577  13.852  1.5125 -0.3962  1.4695
    1MPD1     C13978   2.591   4.374  17.251 -0.4313  0.5918 -0.5974
    1MPD1    C113979   2.622   4.242  17.275  0.1698  0.2594 -0.4166
    1MPD1    C213980   2.757   4.211  17.294  0.1556  0.0645  0.1146
    1MPD1    C313981   2.854   4.308  17.264  0.3160 -0.0672  0.0899
    1MPD1    C413982   2.813   4.442  17.231 -0.2081  0.2966 -0.2422
    1MPD1    C513983   2.681   4.464  17.223  0.2389  0.1528 -0.5426
    1MPD1     H13984   2.785   4.111  17.325  2.6534  0.3228 -1.2307
    1MPD1    H113985   2.886   4.519  17.212  1.3259 -1.5339 -1.8438
    1MPD1    H213986   2.487   4.404  17.244 -1.5272 -3.5577 -1.9040
    1MPD1    H313987   2.645   4.563  17.195  0.4852  0.2159 -0.6388
    1MPD1     N13988   2.993   4.290  17.254  0.3737 -0.5670 -0.4732
    1MPD1    H513989   3.048   4.367  17.216 -1.2241  0.9812  0.3541
    1MPD1    N113990   2.522   4.147  17.309  0.8913  0.3395  0.1678
    1MPD1    H613991   2.437   4.174  17.260  1.2296 -2.6422 -2.0729
    1MPD1    H713992   2.540   4.048  17.292 -1.3553  0.1197 -0.9198
    2MPD1     C13993   3.465   0.215  17.203 -0.3168  0.4659  0.0152
    2MPD1    C113994   3.348   0.178  17.140  0.3270  0.0381 -0.1667
    2MPD1    C213995   3.328   0.038  17.139  0.3419 -0.2215  0.3023
    2MPD1    C313996   3.402   4.669  17.208 -0.4201 -0.4212 -0.3504
    2MPD1    C413997   3.512   4.717  17.281 -0.3514 -0.7477 -0.8961
    2MPD1    C513998   3.538   0.125  17.282  0.4984 -0.1479 -0.1138
    2MPD1     H13999   3.244   4.722  17.085  1.4643  1.1138 -2.4739
    2MPD1    H114000   3.580   4.648  17.329 -0.2599 -1.4596 -2.0397
    2MPD1    H214001   3.504   0.315  17.191 -0.1680  0.0773 -2.9943
    2MPD1    H314002   3.625   0.160  17.336  0.0687 -0.2216  0.6166
    2MPD1     N14003   3.382   4.531  17.193 -0.8779 -0.1253  0.3164
    2MPD1    H514004   3.290   4.495  17.168 -2.3331  2.5921  1.7800
    2MPD1    N114005   3.286   0.259  17.044  0.6133 -0.4164  0.4752
    2MPD1    H614006   3.320   0.241  16.949  1.2984  1.3112  0.4026
    2MPD1    H714007   3.309   0.356  17.062 -0.1625 -0.2722  0.6991
    3TMC3    C114008   3.404   4.301  17.233  0.7810 -0.1612 -0.0378
    3TMC3    C214009   3.463   4.198  17.171 -0.1950  0.2184  0.2504
    3TMC3    C314010   3.398   4.078  17.163 -0.3656 -0.0640 -0.3201
    3TMC3    C414011   3.269   4.296  17.256  0.4133  0.6442 -0.2333
    3TMC3    C514012   3.201   4.181  17.243  0.0275  0.0073  0.0992
    3TMC3    C614013   3.265   4.065  17.195 -0.7899 -0.1387 -0.3534
    3TMC3     C14014   3.474   4.431  17.221 -0.1642 -1.0145  0.0322
    3TMC3     O14015   3.597   4.422  17.223  1.0348  0.2331 -0.0744
    3TMC3     H14016   3.565   4.214  17.139  0.1513  0.1324  1.3091
    3TMC3    H114017   3.217   4.369  17.317 -1.6012 -0.7253 -0.3094
    3TMC3    H214018   3.212   3.972  17.177  0.4376 -0.8833 -0.0966
    3TMC3    C714019   3.059   4.171  17.268 -0.0213  0.2404 -0.0132
    3TMC3    C814020   3.441   3.985  17.060  0.1136  0.2243  0.8379
    3TMC3    O114021   3.011   4.056  17.264 -0.3690 -0.3121  0.2208
    3TMC3    O214022   3.562   3.970  17.056 -0.3011  0.0848  0.0387
    4MPD1     C14023   3.422   3.734  16.620 -0.1750  0.3336  0.0941
    4MPD1    C114024   3.312   3.820  16.621 -0.3831 -0.1445  0.2275
    4MPD1    C214025   3.282   3.891  16.739 -0.0193 -0.4116 -0.0400
    4MPD1    C314026   3.366   3.882  16.852 -0.0940  0.0593  0.1138
    4MPD1    C414027   3.472   3.798  16.846 -0.3543 -0.4414  0.4067
    4MPD1    C514028   3.504   3.725  16.732  0.1961 -0.2705 -0.0047
    4MPD1     H14029   3.190   3.949  16.738 -0.5640 -1.2731  0.5045
    4MPD1    H114030   3.541   3.778  16.928  0.5067  0.3314 -0.1245
    4MPD1    H214031   3.450   3.666  16.540 -1.2743 -1.1744  1.0090
    4MPD1    H314032   3.585   3.654  16.735  0.2943 -0.1975 -0.7824
    4MPD1     N14033   3.341   3.959  16.967 -0.7535  0.3250 -0.0872
    4MPD1    H514034   3.251   4.006  16.964 -0.5295  0.8226  1.2260
    4MPD1    N114035   3.243   3.840  16.505 -0.5100 -0.2934  0.2716
    4MPD1    H614036   3.227   3.755  16.452  0.3084 -0.5558  0.4515
    4MPD1    H714037   3.154   3.887  16.518 -0.2390 -0.0386  1.2028
    1TCq1    O114038   3.492   3.863  11.212 -0.1469 -0.7223 -0.1358
    1TCq1    C114039   3.594   3.874  11.292  0.0808 -0.1086  1.3809
    1TCq1    O214040   3.651   3.789  11.358  0.5138  0.3405  0.1164
    1TCq1    C214041   3.620   4.019  11.296 -0.6055 -0.7728 -0.3763
    1TCq1    C314042   3.597   4.091  11.178  0.1235 -1.0478 -0.4024
    1TCq1    C414043   3.579   4.230  11.189 -0.1923  0.4479  0.1122
    1TCq1    C514044   3.590   4.286  11.314  0.0175 -0.4649  0.6548
    1TCq1    C614045   3.619   4.216  11.422 -0.4636  0.0383  0.0799
    1TCq1    C714046   3.637   4.081  11.420  0.7915  0.2807 -0.1486
    1TCq1    C814047   3.579   4.267  11.549 -0.3488  0.4672  0.2787
    1TCq1    O414048   3.658   4.290  11.638 -0.2540 -0.4149  0.0286
    1TCq1    C914049   3.503   4.304  11.091  0.3253  0.1014 -0.7770
    1TCq1    O514050   3.459   4.418  11.126  0.6403  0.0366 -0.0488
    1TCq1    O614051   3.497   4.253  10.978  0.1222 -0.1232 -0.9753
    1TCq1    H114052   3.445   3.948  11.210  0.4244 -0.3413  2.6886
    1TCq1    H214053   3.569   4.048  11.083 -2.0316 -0.9051  0.1740
    1TCq1    H314054   3.559   4.388  11.333  1.7482  0.1770  0.0353
    1TCq1    H414055   3.675   4.026  11.505  0.2265 -0.5833 -0.4541
    2MPD1     C14056   3.193   4.408  11.873 -0.1892 -0.2620 -0.0603
    2MPD1    C114057   3.138   4.391  11.744 -0.1047  0.1283  0.2303
    2MPD1    C214058   3.218   4.343  11.644 -0.3549  0.2427 -0.1618
    2MPD1    C314059   3.360   4.324  11.663 -0.3673  0.0085 -0.3279
    2MPD1    C414060   3.414   4.358  11.788  0.1824 -0.3307 -0.3502
    2MPD1    C514061   3.329   4.387  11.891 -0.3699 -0.2447  0.0791
    2MPD1     H14062   3.171   4.323  11.549  1.5643 -1.4986 -0.7351
    2MPD1    H114063   3.517   4.347  11.821  0.3670  0.2009 -0.7476
    2MPD1    H214064   3.124   4.434  11.952  1.4682 -0.3265  1.4075
    2MPD1    H314065   3.386   4.402  11.982  1.1416  0.5963 -1.0015
    2MPD1     N14066   3.443   4.284  11.552 -0.2327  0.6365 -0.2161
    2MPD1    H514067   3.392   4.264  11.466 -0.1929  1.2227 -0.3725
    2MPD1    N114068   2.997   4.395  11.732 -0.4583  0.1804  0.0786
    2MPD1    H614069   2.956   4.459  11.800  0.1547  0.2141  0.4165
    2MPD1    H714070   2.957   4.403  11.638 -1.4282 -0.4161  0.4391
    1TCq1    O114071   2.840   1.690   0.835  0.3145 -0.3291  0.2824
    1TCq1    C114072   2.878   1.666   0.966 -0.6872  0.2710  0.3040
    1TCq1    O214073   2.866   1.742   1.059  0.3768  0.1961 -0.7150
    1TCq1    C214074   2.939   1.535   0.982  0.4282 -1.0980 -0.0691
    1TCq1    C314075   2.899   1.432   0.903 -0.3587 -0.3255 -0.2873
    1TCq1    C414076   2.987   1.334   0.882 -0.9016  0.1757  0.1569
    1TCq1    C514077   3.099   1.325   0.957 -0.1585  0.0199 -0.3947
    1TCq1    C614078   3.135   1.426   1.044 -0.5468  0.3468  0.0577
    1TCq1    C714079   3.053   1.531   1.059 -0.1839  0.2441  0.3449
    1TCq1    C814080   3.276   1.443   1.082 -0.1317 -0.1193 -0.1754
    1TCq1    O414081   3.319   1.553   1.109  0.0802 -0.0205  0.0282
    1TCq1    C914082   2.934   1.210   0.835  0.2023  0.1526 -0.2416
    1TCq1    O514083   2.806   1.203   0.831 -0.5494 -0.0922  0.1047
    1TCq1    O614084   3.014   1.114   0.812  0.0854 -0.0372  0.0797
    1TCq1    H114085   2.864   1.618   0.773  1.2310 -0.3575  0.6716
    1TCq1    H214086   2.809   1.440   0.844  0.0396  1.7655 -0.6158
    1TCq1    H314087   3.162   1.238   0.946  2.2269  1.6955  0.1198
    1TCq1    H414088   3.097   1.621   1.101  2.6228 -0.7079 -0.5336
    2MPD1     C14089   3.720   1.225   1.251 -0.5566  0.3527  0.8546
    2MPD1    C114090   3.628   1.129   1.246 -0.5290  0.5933  0.3960
    2MPD1    C214091   3.504   1.160   1.193  0.8023 -0.4485 -0.6748
    2MPD1    C314092   3.471   1.290   1.151  0.0706 -0.0625  0.1407
    2MPD1    C414093   3.579   1.383   1.153 -0.2853  0.2974 -0.4571
    2MPD1    C514094   3.697   1.349   1.201 -0.0929  0.2020 -0.0531
    2MPD1     H14095   3.436   1.076   1.182  1.7111 -0.9874 -2.1302
    2MPD1    H114096   3.552   1.484   1.124  0.3776 -0.8553 -5.1117
    2MPD1    H214097   3.818   1.191   1.284 -1.0515 -1.6207  0.3000
    2MPD1    H314098   3.772   1.427   1.210 -0.2308  0.4028 -0.7165
    2MPD1     N14099   3.340   1.318   1.094 -0.4715 -0.0133  0.4849
    2MPD1    H514100   3.285   1.233   1.089  0.8616 -0.8512  0.2196
    2MPD1    N114101   3.665   0.993   1.273 -0.4399 -0.0176 -0.7348
    2MPD1    H614102   3.587   0.933   1.300  0.5509 -1.1397 -0.3604
    2MPD1    H714103   3.729   0.995   1.352 -0.1255 -1.1362 -0.9526
    1MPD1     C14104   0.686   4.092  12.001  0.0887 -0.1517  0.4591
    1MPD1    C114105   0.609   4.156  11.901  0.2735 -1.1249 -0.2520
    1MPD1    C214106   0.680   4.248  11.821 -0.0622 -0.6252  0.3069
    1MPD1    C314107   0.818   4.258  11.815  0.2331  0.0858  1.2339
    1MPD1    C414108   0.890   4.177  11.904  1.0975 -0.3153  0.1272
    1MPD1    C514109   0.823   4.105  12.000  0.3675  0.4192 -0.1310
    1MPD1     H14110   0.617   4.308  11.756  0.4045  0.7329  1.1187
    1MPD1    H114111   0.998   4.180  11.900  1.1047  0.0622  0.5812
    1MPD1    H214112   0.637   4.041  12.083  0.0430 -0.2047  0.3987
    1MPD1    H314113   0.885   4.070  12.082 -0.9757 -0.5336  0.4677
    1MPD1     N14114   0.875   4.362  11.745 -0.8960 -0.2049 -0.2682
    1MPD1    H514115   0.825   4.427  11.685 -1.1173  0.9965  1.2372
    1MPD1    N114116   0.474   4.150  11.910 -0.1446 -0.2488 -0.0328
    1MPD1    H614117   0.440   4.063  11.949  0.0427  0.4223  1.6131
    1MPD1    H714118   0.422   4.186  11.830 -0.5128  0.3150  0.4647
    2MPD1     C14119   0.222   0.117  11.274  0.7084 -0.1422  0.0366
    2MPD1    C114120   0.145   0.158  11.167  0.4045  0.4823  0.1221
    2MPD1    C214121   0.201   0.162  11.044 -0.5896 -0.0924 -0.8600
    2MPD1    C314122   0.328   0.117  11.028 -0.7546  0.1841 -0.3552
    2MPD1    C414123   0.413   0.084  11.131 -0.8169 -0.4369  0.6816
    2MPD1    C514124   0.357   0.085  11.257 -0.3494 -0.3103 -0.0564
    2MPD1     H14125   0.148   0.195  10.955 -1.6733 -0.8259 -0.4804
    2MPD1    H114126   0.515   0.051  11.114 -0.9110 -0.6587  0.5610
    2MPD1    H214127   0.189   0.102  11.377 -1.0303  0.8043 -0.3942
    2MPD1    H314128   0.414   0.051  11.342 -1.4476  0.4769  0.9964
    2MPD1     N14129   0.381   0.098  10.899  0.3621  0.5545 -0.1196
    2MPD1    H514130   0.477   0.067  10.896  0.1068 -0.4960  2.9573
    2MPD1    N114131   0.003   0.169  11.190 -0.4324 -0.0451 -0.1156
    2MPD1    H614132   4.700   0.213  11.277 -3.9117  0.5509 -1.6006
    2MPD1    H714133   4.678   0.229  11.126 -0.0086  1.4235  0.9165
    3MPD1     C14134   0.355   4.215  10.142 -0.4020 -0.2085 -0.1636
    3MPD1    C114135   0.319   4.206  10.274  0.6200 -0.4872  0.2385
    3MPD1    C214136   0.350   4.309  10.354  0.1535 -0.8610 -0.0511
    3MPD1    C314137   0.410   4.425  10.302 -0.1052  0.1219 -0.0178
    3MPD1    C414138   0.459   4.419  10.174  0.4370  0.6797 -0.4025
    3MPD1    C514139   0.413   4.325  10.084  0.1624  0.8242  0.2771
    3MPD1     H14140   0.324   4.305  10.459  0.8905 -2.7277  0.0537
    3MPD1    H114141   0.525   4.493  10.132  0.3948  2.2988  2.3507
    3MPD1    H214142   0.320   4.137  10.077  0.8078 -1.3618  0.5645
    3MPD1    H314143   0.447   4.313   9.982 -0.9381  1.2298 -0.1497
    3MPD1     N14144   0.425   4.536  10.382 -0.0832 -0.0961 -0.4848
    3MPD1    H514145   0.387   4.543  10.475  1.0059  0.0851 -0.0527
    3MPD1    N114146   0.253   4.098  10.326 -0.1450  0.5335 -0.6883
    3MPD1    H614147   0.183   4.127  10.395 -1.0080  0.1423 -1.4022
    3MPD1    H714148   0.209   4.050  10.248  0.4113  0.7194 -1.1163
    4MPD2     C14149   0.932   0.401  11.555  0.0536  0.3683 -0.2562
    4MPD2    C114150   1.033   0.311  11.525  0.4602 -0.2238  0.4887
    4MPD2    C214151   1.128   0.352  11.431  0.4408  0.8499 -0.3907
    4MPD2    C314152   1.117   0.473  11.362  0.6739  0.0864 -0.2464
    4MPD2    C414153   1.023   0.561  11.410 -0.1932 -0.1589  0.1245
    4MPD2    C514154   0.934   0.531  11.500 -1.1085 -0.4295  0.5809
    4MPD2     H14155   1.199   0.275  11.404 -0.0025 -0.2209  1.5085
    4MPD2    H114156   1.022   0.666  11.383  2.4549 -0.8123 -2.5338
    4MPD2    H214157   0.859   0.389  11.634 -0.0014 -3.9171 -0.9827
    4MPD2    H314158   0.870   0.605  11.545 -1.2845 -0.5756  0.5710
    4MPD2     N14159   1.214   0.508  11.261  0.2127  0.4738  0.3671
    4MPD2    H514160   1.220   0.607  11.238  0.0431  0.5241  0.5461
    4MPD2    N114161   1.048   0.183  11.578 -0.6825  0.2994  0.7846
    4MPD2    H714162   1.133   0.132  11.556 -2.5641 -1.7295 -1.6764
    5TMC3    C114163   1.039   0.008  11.719 -0.1747 -0.4617  0.8264
    5TMC3    C214164   0.971   4.620  11.717  0.1147 -0.4800  0.0705
    5TMC3    C314165   1.040   4.508  11.674  0.2937 -0.1064  0.3951
    5TMC3    C414166   1.177   0.021  11.712  1.2544 -0.2437 -0.3766
    5TMC3    C514167   1.243   4.636  11.661  0.2575 -0.3238 -0.0350
    5TMC3    C614168   1.173   4.519  11.644 -0.2143 -0.4569  0.3337
    5TMC3     C14169   0.968   0.128  11.675 -0.5715 -0.0557 -0.0080
    5TMC3     O14170   0.856   0.149  11.713 -0.2565 -0.5397 -0.2063
    5TMC3     H14171   0.865   4.613  11.734 -0.4479 -1.0961 -3.6598
    5TMC3    H114172   1.225   0.116  11.732  0.3611  0.0037  0.5466
    5TMC3    H214173   1.232   4.433  11.615 -0.4485 -0.9798  1.4348
    5TMC3    C714174   1.316   4.685  11.539  0.5092 -0.5713 -0.2284
    5TMC3    C814175   1.010   4.383  11.737  0.0462 -0.0078  0.8885
    5TMC3    O114176   1.302   0.079  11.519  0.4653  0.6020  0.1121
    5TMC3    O214177   1.109   4.309  11.761  0.3650 -0.1276  0.1934
    6TMC3    C114178   0.404   0.091  10.667 -0.4359  0.0069  0.0308
    6TMC3    C214179   0.375   0.024  10.547 -0.4171 -0.5944 -0.1762
    6TMC3    C314180   0.469   0.030  10.449  0.2090  0.4382 -0.3179
    6TMC3    C414181   0.513   0.179  10.673 -0.0623 -0.6437  0.4136
    6TMC3    C514182   0.588   0.195  10.559 -0.4801 -0.5294 -0.0608
    6TMC3    C614183   0.581   0.109  10.456 -0.2040 -0.0825  0.8100
    6TMC3     C14184   0.319   0.083  10.779 -0.8499 -1.1007 -0.4915
    6TMC3     O14185   0.203   0.060  10.761  0.6537  0.4713  0.1763
    6TMC3     H14186   0.290   4.683  10.535 -1.0067  0.3808 -1.4447
    6TMC3    H114187   0.547   0.223  10.766  1.7725  0.9696 -1.0134
    6TMC3    H214188   0.659   0.110  10.381  1.3707  1.5364  2.4574
    6TMC3    C714189   0.698   0.284  10.557 -0.0618  0.2941  0.5975
    6TMC3    C814190   0.485   4.654  10.347  0.1076  0.3831 -0.1275
    6TMC3    O114191   0.804   0.226  10.534 -0.5268  0.1884 -0.2171
    6TMC3    O214192   0.545   4.697  10.247 -0.2024 -0.0805  0.0701
    7MPD2     C14193   1.536   4.632  11.081 -0.4532 -0.6369  0.4462
    7MPD2    C114194   1.483   0.015  11.144  0.6078  0.0834 -0.1097
    7MPD2    C214195   1.443   0.004  11.278  0.0047  0.4206 -0.3775
    7MPD2    C314196   1.445   4.606  11.343 -0.0548  0.7274 -0.2150
    7MPD2    C414197   1.507   4.500  11.283 -0.3379 -0.2361 -0.4283
    7MPD2    C514198   1.551   4.515  11.156 -1.0544  0.4747 -0.3700
    7MPD2     H14199   1.401   0.092  11.325 -0.3210 -0.0025  0.1121
    7MPD2    H114200   1.503   4.402  11.328  2.8578  0.0445  0.4711
    7MPD2    H214201   1.567   4.634  10.977  0.5504  2.9487  0.8349
    7MPD2    H314202   1.582   4.420  11.114 -0.2816  1.2672 -1.5795
    7MPD2     N14203   1.376   4.591  11.464  1.0984  0.0981  0.0712
    7MPD2    H514204   1.377   4.499  11.507 -3.2543  1.0792  2.3191
    7MPD2    N114205   1.470   0.144  11.086  0.3845 -0.2116 -0.4302
    7MPD2    H714206   1.436   0.217  11.147 -1.7807 -0.6106 -1.1801
    8TMC3    C114207   1.475   0.324  10.942 -0.3180 -0.3118 -0.1377
    8TMC3    C214208   1.374   0.338  10.851  1.0064  0.1369 -0.3593
    8TMC3    C314209   1.283   0.429  10.879  0.3172 -0.6758  0.5456
    8TMC3    C414210   1.483   0.394  11.061 -0.1561 -0.4008 -0.4791
    8TMC3    C514211   1.376   0.474  11.088  0.1393 -0.3374 -0.0533
    8TMC3    C614212   1.276   0.502  10.990  0.4797 -0.4629 -0.3443
    8TMC3     C14213   1.506   0.181  10.954 -0.5954 -0.5323 -0.3798
    8TMC3     O14214   1.558   0.121  10.862 -0.4588  0.0606 -0.1861
    8TMC3     H14215   1.352   0.271  10.769  1.4625 -1.5940  0.9247
    8TMC3    H114216   1.561   0.383  11.135 -0.0994  0.1629 -0.4526
    8TMC3    H214217   1.184   0.555  11.015 -0.8645 -1.7272 -2.6280
    8TMC3    C714218   1.320   0.429  11.216 -0.1464 -0.4584  0.3558
    8TMC3    C814219   1.181   0.443  10.778 -0.3617  0.1576  0.5149
    8TMC3    O114220   1.379   0.341  11.271 -0.2677 -0.2754 -0.2959
    8TMC3    O214221   1.142   0.344  10.721  0.3809  0.2670  0.4029
    9MPD2     C14222   0.911   0.685  10.789  0.3968  0.1707  0.1131
    9MPD2    C114223   0.975   0.571  10.751 -0.1970 -0.0742 -1.1196
    9MPD2    C214224   0.897   0.471  10.684  0.0735 -0.3227 -0.2097
    9MPD2    C314225   0.756   0.482  10.684 -0.7631  1.4236  0.3351
    9MPD2    C414226   0.702   0.608  10.721 -0.1366  0.0339 -0.0535
    9MPD2    C514227   0.779   0.704  10.772  0.1488  0.3055 -0.1754
    9MPD2     H14228   0.939   0.379  10.645  2.5540  0.9509 -0.4991
    9MPD2    H114229   0.601   0.638  10.698 -1.3641 -1.0870  3.7668
    9MPD2    H214230   0.965   0.774  10.817  1.1878 -0.3802  0.3268
    9MPD2    H314231   0.729   0.800  10.771 -0.1922  0.1237 -0.3223
    9MPD2     N14232   0.667   0.395  10.634  0.0064  0.4079 -0.1498
    9MPD2    H514233   0.570   0.421  10.634  0.2073  1.1162  1.7272
    9MPD2    N114234   1.111   0.562  10.794  0.1694 -0.2211 -0.4140
    9MPD2    H714235   1.150   0.639  10.847 -2.4146  0.3429  0.6662
    1MPD1     C14236   2.150   2.482   0.123  0.7227 -0.0333  0.1051
    1MPD1    C114237   2.221   2.585   0.067  0.6780 -0.4639  0.4648
    1MPD1    C214238   2.149   2.691   0.018  0.0773 -0.1141  0.0627
    1MPD1    C314239   2.016   2.708   0.052 -0.1492 -1.4661  0.4565
    1MPD1    C414240   1.944   2.602   0.114 -0.5506 -0.0225  0.2411
    1MPD1    C514241   2.017   2.495   0.148  0.2927 -0.1575  0.3797
    1MPD1     H14242   2.210   2.769  17.681  1.7223 -2.1040 -1.1837
    1MPD1    H114243   1.839   2.602   0.141 -1.0410  1.2894 -1.6475
    1MPD1    H214244   2.196   2.393   0.163  0.1284  0.0484  0.9754
    1MPD1    H314245   1.969   2.411   0.199  1.3689  0.0501  1.7219
    1MPD1     N14246   1.953   2.830   0.035  0.5835 -0.0882  0.3196
    1MPD1    H514247   1.861   2.846   0.074  0.4436  0.8175 -0.3914
    1MPD1    N114248   2.363   2.565   0.041  0.1574 -0.7651 -0.0761
    1MPD1    H614249   2.421   2.647   0.027 -0.5629 -0.2388  0.0001
    1MPD1    H714250   2.416   2.506   0.105 -1.4615 -0.1348  1.8551
    2MPD1     C14251   1.596   3.185  16.859  0.3349 -0.2001 -0.0654
    2MPD1    C114252   1.495   3.153  16.945 -0.5874  0.1627  0.0826
    2MPD1    C214253   1.533   3.159  17.079  0.3682  0.3876 -0.0484
    2MPD1    C314254   1.663   3.159  17.127 -0.1767 -0.2986 -0.1302
    2MPD1    C414255   1.765   3.182  17.032  0.2342  0.3819 -0.4780
    2MPD1    C514256   1.724   3.190  16.899 -0.2700  0.1023 -0.3185
    2MPD1     H14257   1.459   3.154  17.158 -0.0686 -0.1509 -0.4938
    2MPD1    H114258   1.869   3.193  17.060 -0.1787 -0.5457  1.3850
    2MPD1    H214259   1.583   3.195  16.752 -1.8200 -0.5445  0.1528
    2MPD1    H314260   1.800   3.199  16.822 -1.0276 -0.3181 -1.1105
    2MPD1     N14261   1.683   3.150  17.266  0.8537  0.5053  0.3389
    2MPD1    H514262   1.598   3.122  17.315  2.1098 -0.4344  1.9788
    2MPD1    N114263   1.364   3.147  16.905  0.1285  0.2138  0.1594
    2MPD1    H614264   1.361   3.124  16.806 -3.4591  2.4697 -0.2631
    2MPD1    H714265   1.308   3.091  16.968 -2.4062 -0.6659 -2.8698
    3TCq2    C114266   1.806   3.160  17.324 -0.0991  0.3641 -0.3812
    3TCq2    O214267   1.920   3.173  17.280 -0.3961 -0.2862 -0.5055
    3TCq2    C214268   1.795   3.149  17.472  0.3450  0.4507 -0.3913
    3TCq2    C314269   1.668   3.116  17.526  0.0580 -0.1945  0.0395
    3TCq2    C414270   1.667   3.057  17.651 -0.0868 -0.6526  0.1070
    3TCq2    C514271   1.771   3.016   0.015 -0.4566  0.4888  0.0739
    3TCq2    C614272   1.896   3.044  17.661 -0.2749 -0.1971 -1.2204
    3TCq2    C714273   1.907   3.125  17.550  0.8060  0.1377  0.1557
    3TCq2    C814274   2.000   2.939  17.669 -0.3988 -0.2757  0.6539
    3TCq2    O414275   2.093   2.952  17.587 -0.2683 -0.0880 -0.0504
    3TCq2    C914276   1.540   3.014  17.696 -0.4822 -0.5930  0.9636
    3TCq2    O514277   1.535   2.929   0.084  0.3688  1.2071 -0.1311
    3TCq2    O614278   1.436   3.057  17.635 -0.5474 -0.6268 -0.1793
    3TCq2    H214279   1.573   3.134  17.477  0.6032 -0.6921 -1.1993
    3TCq2    H314280   1.757   2.980   0.117 -1.3248  0.4685 -0.0556
    3TCq2    H414281   1.998   3.144  17.495 -0.0528  0.0984 -1.2882
    1TCq1    O114282   2.828   2.491  12.992 -0.4299 -0.1900  0.1777
    1TCq1    C114283   2.947   2.460  12.944 -0.3634 -0.2064 -0.1964
    1TCq1    O214284   3.047   2.522  12.982  0.1766 -0.0726 -0.8852
    1TCq1    C214285   2.939   2.321  12.903  0.0168  0.3763  0.0624
    1TCq1    C314286   2.820   2.278  12.853  0.1322 -0.3806 -0.0745
    1TCq1    C414287   2.798   2.143  12.861 -0.1527 -0.3520  0.5324
    1TCq1    C514288   2.891   2.059  12.911 -0.3174  0.2793 -0.2471
    1TCq1    C614289   3.003   2.105  12.955 -0.2941 -0.6314 -0.3324
    1TCq1    C714290   3.029   2.231  12.957  0.2721  0.1799  0.9489
    1TCq1    C814291   3.102   2.010  12.995 -0.2220  0.4767  0.0231
    1TCq1    O414292   3.115   1.901  12.939  0.4133 -0.4117  0.1033
    1TCq1    C914293   2.673   2.093  12.815  0.5053  0.0903 -0.5853
    1TCq1    O514294   2.636   1.983  12.864  0.0530  0.4954  0.0503
    1TCq1    O614295   2.602   2.169  12.744 -0.1918 -0.5766 -0.3094
    1TCq1    H114296   2.764   2.418  12.983 -3.0061  2.2864 -1.6737
    1TCq1    H214297   2.746   2.343  12.808 -0.4230 -0.2404  1.0467
    1TCq1    H314298   2.881   1.952  12.922  1.4510  0.1489 -0.0287
    1TCq1    H414299   3.115   2.273  13.008 -0.5758  1.3211  1.4514
    2MPD2     C14300   3.366   1.924  13.067 -0.5285  0.3923  0.4973
    2MPD2    C114301   3.297   2.007  13.146 -0.2488  0.1219  0.0799
    2MPD2    C214302   3.343   2.044  13.268  0.8360 -0.1296  0.0956
    2MPD2    C314303   3.465   2.004  13.311 -0.5249 -0.0601 -0.6602
    2MPD2    C414304   3.543   1.929  13.226  0.5840 -0.5578  0.2458
    2MPD2    C514305   3.494   1.887  13.110  0.5687 -1.0207  0.7194
    2MPD2     H14306   3.296   2.127  13.320  0.2180  0.3330 -1.2111
    2MPD2    H114307   3.645   1.900  13.246 -0.1126 -1.8397  1.9362
    2MPD2    H214308   3.331   1.898  12.967  0.0382 -2.8862  1.1386
    2MPD2    H314309   3.559   1.819  13.056 -0.0344 -0.5151 -0.6470
    2MPD2     N14310   3.514   2.070  13.432 -0.3028 -0.2466 -0.2232
    2MPD2    H514311   3.439   2.124  13.475 -0.1789 -2.6372  3.0353
    2MPD2    N114312   3.182   2.064  13.094 -0.4350 -0.4124  0.0515
    2MPD2    H714313   3.147   2.151  13.130 -3.5423 -1.2429 -1.0011
    3TCq1    O114314   3.394   2.467  13.809  0.1646  0.2829  0.0933
    3TCq1    C114315   3.447   2.427  13.688 -0.2705 -0.2542  0.8798
    3TCq1    O214316   3.433   2.497  13.587 -0.3256  0.4362 -0.4644
    3TCq1    C214317   3.530   2.310  13.709 -0.2659 -0.0625 -0.0992
    3TCq1    C314318   3.611   2.313  13.814  0.3402  0.2364  0.0831
    3TCq1    C414319   3.713   2.232  13.811  0.1121 -0.4318 -0.2135
    3TCq1    C514320   3.725   2.137  13.713  0.4214 -0.2144 -0.2014
    3TCq1    C614321   3.650   2.146  13.599  0.4246 -0.4589 -0.3234
    3TCq1    C714322   3.556   2.243  13.595 -0.4970 -0.0938  0.5033
    3TCq1    C814323   3.634   2.051  13.495 -0.0062 -0.4000 -0.5061
    3TCq1    O414324   3.729   1.980  13.461  0.5160  0.5278  0.0183
    3TCq1    C914325   3.789   2.231  13.927  0.3326 -0.0314  0.3532
    3TCq1    O514326   3.895   2.159  13.929  0.4043  0.1817 -0.1213
    3TCq1    O614327   3.766   2.300  14.026  0.1385 -0.4872 -0.3751
    3TCq1    H114328   3.406   2.402  13.882  2.3143 -0.3782 -0.8483
    3TCq1    H214329   3.607   2.379  13.900 -1.5306 -0.5766  0.6099
    3TCq1    H314330   3.787   2.050  13.729  1.4167  0.5481  0.1010
    3TCq1    H414331   3.527   2.292  13.503 -0.3826 -0.4891  0.2585
    1MPD2     C14332   3.813   3.990  14.521 -0.1121  0.4103 -0.5561
    1MPD2    C114333   3.743   3.900  14.601  0.3478  0.1253  0.1703
    1MPD2    C214334   3.809   3.805  14.671 -0.2660 -0.8096  0.2559
    1MPD2    C314335   3.950   3.799  14.664  0.5217  0.4822 -0.3519
    1MPD2    C414336   4.013   3.891  14.586  0.1515 -0.1534  0.3712
    1MPD2    C514337   3.950   3.983  14.515  0.3596 -0.2451  0.2541
    1MPD2     H14338   3.762   3.730  14.733  0.3296  0.0346  1.7380
    1MPD2    H114339   4.120   3.889  14.568  0.4430 -1.3864  2.2140
    1MPD2    H214340   3.778   4.079  14.469 -0.5420  1.0857  0.9082
    1MPD2    H314341   4.000   4.059  14.456  1.8919 -1.6606 -0.2589
    1MPD2     N14342   4.032   3.704  14.738  0.1752  0.7242  0.0550
    1MPD2    H514343   4.132   3.718  14.746  0.4068 -2.2668  2.3203
    1MPD2    N114344   3.597   3.902  14.607  0.0427  0.5322  0.0573
    1MPD2    H714345   3.548   3.979  14.563  1.6884  1.6442  0.1590
    2TMC3    C114346   3.380   3.831  14.668 -0.2350  0.5575  0.8523
    2TMC3    C214347   3.315   3.715  14.704 -0.2418  0.0191  0.2980
    2TMC3    C314348   3.216   3.724  14.798 -0.1288  0.4552  0.0164
    2TMC3    C414349   3.350   3.957  14.710  0.0225 -0.0530  0.3157
    2TMC3    C514350   3.251   3.964  14.799  0.2838  0.3335 -0.2892
    2TMC3    C614351   3.181   3.850  14.833 -0.3000 -0.7952  0.1054
    2TMC3     C14352   3.522   3.798  14.658  0.3406  0.1949 -0.2342
    2TMC3     O14353   3.544   3.683  14.693 -0.1661 -0.0139 -0.0252
    2TMC3     H14354   3.335   3.628  14.643  0.2736 -0.2510  0.8598
    2TMC3    H114355   3.405   4.044  14.676  0.4268 -0.8343 -1.0332
    2TMC3    H214356   3.087   3.854  14.888 -0.5537 -0.3401 -0.3649
    2TMC3    C714357   3.176   4.090  14.797 -0.2114  0.2248 -0.4207
    2TMC3    C814358   3.241   3.640  14.913 -0.7447 -0.5328  0.0577
    2TMC3    O114359   3.170   4.152  14.696  0.3410  0.2270  0.4084
    2TMC3    O214360   3.169   3.641  15.014 -0.7386  0.1801 -0.1827
    3TCq1    O114361   2.760   4.663  15.808  0.4444  0.7925 -0.1918
    3TCq1    C114362   2.657   4.628  15.726 -1.0675  0.5033  0.4518
    3TCq1    O214363   2.552   4.684  15.708 -0.2592  0.3467 -0.8113
    3TCq1    C214364   2.704   4.513  15.649  0.7940  0.2939 -0.0092
    3TCq1    C314365   2.768   4.407  15.715 -0.3219  0.2277 -0.0021
    3TCq1    C414366   2.821   4.305  15.641  0.0012 -0.0674 -0.0100
    3TCq1    C514367   2.816   4.303  15.509  0.2702 -1.0575 -0.1277
    3TCq1    C614368   2.753   4.410  15.450 -0.0591 -0.9396 -0.2642
    3TCq1    C714369   2.698   4.518  15.512 -0.5092 -0.1463  0.0512
    3TCq1    C814370   2.753   4.425  15.304  0.2403  0.0010 -0.3417
    3TCq1    O414371   2.684   4.515  15.260 -0.1484 -0.4280 -0.5339
    3TCq1    C914372   2.873   4.187  15.704  0.1447  0.2998  0.0439
    3TCq1    O514373   2.885   4.188  15.832  0.1243 -0.0238 -0.9607
    3TCq1    O614374   2.945   4.110  15.631 -0.2600  0.0533 -0.2519
    3TCq1    H114375   2.842   4.616  15.782  0.7063  0.3079  1.5255
    3TCq1    H214376   2.774   4.397  15.822 -0.7588  0.3091  0.0296
    3TCq1    H314377   2.845   4.213  15.456 -0.2948 -1.8284  0.8889
    3TCq1    H414378   2.626   4.588  15.471  2.3163  1.7699 -1.6209
    4MPD2     C14379   2.855   4.417  15.026 -0.0310  0.4296 -0.1577
    4MPD2    C114380   2.894   4.329  15.120  0.3258  0.4127 -0.0503
    4MPD2    C214381   3.000   4.242  15.087 -1.1742  0.4624 -0.2661
    4MPD2    C314382   3.029   4.214  14.949 -0.1333  0.4438  0.1640
    4MPD2    C414383   2.974   4.296  14.854 -0.1092  0.2709 -0.8699
    4MPD2    C514384   2.893   4.404  14.889 -0.3426 -0.2382  0.3050
    4MPD2     H14385   3.039   4.173  15.160 -1.9859  0.1231 -0.1534
    4MPD2    H114386   3.004   4.287  14.750 -1.8585 -2.8219 -1.0964
    4MPD2    H214387   2.785   4.496  15.049  1.3240  0.4969  3.6217
    4MPD2    H314388   2.861   4.479  14.818 -0.0155 -1.7798 -1.4576
    4MPD2     N14389   3.115   4.111  14.916  0.1974  0.9641 -0.3747
    4MPD2    H514390   3.150   4.068  15.001 -1.3686 -0.6270 -0.5436
    4MPD2    N114391   2.851   4.341  15.251  0.6465  0.5422  0.5045
    4MPD2    H714392   2.888   4.277  15.321  0.6549  0.1330  0.1280
    5TMC2    C114393   4.026   3.430  15.106  0.1598 -0.4453  0.0101
    5TMC2    C214394   4.116   3.507  15.166 -0.5525 -0.3817 -0.0048
    5TMC2    C314395   4.198   3.588  15.092 -0.4067 -0.0738  0.0621
    5TMC2    C414396   4.014   3.435  14.969 -0.4393 -0.0410 -0.1386
    5TMC2    C514397   4.082   3.529  14.891 -1.2421 -0.3058 -0.5394
    5TMC2    C614398   4.180   3.607  14.956 -0.5649 -0.1141  0.0424
    5TMC2     C14399   3.895   3.432  15.173 -0.0616  0.0033  0.0653
    5TMC2     O14400   3.890   3.403  15.291  0.0749  0.2660 -0.2744
    5TMC2     H14401   4.119   3.523  15.273  2.3896  1.0275 -0.3000
    5TMC2    H114402   3.942   3.368  14.922 -0.6656  0.7502 -0.9122
    5TMC2    H214403   4.232   3.686  14.903  0.4548 -0.0912  1.0739
    5TMC2    C714404   3.985   3.598  14.809 -0.1129  0.1246  0.4854
    5TMC2    C814405   4.304   3.651  15.162 -0.1883 -0.2643  0.2297
    5TMC2    O114406   3.871   3.560  14.838  0.3076 -0.3023  0.1824
    5TMC2    O214407   4.322   3.633  15.282 -0.2211 -0.2713 -0.2336
    5TMC2    O514408   4.411   3.700  15.097 -0.6239  0.1753  0.4531
    5TMC2    H514409   4.402   3.695  14.999 -1.1281  1.4814  0.4244
    6MPD2     C14410   3.385   3.487  15.127 -0.3968 -0.1744  0.5665
    6MPD2    C114411   3.438   3.523  15.009  1.1766 -0.2645 -0.8336
    6MPD2    C214412   3.576   3.515  14.997 -0.7131 -0.1404 -0.4167
    6MPD2    C314413   3.654   3.473  15.104  0.3679  0.2595 -0.1362
    6MPD2    C414414   3.597   3.441  15.230  0.3053 -0.1137 -0.2490
    6MPD2    C514415   3.457   3.436  15.233  0.5467  0.0367 -0.5083
    6MPD2     H14416   3.620   3.556  14.907 -2.2434 -1.2131 -1.6593
    6MPD2    H114417   3.654   3.404  15.315  0.2477 -0.4967 -0.3758
    6MPD2    H214418   3.277   3.493  15.130 -0.4065 -0.4082  0.6400
    6MPD2    H314419   3.410   3.411  15.327  2.6921  1.6678  0.9809
    6MPD2     N14420   3.795   3.455  15.081  0.3054  0.2757 -0.3530
    6MPD2    H514421   3.821   3.462  14.984  2.0473 -0.8547  0.0342
    6MPD2    N114422   3.371   3.593  14.907 -0.8640 -0.1011 -0.0107
    6MPD2    H714423   3.427   3.618  14.826 -1.1192  0.2494 -0.0760
  945NH4     N114424   1.699   1.980   8.510 -0.3857 -0.5726 -0.1804
  945NH4     H214425   1.688   1.965   8.612  1.9722 -3.1899 -0.3097
  945NH4     H314426   1.781   1.923   8.480  1.6576  2.8482 -1.1146
  945NH4     H414427   1.725   2.079   8.491 -2.1907 -0.4073 -1.8042
  945NH4     H514428   1.615   1.953   8.454 -0.1510  1.4885 -1.5327
  946SOD     NA14429   0.880   1.427   3.104 -0.1174 -0.3461 -0.1239
  947SOD     NA14430   2.362   1.523  10.035  0.1228  0.2539 -0.4546
  948SOD     NA14431   3.440   4.456  10.907 -0.1176  0.1912  0.1244
  949SOD     NA14432   4.614   0.552  16.130 -0.2729  0.1635  0.4188
  950SOD     NA14433   4.009   4.250   0.637 -0.1224  0.2747  0.3970
  951SOD     NA14434   3.377   1.537   9.973 -0.3343 -0.0404 -0.4688
  952SOD     NA14435   0.286   1.181   7.383 -0.2837  0.0865  0.2658
  953SOD     NA14436   2.811   1.554  11.371  0.0851  0.1576  0.1188
  954SOD     NA14437   2.180   3.486  10.418  0.4135  0.1144 -0.1791
  955SOD     NA14438   2.468   0.396   6.805 -0.2578  0.1424  0.3374
  956SOD     NA14439   1.850   1.328  13.908 -0.6695 -0.1317  0.1642
  957SOD     NA14440   3.119   2.504  11.487 -0.4218  0.1011 -0.4312
  958SOD     NA14441   1.464   2.625  15.607  0.1890  0.3313 -0.3645
  959SOD     NA14442   3.678   4.679  11.605  0.1534  0.3064  0.2055
  960SOD     NA14443   0.994   3.832  14.514 -0.2593 -0.5496  0.0081
  961SOD     NA14444   3.243   2.037  10.185 -0.2148  0.1906 -0.2190
  962SOD     NA14445   0.868   2.286   1.393 -0.4358 -0.1122 -0.2006
  963SOD     NA14446   2.629   0.396   2.974  0.1518  0.3027  0.1234
  964SOD     NA14447   2.177   1.808  12.744 -0.0894 -0.8319  0.3422
  965SOD     NA14448   1.167   2.587  13.498 -0.2726 -0.3943 -0.4044
  966SOD     NA14449   2.984   4.042   0.794  0.2034  0.1004 -0.3588
  967SOD     NA14450   3.255   2.837  11.405 -0.2959 -0.0813 -0.5172
  968SOD     NA14451   3.492   3.953  10.705  0.2649  0.0635 -0.4537
  969SOD     NA14452   4.187   1.746  13.089 -0.3152 -0.3069  0.4106
  970SOD     NA14453   1.675   4.084   9.362 -0.3268 -0.3811 -0.4616
  971SOD     NA14454   1.545   3.204  12.244  0.1383  0.0299 -0.0263
  972SOD     NA14455   0.173   1.958  14.315  0.1514 -0.0962  0.2607
  973SOD     NA14456   2.218   0.492   5.218 -0.5628 -0.4473 -0.0494
  974SOD     NA14457   2.368   2.865  10.519 -0.5768  0.3508 -0.1419
  975SOD     NA14458   3.884   2.628  11.278 -0.2312 -1.1845  0.6930
  976SOD     NA14459   3.974   2.271  14.094 -0.0155  0.2089 -0.2223
  977SOD     NA14460   0.138   2.238  14.520  0.1955  0.1749 -0.2959
  978SOD     NA14461   2.172   0.216  10.047  0.5491  0.3204 -0.3256
  979SOD     NA14462   2.380   1.544   6.277 -0.0428  0.1010 -0.4751
  980SOD     NA14463   0.788   0.494  12.080  0.7304  0.2205  0.3310
  981SOD     NA14464   1.018   1.250   0.210  0.0022  0.1574  0.0080
  982SOD     NA14465   2.239   0.813   1.282  0.3388  0.3633 -0.4152
  983SOD     NA14466   1.255   4.700   0.655  0.0537 -0.1185 -0.0431
  984SOD     NA14467   3.084   0.489  11.277 -0.5137  0.0639 -0.1520
  985SOD     NA14468   3.064   1.758  10.107  0.0362  0.4569 -0.2711
  986SOD     NA14469   0.596   1.344   2.560 -0.4094  0.2638 -0.0201
  987SOD     NA14470   2.986   4.610  16.488  0.1066  0.1397  0.4583
  988SOD     NA14471   4.234   2.234  10.088 -0.2211  0.3559 -0.0687
  989SOD     NA14472   3.665   1.012   2.895  0.0441  0.3146 -0.2742
  990SOD     NA14473   2.818   3.567   2.545  0.3006  0.2872  0.2350
  991SOD     NA14474   3.473   2.864  15.355  0.3064 -0.5951  0.2078
  992SOD     NA14475   2.400   2.213  12.783  0.0049 -0.5690 -0.4020
  993SOD     NA14476   4.497   2.278  14.371  0.1736  0.5352  0.3776
  994SOD     NA14477   3.062   3.926  15.686  0.1721  0.7658  0.1232
  995SOD     NA14478   3.634   3.050   1.630 -0.1602  0.0164 -0.4051
  996SOD     NA14479   3.113   1.544  12.720  0.3278  0.4950  0.5803
  997SOD     NA14480   1.640   2.597   0.661  0.2790  0.0507  0.2149
  998SOD     NA14481   4.163   3.732  13.203  0.0631 -0.5067  0.0234
  999SOD     NA14482   3.986   4.393  10.700 -0.4563 -0.2147  0.1367
 1000SOD     NA14483   1.598   3.845  11.065 -0.0472  0.2472  0.0482
 1001SOD     NA14484   0.498   0.335  13.373 -0.2980  0.6563 -0.5062
 1002SOD     NA14485   0.901   2.839  14.984 -0.1966 -0.9537 -0.1630
 1003SOD     NA14486   1.222   2.987  17.652 -0.2940  0.0232  0.2977
 1004SOD     NA14487   3.688   1.937  12.245 -0.0180 -0.0246 -0.2377
 1005SOD     NA14488   2.213   1.947   2.335  0.0006  0.3306  0.5082
 1006SOD     NA14489   1.927   2.173  11.020  0.1291  0.0719 -0.4660
 1007SOD     NA14490   2.024   2.662  16.029 -0.0351 -0.1768  0.3548
 1008SOD     NA14491   1.573   1.933   1.197  0.1679 -0.3018 -0.1702
 1009SOD     NA14492   0.417   3.560  10.699 -0.0584 -0.4945  0.1433
 1010SOD     NA14493   2.246   1.062   1.027  0.4918 -0.1076  0.4388
 1011SOL     OW14494   0.749   4.707   4.560 -0.4319  0.2999  0.0484
 1011SOL    HW114495   0.665   0.016   4.529 -0.4567  0.2193  0.0260
 1011SOL    HW214496   0.720   4.632   4.611  2.0301 -1.5588 -1.2934
 1012SOL     OW14497   3.531   0.038   6.182  0.0668 -0.2106 -0.5269
 1012SOL    HW114498   3.587   0.115   6.186  0.4572 -0.5911  1.2619
 1012SOL    HW214499   3.522   0.014   6.274  0.1986  1.0526 -0.1924
 1013SOL     OW14500   0.923   0.135   9.134 -0.1679  0.3772  0.2396
 1013SOL    HW114501   0.928   0.051   9.088 -2.5603 -0.4810  1.5279
 1013SOL    HW214502   0.877   0.190   9.070  0.2088  0.7587  0.2929
 1014SOL     OW14503   4.405   3.683   8.785  0.9362  0.2306 -0.2711
 1014SOL    HW114504   4.366   3.617   8.728  0.0245 -0.9978  1.7939
 1014SOL    HW214505   4.337   3.681   8.852  0.1122 -0.2283 -1.1111
 1015SOL     OW14506   0.208   0.069   7.944  0.0241  0.2023 -0.9498
 1015SOL    HW114507   0.222   4.721   8.002 -1.5610 -0.7304 -1.7719
 1015SOL    HW214508   0.127   0.101   7.983  0.2862 -3.1189  2.2925
 1016SOL     OW14509   4.173   3.072  11.553  0.1823  0.1270 -0.0994
 1016SOL    HW114510   4.190   3.166  11.566 -3.1211  0.6069  0.6062
 1016SOL    HW214511   4.111   3.055  11.624  0.3301  0.4164  0.1032
 1017SOL     OW14512   4.362   0.123   5.065 -0.3488 -0.1304  0.3916
 1017SOL    HW114513   4.407   0.096   5.145 -1.0783 -2.1028  0.1534
 1017SOL    HW214514   4.342   0.035   5.033  1.8768 -1.4713  2.6675
 1018SOL     OW14515   3.987   0.720   6.396  0.2271  0.6921  0.3788
 1018SOL    HW114516   4.039   0.663   6.338  1.1929 -0.1376  2.0771
 1018SOL    HW214517   3.902   0.713   6.353  0.6007 -1.6246 -0.0199
 1019SOL     OW14518   1.316   2.246   6.860  1.0070  0.5023 -0.1045
 1019SOL    HW114519   1.406   2.267   6.837  1.2656  1.4059  1.7075
 1019SOL    HW214520   1.307   2.287   6.946  1.5099 -0.2373  0.2947
 1020SOL     OW14521   3.234   2.384  15.280  0.0024 -0.4151 -0.4544
 1020SOL    HW114522   3.327   2.388  15.257 -0.3223  1.1305 -1.5293
 1020SOL    HW214523   3.212   2.330  15.205 -0.0915 -0.7325 -0.1967
 1021SOL     OW14524   4.397   3.377   4.786 -0.3208  0.2525  0.1282
 1021SOL    HW114525   4.413   3.348   4.696 -1.0638 -2.6383  0.9241
 1021SOL    HW214526   4.416   3.298   4.837 -0.7703  0.1480  0.1328
 1022SOL     OW14527   3.107   1.887   0.481 -0.2619 -0.3776  0.0844
 1022SOL    HW114528   3.080   1.889   0.573  1.9120 -0.0402  0.7225
 1022SOL    HW214529   3.022   1.889   0.438 -0.3177  2.1827  0.2876
 1023SOL     OW14530   3.943   1.443   6.660 -0.3363 -0.9376  0.2024
 1023SOL    HW114531   3.997   1.383   6.711  0.5045  1.0274  1.6367
 1023SOL    HW214532   3.962   1.422   6.568  0.2200 -0.0071  0.1059
 1024SOL     OW14533   2.243   1.907   7.863  0.7693 -0.1492 -0.5727
 1024SOL    HW114534   2.220   1.954   7.782  2.8547  0.3629 -0.8671
 1024SOL    HW214535   2.282   1.976   7.915 -0.8765 -0.6491  1.3015
 1025SOL     OW14536   0.195   4.719   8.306  0.4299 -0.2905  0.2052
 1025SOL    HW114537   0.246   0.065   8.269 -3.6488  1.5731 -1.7954
 1025SOL    HW214538   0.236   4.647   8.256 -1.0000  0.2674 -1.7818
 1026SOL     OW14539   1.365   3.357   3.838  0.1643  0.1046  0.0949
 1026SOL    HW114540   1.347   3.280   3.783  0.6634 -1.5677  2.2913
 1026SOL    HW214541   1.312   3.427   3.799 -1.3452 -0.5824  0.9331
 1027SOL     OW14542   3.852   0.539  17.665 -0.0258 -0.1713  0.2124
 1027SOL    HW114543   3.824   0.627  17.639  2.4089  0.5741  0.0989
 1027SOL    HW214544   3.790   0.494  17.607 -0.6842 -0.1879  0.9293
 1028SOL     OW14545   1.299   2.379   2.302 -0.1793  0.3510 -0.0249
 1028SOL    HW114546   1.389   2.400   2.277 -0.9378  2.2299 -1.1624
 1028SOL    HW214547   1.247   2.381   2.221  1.9549  2.0239 -1.3455
 1029SOL     OW14548   0.143   1.197  15.563  0.4537 -0.4500  0.2067
 1029SOL    HW114549   0.136   1.287  15.532  0.6367 -0.1375  1.0569
 1029SOL    HW214550   0.220   1.202  15.620  1.8339 -2.2435 -1.4809
 1030SOL     OW14551   2.503   0.575   8.314  0.4047  0.0551  0.6349
 1030SOL    HW114552   2.471   0.652   8.266  0.1069 -0.6256 -0.2648
 1030SOL    HW214553   2.594   0.571   8.283 -0.2942 -2.1657 -1.1766
 1031SOL     OW14554   3.228   1.309   6.028 -0.3117  0.5402 -0.0409
 1031SOL    HW114555   3.167   1.364   5.979 -0.1532  1.2878  0.6113
 1031SOL    HW214556   3.245   1.358   6.108 -1.1156 -1.5627  1.4406
 1032SOL     OW14557   3.903   2.815   8.001  0.6068  0.1092 -0.3528
 1032SOL    HW114558   3.830   2.756   7.981  0.0982  0.1973  1.1850
 1032SOL    HW214559   3.918   2.854   7.915  0.7469 -0.1898 -0.4633
 1033SOL     OW14560   0.680   3.791   3.386 -0.6315  0.4406  0.6246
 1033SOL    HW114561   0.595   3.748   3.399 -0.9777  1.4756  1.6889
 1033SOL    HW214562   0.688   3.845   3.464  1.0161  1.3307 -0.1649
 1034SOL     OW14563   3.345   1.435   3.715  0.1870 -0.2173 -0.0400
 1034SOL    HW114564   3.428   1.482   3.725 -0.8236  1.6112 -0.1643
 1034SOL    HW214565   3.361   1.401   3.627  0.0483  0.2721 -0.2604
 1035SOL     OW14566   4.696   4.705  12.551 -0.3794 -0.7390  0.3482
 1035SOL    HW114567   4.716   0.072  12.555 -1.8838 -0.4707  1.6334
 1035SOL    HW214568   4.686   4.694  12.646 -1.2446 -0.9622  0.2368
 1036SOL     OW14569   4.078   2.943   7.063 -0.1010 -0.0017  0.4601
 1036SOL    HW114570   4.125   2.947   7.147  1.0391  3.1198 -0.3080
 1036SOL    HW214571   4.111   3.028   7.035 -1.1074  0.3206  0.2556
 1037SOL     OW14572   1.996   4.707   8.510 -0.2130  0.3532  0.5340
 1037SOL    HW114573   1.927   4.712   8.443  0.2104 -0.4934  0.0427
 1037SOL    HW214574   2.077   4.700   8.460 -1.0093 -1.4916 -0.5057
 1038SOL     OW14575   2.133   3.312   2.157  0.1803  0.2788 -0.4193
 1038SOL    HW114576   2.125   3.343   2.067  0.5762 -0.0980 -0.5829
 1038SOL    HW214577   2.112   3.219   2.152 -1.4567  0.5844  0.8141
 1039SOL     OW14578   0.193   2.413   3.893  0.7013  0.1179 -0.3878
 1039SOL    HW114579   0.124   2.434   3.830  0.9928  2.0660 -0.0611
 1039SOL    HW214580   0.177   2.321   3.914 -0.1449  0.5555  0.9031
 1040SOL     OW14581   4.090   1.289  14.889  0.4715  0.1798  0.1605
 1040SOL    HW114582   4.031   1.291  14.965 -1.2524 -1.4947 -1.1192
 1040SOL    HW214583   4.047   1.350  14.829  0.3477  0.4676  0.5398
 1041SOL     OW14584   2.688   0.165   4.406 -0.2657  0.4842  0.2462
 1041SOL    HW114585   2.645   0.083   4.383  0.5220  0.7230 -2.0549
 1041SOL    HW214586   2.611   0.221   4.414  0.0166  1.0026 -0.6844
 1042SOL     OW14587   1.468   2.170   6.072  0.1092  0.1101 -0.0943
 1042SOL    HW114588   1.521   2.184   6.150 -1.4288 -0.4661  1.0342
 1042SOL    HW214589   1.488   2.253   6.029  1.5317 -1.1584 -1.9065
 1043SOL     OW14590   4.362   4.286   4.876  0.1393 -0.4574 -0.0311
 1043SOL    HW114591   4.379   4.340   4.799  2.1256 -1.0178 -0.0050
 1043SOL    HW214592   4.267   4.284   4.885 -0.0216  1.0120 -1.4308
 1044SOL     OW14593   1.642   2.850   2.495 -0.2243  0.5382  0.3503
 1044SOL    HW114594   1.729   2.867   2.532  0.2477  0.3402 -0.6883
 1044SOL    HW214595   1.609   2.938   2.475 -2.0743 -0.2254  0.0377
 1045SOL     OW14596   3.798   3.663   4.958 -0.8054 -0.2292 -0.6604
 1045SOL    HW114597   3.793   3.751   4.921 -0.8399  0.1966  0.3625
 1045SOL    HW214598   3.722   3.619   4.920 -1.9341  1.1929 -0.0387
 1046SOL     OW14599   1.572   1.558   5.423  0.0088 -0.1086 -0.5015
 1046SOL    HW114600   1.514   1.633   5.411  0.1220  0.2791  1.2887
 1046SOL    HW214601   1.509   1.486   5.423 -0.8707  0.6324  2.8831
 1047SOL     OW14602   2.054   1.416   4.935 -0.1461 -0.7973  0.2708
 1047SOL    HW114603   1.977   1.462   4.968 -0.4392 -0.5245 -0.7814
 1047SOL    HW214604   2.112   1.491   4.929 -1.3662  0.1027 -0.3111
 1048SOL     OW14605   2.576   1.127   8.868  0.6901 -0.8852 -0.1173
 1048SOL    HW114606   2.527   1.046   8.854 -2.2276  0.7132  0.9861
 1048SOL    HW214607   2.502   1.182   8.842  0.5971 -1.2583 -0.6586
 1049SOL     OW14608   1.595   0.934  12.438 -0.0451 -0.1248 -0.0288
 1049SOL    HW114609   1.568   0.963  12.351  0.0234  0.7301  0.2354
 1049SOL    HW214610   1.683   0.971  12.441 -0.7249  1.3219  1.3719
 1050SOL     OW14611   3.208   1.302   9.689 -0.3771  0.1582 -0.2379
 1050SOL    HW114612   3.158   1.256   9.756 -0.3439 -1.0584 -1.0415
 1050SOL    HW214613   3.229   1.376   9.746  3.3686 -1.1787  0.0854
 1051SOL     OW14614   3.618   0.674   4.005 -0.0568 -0.1746 -0.1221
 1051SOL    HW114615   3.612   0.702   3.913 -0.5428  0.1130 -0.0043
 1051SOL    HW214616   3.713   0.669   4.011  0.2360  0.7078 -3.7769
 1052SOL     OW14617   0.294   2.294  11.401 -0.8827 -0.2244  0.2567
 1052SOL    HW114618   0.385   2.302  11.429 -1.2969 -0.4188  1.7153
 1052SOL    HW214619   0.290   2.209  11.357  0.1668 -0.5399  0.7625
 1053SOL     OW14620   0.771   4.200   3.385 -0.1943 -0.4820  0.1876
 1053SOL    HW114621   0.777   4.133   3.317 -1.8971 -0.3403 -0.1086
 1053SOL    HW214622   0.742   4.273   3.331 -0.1235  1.1945  2.4408
 1054SOL     OW14623   2.181   1.426   5.302  0.2589 -0.0935 -0.9340
 1054SOL    HW114624   2.149   1.339   5.327 -1.0220  0.1833 -1.6164
 1054SOL    HW214625   2.108   1.487   5.296  0.2499 -0.2032 -1.8869
 1055SOL     OW14626   1.642   0.464   1.220 -0.0760 -0.5054  0.1423
 1055SOL    HW114627   1.622   0.403   1.150 -0.7356 -0.6607  0.4734
 1055SOL    HW214628   1.553   0.496   1.234 -0.0859 -0.3187 -0.3785
 1056SOL     OW14629   0.925   3.138  17.273 -0.1008  0.0815 -0.3086
 1056SOL    HW114630   0.889   3.151  17.185 -0.7234 -1.8615 -0.3243
 1056SOL    HW214631   0.914   3.230  17.297 -0.4863 -0.5443  1.9240
 1057SOL     OW14632   2.298   4.263   5.522  0.1541 -0.1585  0.3026
 1057SOL    HW114633   2.241   4.328   5.563  0.0767  1.4541 -2.3973
 1057SOL    HW214634   2.271   4.186   5.573 -3.6146  0.1660 -1.2181
 1058SOL     OW14635   3.948   2.737  16.730  0.1796  0.2746  0.0199
 1058SOL    HW114636   3.987   2.813  16.774 -0.5733 -0.6685  2.3036
 1058SOL    HW214637   3.942   2.769  16.639  1.0448 -1.1353 -0.5329
 1059SOL     OW14638   4.376   3.845   3.199 -0.1678  0.5875  0.0220
 1059SOL    HW114639   4.393   3.897   3.277  0.2342 -0.8927  0.9137
 1059SOL    HW214640   4.319   3.776   3.232 -0.4930  0.0765 -1.5649
 1060SOL     OW14641   2.817   3.962   8.875  0.0458  0.0913  0.1087
 1060SOL    HW114642   2.834   4.046   8.918 -0.2197  1.3836 -2.3110
 1060SOL    HW214643   2.774   3.936   8.956  0.5510 -1.2129 -0.0469
 1061SOL     OW14644   0.381   2.794   4.742  0.5764 -0.3121  0.1511
 1061SOL    HW114645   0.285   2.795   4.740  0.5730  0.0024  0.5666
 1061SOL    HW214646   0.404   2.766   4.653 -0.6898  1.1580 -0.6482
 1062SOL     OW14647   2.085   4.220   7.411 -0.3109 -0.2530 -0.0359
 1062SOL    HW114648   2.152   4.270   7.458 -0.4012  0.4284 -0.6272
 1062SOL    HW214649   2.055   4.281   7.344 -0.6937 -0.9409 -0.4933
 1063SOL     OW14650   0.016   2.719   3.736 -0.6258 -1.0207 -0.1648
 1063SOL    HW114651   4.714   2.709   3.827  0.9964 -1.3203  0.3073
 1063SOL    HW214652   0.010   2.630   3.700 -1.2801 -0.0660 -2.4049
 1064SOL     OW14653   4.166   0.068   8.357 -0.5782  0.2462 -0.6520
 1064SOL    HW114654   4.219   0.102   8.285  1.0366 -1.3088 -0.2039
 1064SOL    HW214655   4.222   4.724   8.391 -1.2659 -0.6404 -1.3411
 1065SOL     OW14656   4.050   1.729   6.266 -0.2532 -0.6017  0.3328
 1065SOL    HW114657   4.010   1.782   6.335 -1.0561 -0.8704  0.0777
 1065SOL    HW214658   3.998   1.649   6.267 -0.2095 -0.6545 -1.2015
 1066SOL     OW14659   4.330   1.034   7.858 -0.3758  0.2111  0.3249
 1066SOL    HW114660   4.265   0.990   7.912 -1.9983  1.7035 -0.4317
 1066SOL    HW214661   4.388   0.963   7.828 -1.6490 -1.1438  1.0975
 1067SOL     OW14662   4.075   2.686   7.019  0.6143  0.2554  0.2192
 1067SOL    HW114663   4.062   2.661   6.928 -0.6309 -0.4701  0.5979
 1067SOL    HW214664   4.067   2.781   7.012 -3.4401 -0.0836  0.1740
 1068SOL     OW14665   0.225   0.944  14.035  0.0881  0.2330 -0.8229
 1068SOL    HW114666   0.173   0.866  14.055  1.8435 -1.5262 -3.1243
 1068SOL    HW214667   0.246   0.941  13.941 -1.8464 -0.7303 -1.2278
 1069SOL     OW14668   3.379   4.057   2.069  0.2214 -0.3221 -0.2873
 1069SOL    HW114669   3.358   3.990   2.004 -4.2483  0.8232 -0.0087
 1069SOL    HW214670   3.415   4.003   2.139 -3.6118 -0.8458  1.2637
 1070SOL     OW14671   1.348   2.008   4.040  0.2437 -0.4895 -0.0512
 1070SOL    HW114672   1.266   1.972   4.073  0.5362 -0.3085  0.8763
 1070SOL    HW214673   1.314   2.070   3.976 -0.3018 -0.1899  0.5360
 1071SOL     OW14674   1.214   4.696   3.073 -0.5737 -0.3658 -0.2310
 1071SOL    HW114675   1.203   4.601   3.078  1.1443 -0.5320  0.6718
 1071SOL    HW214676   1.237   4.689   2.981 -1.3791 -1.2564 -0.3637
 1072SOL     OW14677   2.725   0.501   1.793 -0.3072 -0.4248  0.5607
 1072SOL    HW114678   2.665   0.441   1.836 -0.4969 -0.1822  0.6395
 1072SOL    HW214679   2.662   0.567   1.763  0.2325  0.0773  0.5241
 1073SOL     OW14680   1.003   0.787   3.610  0.0623 -0.0184 -0.2419
 1073SOL    HW114681   0.945   0.730   3.560  0.7409  1.5824 -2.8261
 1073SOL    HW214682   0.978   0.870   3.571 -0.3867  0.5929  1.3566
 1074SOL     OW14683   0.195   1.780   3.009 -0.0919 -0.4454 -0.3972
 1074SOL    HW114684   0.174   1.759   3.100 -1.7739  1.4452 -0.3462
 1074SOL    HW214685   0.133   1.848   2.983  0.2580  0.4564  1.0917
 1075SOL     OW14686   3.965   0.679   4.736 -0.4843 -0.0301  0.0964
 1075SOL    HW114687   4.034   0.613   4.731 -2.2166 -1.7709 -0.7526
 1075SOL    HW214688   3.976   0.713   4.825 -1.6150 -0.7078  0.5066
 1076SOL     OW14689   1.301   1.966   7.180 -0.1526 -0.2434  0.3332
 1076SOL    HW114690   1.214   2.001   7.160  1.1089  2.4555 -0.4937
 1076SOL    HW214691   1.311   1.901   7.110 -0.6621  1.4591 -1.3329
 1077SOL     OW14692   3.677   2.486  10.835 -0.1059  0.0797  0.1934
 1077SOL    HW114693   3.662   2.580  10.846  0.5046  0.3853 -1.5975
 1077SOL    HW214694   3.592   2.457  10.801  0.7368 -1.1156 -0.9013
 1078SOL     OW14695   3.214   4.264   8.784  0.7142 -0.0603 -0.1795
 1078SOL    HW114696   3.277   4.330   8.813 -1.1648  2.0759 -0.9647
 1078SOL    HW214697   3.280   4.203   8.749 -0.0033 -0.1549 -1.3703
 1079SOL     OW14698   1.419   2.196   0.646 -0.7387  0.2787 -0.2745
 1079SOL    HW114699   1.419   2.173   0.553  0.6002  0.6796 -0.3776
 1079SOL    HW214700   1.505   2.164   0.673 -1.2967 -0.8171  0.2289
 1080SOL     OW14701   0.310   2.699   5.085  0.7854  0.0461  0.9551
 1080SOL    HW114702   0.346   2.720   4.998 -0.0754 -1.2653  0.2772
 1080SOL    HW214703   0.286   2.785   5.119  2.0679  1.8787 -2.6564
 1081SOL     OW14704   0.480   0.467   4.280  0.0121  0.0285 -0.8415
 1081SOL    HW114705   0.500   0.402   4.348 -1.4909  0.4592 -0.0050
 1081SOL    HW214706   0.428   0.533   4.324  1.5626 -0.1109  1.2026
 1082SOL     OW14707   2.155   1.172   6.889 -0.2894  0.0010  0.1944
 1082SOL    HW114708   2.101   1.093   6.881  1.7945 -1.4185  0.1601
 1082SOL    HW214709   2.164   1.198   6.797 -0.7020  0.4155  0.2728
 1083SOL     OW14710   1.781   0.257  11.312 -0.1914  0.1047 -0.6315
 1083SOL    HW114711   1.797   0.333  11.368 -3.7534 -1.1888  2.1550
 1083SOL    HW214712   1.794   0.287  11.222 -0.1206 -0.9448 -0.9735
 1084SOL     OW14713   4.404   3.813  15.494  0.5058  0.3436 -0.1105
 1084SOL    HW114714   4.372   3.893  15.453  0.1511  0.3032  0.0859
 1084SOL    HW214715   4.346   3.746  15.458  0.5255 -0.9478  2.2298
 1085SOL     OW14716   3.108   2.407   2.522  0.3567  0.8681 -0.4237
 1085SOL    HW114717   3.149   2.322   2.512 -1.0717  0.0033  1.0367
 1085SOL    HW214718   3.103   2.403   2.618  0.6829 -2.3073 -0.5607
 1086SOL     OW14719   1.993   1.272  13.450  0.1915  0.0075 -0.7031
 1086SOL    HW114720   2.005   1.350  13.395  0.3907 -0.3891 -1.2169
 1086SOL    HW214721   2.070   1.218  13.434  0.0716 -0.4562  0.3057
 1087SOL     OW14722   0.839   0.538   1.861  0.1524  0.2327  0.3531
 1087SOL    HW114723   0.841   0.633   1.870  0.0653  0.3391 -0.6825
 1087SOL    HW214724   0.770   0.517   1.799 -0.4058  0.0819  1.0292
 1088SOL     OW14725   3.762   2.349   1.972  0.2574  0.2144 -0.0031
 1088SOL    HW114726   3.823   2.378   1.904  0.5599 -0.1139  0.1289
 1088SOL    HW214727   3.705   2.284   1.931  0.6306 -0.8012  1.0690
 1089SOL     OW14728   0.544   2.394  11.083  0.1686  0.2366  0.1399
 1089SOL    HW114729   0.580   2.365  11.167  0.7504  0.4092 -0.0521
 1089SOL    HW214730   0.621   2.398  11.027  0.6231 -1.7202  0.6337
 1090SOL     OW14731   0.436   0.946   4.455  0.4839 -0.0848  0.3628
 1090SOL    HW114732   0.469   0.966   4.543  0.5526  1.2579  0.0294
 1090SOL    HW214733   0.474   1.012   4.396 -1.0383 -0.3615 -0.9219
 1091SOL     OW14734   4.503   0.394  11.849  0.5564 -0.0968  0.0460
 1091SOL    HW114735   4.432   0.360  11.905  0.1411  1.1154  0.2535
 1091SOL    HW214736   4.497   0.487  11.870  1.3644 -0.5562  2.3204
 1092SOL     OW14737   0.757   1.169  12.722  0.2048 -0.6068 -0.2976
 1092SOL    HW114738   0.753   1.264  12.716 -0.9804 -0.4725  2.8850
 1092SOL    HW214739   0.663   1.153  12.731  0.6305 -2.2279  1.1551
 1093SOL     OW14740   3.988   2.439  15.438 -0.3144 -0.0183 -0.3102
 1093SOL    HW114741   4.037   2.388  15.372 -1.9697 -2.0058  0.0178
 1093SOL    HW214742   4.054   2.444  15.507 -1.3248  2.6976  0.4363
 1094SOL     OW14743   0.207   3.252   5.172  0.5855  0.0731  0.4135
 1094SOL    HW114744   0.132   3.247   5.231 -0.1500  1.3495 -0.4283
 1094SOL    HW214745   0.217   3.346   5.159  2.3915 -0.5572 -2.9097
 1095SOL     OW14746   1.779   3.905  17.705 -0.0053  0.0946 -0.1677
 1095SOL    HW114747   1.834   3.913   0.077  1.1964 -0.8812 -0.9074
 1095SOL    HW214748   1.718   3.978   0.011 -1.1037 -1.0846  1.4372
 1096SOL     OW14749   2.861   0.210   8.889  0.6019  0.2697 -0.7146
 1096SOL    HW114750   2.928   0.268   8.926 -0.0683  0.4420  0.2310
 1096SOL    HW214751   2.887   0.221   8.798  1.4333  2.1655 -0.2577
 1097SOL     OW14752   1.609   1.580   5.972  0.8793 -0.2814 -0.0111
 1097SOL    HW114753   1.698   1.547   5.961  0.6993 -0.4152 -1.1129
 1097SOL    HW214754   1.595   1.637   5.896 -0.4252 -1.0226 -0.3259
 1098SOL     OW14755   3.761   1.284   8.559  0.2894 -0.1885  0.1285
 1098SOL    HW114756   3.769   1.201   8.606  2.4517  0.3414  0.7217
 1098SOL    HW214757   3.746   1.248   8.472 -1.0356  0.9460 -0.1135
 1099SOL     OW14758   2.138   2.286   3.267  0.3969 -0.0084  0.2913
 1099SOL    HW114759   2.121   2.318   3.178  1.4128  0.7929  0.3943
 1099SOL    HW214760   2.102   2.361   3.314 -1.7168 -0.0742 -1.1959
 1100SOL     OW14761   4.556   3.395  15.826 -0.3262 -0.0125  0.2774
 1100SOL    HW114762   4.543   3.417  15.734  1.4711 -0.0264  0.0226
 1100SOL    HW214763   4.650   3.410  15.834 -0.1666  0.5471 -2.5274
 1101SOL     OW14764   2.445   0.129   0.069 -0.8045  0.1877 -0.3031
 1101SOL    HW114765   2.387   0.206   0.070  2.0165  2.3145  0.0117
 1101SOL    HW214766   2.385   0.056   0.055 -0.7997  0.1072  0.1032
 1102SOL     OW14767   1.037   2.327   2.580 -0.2964 -0.1421 -0.5189
 1102SOL    HW114768   1.113   2.358   2.531  0.6201 -3.6315 -1.2861
 1102SOL    HW214769   0.962   2.328   2.520 -0.7991  1.5839  0.1475
 1103SOL     OW14770   4.684   1.617  11.631 -0.5273 -0.1116  0.3049
 1103SOL    HW114771   4.675   1.603  11.725  0.1905 -0.6020  0.2920
 1103SOL    HW214772   4.673   1.712  11.632 -0.6183 -0.0823 -2.0222
 1104SOL     OW14773   0.356   0.721   4.347 -0.3424 -0.8367 -0.8677
 1104SOL    HW114774   0.370   0.815   4.356  1.1970 -1.1974  0.3336
 1104SOL    HW214775   0.298   0.717   4.423  1.2138 -1.2566  0.2983
 1105SOL     OW14776   2.684   2.760   2.616  0.4116  0.6120 -0.0076
 1105SOL    HW114777   2.723   2.709   2.686  0.7840 -0.5093 -1.0419
 1105SOL    HW214778   2.733   2.715   2.547  1.1837 -0.1232  1.0451
 1106SOL     OW14779   3.748   3.325   9.194  0.5150  0.5992  1.2533
 1106SOL    HW114780   3.656   3.334   9.218  0.8219 -0.2664  2.7436
 1106SOL    HW214781   3.789   3.388   9.253  1.1273  2.4428 -1.1472
 1107SOL     OW14782   1.229   4.205   6.529  0.0594  0.2123 -0.0053
 1107SOL    HW114783   1.163   4.200   6.459  0.6692  0.4204 -0.5896
 1107SOL    HW214784   1.177   4.228   6.606 -1.4095  0.4561 -1.0550
 1108SOL     OW14785   2.767   3.691   6.082  0.2275  0.3152 -0.0530
 1108SOL    HW114786   2.827   3.714   6.011  1.8168  1.8048  1.8009
 1108SOL    HW214787   2.764   3.769   6.136  1.4869  1.1815 -1.2209
 1109SOL     OW14788   0.536   3.198   8.811  0.4252  0.1885  0.1097
 1109SOL    HW114789   0.510   3.266   8.873  0.1582  0.0138  0.1910
 1109SOL    HW214790   0.470   3.213   8.743  1.1099  0.3717 -0.5165
 1110SOL     OW14791   3.797   2.092  16.239  0.1077  0.3816  0.1923
 1110SOL    HW114792   3.834   2.053  16.318 -4.0394  2.9754  3.4473
 1110SOL    HW214793   3.753   2.019  16.195  0.4864  0.0162  0.4203
 1111SOL     OW14794   1.262   3.539   9.345 -0.3211  0.0298  0.1567
 1111SOL    HW114795   1.282   3.581   9.262 -0.9118  2.1288  1.0535
 1111SOL    HW214796   1.179   3.500   9.317 -0.7122 -0.9492  2.6484
 1112SOL     OW14797   1.861   0.116   7.643  0.3138  0.7593 -0.4066
 1112SOL    HW114798   1.885   0.101   7.552  1.7274 -0.9340  0.2513
 1112SOL    HW214799   1.766   0.115   7.636  0.2134 -0.9229  1.2593
 1113SOL     OW14800   2.257   3.313   4.526  0.2375  0.0144 -0.1778
 1113SOL    HW114801   2.284   3.404   4.513  1.2412 -0.3776 -0.8201
 1113SOL    HW214802   2.164   3.322   4.508  0.1260  1.3353  1.0001
 1114SOL     OW14803   0.601   4.256  12.478  0.1138  0.0732 -0.0491
 1114SOL    HW114804   0.652   4.335  12.495 -1.5323  1.0333  0.4165
 1114SOL    HW214805   0.511   4.279  12.452 -0.3836  0.7921  2.2643
 1115SOL     OW14806   1.814   3.350  16.616  0.7381  0.2278  0.3842
 1115SOL    HW114807   1.734   3.381  16.572  0.0371 -0.1150  1.4116
 1115SOL    HW214808   1.836   3.429  16.665 -0.6942  1.3496 -0.7579
 1116SOL     OW14809   1.302   0.874   6.794 -0.1166 -0.1586 -0.1087
 1116SOL    HW114810   1.377   0.822   6.766 -0.0889  0.6763 -1.5586
 1116SOL    HW214811   1.317   0.952   6.740 -0.0262  0.2528  0.5089
 1117SOL     OW14812   4.156   4.178  12.090 -1.0065  0.1646 -0.1421
 1117SOL    HW114813   4.221   4.227  12.139 -0.1791  1.1834 -2.2642
 1117SOL    HW214814   4.111   4.247  12.042  0.6258 -0.3146 -2.3794
 1118SOL     OW14815   3.170   2.597   5.762 -0.2277 -0.1400  0.3427
 1118SOL    HW114816   3.077   2.587   5.741 -0.4064  0.7544  0.6874
 1118SOL    HW214817   3.203   2.617   5.674  0.3911 -0.4139  0.5097
 1119SOL     OW14818   0.117   1.655  12.886 -0.2893 -0.0366 -0.4536
 1119SOL    HW114819   0.052   1.712  12.926 -2.5028 -0.8437 -2.9161
 1119SOL    HW214820   0.146   1.710  12.813 -0.9562  0.0771 -0.6278
 1120SOL     OW14821   0.398   0.575   8.650 -0.8110 -0.1575  0.5728
 1120SOL    HW114822   0.489   0.603   8.659 -1.2196  1.7390 -1.3250
 1120SOL    HW214823   0.399   0.514   8.724  2.6041 -1.2433 -0.4045
 1121SOL     OW14824   3.552   3.980   1.792  0.3918 -0.0606  0.4291
 1121SOL    HW114825   3.470   3.965   1.837  1.4550 -0.6103  2.1592
 1121SOL    HW214826   3.530   3.977   1.699  2.8834 -0.6283 -0.1598
 1122SOL     OW14827   3.100   4.227   6.160 -0.0697  0.7331  0.1612
 1122SOL    HW114828   3.166   4.160   6.178 -0.8513 -0.5106 -1.5872
 1122SOL    HW214829   3.147   4.309   6.172 -0.6342  0.9491  0.9106
 1123SOL     OW14830   2.126   2.890   4.724 -0.3192 -0.3351 -0.1867
 1123SOL    HW114831   2.178   2.885   4.644  0.7463  0.1602  0.4677
 1123SOL    HW214832   2.099   2.802   4.749 -0.6554  0.1546  1.1928
 1124SOL     OW14833   3.600   2.345  14.787  0.1382  0.4586 -0.2535
 1124SOL    HW114834   3.564   2.411  14.846 -0.3671 -0.4501  0.4544
 1124SOL    HW214835   3.588   2.380  14.699  2.3614  0.1698 -0.6683
 1125SOL     OW14836   4.267   3.681   3.543 -0.5960  0.0596 -0.2112
 1125SOL    HW114837   4.358   3.663   3.518 -0.0807  0.3622  1.4535
 1125SOL    HW214838   4.217   3.666   3.463 -1.5228  3.2863 -0.2313
 1126SOL     OW14839   0.121   1.770   3.930  0.1160 -0.2428 -0.2893
 1126SOL    HW114840   0.099   1.807   4.015  1.2495 -2.2344  0.8523
 1126SOL    HW214841   0.036   1.732   3.910  0.4211 -1.2905  0.4324
 1127SOL     OW14842   1.392   1.702   8.548  0.7233 -0.1936  0.1874
 1127SOL    HW114843   1.353   1.622   8.584  1.1816 -0.4506  0.1219
 1127SOL    HW214844   1.378   1.760   8.623 -0.8836  0.2914 -0.5075
 1128SOL     OW14845   1.697   1.533   4.274  0.4549  0.3797  0.6152
 1128SOL    HW114846   1.761   1.519   4.205 -0.8682 -1.7767 -0.1765
 1128SOL    HW214847   1.710   1.628   4.271 -0.6234  0.5132  0.1406
 1129SOL     OW14848   2.366   2.115   4.876 -0.2017 -0.2074  0.1663
 1129SOL    HW114849   2.415   2.046   4.921  0.0640 -0.0533  0.1169
 1129SOL    HW214850   2.369   2.186   4.940  2.2463 -0.6273  0.5359
 1130SOL     OW14851   4.424   3.305   3.354  0.1742  0.1345  0.0084
 1130SOL    HW114852   4.342   3.256   3.364 -1.0633  2.1910  0.0261
 1130SOL    HW214853   4.408   3.348   3.269 -0.3264 -0.6562 -0.3022
 1131SOL     OW14854   0.382   4.165   2.574 -0.1671 -0.7014 -0.0351
 1131SOL    HW114855   0.405   4.169   2.667 -0.0495  3.6242 -0.2335
 1131SOL    HW214856   0.378   4.252   2.534  0.9273  0.3436  2.1334
 1132SOL     OW14857   3.691   2.479   2.508  0.1583  0.3512  0.0369
 1132SOL    HW114858   3.725   2.430   2.582  0.6161  1.0843  0.3221
 1132SOL    HW214859   3.760   2.544   2.492  0.3637 -0.3636 -1.9500
 1133SOL     OW14860   4.009   4.432   8.973  0.1403  0.2375 -0.0987
 1133SOL    HW114861   4.006   4.493   8.900  0.2542 -1.6259 -1.6542
 1133SOL    HW214862   3.921   4.436   9.013  1.0315 -0.3702  1.9352
 1134SOL     OW14863   2.610   4.013   4.304  0.3277  0.0204  0.0807
 1134SOL    HW114864   2.572   4.022   4.216  0.1882  1.9265  0.3510
 1134SOL    HW214865   2.659   4.095   4.306 -0.6561  0.5128  2.8173
 1135SOL     OW14866   2.865   3.091   4.670  0.4215  0.0441 -0.4972
 1135SOL    HW114867   2.924   3.154   4.711  3.2584 -0.9755 -3.0157
 1135SOL    HW214868   2.886   3.101   4.577 -0.5411 -0.2706 -0.7473
 1136SOL     OW14869   3.150   0.338  10.181 -0.0052 -0.0359 -0.3094
 1136SOL    HW114870   3.094   0.304  10.111 -0.0427  0.8922 -0.7224
 1136SOL    HW214871   3.232   0.374  10.148  0.9925 -1.8771  0.1713
 1137SOL     OW14872   3.787   1.520   5.623  0.2602 -0.3010 -0.6805
 1137SOL    HW114873   3.757   1.548   5.536  2.1830  2.4682 -0.4772
 1137SOL    HW214874   3.727   1.447   5.635  0.1799  0.1047  1.3390
 1138SOL     OW14875   2.088   1.051   2.900  0.4148  0.2423 -0.6898
 1138SOL    HW114876   2.099   1.108   2.975 -0.5564  1.5228 -1.5127
 1138SOL    HW214877   2.065   0.968   2.942  0.9997  0.7184  0.5434
 1139SOL     OW14878   2.616   1.656   7.394  0.4899  0.2585 -0.0639
 1139SOL    HW114879   2.686   1.681   7.334  0.5468  2.5229  0.9338
 1139SOL    HW214880   2.558   1.609   7.334  1.0799  0.0681 -0.4886
 1140SOL     OW14881   1.021   4.420  15.277 -0.2080 -0.5101 -0.7438
 1140SOL    HW114882   1.054   4.355  15.215 -0.5702 -1.3773 -0.0272
 1140SOL    HW214883   0.972   4.479  15.221  0.1068 -1.0802 -1.6138
 1141SOL     OW14884   0.483   0.554   2.519  0.9565 -0.1330  0.1682
 1141SOL    HW114885   0.508   0.613   2.591  2.1937  0.3837 -0.6859
 1141SOL    HW214886   0.520   0.606   2.448 -2.9404  1.7075 -0.5223
 1142SOL     OW14887   0.672   3.127   4.214 -0.2484  0.1083  0.0287
 1142SOL    HW114888   0.660   3.192   4.283 -1.9096 -0.6416  0.4564
 1142SOL    HW214889   0.586   3.111   4.175  0.2539  0.4399 -1.2165
 1143SOL     OW14890   1.529   2.554   2.274 -0.5175  0.8114  0.5918
 1143SOL    HW114891   1.607   2.606   2.252 -2.1510  3.3180  0.7960
 1143SOL    HW214892   1.550   2.530   2.364 -1.7502 -1.2655  0.3258
 1144SOL     OW14893   1.394   4.486   2.115  0.4539 -0.1087 -0.3972
 1144SOL    HW114894   1.393   4.395   2.144 -0.1110  0.2262  0.6160
 1144SOL    HW214895   1.305   4.516   2.129  0.7747  0.6015  0.0754
 1145SOL     OW14896   3.153   0.136   4.707  0.5218  0.2407 -1.0573
 1145SOL    HW114897   3.080   0.087   4.671  0.4240 -0.4688  0.0841
 1145SOL    HW214898   3.112   0.168   4.788 -1.5244 -0.0469 -1.9970
 1146SOL     OW14899   4.054   1.627  13.938 -0.0509  0.2296 -0.0016
 1146SOL    HW114900   3.983   1.567  13.916  1.5436 -1.3676 -0.8071
 1146SOL    HW214901   4.023   1.714  13.915  0.9787  0.6103  0.0250
 1147SOL     OW14902   4.198   3.560  11.133 -0.3492  0.3528  0.2169
 1147SOL    HW114903   4.198   3.575  11.039  4.6861  0.8398  0.2844
 1147SOL    HW214904   4.271   3.613  11.165 -0.2556 -0.3474  1.1638
 1148SOL     OW14905   2.101   0.241   3.447 -0.1048 -0.2799  0.0055
 1148SOL    HW114906   2.062   0.167   3.495  2.4011 -1.2964  0.4786
 1148SOL    HW214907   2.073   0.311   3.506  1.0491 -0.7980  1.1662
 1149SOL     OW14908   3.671   2.386   3.384 -0.2615  0.0253  0.5683
 1149SOL    HW114909   3.628   2.359   3.302  0.2151  0.8831  0.0385
 1149SOL    HW214910   3.589   2.372   3.431 -1.1214  0.3168 -0.8289
 1150SOL     OW14911   3.631   0.152   3.338  0.0505  0.2420 -0.0241
 1150SOL    HW114912   3.704   0.192   3.384  0.0870  0.5361 -0.3410
 1150SOL    HW214913   3.560   0.215   3.350 -0.5671 -0.7010  1.2637
 1151SOL     OW14914   0.443   3.477   4.949 -0.4713  0.0586 -0.1256
 1151SOL    HW114915   0.358   3.444   4.920 -1.0207  3.0500 -1.9246
 1151SOL    HW214916   0.446   3.456   5.042 -0.6325  2.6163  0.4564
 1152SOL     OW14917   0.678   4.636   4.272 -0.1322 -0.0442 -0.0695
 1152SOL    HW114918   0.767   4.664   4.292 -0.0377 -1.9037  2.1053
 1152SOL    HW214919   0.648   4.718   4.233  0.7245 -0.2450 -1.1626
 1153SOL     OW14920   3.519   2.156   6.373 -1.1831 -0.2999  0.4652
 1153SOL    HW114921   3.484   2.151   6.462  1.1446  2.4921  1.5048
 1153SOL    HW214922   3.456   2.216   6.333 -0.6578 -0.6165 -0.8454
 1154SOL     OW14923   0.218   3.763   2.665 -0.0324  0.7090 -0.0772
 1154SOL    HW114924   0.293   3.714   2.632 -1.5921 -2.8382  1.6075
 1154SOL    HW214925   0.150   3.695   2.675  1.3316 -0.7422 -0.6987
 1155SOL     OW14926   3.403   1.459   3.466 -0.3922 -0.2917 -0.0214
 1155SOL    HW114927   3.473   1.501   3.416 -0.2595  1.7895  1.8714
 1155SOL    HW214928   3.339   1.444   3.397 -1.0963 -1.8806  0.9820
 1156SOL     OW14929   0.922   4.576  17.704  0.5250 -0.4215 -0.2216
 1156SOL    HW114930   0.953   4.629  17.631 -1.3043  1.7131  0.5212
 1156SOL    HW214931   0.833   4.608   0.013  1.3588  1.9538 -0.3212
 1157SOL     OW14932   2.893   4.380   4.047  0.2152  0.3026 -0.2838
 1157SOL    HW114933   2.843   4.460   4.064  3.6717  1.7799  2.9481
 1157SOL    HW214934   2.926   4.409   3.962  2.7582  0.3022  0.7034
 1158SOL     OW14935   4.078   3.568   9.766 -0.0887 -0.7280 -0.5535
 1158SOL    HW114936   4.064   3.597   9.856 -1.8364  1.0004 -1.3909
 1158SOL    HW214937   4.111   3.479   9.781  4.0508  0.8304 -0.2651
 1159SOL     OW14938   4.140   2.369  17.385  0.4200 -0.8896  0.4536
 1159SOL    HW114939   4.119   2.419  17.307  1.7016  0.3036  0.8824
 1159SOL    HW214940   4.147   2.277  17.358  0.9259 -1.0911  1.2677
 1160SOL     OW14941   3.544   4.034   5.983  0.2347 -0.0041  0.0518
 1160SOL    HW114942   3.478   4.102   5.971  0.7821  0.2584 -1.4577
 1160SOL    HW214943   3.544   3.995   5.895  1.4290 -2.4215  1.1265
 1161SOL     OW14944   2.255   2.847   8.113 -0.0452  0.5473 -0.0138
 1161SOL    HW114945   2.345   2.850   8.145 -0.7897 -3.5430  2.3742
 1161SOL    HW214946   2.219   2.790   8.181  0.5814  0.3232  0.1209
 1162SOL     OW14947   0.186   2.006  14.822 -0.2075 -0.1846 -0.2285
 1162SOL    HW114948   0.278   2.003  14.795  0.4373  0.4765  1.8373
 1162SOL    HW214949   0.144   2.024  14.739 -0.9907  0.4690  0.3134
 1163SOL     OW14950   1.427   0.116   8.127 -0.6807 -0.2741 -0.1647
 1163SOL    HW114951   1.489   0.175   8.086 -0.2539  0.6449  1.8178
 1163SOL    HW214952   1.390   0.072   8.050  1.7954 -3.2018  0.3181
 1164SOL     OW14953   2.298   4.259   3.961 -0.2270 -0.0145 -0.1722
 1164SOL    HW114954   2.272   4.278   4.051 -0.3412  0.6145 -0.3376
 1164SOL    HW214955   2.277   4.342   3.918 -1.3418 -0.0209  0.3443
 1165SOL     OW14956   3.299   2.526   9.115  0.3921 -0.1501  0.1412
 1165SOL    HW114957   3.383   2.566   9.140  1.3570 -2.2427  0.2240
 1165SOL    HW214958   3.262   2.503   9.200 -1.2115 -1.1318 -0.8391
 1166SOL     OW14959   2.629   2.396   6.894 -0.1070  0.0995 -0.4779
 1166SOL    HW114960   2.543   2.399   6.935 -0.5051 -0.8052 -1.2558
 1166SOL    HW214961   2.672   2.320   6.932  1.2074  1.6057  1.0569
 1167SOL     OW14962   1.264   3.461  16.641  0.4946 -0.0343  0.0025
 1167SOL    HW114963   1.324   3.461  16.716  0.3060  0.8648  0.1552
 1167SOL    HW214964   1.292   3.380  16.597 -0.0705 -0.4069  0.3272
 1168SOL     OW14965   1.336   1.718   5.405 -0.3128 -0.3870  0.1970
 1168SOL    HW114966   1.254   1.716   5.455 -0.1054 -2.4548  0.4538
 1168SOL    HW214967   1.379   1.792   5.450 -0.0824 -1.3848  1.6213
 1169SOL     OW14968   1.929   4.173   0.988  0.6240  0.3731 -0.0809
 1169SOL    HW114969   1.953   4.121   1.064  0.0185 -1.9426 -1.4842
 1169SOL    HW214970   1.937   4.099   0.929  0.7583  0.4309 -0.1356
 1170SOL     OW14971   1.415   1.788   9.223  0.0257  0.2336  0.2916
 1170SOL    HW114972   1.446   1.715   9.276  0.1757 -0.8035 -1.2157
 1170SOL    HW214973   1.362   1.832   9.290 -0.0262  0.6781 -0.0387
 1171SOL     OW14974   4.323   0.505  17.603 -0.6577  0.6928  0.3380
 1171SOL    HW114975   4.335   0.538  17.692  0.1892  2.9873 -0.6196
 1171SOL    HW214976   4.254   0.567  17.575 -1.7335 -1.3883 -1.6308
 1172SOL     OW14977   1.650   3.485   4.484 -0.0946 -0.5828 -0.4090
 1172SOL    HW114978   1.602   3.404   4.467 -1.6815  1.1735 -4.2054
 1172SOL    HW214979   1.595   3.548   4.438  3.0343  1.7090 -0.9609
 1173SOL     OW14980   2.083   3.087   2.848 -0.1343  0.0589 -0.1375
 1173SOL    HW114981   2.051   3.001   2.821 -1.7688  0.3957  0.7845
 1173SOL    HW214982   2.133   3.106   2.768 -1.3612 -1.4557 -1.2733
 1174SOL     OW14983   2.288   4.093   6.477 -0.2496  0.3248 -0.3736
 1174SOL    HW114984   2.338   4.024   6.520 -1.0901 -0.3396 -0.4558
 1174SOL    HW214985   2.299   4.177   6.522  2.0335 -0.1634 -0.0729
 1175SOL     OW14986   4.513   0.410  14.524 -0.1222  0.1294  0.0985
 1175SOL    HW114987   4.608   0.401  14.530 -0.1094 -1.0746 -1.6554
 1175SOL    HW214988   4.504   0.494  14.568 -0.4336 -0.5151  1.2633
 1176SOL     OW14989   2.294   0.047  12.330 -0.4752 -0.3931 -0.1939
 1176SOL    HW114990   2.298   4.679  12.342 -0.4604 -0.1205  2.0598
 1176SOL    HW214991   2.369   0.050  12.271 -0.7746 -1.0461 -0.5993
 1177SOL     OW14992   4.266   0.428  10.739 -0.1751  0.1711  0.2102
 1177SOL    HW114993   4.242   0.346  10.698  0.9068  0.5888 -1.2650
 1177SOL    HW214994   4.356   0.443  10.709  0.3617 -0.1809  1.6297
 1178SOL     OW14995   3.911   3.675  11.166 -0.0239  0.0441  0.3213
 1178SOL    HW114996   3.994   3.626  11.165 -0.4782 -0.7374  1.1564
 1178SOL    HW214997   3.844   3.613  11.193  1.6579 -1.6653  0.6198
 1179SOL     OW14998   3.184   3.133  14.418 -0.2686  0.3201  0.2608
 1179SOL    HW114999   3.224   3.219  14.427 -1.8470  1.1294 -0.4136
 1179SOL    HW215000   3.163   3.123  14.325 -3.0820 -0.6690  1.0029
 1180SOL     OW15001   1.449   2.991   5.807 -0.5678 -0.1653 -0.1626
 1180SOL    HW115002   1.462   3.076   5.848  0.8996  0.4155 -1.7959
 1180SOL    HW215003   1.510   2.928   5.846 -1.2210 -0.3563  0.5455
 1181SOL     OW15004   3.438   2.962   0.058 -0.3472  0.1235 -0.0183
 1181SOL    HW115005   3.528   2.972   0.028 -0.8562  2.8393 -0.6836
 1181SOL    HW215006   3.424   3.053   0.087  1.0935  0.4361 -0.2828
 1182SOL     OW15007   3.903   1.689   2.824 -0.0391  0.3075  0.5788
 1182SOL    HW115008   3.983   1.691   2.877  1.3870  0.1247 -1.5659
 1182SOL    HW215009   3.937   1.655   2.741  0.2407  0.2530  0.7135
 1183SOL     OW15010   2.416   3.976   8.787  0.0201  0.6875  0.3392
 1183SOL    HW115011   2.427   4.033   8.710 -1.0869  0.2909 -0.1126
 1183SOL    HW215012   2.455   3.892   8.764  0.6351  0.4780  2.1577
 1184SOL     OW15013   4.452   0.222  13.729  0.2235 -0.1774 -0.3534
 1184SOL    HW115014   4.453   0.242  13.822  0.0334 -1.0306 -0.1727
 1184SOL    HW215015   4.415   0.134  13.734 -1.6227  0.5572 -0.9561
 1185SOL     OW15016   3.671   1.477   4.231  0.5171 -0.0638  0.0135
 1185SOL    HW115017   3.750   1.530   4.221  0.7662  0.0437  2.6177
 1185SOL    HW215018   3.606   1.542   4.204 -0.6030 -1.0332  0.3920
 1186SOL     OW15019   2.589   0.081  12.283  0.2564 -0.2097  0.2244
 1186SOL    HW115020   2.568   0.075  12.190  0.1360 -0.5886  0.2754
 1186SOL    HW215021   2.626   4.721  12.304 -0.8131  0.1252  3.4746
 1187SOL     OW15022   3.070   4.249   3.228 -0.4380  0.0173 -0.3421
 1187SOL    HW115023   3.109   4.260   3.314 -3.7065  0.5235  1.0696
 1187SOL    HW215024   3.083   4.336   3.191  0.0008 -0.4975 -1.4273
 1188SOL     OW15025   0.681   0.731   5.661 -0.7613 -0.1593 -0.0639
 1188SOL    HW115026   0.746   0.685   5.607  0.8627  1.3422  0.6300
 1188SOL    HW215027   0.743   0.770   5.721 -0.1667  0.0487 -0.8155
 1189SOL     OW15028   4.711   4.418  12.186  0.4841  0.5457 -0.1907
 1189SOL    HW115029   4.704   4.323  12.184 -1.5171  0.7172 -0.8100
 1189SOL    HW215030   4.707   4.421  12.281 -4.3749  2.7535 -0.4806
 1190SOL     OW15031   3.472   1.460   9.611  0.4430 -0.4036 -0.0963
 1190SOL    HW115032   3.452   1.527   9.546 -0.4164  0.8657  1.4634
 1190SOL    HW215033   3.429   1.388   9.566  0.4109  0.0455 -0.7892
 1191SOL     OW15034   4.143   3.331   7.684 -0.2225  0.5048  0.3802
 1191SOL    HW115035   4.125   3.419   7.716  1.4275  0.5023  1.3233
 1191SOL    HW215036   4.179   3.301   7.768  0.0703 -0.7761 -0.2061
 1192SOL     OW15037   0.251   4.256  13.925 -0.0510  0.3828  1.1336
 1192SOL    HW115038   0.155   4.254  13.921  0.0697 -0.3818 -1.3949
 1192SOL    HW215039   0.275   4.167  13.949 -3.5887 -0.7666  0.3861
 1193SOL     OW15040   3.642   3.519   8.402 -0.1929 -0.0655 -0.0971
 1193SOL    HW115041   3.554   3.514   8.439  0.0278  0.3884  0.4950
 1193SOL    HW215042   3.632   3.606   8.364 -0.2297  0.3411  0.8313
 1194SOL     OW15043   1.433   1.687   0.579 -0.6204  0.0467  0.2052
 1194SOL    HW115044   1.448   1.747   0.652  1.7657 -0.9997  0.5844
 1194SOL    HW215045   1.340   1.687   0.557 -0.9773  2.7976  1.6857
 1195SOL     OW15046   1.126   2.715  14.404 -0.1500 -0.0732  0.3852
 1195SOL    HW115047   1.185   2.729  14.330  0.9424  2.9923  1.8486
 1195SOL    HW215048   1.042   2.711  14.357  1.1207 -1.4789 -1.7647
 1196SOL     OW15049   3.757   4.499  17.423 -0.6214 -0.4013 -0.1552
 1196SOL    HW115050   3.841   4.524  17.385  0.3582 -1.7676  1.1284
 1196SOL    HW215051   3.720   4.451  17.348 -1.6314 -0.9245  0.6669
 1197SOL     OW15052   4.682   4.254   4.268  0.3351 -0.0017 -1.0201
 1197SOL    HW115053   0.007   4.206   4.334  1.5255  2.1744 -0.3746
 1197SOL    HW215054   0.021   4.314   4.233 -0.5145  0.8596 -1.1024
 1198SOL     OW15055   0.286   4.476   7.198  0.2613  0.9596  0.3082
 1198SOL    HW115056   0.259   4.542   7.262  0.6732  2.4667 -1.0768
 1198SOL    HW215057   0.314   4.409   7.260 -3.2162  0.6931  1.5551
 1199SOL     OW15058   1.941   3.376  14.344 -0.9381  0.4733 -0.6302
 1199SOL    HW115059   1.937   3.471  14.342 -1.3165  0.4197 -3.3520
 1199SOL    HW215060   2.011   3.364  14.280 -0.8810 -0.7702 -0.3405
 1200SOL     OW15061   1.197   2.264   1.663 -0.4000 -0.3135 -0.4832
 1200SOL    HW115062   1.265   2.254   1.729  0.2811 -0.1139 -1.1486
 1200SOL    HW215063   1.237   2.226   1.584 -0.9408  1.0728 -1.4198
 1201SOL     OW15064   0.691   0.475  17.481 -0.3351  0.0517 -0.0149
 1201SOL    HW115065   0.675   0.390  17.442 -1.0718  1.1906 -2.1611
 1201SOL    HW215066   0.775   0.464  17.526 -0.1012  1.8191 -0.0033
 1202SOL     OW15067   1.438   0.011   3.942 -0.3030 -0.6981  0.5413
 1202SOL    HW115068   1.408   0.102   3.946 -1.2619 -1.0327  1.0276
 1202SOL    HW215069   1.388   4.703   4.017 -0.2006 -1.1102  0.4224
 1203SOL     OW15070   1.550   4.591  13.403 -0.3713 -0.2969 -0.0243
 1203SOL    HW115071   1.608   4.655  13.446 -2.0010  0.0920  1.6061
 1203SOL    HW215072   1.599   4.511  13.419  0.4485  0.2728  0.3403
 1204SOL     OW15073   3.309   3.867   1.858 -0.3640 -0.0233 -0.9223
 1204SOL    HW115074   3.254   3.827   1.791  0.3342 -1.3671 -0.6848
 1204SOL    HW215075   3.268   3.836   1.939  1.4961  1.4327  0.5782
 1205SOL     OW15076   2.025   0.326  10.190 -0.0742 -0.5141 -0.0143
 1205SOL    HW115077   2.080   0.383  10.243 -0.0163  0.8661 -1.5526
 1205SOL    HW215078   1.936   0.362  10.184  0.5082  0.8683 -0.3393
 1206SOL     OW15079   4.095   3.071   9.866 -0.4149  0.0450 -0.4071
 1206SOL    HW115080   4.107   3.037   9.955  0.2762  1.1846 -0.0662
 1206SOL    HW215081   4.122   3.163   9.867  1.6246 -0.5449 -0.4735
 1207SOL     OW15082   3.973   3.227   9.077 -0.0748 -0.1889 -0.3384
 1207SOL    HW115083   3.892   3.264   9.113 -0.5014 -0.4693 -1.0298
 1207SOL    HW215084   4.014   3.176   9.147 -1.0219 -0.6946 -0.1586
 1208SOL     OW15085   2.351   3.404  15.939 -0.3199  0.1150 -0.0889
 1208SOL    HW115086   2.386   3.319  15.910 -0.0663  0.1119  0.2370
 1208SOL    HW215087   2.424   3.464  15.925 -0.4282 -0.2424 -2.2290
 1209SOL     OW15088   2.284   2.553   1.915  0.5858 -0.3944 -0.0245
 1209SOL    HW115089   2.304   2.508   1.833  1.2663 -2.4783  1.2498
 1209SOL    HW215090   2.212   2.505   1.956  0.9418  2.3728  3.8180
 1210SOL     OW15091   2.480   1.646   4.580 -0.1364 -0.6088  0.1377
 1210SOL    HW115092   2.393   1.641   4.540 -0.1191 -2.4143  0.3195
 1210SOL    HW215093   2.456   1.703   4.654  0.3186 -1.3148  0.8293
 1211SOL     OW15094   4.357   2.564   5.826  0.3409 -0.0228 -0.5376
 1211SOL    HW115095   4.405   2.595   5.903  0.9014 -3.0460  0.3487
 1211SOL    HW215096   4.414   2.494   5.795  1.6538  0.6560  0.3599
 1212SOL     OW15097   2.572   3.174  10.209 -0.1282  0.0138  0.0167
 1212SOL    HW115098   2.539   3.255  10.249  2.1775  0.7142  0.5075
 1212SOL    HW215099   2.569   3.192  10.115  0.7541  2.9638  0.5444
 1213SOL     OW15100   2.595   3.592   4.038 -0.4012  0.0653  0.2198
 1213SOL    HW115101   2.599   3.570   4.131 -1.9388 -3.1730 -0.4743
 1213SOL    HW215102   2.576   3.506   4.000 -0.9768 -0.2297  1.1686
 1214SOL     OW15103   2.377   3.115   4.026  0.1018  0.1499 -0.2944
 1214SOL    HW115104   2.357   3.059   4.101  0.1588  0.9765  0.3347
 1214SOL    HW215105   2.332   3.068   3.956 -1.3744  0.0351  0.7473
 1215SOL     OW15106   2.314   0.326   9.899  0.0558  0.3814  0.3181
 1215SOL    HW115107   2.333   0.267   9.826 -0.4519 -0.7684  1.1149
 1215SOL    HW215108   2.309   0.412   9.857  1.5372  0.3070  0.0113
 1216SOL     OW15109   1.930   2.001   6.850  0.2928 -0.3190 -0.2406
 1216SOL    HW115110   1.977   1.924   6.817 -0.0441 -1.0817  1.0260
 1216SOL    HW215111   1.965   2.065   6.789 -0.9342  1.2595  0.7165
 1217SOL     OW15112   1.890   3.250  11.961  0.3619 -0.3477  0.1203
 1217SOL    HW115113   1.975   3.207  11.974  0.4695  0.8711  3.2209
 1217SOL    HW215114   1.877   3.245  11.866  1.2256 -1.4850  0.0593
 1218SOL     OW15115   4.300   2.123   5.958 -0.1302 -0.0744 -0.3319
 1218SOL    HW115116   4.297   2.041   6.007 -0.5767 -0.8979 -1.7317
 1218SOL    HW215117   4.376   2.107   5.903  1.3890 -0.2677  1.8395
 1219SOL     OW15118   2.172   2.106  16.444  0.5035  0.1538 -0.2060
 1219SOL    HW115119   2.184   2.185  16.498 -1.7999 -1.4020  2.5702
 1219SOL    HW215120   2.120   2.057  16.508  1.4072  0.0825  0.4736
 1220SOL     OW15121   1.354   1.670  15.097  0.3234  0.8747  0.4715
 1220SOL    HW115122   1.295   1.644  15.167  0.1664 -0.9555 -0.3577
 1220SOL    HW215123   1.436   1.642  15.137 -0.8135 -1.7184  0.9209
 1221SOL     OW15124   0.065   0.522  16.250  0.2352  0.3380 -0.2034
 1221SOL    HW115125   0.083   0.550  16.340  2.4131  1.0110 -0.8451
 1221SOL    HW215126   0.146   0.472  16.239 -0.3838 -0.5966 -0.5017
 1222SOL     OW15127   0.882   3.245  16.254 -0.3634  0.4338  0.5287
 1222SOL    HW115128   0.872   3.234  16.160 -1.1073  2.7490  0.3292
 1222SOL    HW215129   0.827   3.323  16.252  0.4928  1.0299  0.3190
 1223SOL     OW15130   1.189   1.785   7.991 -0.6697  0.3351  0.6558
 1223SOL    HW115131   1.153   1.750   7.910  2.1286  1.3570 -1.0391
 1223SOL    HW215132   1.140   1.864   8.011 -1.9716 -1.0590  2.9963
 1224SOL     OW15133   1.181   1.080  11.724 -0.1517  0.1171  0.5081
 1224SOL    HW115134   1.275   1.085  11.744 -0.1236 -0.0477  0.4192
 1224SOL    HW215135   1.172   1.057  11.631  0.4687  2.0338 -0.0420
 1225SOL     OW15136   2.767   1.950   5.732  0.2900 -0.4015 -0.5678
 1225SOL    HW115137   2.705   1.882   5.759  0.0420  0.3516  0.7510
 1225SOL    HW215138   2.774   2.006   5.809  1.1388 -0.1978 -0.7889
 1226SOL     OW15139   4.068   2.217   6.061 -0.5981  0.8557 -0.2707
 1226SOL    HW115140   4.064   2.312   6.059 -1.5376  0.8118 -0.7119
 1226SOL    HW215141   4.157   2.200   6.032 -0.4862  2.9612 -1.0972
 1227SOL     OW15142   2.387   1.306   8.753 -0.1873 -0.1253 -0.0044
 1227SOL    HW115143   2.420   1.388   8.791  0.7204 -0.7074  0.4757
 1227SOL    HW215144   2.359   1.330   8.665  0.5997 -1.1132 -0.5179
 1228SOL     OW15145   1.833   2.527   5.970 -0.5304  0.7952  0.4850
 1228SOL    HW115146   1.794   2.491   5.890  1.6578  1.8257 -1.0140
 1228SOL    HW215147   1.836   2.450   6.027 -1.9938  1.5860  1.6354
 1229SOL     OW15148   4.044   1.062   7.282  0.3235  0.2732 -0.2902
 1229SOL    HW115149   4.030   1.061   7.377 -0.8505  0.1863 -0.4623
 1229SOL    HW215150   3.958   1.073   7.241 -0.7401  1.6281  2.2826
 1230SOL     OW15151   1.775   0.774   2.146  0.5643 -0.4639 -0.1503
 1230SOL    HW115152   1.795   0.867   2.136 -0.9434 -0.2608 -1.3435
 1230SOL    HW215153   1.699   0.763   2.088 -1.7284 -0.1077  2.7979
 1231SOL     OW15154   3.803   1.268   3.619  0.7354 -0.2492  0.6292
 1231SOL    HW115155   3.863   1.295   3.688  2.0394 -0.2058 -0.5120
 1231SOL    HW215156   3.817   1.335   3.552 -2.0572  0.7422  1.0551
 1232SOL     OW15157   3.947   4.446  14.063 -0.3912  0.0564  0.4443
 1232SOL    HW115158   3.929   4.368  14.116  1.8517 -1.2441 -0.7060
 1232SOL    HW215159   3.871   4.441  14.006 -0.7877  3.7014  0.6445
 1233SOL     OW15160   2.055   4.109   8.312  0.4325  0.1947  0.0543
 1233SOL    HW115161   2.084   4.037   8.369  1.0243  1.0804  0.8675
 1233SOL    HW215162   2.035   4.062   8.231 -0.0519  1.0482 -0.3127
 1234SOL     OW15163   2.589   0.680   3.296  0.6992 -0.6656 -0.3043
 1234SOL    HW115164   2.670   0.633   3.313  0.7075 -0.3486  0.5102
 1234SOL    HW215165   2.624   0.770   3.299 -1.2950  0.0530  1.4962
 1235SOL     OW15166   0.455   2.823   6.607  1.2486  0.2247 -0.4456
 1235SOL    HW115167   0.503   2.849   6.529 -0.0104  1.1446 -0.9165
 1235SOL    HW215168   0.462   2.729   6.596  2.4773  0.1436  1.0334
 1236SOL     OW15169   3.942   0.039  12.092  0.5476  0.5676 -0.1091
 1236SOL    HW115170   3.973   0.046  12.182 -2.0313  2.5161  0.6345
 1236SOL    HW215171   4.009   4.704  12.062  0.8579  0.0882  1.5774
 1237SOL     OW15172   3.054   2.024  17.281  0.1146 -0.2898  0.2189
 1237SOL    HW115173   3.111   2.063  17.215 -1.4437 -1.1974 -1.6703
 1237SOL    HW215174   3.006   2.100  17.314 -1.3414 -2.0674  2.2202
 1238SOL     OW15175   4.215   0.194  17.447 -0.3725  0.8512  0.3835
 1238SOL    HW115176   4.219   0.189  17.542  1.8796  1.8537  0.3531
 1238SOL    HW215177   4.262   0.113  17.426 -0.0150  0.8391  1.2315
 1239SOL     OW15178   2.909   2.625   2.694 -0.0520 -0.1282 -0.2081
 1239SOL    HW115179   2.945   2.663   2.614  0.1789  1.1130  0.4834
 1239SOL    HW215180   2.993   2.595   2.729  0.8454  1.9357 -0.6015
 1240SOL     OW15181   0.030   4.258   3.469  0.1988 -0.1244 -0.2793
 1240SOL    HW115182   4.682   4.199   3.486 -0.2522  0.8080  1.0201
 1240SOL    HW215183   0.071   4.195   3.410 -2.2625  0.6519 -2.7725
 1241SOL     OW15184   3.425   1.810   7.384  0.1745  0.4091  0.4182
 1241SOL    HW115185   3.464   1.846   7.463  0.2294  1.3315 -0.0308
 1241SOL    HW215186   3.488   1.837   7.317 -1.3449 -0.6155 -1.4514
 1242SOL     OW15187   3.421   0.099   8.790  0.1361 -0.5824 -0.1442
 1242SOL    HW115188   3.498   0.066   8.837  0.1152 -1.6212 -0.8259
 1242SOL    HW215189   3.446   0.070   8.703 -4.7863 -1.1974 -1.3335
 1243SOL     OW15190   3.578   0.924   9.413  0.7782 -0.4493 -0.1920
 1243SOL    HW115191   3.582   0.997   9.351  1.0778  1.5604  2.1959
 1243SOL    HW215192   3.653   0.872   9.384  0.9691 -0.1672 -0.2140
 1244SOL     OW15193   4.551   1.527  17.046 -0.7528  0.0553 -0.1596
 1244SOL    HW115194   4.533   1.437  17.020 -1.1951 -0.1053  0.6883
 1244SOL    HW215195   4.635   1.515  17.090 -1.5653 -1.1332  1.0900
 1245SOL     OW15196   3.901   0.543   1.689 -1.0339  0.2090 -0.0204
 1245SOL    HW115197   3.845   0.599   1.635 -0.4122  3.3120  2.5166
 1245SOL    HW215198   3.936   0.488   1.619 -0.7447  0.5695 -0.1580
 1246SOL     OW15199   1.130   0.194   5.241  0.4171  0.1383  0.2458
 1246SOL    HW115200   1.111   0.288   5.241  1.3431  0.3201  3.9156
 1246SOL    HW215201   1.140   0.168   5.332  1.0620 -1.6416 -0.3276
 1247SOL     OW15202   3.617   3.765  10.799  0.1809  0.6030 -0.1787
 1247SOL    HW115203   3.605   3.678  10.838  0.7680  0.4080 -0.4186
 1247SOL    HW215204   3.701   3.785  10.842  1.3551 -0.0494 -2.1382
 1248SOL     OW15205   3.055   0.913   3.822  0.7569 -0.1517  0.5764
 1248SOL    HW115206   3.150   0.923   3.830  0.6572  1.9063 -0.7827
 1248SOL    HW215207   3.035   0.863   3.901 -2.2377  0.4045  0.1712
 1249SOL     OW15208   1.436   3.244   5.940 -0.2674 -0.1964 -0.3953
 1249SOL    HW115209   1.374   3.290   5.883  0.7584 -0.1192 -1.4657
 1249SOL    HW215210   1.475   3.317   5.988 -1.7424  0.4278 -0.1476
 1250SOL     OW15211   2.300   4.057   1.262  0.2659 -0.7131 -0.0689
 1250SOL    HW115212   2.325   4.083   1.173 -1.7894 -1.0990 -0.7603
 1250SOL    HW215213   2.229   4.113   1.294  1.0543  0.5851 -0.5497
 1251SOL     OW15214   3.462   0.162   9.936  0.0006  0.7109  0.4091
 1251SOL    HW115215   3.375   0.188   9.904 -1.5997  0.3098  4.5641
 1251SOL    HW215216   3.485   0.234   9.995  1.4540  1.4824 -1.0986
 1252SOL     OW15217   2.053   2.467  13.270  0.9123  0.4356  0.1796
 1252SOL    HW115218   1.975   2.472  13.216 -0.4892 -2.6890  1.9624
 1252SOL    HW215219   2.103   2.401  13.221  0.1396  0.4766 -0.6563
 1253SOL     OW15220   0.553   0.425   6.807 -0.5243  0.3518 -0.0905
 1253SOL    HW115221   0.490   0.449   6.875  0.6386  0.1761  1.0609
 1253SOL    HW215222   0.638   0.459   6.834 -0.9215  1.6862 -0.5337
 1254SOL     OW15223   0.069   1.641   7.344  0.1547 -0.0404 -0.3024
 1254SOL    HW115224   0.157   1.611   7.322  0.5116 -0.4927  1.7370
 1254SOL    HW215225   0.087   1.728   7.380 -1.6341  0.0934  0.2789
 1255SOL     OW15226   3.293   3.008   6.569 -0.2006  0.0672 -0.0943
 1255SOL    HW115227   3.283   2.915   6.589 -1.1714  0.8411  2.9773
 1255SOL    HW215228   3.204   3.033   6.547 -0.2755 -0.8226 -0.8041
 1256SOL     OW15229   2.716   0.894   6.519  0.5884  0.2595 -0.2954
 1256SOL    HW115230   2.795   0.945   6.503 -0.1141  1.2328 -0.6841
 1256SOL    HW215231   2.646   0.939   6.472 -1.3046  0.0777  2.3402
 1257SOL     OW15232   0.818   3.189   4.570 -0.0648 -0.3904  0.5028
 1257SOL    HW115233   0.758   3.242   4.517  0.8989 -1.8721 -2.0586
 1257SOL    HW215234   0.844   3.138   4.494 -1.0472 -0.8140  0.4440
 1258SOL     OW15235   2.065   4.308   9.169  0.6819 -0.0746  0.0145
 1258SOL    HW115236   2.141   4.326   9.114 -0.7446 -0.2089 -1.9935
 1258SOL    HW215237   2.026   4.396   9.167 -0.8438 -0.7327  0.8316
 1259SOL     OW15238   2.836   1.883   5.475 -0.5380  0.4484 -0.0852
 1259SOL    HW115239   2.901   1.953   5.482 -0.7081  0.5140  0.8630
 1259SOL    HW215240   2.800   1.888   5.564  0.1479 -0.2568  0.2233
 1260SOL     OW15241   2.857   0.260   7.616 -0.0678  0.4588 -0.7558
 1260SOL    HW115242   2.849   0.244   7.710  0.0796 -2.3286 -1.2201
 1260SOL    HW215243   2.818   0.183   7.574  2.2177 -1.5252  0.7641
 1261SOL     OW15244   4.491   2.346  16.034 -0.3231 -0.4606 -0.0418
 1261SOL    HW115245   4.423   2.395  15.989 -0.5759 -1.7471 -1.0684
 1261SOL    HW215246   4.495   2.260  15.993 -0.8888 -1.0207  1.0717
 1262SOL     OW15247   3.119   1.791   8.939  0.0560  0.0437  0.4007
 1262SOL    HW115248   3.112   1.717   8.879  0.4420  0.7318 -0.4903
 1262SOL    HW215249   3.121   1.743   9.022 -2.7183 -0.2922  0.2845
 1263SOL     OW15250   1.487   2.544  11.513  0.1896  0.1810 -0.3694
 1263SOL    HW115251   1.424   2.506  11.452  1.5460 -0.9065 -1.0868
 1263SOL    HW215252   1.452   2.633  11.525  1.3715  0.4367  1.2039
 1264SOL     OW15253   1.825   2.835  16.206 -0.4178  0.1987  0.5824
 1264SOL    HW115254   1.780   2.908  16.163  1.9461  1.8754  1.0019
 1264SOL    HW215255   1.748   2.790  16.241  1.0374 -2.0200  0.9397
 1265SOL     OW15256   3.715   0.554   4.704 -0.2552 -0.4568  0.2956
 1265SOL    HW115257   3.647   0.592   4.649  0.5499  0.5800  0.0241
 1265SOL    HW215258   3.793   0.609   4.697  0.3993 -1.7756 -2.3789
 1266SOL     OW15259   2.474   3.409  11.436 -0.4235  0.6024 -0.2381
 1266SOL    HW115260   2.402   3.406  11.373  1.4829 -1.3298 -2.3208
 1266SOL    HW215261   2.546   3.416  11.373  0.7530  1.8922  1.2475
 1267SOL     OW15262   2.128   3.103  12.072 -0.0648 -0.4097 -0.1559
 1267SOL    HW115263   2.173   3.021  12.093  1.5916  0.6796  0.4709
 1267SOL    HW215264   2.189   3.118  12.000 -1.0981 -0.9338 -1.1525
 1268SOL     OW15265   4.238   3.364   2.688 -0.4906 -0.0505 -0.1474
 1268SOL    HW115266   4.166   3.427   2.683  2.2853  3.3001  2.0682
 1268SOL    HW215267   4.204   3.307   2.757  0.3035 -1.3376 -0.8078
 1269SOL     OW15268   2.389   2.577   9.459 -0.5889  0.3792 -0.1752
 1269SOL    HW115269   2.434   2.500   9.495  2.3405  2.2922  0.3032
 1269SOL    HW215270   2.322   2.593   9.525 -0.5686 -1.2536  0.2350
 1270SOL     OW15271   3.078   0.051  10.251 -0.0090 -0.4092  0.2058
 1270SOL    HW115272   3.062   0.143  10.226  1.5164 -0.4392 -0.9093
 1270SOL    HW215273   3.118   0.031  10.166 -0.2230  0.5506 -0.1243
 1271SOL     OW15274   4.045   1.655   7.887 -0.4757  0.3817 -0.7937
 1271SOL    HW115275   4.131   1.615   7.899 -1.0112 -0.1278  1.4606
 1271SOL    HW215276   3.997   1.665   7.969 -1.7195 -0.1705 -1.4576
 1272SOL     OW15277   1.270   4.306   5.155 -0.1954  0.0455  0.6802
 1272SOL    HW115278   1.233   4.360   5.225 -0.4757 -0.0329  0.5903
 1272SOL    HW215279   1.287   4.225   5.203 -1.5533  0.1910  1.3954
 1273SOL     OW15280   0.393   1.494  15.477  0.0967 -0.1667 -0.0101
 1273SOL    HW115281   0.395   1.467  15.569 -0.1681 -1.8326 -0.4969
 1273SOL    HW215282   0.442   1.417  15.448 -0.9646  0.2472 -2.8643
 1274SOL     OW15283   0.737   4.467   5.723  0.1662  0.1724 -0.6095
 1274SOL    HW115284   0.785   4.410   5.662  0.2152  0.2378 -0.6312
 1274SOL    HW215285   0.745   4.557   5.693 -1.5745  1.2660  2.1692
 1275SOL     OW15286   2.362   4.154   3.471  0.2320 -0.0725 -0.2114
 1275SOL    HW115287   2.271   4.129   3.460  0.1496  0.0260  0.2430
 1275SOL    HW215288   2.396   4.150   3.381  1.0067 -2.4043  0.1961
 1276SOL     OW15289   0.550   0.234  13.562 -0.2686  0.0681  0.2574
 1276SOL    HW115290   0.615   0.273  13.620 -0.9173  2.9326 -0.9487
 1276SOL    HW215291   0.485   0.200  13.623  0.0226 -1.8642 -0.5093
 1277SOL     OW15292   3.394   2.049   9.551  0.2083 -0.2079 -0.5439
 1277SOL    HW115293   3.363   2.122   9.605  2.7630 -0.1330  0.8583
 1277SOL    HW215294   3.375   2.074   9.461 -1.4669 -0.9082 -0.3807
 1278SOL     OW15295   1.196   2.823   8.338  0.5164 -0.3788 -1.2759
 1278SOL    HW115296   1.182   2.729   8.334 -0.6022 -0.2874  0.1465
 1278SOL    HW215297   1.289   2.838   8.321  0.5182 -0.0906 -1.0185
 1279SOL     OW15298   4.285   1.172   5.018  0.3750  0.5913 -0.1531
 1279SOL    HW115299   4.300   1.103   5.083 -0.4851 -0.0763 -0.6633
 1279SOL    HW215300   4.338   1.130   4.952 -0.3248 -2.3330  1.1594
 1280SOL     OW15301   3.215   2.831   8.112  0.3044  0.1999 -0.9727
 1280SOL    HW115302   3.136   2.870   8.074 -0.0710 -0.0013 -0.4057
 1280SOL    HW215303   3.267   2.796   8.039  1.8026  1.0787 -0.3215
 1281SOL     OW15304   0.559   1.814   4.135  0.1480  0.2304  0.2495
 1281SOL    HW115305   0.568   1.909   4.143  0.2015  0.3502 -1.1773
 1281SOL    HW215306   0.646   1.789   4.105  0.0299  1.2051 -0.8993
 1282SOL     OW15307   2.881   2.362  10.226  0.4977  0.4780 -0.0782
 1282SOL    HW115308   2.973   2.346  10.246 -0.1526 -5.1594 -1.5722
 1282SOL    HW215309   2.861   2.283  10.176 -0.9764  1.7988 -1.5827
 1283SOL     OW15310   2.555   3.229  15.028 -0.1882 -0.2626  0.3987
 1283SOL    HW115311   2.466   3.199  15.049 -1.0236  0.7510 -1.6965
 1283SOL    HW215312   2.568   3.199  14.939 -0.8526  0.9745 -0.1208
 1284SOL     OW15313   4.600   0.128  10.458 -0.1495  0.1920  0.9416
 1284SOL    HW115314   4.656   0.171  10.393  0.9448 -0.6415  1.3478
 1284SOL    HW215315   4.547   0.201  10.489  1.6515  2.1698 -0.5904
 1285SOL     OW15316   3.181   0.716   3.050  0.4479  0.3119  0.4142
 1285SOL    HW115317   3.227   0.661   2.986  0.0047 -0.7048  0.9708
 1285SOL    HW215318   3.125   0.767   2.991 -0.0848 -0.1802  0.5001
 1286SOL     OW15319   3.794   0.983   0.983  0.0373  0.0448  0.5560
 1286SOL    HW115320   3.750   1.027   1.057 -0.7007  0.6650 -0.2530
 1286SOL    HW215321   3.810   1.065   0.936 -0.5195 -0.6900 -0.8821
 1287SOL     OW15322   3.890   0.902  10.037  0.2094  0.2358 -0.3119
 1287SOL    HW115323   3.839   0.948   9.971 -0.0194  1.4505  0.7028
 1287SOL    HW215324   3.949   0.974  10.062  0.9640 -1.1455  1.9158
 1288SOL     OW15325   3.635   2.646   5.827  0.2501 -0.4722 -0.3265
 1288SOL    HW115326   3.649   2.692   5.744 -0.1520 -2.6843 -1.6159
 1288SOL    HW215327   3.702   2.579   5.840  0.5198 -0.1531 -0.0456
 1289SOL     OW15328   1.896   0.032   3.941 -0.1366 -0.0312 -0.3334
 1289SOL    HW115329   1.827   0.061   3.881  0.2795 -0.9828 -1.2619
 1289SOL    HW215330   1.897   0.104   4.005 -2.5159 -0.3202  0.0190
 1290SOL     OW15331   0.588   1.680  12.797  0.7051  0.3461 -0.1072
 1290SOL    HW115332   0.508   1.628  12.804  0.7282  0.2553 -0.4989
 1290SOL    HW215333   0.599   1.694  12.891 -0.2150 -1.6904  0.2973
 1291SOL     OW15334   2.321   1.554   3.733 -0.2145  0.1749  0.0876
 1291SOL    HW115335   2.354   1.637   3.767 -0.1520  0.1862 -0.0024
 1291SOL    HW215336   2.230   1.570   3.707 -0.3389 -3.0769 -1.5145
 1292SOL     OW15337   4.586   2.973   8.135 -0.1278  0.4519  0.1875
 1292SOL    HW115338   4.621   2.888   8.105 -0.9396  0.1335  0.1470
 1292SOL    HW215339   4.643   2.996   8.208 -0.5781  1.7488  0.1165
 1293SOL     OW15340   3.136   4.173  10.779 -0.2598  0.0643  0.6688
 1293SOL    HW115341   3.068   4.240  10.783 -1.8662 -1.4475 -1.4939
 1293SOL    HW215342   3.088   4.090  10.778  2.0054 -1.2400  0.9688
 1294SOL     OW15343   1.462   1.547   3.384  0.1186 -0.3989 -0.3374
 1294SOL    HW115344   1.531   1.611   3.401  1.9753 -2.0020 -1.8800
 1294SOL    HW215345   1.508   1.466   3.406 -3.7313 -2.6961 -0.8310
 1295SOL     OW15346   0.221   3.602   8.801  0.3220  0.5357 -0.1098
 1295SOL    HW115347   0.294   3.647   8.759  0.0828  0.7787 -0.2669
 1295SOL    HW215348   0.153   3.668   8.787  0.9963  1.5295  1.3057
 1296SOL     OW15349   2.009   1.105   6.415 -0.1107  0.1009 -0.2354
 1296SOL    HW115350   1.984   1.014   6.400 -0.2540  0.6401 -3.2880
 1296SOL    HW215351   2.052   1.123   6.332 -1.7481  3.2678 -0.3901
 1297SOL     OW15352   3.133   2.884  10.703  0.1030  0.3733 -0.4905
 1297SOL    HW115353   3.107   2.892  10.795 -2.9901 -1.4089 -1.1900
 1297SOL    HW215354   3.224   2.913  10.714  0.8871 -2.3908  0.2770
 1298SOL     OW15355   2.317   3.591   4.456 -0.0202 -0.0189  0.1981
 1298SOL    HW115356   2.330   3.631   4.370 -2.0436  2.7070  1.1738
 1298SOL    HW215357   2.266   3.658   4.503 -0.3716 -0.9347  1.1276
 1299SOL     OW15358   4.260   2.256  17.681 -0.3677  0.0570  0.7598
 1299SOL    HW115359   4.186   2.314  17.663 -1.6373 -2.5818 -2.5995
 1299SOL    HW215360   4.242   2.180  17.626  0.3968  0.2261  0.2897
 1300SOL     OW15361   4.119   0.842  14.302 -0.5052  0.1019  0.5225
 1300SOL    HW115362   4.124   0.894  14.222 -1.4220 -1.5223 -0.5942
 1300SOL    HW215363   4.027   0.852  14.326  0.2612  2.5219  2.4268
 1301SOL     OW15364   0.581   1.552   2.464  0.7108 -0.1100  0.4146
 1301SOL    HW115365   0.550   1.556   2.374 -1.4659  0.4624  1.2029
 1301SOL    HW215366   0.638   1.629   2.473  0.1267  0.4042 -0.3020
 1302SOL     OW15367   3.608   3.767   5.467 -0.3408 -0.4662  0.4992
 1302SOL    HW115368   3.642   3.856   5.452  0.8072 -0.8766  0.7035
 1302SOL    HW215369   3.513   3.775   5.482 -0.4704  1.5554 -1.2584
 1303SOL     OW15370   1.885   4.517   1.791  0.4904  0.2361 -0.6914
 1303SOL    HW115371   1.924   4.545   1.708  0.3561 -0.1406 -0.8837
 1303SOL    HW215372   1.855   4.603   1.820 -0.0618 -0.9672  2.3695
 1304SOL     OW15373   4.239   2.109   2.145 -0.5212  0.0431 -0.1788
 1304SOL    HW115374   4.211   2.113   2.054  1.6999 -0.6147 -0.8727
 1304SOL    HW215375   4.156   2.077   2.181 -0.8017  1.2012  0.1816
 1305SOL     OW15376   0.626   1.485   4.713 -0.2058  0.1613  0.5814
 1305SOL    HW115377   0.649   1.464   4.804  0.0919 -1.6576  0.0957
 1305SOL    HW215378   0.618   1.399   4.672  1.0971  0.0200  0.5998
 1306SOL     OW15379   0.971   3.100   3.463 -0.2157 -0.0319  0.0937
 1306SOL    HW115380   0.920   3.123   3.385  0.4190  1.0780  0.0075
 1306SOL    HW215381   1.017   3.182   3.479  1.2207 -0.5165 -1.5413
 1307SOL     OW15382   2.085   1.251   3.114 -0.3913  0.0686  0.3894
 1307SOL    HW115383   2.094   1.177   3.175  0.6389 -1.3482 -1.4630
 1307SOL    HW215384   2.153   1.313   3.141  0.6285 -0.3287 -1.2641
 1308SOL     OW15385   3.684   3.534  14.542  0.2449  0.3291 -0.4922
 1308SOL    HW115386   3.622   3.590  14.588  1.6068  0.1530  1.6191
 1308SOL    HW215387   3.757   3.554  14.601 -1.1183 -1.5350  1.8603
 1309SOL     OW15388   0.960   0.109   3.120  0.0194  0.0844 -0.8578
 1309SOL    HW115389   0.997   0.195   3.100  0.6909 -0.2698 -1.1471
 1309SOL    HW215390   1.041   0.060   3.108 -0.1018 -0.0561 -1.0912
 1310SOL     OW15391   3.758   3.000   7.690 -0.1399 -0.5897  0.0959
 1310SOL    HW115392   3.850   2.975   7.682  0.2060  0.8541 -0.4116
 1310SOL    HW215393   3.726   2.980   7.602  1.8358  0.0609 -0.7620
 1311SOL     OW15394   3.650   3.930  12.261 -0.0567  0.3445 -0.1962
 1311SOL    HW115395   3.696   3.872  12.201  0.8561 -0.6731  1.4728
 1311SOL    HW215396   3.624   3.866  12.327  0.5888  0.0515 -0.2263
 1312SOL     OW15397   4.130   0.380   8.905 -0.2531 -0.3555 -0.5409
 1312SOL    HW115398   4.076   0.429   8.842 -0.8436 -1.2101 -0.7048
 1312SOL    HW215399   4.183   0.333   8.841  2.3074  1.6323  0.1288
 1313SOL     OW15400   3.429   1.728   1.670 -0.7885 -0.4746  0.2010
 1313SOL    HW115401   3.397   1.788   1.603  1.3486  0.9840  0.5026
 1313SOL    HW215402   3.462   1.655   1.618 -0.1351 -0.8607  1.1419
 1314SOL     OW15403   4.151   1.566  14.875 -0.0035 -0.1094  0.1919
 1314SOL    HW115404   4.099   1.516  14.812 -1.0299  1.5735 -0.3271
 1314SOL    HW215405   4.219   1.501  14.892 -1.2258 -1.3887  0.1776
 1315SOL     OW15406   2.270   0.689   2.951 -0.1150 -0.0453  0.1188
 1315SOL    HW115407   2.256   0.751   2.879  0.2367 -1.6217 -1.3094
 1315SOL    HW215408   2.194   0.636   2.928  1.3982 -3.7936  3.8464
 1316SOL     OW15409   0.315   1.569   3.892 -0.3515 -0.1029  0.7725
 1316SOL    HW115410   0.245   1.632   3.907 -1.0653 -0.8919  0.7318
 1316SOL    HW215411   0.296   1.518   3.813 -0.4561 -1.0502  1.4035
 1317SOL     OW15412   0.521   1.463  15.809 -0.0815  0.4873 -0.0433
 1317SOL    HW115413   0.587   1.512  15.761  2.2459 -0.9758  1.6151
 1317SOL    HW215414   0.493   1.529  15.873  2.0745  1.8845 -0.5324
 1318SOL     OW15415   3.819   0.435   5.684 -0.1815 -0.2702  0.2436
 1318SOL    HW115416   3.839   0.516   5.638  1.5993  0.8113  2.9260
 1318SOL    HW215417   3.748   0.394   5.634  0.3423  2.0134 -2.2944
 1319SOL     OW15418   2.027   0.842   5.447 -0.3266 -0.1057 -0.1497
 1319SOL    HW115419   2.009   0.910   5.511  1.6807  0.4152 -0.1347
 1319SOL    HW215420   2.057   0.888   5.369  0.6343 -0.7987 -0.1884
 1320SOL     OW15421   3.134   2.357  11.325  0.2184 -0.2558 -0.0382
 1320SOL    HW115422   3.159   2.265  11.328 -0.8094 -0.5566 -0.7321
 1320SOL    HW215423   3.182   2.392  11.250  0.4660 -0.0285  0.2250
 1321SOL     OW15424   3.723   4.110   1.113 -0.5845 -0.4968  0.4746
 1321SOL    HW115425   3.631   4.136   1.108 -1.2742 -3.1285 -0.5462
 1321SOL    HW215426   3.756   4.198   1.128 -1.4455 -0.3270  1.3565
 1322SOL     OW15427   3.567   1.806   4.044 -0.0760 -0.4071 -0.3350
 1322SOL    HW115428   3.518   1.884   4.071 -0.4455 -0.6336 -0.3421
 1322SOL    HW215429   3.512   1.744   4.092  0.7027 -0.2214  0.7973
 1323SOL     OW15430   3.866   2.000  14.856  0.1248 -0.5222  0.9609
 1323SOL    HW115431   3.859   1.911  14.891 -2.1620 -0.3495  0.9156
 1323SOL    HW215432   3.915   1.983  14.776 -0.3447 -1.9190  0.9661
 1324SOL     OW15433   4.392   0.754   6.893 -0.0709 -0.0694  0.1168
 1324SOL    HW115434   4.358   0.668   6.867 -0.1563 -0.2706  0.8925
 1324SOL    HW215435   4.323   0.817   6.875  0.5755  1.0835  1.7330
 1325SOL     OW15436   3.923   3.952   7.244  0.9598  0.0813 -0.0754
 1325SOL    HW115437   3.858   3.960   7.175  0.2356  0.0524  0.5979
 1325SOL    HW215438   3.939   3.857   7.243  1.0555  0.0846  0.7368
 1326SOL     OW15439   2.896   2.159   8.732 -0.1269  0.3288 -0.6704
 1326SOL    HW115440   2.938   2.105   8.799 -0.1640  0.0237 -0.8898
 1326SOL    HW215441   2.945   2.119   8.660  2.0308  1.1086  0.3514
 1327SOL     OW15442   0.959   4.247   8.139 -0.2466 -0.0212  0.5494
 1327SOL    HW115443   0.871   4.272   8.166 -0.2363  1.4355 -0.7963
 1327SOL    HW215444   1.003   4.254   8.224 -1.7693 -1.7060  1.4562
 1328SOL     OW15445   1.791   0.245  12.541 -0.0288 -0.5637  0.3107
 1328SOL    HW115446   1.765   0.332  12.572 -0.5277 -1.3688  2.0925
 1328SOL    HW215447   1.708   0.198  12.535 -0.4754  0.2473  0.0822
 1329SOL     OW15448   3.711   3.511   4.509 -0.5862 -0.0395  0.2448
 1329SOL    HW115449   3.642   3.550   4.562 -2.0534  0.1054 -1.7688
 1329SOL    HW215450   3.674   3.474   4.429  0.9194 -1.4745  0.2227
 1330SOL     OW15451   3.625   1.728   2.810  0.2956 -0.1003 -0.2618
 1330SOL    HW115452   3.716   1.701   2.824 -0.6897 -2.1056  2.2746
 1330SOL    HW215453   3.625   1.738   2.715 -1.6328 -0.0527 -0.2608
 1331SOL     OW15454   4.535   4.474   2.872  0.4001  0.1155  0.0657
 1331SOL    HW115455   4.624   4.481   2.907  0.8635  1.7585 -1.4687
 1331SOL    HW215456   4.514   4.388   2.909 -2.6433 -0.3177 -2.6686
 1332SOL     OW15457   4.297   0.314   3.619 -0.1571  0.7191 -0.4352
 1332SOL    HW115458   4.202   0.312   3.611 -0.1826  0.8952 -0.1562
 1332SOL    HW215459   4.313   0.234   3.669  2.2434  2.2238  1.2043
 1333SOL     OW15460   3.529   4.147   8.503  0.4784  0.4131 -0.7849
 1333SOL    HW115461   3.442   4.137   8.465  1.2455 -0.8327 -2.2496
 1333SOL    HW215462   3.504   4.143   8.595 -0.2994  2.4047 -0.9206
 1334SOL     OW15463   1.736   1.814   5.188 -0.0650 -0.0436  0.0660
 1334SOL    HW115464   1.761   1.849   5.273 -1.1434  1.3356 -0.1932
 1334SOL    HW215465   1.642   1.828   5.185 -0.3466 -1.9250  0.2255
 1335SOL     OW15466   3.012   0.765  13.657  0.0415 -0.2411 -0.4472
 1335SOL    HW115467   2.929   0.806  13.679 -0.0159 -1.2272  1.1793
 1335SOL    HW215468   3.004   0.672  13.676  1.6092 -1.0298 -3.7643
 1336SOL     OW15469   4.581   3.430   7.154  0.6766  0.6216 -0.2048
 1336SOL    HW115470   4.633   3.353   7.132  3.1399  2.1004  0.4767
 1336SOL    HW215471   4.491   3.401   7.168 -0.2896  2.7540 -2.0852
 1337SOL     OW15472   3.605   0.809   6.069  0.3272  0.2898 -0.5245
 1337SOL    HW115473   3.598   0.891   6.022 -0.0441  0.7759  0.3768
 1337SOL    HW215474   3.690   0.807   6.114  0.3242 -1.5621 -0.5715
 1338SOL     OW15475   1.849   1.047   1.484  0.2470 -0.6623 -0.2926
 1338SOL    HW115476   1.771   1.055   1.540  0.5099 -0.2962  0.0254
 1338SOL    HW215477   1.859   1.137   1.453  0.0598  0.2840  2.3203
 1339SOL     OW15478   2.195   4.477   9.883  0.1806  0.0080 -0.2569
 1339SOL    HW115479   2.122   4.499   9.825 -0.1259 -0.0484  0.1100
 1339SOL    HW215480   2.266   4.469   9.819 -2.2315 -2.8299 -2.5456
 1340SOL     OW15481   3.189   1.401   7.549 -0.4218 -0.0289  0.2477
 1340SOL    HW115482   3.174   1.324   7.604 -0.6380  0.3027  0.6475
 1340SOL    HW215483   3.263   1.371   7.496 -0.1319  3.1984 -1.1878
 1341SOL     OW15484   1.263   0.474   6.595  0.0019 -0.2426  0.5007
 1341SOL    HW115485   1.232   0.526   6.669 -0.7038  0.4678 -0.2984
 1341SOL    HW215486   1.308   0.410   6.650  1.0396  0.7259  0.7877
 1342SOL     OW15487   2.908   2.967  14.329  0.0503 -0.5118  0.4720
 1342SOL    HW115488   2.856   3.029  14.278 -0.1549 -2.1419 -1.3162
 1342SOL    HW215489   2.934   2.913  14.254  1.0154  0.5655  0.0204
 1343SOL     OW15490   2.280   1.659   8.312  0.0544  0.0671  0.4011
 1343SOL    HW115491   2.283   1.686   8.220 -0.5707  0.4118  0.4852
 1343SOL    HW215492   2.189   1.631   8.313  0.0838 -0.0869 -0.9456
 1344SOL     OW15493   4.552   3.382   4.146  0.2245  0.1261  0.2826
 1344SOL    HW115494   4.527   3.472   4.167 -1.7490 -0.2647 -0.3871
 1344SOL    HW215495   4.516   3.322   4.210 -0.6845  0.5059  0.1295
 1345SOL     OW15496   2.792   4.467   8.550  0.2290  0.3364 -0.1422
 1345SOL    HW115497   2.862   4.403   8.562  0.8552  1.1111  0.3333
 1345SOL    HW215498   2.731   4.412   8.499  1.4963 -1.4038  0.2011
 1346SOL     OW15499   1.990   3.295   4.143 -0.1228 -0.1485  0.2969
 1346SOL    HW115500   1.992   3.236   4.067 -0.8255 -0.5565  0.5945
 1346SOL    HW215501   1.909   3.343   4.128 -1.9254 -2.8018  1.5089
 1347SOL     OW15502   3.745   3.764   8.119  0.2409 -0.3785 -0.0869
 1347SOL    HW115503   3.747   3.792   8.211  0.2315  0.3349 -0.3060
 1347SOL    HW215504   3.839   3.764   8.102 -0.1313  1.9156 -2.0440
 1348SOL     OW15505   1.257   4.132   7.069  0.1967  0.1153 -0.5153
 1348SOL    HW115506   1.302   4.170   6.994  0.7585 -0.5270 -0.5063
 1348SOL    HW215507   1.189   4.076   7.030 -0.8056  0.5975  0.5285
 1349SOL     OW15508   3.579   3.874   9.509 -0.1812 -0.4123  0.2845
 1349SOL    HW115509   3.549   3.826   9.433  0.6408  1.6225 -1.3244
 1349SOL    HW215510   3.617   3.801   9.558 -1.1252 -0.3254  1.1673
 1350SOL     OW15511   1.476   0.418   3.229  0.0173  0.3186 -0.0262
 1350SOL    HW115512   1.556   0.409   3.176  0.9452 -0.4963  1.5145
 1350SOL    HW215513   1.430   0.336   3.210  1.1436 -0.7532  1.9423
 1351SOL     OW15514   3.563   1.290   2.577 -0.4291 -0.1138 -0.7031
 1351SOL    HW115515   3.590   1.332   2.495 -1.1574  2.1901  0.2551
 1351SOL    HW215516   3.618   1.211   2.578  1.2486  1.0548  0.3674
 1352SOL     OW15517   3.033   2.000   7.093 -0.0445 -0.2744  0.0716
 1352SOL    HW115518   3.083   1.930   7.136  1.7341  1.8106  1.4231
 1352SOL    HW215519   3.052   2.078   7.146  2.0070 -0.5902 -0.2095
 1353SOL     OW15520   0.131   1.429  15.923  0.0279  0.4538  0.0717
 1353SOL    HW115521   0.066   1.408  15.857 -0.2283  1.8307 -0.0956
 1353SOL    HW215522   0.193   1.362  15.892  0.4206  0.0642  1.6649
 1354SOL     OW15523   2.062   3.759  16.468 -0.1813  0.1173 -0.3930
 1354SOL    HW115524   2.155   3.777  16.480 -0.1150 -0.3812 -0.1594
 1354SOL    HW215525   2.032   3.787  16.554  1.2962  0.5563 -0.0145
 1355SOL     OW15526   3.693   4.076   3.321  0.0435  0.5054 -0.1656
 1355SOL    HW115527   3.770   4.036   3.281 -1.1387 -2.1310  0.2136
 1355SOL    HW215528   3.743   4.144   3.365  0.3739  0.2278 -0.1084
 1356SOL     OW15529   1.934   3.737  15.330 -0.2885  0.5555  0.9264
 1356SOL    HW115530   1.841   3.724  15.312 -0.4570  2.2058  0.6644
 1356SOL    HW215531   1.925   3.714  15.423  1.3450  1.4342  1.2990
 1357SOL     OW15532   4.506   3.137   9.032 -0.4747 -0.1069 -0.1149
 1357SOL    HW115533   4.563   3.064   9.058  0.8813  0.9149 -0.2293
 1357SOL    HW215534   4.513   3.189   9.113 -2.8068  0.4683 -0.2973
 1358SOL     OW15535   0.728   4.350   3.606 -0.1564  0.9608  0.0573
 1358SOL    HW115536   0.749   4.295   3.531 -0.3314 -0.1570  0.8260
 1358SOL    HW215537   0.755   4.432   3.564  1.7711  0.4069  0.1864
 1359SOL     OW15538   3.404   0.103  15.162  0.3535  0.0945  0.2519
 1359SOL    HW115539   3.486   0.140  15.127  0.8268 -2.1784 -0.9993
 1359SOL    HW215540   3.430   0.045  15.234  0.9174 -1.9522 -1.5985
 1360SOL     OW15541   2.453   0.080  12.049 -0.5357 -0.0735  0.2827
 1360SOL    HW115542   2.470   0.006  11.991  0.7988  0.2114  0.3017
 1360SOL    HW215543   2.414   0.142  11.987  0.5562 -2.7707 -3.0616
 1361SOL     OW15544   1.438   3.423   2.063 -0.1291 -0.0006  0.3070
 1361SOL    HW115545   1.432   3.327   2.070 -0.1938 -0.1300 -1.6847
 1361SOL    HW215546   1.452   3.463   2.149  1.2616  2.2047 -0.9684
 1362SOL     OW15547   1.661   4.581   5.895  0.6881  0.0882 -0.2669
 1362SOL    HW115548   1.658   4.486   5.898 -2.8178  0.2908  2.0122
 1362SOL    HW215549   1.583   4.606   5.944 -0.0594 -1.7365 -0.5441
 1363SOL     OW15550   1.411   0.994   5.418 -0.1205  0.0254 -0.2595
 1363SOL    HW115551   1.452   0.946   5.490 -1.7952 -1.5057 -0.2967
 1363SOL    HW215552   1.332   0.944   5.397 -0.3033  0.7326 -1.2622
 1364SOL     OW15553   3.627   1.618   7.801 -0.5614  0.3922  0.5393
 1364SOL    HW115554   3.654   1.600   7.891 -2.3822 -0.6102  0.8974
 1364SOL    HW215555   3.558   1.555   7.781 -0.0725 -0.0535  0.2668
 1365SOL     OW15556   4.662   0.956  12.644  0.0893 -0.3948 -0.3040
 1365SOL    HW115557   4.573   0.948  12.607 -1.1921 -0.9866  2.9187
 1365SOL    HW215558   4.705   1.006  12.575 -0.0773 -1.8515 -1.4707
 1366SOL     OW15559   4.402   1.158  14.007  0.4315 -0.2799 -0.4560
 1366SOL    HW115560   4.444   1.158  14.094  0.7689 -3.0274 -0.6205
 1366SOL    HW215561   4.448   1.077  13.984 -0.0160 -0.2892 -1.2865
 1367SOL     OW15562   1.076   4.433   2.811  0.7481 -0.5466  0.5030
 1367SOL    HW115563   1.147   4.423   2.874 -0.2845 -1.8625  1.4639
 1367SOL    HW215564   1.095   4.522   2.782 -2.0490 -0.6251 -1.5524
 1368SOL     OW15565   1.773   4.237   8.119  0.3426 -0.5525 -0.4833
 1368SOL    HW115566   1.788   4.283   8.037 -0.2941  1.2548  0.4150
 1368SOL    HW215567   1.857   4.192   8.130  1.2642  0.9399 -1.4505
 1369SOL     OW15568   4.279   4.386   3.940  0.7016 -0.9230  0.0804
 1369SOL    HW115569   4.218   4.401   4.012  1.2308  0.1407  0.3028
 1369SOL    HW215570   4.350   4.347   3.991  0.9790 -3.2776 -2.0691
 1370SOL     OW15571   1.604   4.315   2.912  0.0709  0.2749  0.2441
 1370SOL    HW115572   1.552   4.343   2.987 -1.2841  0.2378 -0.6795
 1370SOL    HW215573   1.655   4.242   2.949 -2.3224 -0.7430  1.5431
 1371SOL     OW15574   3.347   3.345  13.872  0.0174  0.9060 -0.2180
 1371SOL    HW115575   3.289   3.282  13.828  1.4107 -0.2361 -0.4168
 1371SOL    HW215576   3.358   3.302  13.956  1.3083  0.3937 -0.6508
 1372SOL     OW15577   1.706   2.306   3.599  0.6333 -1.2047  0.1264
 1372SOL    HW115578   1.754   2.381   3.564  1.5595 -2.6275 -1.6684
 1372SOL    HW215579   1.742   2.320   3.686  0.6642  0.5392 -0.1680
 1373SOL     OW15580   3.580   1.219   7.822 -0.3998  0.2382  0.8597
 1373SOL    HW115581   3.672   1.191   7.820 -0.0351  1.5954 -1.3839
 1373SOL    HW215582   3.538   1.134   7.812 -1.1649  0.8981 -1.5035
 1374SOL     OW15583   4.316   1.836  10.350  0.0324  0.1559 -0.2869
 1374SOL    HW115584   4.339   1.892  10.276 -0.7064 -0.3887 -0.9260
 1374SOL    HW215585   4.239   1.881  10.386  1.0596 -0.1071  2.2267
 1375SOL     OW15586   0.325   1.651   2.235  0.0697 -0.3450  0.3069
 1375SOL    HW115587   0.304   1.711   2.164  0.0676 -0.1747  0.4518
 1375SOL    HW215588   0.279   1.575   2.199  0.3896  0.0327 -0.8909
 1376SOL     OW15589   2.104   1.529   1.626 -0.0997 -0.0612  0.6833
 1376SOL    HW115590   2.160   1.531   1.548 -3.1695  1.7823 -1.4657
 1376SOL    HW215591   2.027   1.577   1.597 -0.1352  0.5613  1.7897
 1377SOL     OW15592   0.479   2.784   0.043  0.4756 -0.3885  0.1532
 1377SOL    HW115593   0.565   2.790   0.083  0.4217  0.1948  0.1903
 1377SOL    HW215594   0.430   2.830   0.112  0.1115  1.1489 -1.1134
 1378SOL     OW15595   3.210   1.788   6.798 -0.4336 -0.2084  0.0322
 1378SOL    HW115596   3.142   1.852   6.777 -1.1428 -0.5048  1.4345
 1378SOL    HW215597   3.168   1.708   6.766  2.0124 -1.3187 -0.4258
 1379SOL     OW15598   4.443   2.889  12.044 -0.4697 -0.4087  0.2296
 1379SOL    HW115599   4.480   2.950  12.109 -0.0530 -1.7177  1.2364
 1379SOL    HW215600   4.481   2.915  11.960  0.7446 -2.0552  0.2698
 1380SOL     OW15601   4.025   2.850   0.162 -0.4459  0.2237 -0.8531
 1380SOL    HW115602   4.060   2.765   0.135 -0.3817  0.9814 -3.2027
 1380SOL    HW215603   4.024   2.842   0.257 -0.1583 -1.2769 -0.9693
 1381SOL     OW15604   1.262   3.504   7.380 -0.2654 -0.5744  0.5124
 1381SOL    HW115605   1.336   3.557   7.351 -0.8188  1.8801  3.6043
 1381SOL    HW215606   1.207   3.580   7.401  0.7487  0.1618  0.5079
 1382SOL     OW15607   4.544   2.881   0.083  0.2773 -0.1668 -0.1622
 1382SOL    HW115608   4.625   2.926   0.108 -1.1635  1.7145  1.0999
 1382SOL    HW215609   4.574   2.840   0.002 -0.9475 -1.5338  0.0785
 1383SOL     OW15610   1.067   2.093   7.111 -0.2900  0.4932 -0.5632
 1383SOL    HW115611   1.072   2.176   7.063 -1.0745  0.6596 -0.3636
 1383SOL    HW215612   0.975   2.092   7.139 -0.1850 -2.9995 -0.4032
 1384SOL     OW15613   1.386   3.432   6.978 -0.1768  0.1342  0.0959
 1384SOL    HW115614   1.367   3.376   7.054 -0.2137 -0.4616 -0.3584
 1384SOL    HW215615   1.318   3.428   6.911 -1.4346  3.2974  1.1632
 1385SOL     OW15616   4.209   3.564   8.253  0.1863 -0.2952  0.5499
 1385SOL    HW115617   4.281   3.588   8.194 -0.6101 -0.9154 -0.6671
 1385SOL    HW215618   4.166   3.648   8.268  0.5126  0.1991 -1.2926
 1386SOL     OW15619   0.840   2.913   4.411  0.1577 -0.6656  0.1699
 1386SOL    HW115620   0.879   2.953   4.334 -2.6535 -1.5456 -1.6879
 1386SOL    HW215621   0.912   2.913   4.475 -0.1008  1.1847  0.4380
 1387SOL     OW15622   0.851   1.858   5.141  0.1337  0.4084 -0.4728
 1387SOL    HW115623   0.853   1.953   5.128  1.2229  0.1829 -1.8597
 1387SOL    HW215624   0.936   1.827   5.112 -1.2801 -2.9039 -1.0726
 1388SOL     OW15625   1.730   2.284   2.341  0.9706  0.1012  0.0427
 1388SOL    HW115626   1.826   2.282   2.346  0.8388 -0.1790  2.4390
 1388SOL    HW215627   1.705   2.194   2.323  1.0560  0.3145 -1.1851
 1389SOL     OW15628   2.785   0.675  11.050  0.5831 -0.3073 -0.2421
 1389SOL    HW115629   2.745   0.598  11.010 -1.9389  0.4044  0.9263
 1389SOL    HW215630   2.869   0.639  11.078 -0.4004 -1.3077  1.4458
 1390SOL     OW15631   2.988   1.442   5.197  0.4808 -0.1570 -0.3167
 1390SOL    HW115632   2.952   1.527   5.218  2.2640  0.6659 -0.5942
 1390SOL    HW215633   2.935   1.428   5.118  3.3928  0.1515 -2.3267
 1391SOL     OW15634   0.814   2.498   7.741 -0.2641  0.0041  0.0762
 1391SOL    HW115635   0.753   2.481   7.670 -1.1840 -1.1494  1.1442
 1391SOL    HW215636   0.845   2.411   7.766  1.1391  0.5324  0.1843
 1392SOL     OW15637   3.141   2.910   1.351 -0.2178  0.2929 -0.0362
 1392SOL    HW115638   3.116   2.891   1.261  1.4254  1.2887 -0.6890
 1392SOL    HW215639   3.222   2.860   1.355 -1.7192 -2.1429  0.1639
 1393SOL     OW15640   2.878   4.290  10.567 -0.2921  0.0668  0.1964
 1393SOL    HW115641   2.790   4.274  10.534 -0.5231 -0.6382  1.1312
 1393SOL    HW215642   2.917   4.347  10.502 -0.1245 -0.9224 -0.5705
 1394SOL     OW15643   0.462   0.187   2.970  0.4776  0.2393 -0.0652
 1394SOL    HW115644   0.437   0.097   2.989  1.4405  0.3597  1.8163
 1394SOL    HW215645   0.381   0.219   2.931  0.7981 -1.0227 -1.7573
 1395SOL     OW15646   1.134   2.300   4.181 -0.7924  0.0299  0.7430
 1395SOL    HW115647   1.173   2.259   4.258  1.8226 -0.4821 -0.8884
 1395SOL    HW215648   1.203   2.359   4.153 -0.8771 -0.1390  0.1780
 1396SOL     OW15649   2.141   2.533   8.384  0.4766  0.2253 -0.4464
 1396SOL    HW115650   2.149   2.497   8.473 -1.4561 -0.0633 -0.3937
 1396SOL    HW215651   2.125   2.451   8.337 -1.1146 -0.8178  1.9399
 1397SOL     OW15652   0.908   2.561   8.841  0.4760 -0.1553 -0.0297
 1397SOL    HW115653   0.859   2.525   8.915  0.1801  1.4495  0.5505
 1397SOL    HW215654   0.866   2.647   8.835 -4.3656 -2.3710  2.8524
 1398SOL     OW15655   1.562   2.195   1.178  0.2827  0.0883 -0.0498
 1398SOL    HW115656   1.621   2.260   1.215  2.1663 -0.7549 -1.5625
 1398SOL    HW215657   1.585   2.192   1.085  0.9727 -1.6601  0.1781
 1399SOL     OW15658   4.059   1.707   6.709  0.1847 -0.0242  0.3703
 1399SOL    HW115659   4.102   1.689   6.626  0.5209  2.6251 -0.0124
 1399SOL    HW215660   3.999   1.632   6.709 -0.7062  0.6651  3.2574
 1400SOL     OW15661   2.770   3.715  15.883  0.2428  0.1687  0.3440
 1400SOL    HW115662   2.815   3.712  15.799 -2.0473 -0.2955 -0.8750
 1400SOL    HW215663   2.748   3.808  15.888 -1.5694 -0.2436  0.2413
 1401SOL     OW15664   1.034   0.762   4.580  0.4301  0.2226 -0.2257
 1401SOL    HW115665   1.085   0.817   4.521  0.8413 -0.7385 -0.7755
 1401SOL    HW215666   0.963   0.737   4.521  0.6515 -1.9114  0.4205
 1402SOL     OW15667   2.149   3.177  16.255  0.2299  0.7527 -0.2064
 1402SOL    HW115668   2.124   3.246  16.317 -1.4938  0.6791 -0.8207
 1402SOL    HW215669   2.208   3.126  16.311 -0.9470 -0.1103  0.2385
 1403SOL     OW15670   2.178   2.846   6.088  0.2249  0.3025 -0.7131
 1403SOL    HW115671   2.085   2.821   6.085  0.2963  0.1455 -1.5816
 1403SOL    HW215672   2.178   2.903   6.011 -0.3299  0.0218 -0.9197
 1404SOL     OW15673   2.268   4.022   5.689 -0.2160  0.2107 -0.7922
 1404SOL    HW115674   2.340   4.037   5.750 -0.6626 -0.2392 -0.1468
 1404SOL    HW215675   2.199   4.010   5.755 -0.4130  1.3658 -0.7917
 1405SOL     OW15676   0.093   2.759   8.543 -0.1101  0.5186  0.1384
 1405SOL    HW115677   0.145   2.704   8.485 -2.4162 -0.8653 -0.6189
 1405SOL    HW215678   0.066   2.694   8.608  1.9931  2.5824  3.0927
 1406SOL     OW15679   2.598   4.407   0.765  0.0935  0.1763  0.8577
 1406SOL    HW115680   2.683   4.411   0.721  0.5469  0.5703  1.7663
 1406SOL    HW215681   2.591   4.499   0.788 -3.1958  0.4828 -1.3613
 1407SOL     OW15682   2.362   1.246   8.050 -0.4012 -0.0341  0.0814
 1407SOL    HW115683   2.393   1.325   8.005  0.8525  0.0363  1.0778
 1407SOL    HW215684   2.385   1.272   8.139 -2.4985 -1.7056  1.1178
 1408SOL     OW15685   4.282   0.745   0.561  0.3393  0.4353 -0.0530
 1408SOL    HW115686   4.342   0.710   0.627 -0.4578 -1.9077 -0.5717
 1408SOL    HW215687   4.322   0.831   0.545  2.6743 -0.6912 -0.3447
 1409SOL     OW15688   2.198   0.292   9.499  0.1970 -0.2270 -0.5435
 1409SOL    HW115689   2.223   0.250   9.581  0.7523  0.2345 -0.4775
 1409SOL    HW215690   2.284   0.285   9.457 -0.6618  0.5834 -2.4270
 1410SOL     OW15691   2.240   2.771   8.440  0.2051  0.1649  0.4096
 1410SOL    HW115692   2.278   2.766   8.527  4.1574 -1.6803 -1.4234
 1410SOL    HW215693   2.199   2.684   8.436  1.6061 -0.6206  3.4404
 1411SOL     OW15694   4.058   0.223   9.101 -0.0780  0.2435  0.4371
 1411SOL    HW115695   3.985   0.261   9.149 -0.8461  1.9378 -2.0677
 1411SOL    HW215696   4.083   0.300   9.050  0.1334  0.8104  1.4013
 1412SOL     OW15697   3.552   2.530  11.254  0.3109 -0.0678 -0.3979
 1412SOL    HW115698   3.641   2.540  11.219  0.3267  0.2880 -0.2625
 1412SOL    HW215699   3.569   2.548  11.347 -1.3915 -2.6788  0.3972
 1413SOL     OW15700   0.511   1.761   5.662  0.3252  0.1659  0.1902
 1413SOL    HW115701   0.572   1.813   5.713  1.3542 -0.5738 -0.2896
 1413SOL    HW215702   0.429   1.777   5.709  1.3763  0.2077  1.9920
 1414SOL     OW15703   0.277   1.987  16.619  0.2462 -0.3304 -0.3091
 1414SOL    HW115704   0.200   1.933  16.599  0.6849 -1.4371  0.9578
 1414SOL    HW215705   0.234   2.067  16.648  2.8022  0.8508  0.1954
 1415SOL     OW15706   0.921   0.597  14.503 -0.2576  0.1023  0.1657
 1415SOL    HW115707   1.002   0.648  14.502  0.3905 -0.9117  2.1543
 1415SOL    HW215708   0.902   0.582  14.595  1.2943 -2.3244  0.1079
 1416SOL     OW15709   2.314   4.006   0.819 -0.2164 -0.2916 -0.0486
 1416SOL    HW115710   2.393   4.060   0.817  0.8294 -1.9477 -2.8922
 1416SOL    HW215711   2.320   3.965   0.905  0.2824  0.1808  0.1388
 1417SOL     OW15712   3.647   3.001  13.484 -0.4807 -0.7729  0.4193
 1417SOL    HW115713   3.697   2.961  13.555 -1.1691 -0.7055  0.9352
 1417SOL    HW215714   3.586   3.059  13.530 -0.6796 -0.3637 -0.3669
 1418SOL     OW15715   0.102   3.950   3.176  0.2898  0.6798  0.0986
 1418SOL    HW115716   0.052   3.913   3.103  0.1334 -0.4500  0.7676
 1418SOL    HW215717   0.192   3.918   3.161  0.6204  0.0460  3.3992
 1419SOL     OW15718   2.027   0.510   1.731  0.6760  0.7439 -0.1421
 1419SOL    HW115719   2.040   0.526   1.824  1.8862 -0.3260 -0.1203
 1419SOL    HW215720   1.950   0.565   1.720 -1.4665 -1.6996  2.6642
 1420SOL     OW15721   2.362   0.166   8.922 -1.1814  0.3706  0.3169
 1420SOL    HW115722   2.325   0.185   9.008 -1.8070  0.2444  0.0833
 1420SOL    HW215723   2.444   0.122   8.945 -1.8457 -0.1940  1.5899
 1421SOL     OW15724   0.580   0.838   5.427 -0.3010 -0.1704 -0.1870
 1421SOL    HW115725   0.552   0.813   5.515 -0.1365  2.0475  0.4961
 1421SOL    HW215726   0.676   0.834   5.437 -0.2704  0.2616 -0.3306
 1422SOL     OW15727   2.657   2.696   9.504 -0.2047  0.3050 -0.1006
 1422SOL    HW115728   2.701   2.614   9.484  1.7911  1.6407 -1.1964
 1422SOL    HW215729   2.573   2.661   9.534  0.6045 -0.6343  1.0544
 1423SOL     OW15730   4.126   0.266   7.030 -0.7893 -0.0891  0.5320
 1423SOL    HW115731   4.051   0.210   7.051 -1.2515  0.7457  1.1234
 1423SOL    HW215732   4.102   0.302   6.944 -0.0857  1.3914  0.9616
 1424SOL     OW15733   3.857   1.095   3.956  0.7983 -0.2466  0.3585
 1424SOL    HW115734   3.763   1.115   3.957  0.9006  0.3102 -1.3396
 1424SOL    HW215735   3.887   1.178   3.921  2.8495 -2.4913 -3.1920
 1425SOL     OW15736   3.985   1.860  14.611  0.0751  0.4036 -0.2212
 1425SOL    HW115737   4.010   1.873  14.520 -1.8913  1.4619 -0.6173
 1425SOL    HW215738   4.071   1.868  14.652 -0.6454  0.1610  1.3380
 1426SOL     OW15739   1.855   0.977  12.899 -0.5108 -0.3412 -0.7365
 1426SOL    HW115740   1.823   0.973  12.990 -1.4390 -0.7796 -1.0831
 1426SOL    HW215741   1.893   1.065  12.899 -1.9840  0.2972 -1.0994
 1427SOL     OW15742   2.001   1.214  12.918 -0.1619 -0.2805 -0.1863
 1427SOL    HW115743   2.063   1.198  12.990 -0.6477  1.6887  0.6508
 1427SOL    HW215744   1.970   1.298  12.950 -1.5927 -0.8961  0.0395
 1428SOL     OW15745   1.579   3.981   8.871 -0.0629  0.1802  0.0638
 1428SOL    HW115746   1.653   3.998   8.929 -0.0964  2.3969 -0.5295
 1428SOL    HW215747   1.619   3.989   8.784  0.3184 -0.0445  0.2193
 1429SOL     OW15748   1.718   1.047   7.193  0.0332  0.0516  0.2534
 1429SOL    HW115749   1.639   1.093   7.223 -0.4987  1.6173 -3.5766
 1429SOL    HW215750   1.773   1.057   7.271 -1.2701  1.3418  1.0119
 1430SOL     OW15751   1.874   0.503   1.349 -0.2766  0.6087 -0.0591
 1430SOL    HW115752   1.866   0.456   1.432  1.9192  2.0654  0.9972
 1430SOL    HW215753   1.788   0.484   1.312  0.2655  0.5430 -1.3054
 1431SOL     OW15754   0.123   1.426   4.839  0.0670  0.1998  0.3717
 1431SOL    HW115755   0.115   1.438   4.745 -0.9847 -0.4570  0.3744
 1431SOL    HW215756   0.117   1.518   4.863 -1.8218  0.0306  0.5743
 1432SOL     OW15757   4.709   4.060   9.177  0.6278 -0.1849 -0.2637
 1432SOL    HW115758   4.705   4.126   9.109 -0.6586  0.8756  0.8325
 1432SOL    HW215759   4.678   3.980   9.134 -1.7945  0.8927 -0.5281
 1433SOL     OW15760   4.682   1.742  15.369 -0.5809 -0.7661  0.0905
 1433SOL    HW115761   0.046   1.770  15.352 -0.6103 -2.1564 -2.3235
 1433SOL    HW215762   4.639   1.828  15.368  0.6001 -0.1628  0.1648
 1434SOL     OW15763   0.938   2.770   6.572 -0.5875 -0.1491 -0.0717
 1434SOL    HW115764   0.927   2.808   6.485 -2.6612  0.6726  0.5687
 1434SOL    HW215765   0.879   2.826   6.621 -0.2423  1.2803 -1.2932
 1435SOL     OW15766   3.410   0.869   8.887 -0.1005  0.0842  0.1487
 1435SOL    HW115767   3.376   0.797   8.941  2.3135 -0.2147  1.2611
 1435SOL    HW215768   3.429   0.936   8.953 -1.0395 -0.8634  1.3893
 1436SOL     OW15769   4.565   3.902   2.721  0.1998 -0.1227 -0.2992
 1436SOL    HW115770   4.526   3.860   2.645 -0.3876 -3.8868  2.0616
 1436SOL    HW215771   4.537   3.990   2.698  2.4729  1.0610  1.4271
 1437SOL     OW15772   0.724   1.174  10.520 -0.0498  0.4424  0.4426
 1437SOL    HW115773   0.696   1.240  10.584  2.5944 -0.5804  2.6705
 1437SOL    HW215774   0.785   1.120  10.570 -1.0295 -0.2916  0.8445
 1438SOL     OW15775   4.588   4.655  14.277 -0.0067 -0.9118 -0.4661
 1438SOL    HW115776   4.638   0.008  14.256 -2.3119  0.8199  0.5295
 1438SOL    HW215777   4.528   4.688  14.343 -0.8326 -1.8576 -0.7391
 1439SOL     OW15778   2.690   3.651   8.196 -0.5844  0.4733 -0.1563
 1439SOL    HW115779   2.744   3.631   8.120  1.5667  0.2638  1.4149
 1439SOL    HW215780   2.642   3.568   8.198  0.1148  0.1033  2.0371
 1440SOL     OW15781   0.658   4.671   9.982  0.4246 -0.3319 -0.1001
 1440SOL    HW115782   0.627   4.681  10.072  0.6487 -1.3909  0.1023
 1440SOL    HW215783   0.612   0.009   9.929 -0.1023  0.0133  0.7662
 1441SOL     OW15784   1.713   3.697  12.254  0.8601  0.0313  0.1659
 1441SOL    HW115785   1.794   3.670  12.212  0.6827  1.1804 -0.8885
 1441SOL    HW215786   1.692   3.770  12.196 -0.7062 -2.0522 -1.8778
 1442SOL     OW15787   1.689   3.012  12.903  0.2333  0.2585 -0.0781
 1442SOL    HW115788   1.674   2.985  12.994  1.6427 -0.0328  0.0729
 1442SOL    HW215789   1.773   2.970  12.886  1.5065  2.0985  1.6260
 1443SOL     OW15790   2.760   0.716   8.235 -0.0894 -0.0298 -0.3389
 1443SOL    HW115791   2.670   0.746   8.221  0.1783  0.4343 -1.0972
 1443SOL    HW215792   2.788   0.711   8.143  2.2992 -1.6235  0.4651
 1444SOL     OW15793   3.096   3.356   7.059  0.2968 -0.2677 -0.1695
 1444SOL    HW115794   3.090   3.444   7.096  2.0658  0.6667 -2.1401
 1444SOL    HW215795   3.128   3.316   7.140  0.3258  0.5019  0.1989
 1445SOL     OW15796   1.256   2.586   1.204  0.1979 -0.1880  0.1449
 1445SOL    HW115797   1.323   2.540   1.153  0.1130 -0.8634  0.6553
 1445SOL    HW215798   1.307   2.588   1.285  0.4332  2.7743 -0.0673
 1446SOL     OW15799   4.105   2.339   3.472 -0.1806 -0.3322 -0.3301
 1446SOL    HW115800   4.043   2.382   3.413 -1.8893 -0.1171  1.6442
 1446SOL    HW215801   4.149   2.414   3.513 -0.0394 -0.1817 -0.7569
 1447SOL     OW15802   0.356   0.215   8.536  0.9319 -0.0395 -0.2678
 1447SOL    HW115803   0.387   0.301   8.563 -0.7338 -0.2467  2.3679
 1447SOL    HW215804   0.326   0.241   8.449  1.9792 -2.3147 -1.3089
 1448SOL     OW15805   0.157   0.731  16.535 -0.1199  0.5919  0.9214
 1448SOL    HW115806   0.196   0.780  16.463 -0.7653 -1.3015 -0.7261
 1448SOL    HW215807   0.088   0.787  16.571  1.3034  3.4106 -0.7449
 1449SOL     OW15808   1.331   2.093   9.126 -0.1101  0.9188  0.4243
 1449SOL    HW115809   1.273   2.096   9.202  0.2221 -2.9695  0.7932
 1449SOL    HW215810   1.382   2.170   9.150 -0.5163  1.4028 -0.2526
 1450SOL     OW15811   0.525   3.907   0.425  0.5244 -0.0016  0.0488
 1450SOL    HW115812   0.599   3.915   0.485 -1.6321  0.0556  2.6820
 1450SOL    HW215813   0.507   3.813   0.424 -0.1177  0.1547 -2.4463
 1451SOL     OW15814   2.743   0.220   1.590  0.2035 -0.4682  0.3410
 1451SOL    HW115815   2.742   0.241   1.683  1.9470  1.1449 -0.0250
 1451SOL    HW215816   2.738   0.124   1.593  0.9126 -0.5075  0.1364
 1452SOL     OW15817   1.936   3.579   7.222  0.0543  0.7278  0.4810
 1452SOL    HW115818   2.012   3.625   7.187  0.2553 -1.7036 -2.2489
 1452SOL    HW215819   1.873   3.643   7.188 -0.9740  1.0921  3.0388
 1453SOL     OW15820   3.634   3.849  12.992 -0.5016 -0.0744  0.1350
 1453SOL    HW115821   3.707   3.870  13.050  0.3941 -0.1937 -0.9272
 1453SOL    HW215822   3.637   3.753  12.991 -0.7308 -0.0777 -0.2610
 1454SOL     OW15823   4.595   4.062   5.436  0.4046 -0.2003 -0.0466
 1454SOL    HW115824   4.514   4.015   5.455  0.2387 -1.0803 -2.8046
 1454SOL    HW215825   4.606   4.048   5.341 -0.8776 -0.6400 -0.1212
 1455SOL     OW15826   4.258   3.245   7.935  0.0861 -0.1263  0.5310
 1455SOL    HW115827   4.342   3.261   7.977  1.0228 -0.7117 -1.1172
 1455SOL    HW215828   4.266   3.150   7.943  1.5209  0.0285  0.9509
 1456SOL     OW15829   0.679   1.715   4.587  0.0135 -0.0054 -0.2423
 1456SOL    HW115830   0.664   1.641   4.645 -2.1894 -0.8859 -1.9341
 1456SOL    HW215831   0.671   1.784   4.652  0.2870  0.1174 -0.3362
 1457SOL     OW15832   1.604   0.019  17.514  0.1276 -0.3097  0.0070
 1457SOL    HW115833   1.668   0.046  17.448 -1.3592  3.8650  0.3266
 1457SOL    HW215834   1.660   4.690  17.568 -1.3014 -2.8930 -1.1422
 1458SOL     OW15835   4.541   0.040   7.722  0.3780 -0.0472 -0.1719
 1458SOL    HW115836   4.466   0.003   7.769 -0.4550  0.7762 -0.8534
 1458SOL    HW215837   4.520   0.131   7.700 -0.2958 -0.4414 -1.2173
 1459SOL     OW15838   3.130   2.797   7.373 -0.6373 -0.1634  0.3677
 1459SOL    HW115839   3.157   2.804   7.282 -1.3385  0.1392  0.1879
 1459SOL    HW215840   3.040   2.820   7.352 -0.9397  0.1756  2.0228
 1460SOL     OW15841   4.334   3.267   6.238 -0.1004 -0.1007 -0.5476
 1460SOL    HW115842   4.391   3.258   6.161  1.9616 -0.9767  1.0967
 1460SOL    HW215843   4.272   3.337   6.214 -0.7452 -0.2397  0.7138
 1461SOL     OW15844   2.647   0.790   4.620 -0.7079  0.0644  0.4381
 1461SOL    HW115845   2.663   0.853   4.550 -1.4913 -1.5963 -1.2400
 1461SOL    HW215846   2.665   0.705   4.580 -0.3639  0.1426  0.4279
 1462SOL     OW15847   2.966   0.420   7.002  0.3921  0.2039  0.0186
 1462SOL    HW115848   3.038   0.477   7.029  0.5182 -0.0728  0.2690
 1462SOL    HW215849   2.932   0.477   6.933  2.0281  1.1631 -0.0078
 1463SOL     OW15850   1.639   4.482   3.440 -0.1698  0.6112 -0.1843
 1463SOL    HW115851   1.545   4.498   3.439 -0.4375 -0.9399 -0.9865
 1463SOL    HW215852   1.676   4.553   3.387  0.0328  1.9383  1.7229
 1464SOL     OW15853   1.715   0.059  16.547  0.4931 -0.0735 -0.2213
 1464SOL    HW115854   1.653   0.122  16.582  2.9504  1.9139  0.5005
 1464SOL    HW215855   1.653   4.722  16.509  1.7327 -0.6476 -1.2967
 1465SOL     OW15856   2.089   1.839   6.432 -0.5612  0.4380 -0.2455
 1465SOL    HW115857   2.049   1.793   6.506  0.5148  2.2410  1.4675
 1465SOL    HW215858   2.094   1.928   6.467 -0.2453 -0.0166  0.8894
 1466SOL     OW15859   4.080   1.693   3.161  0.0377  0.4125  0.0466
 1466SOL    HW115860   3.998   1.738   3.141 -1.1642 -1.0586  1.7397
 1466SOL    HW215861   4.116   1.753   3.226  1.2698  0.3824 -0.6001
 1467SOL     OW15862   3.489   2.782  15.146 -0.1560 -0.2164 -0.0283
 1467SOL    HW115863   3.516   2.861  15.099 -0.2107 -0.2691 -0.1466
 1467SOL    HW215864   3.446   2.734  15.076  0.1523  0.1150 -0.4433
 1468SOL     OW15865   1.087   0.464   3.666 -0.0762 -0.3758 -0.1719
 1468SOL    HW115866   1.176   0.479   3.632 -0.3705 -0.1647 -0.8440
 1468SOL    HW215867   1.028   0.510   3.606  1.1834  1.4494 -0.0148
 1469SOL     OW15868   3.665   0.419   4.310 -0.4173  0.0892 -0.6505
 1469SOL    HW115869   3.613   0.469   4.248  0.2847  1.4663 -0.1217
 1469SOL    HW215870   3.748   0.467   4.315 -1.0269  1.3340 -2.6210
 1470SOL     OW15871   1.157   2.441   5.693  0.1186 -0.3696  0.7789
 1470SOL    HW115872   1.207   2.497   5.752  1.1021  1.9398 -2.2535
 1470SOL    HW215873   1.187   2.353   5.714 -1.7665 -0.9184  1.2007
 1471SOL     OW15874   2.975   0.841   5.074  0.2382  0.8844  0.5493
 1471SOL    HW115875   3.022   0.901   5.017 -0.3563  2.9454  2.2094
 1471SOL    HW215876   3.027   0.870   5.150 -0.5723  1.8069  0.7553
 1472SOL     OW15877   3.157   0.619   4.656 -0.3726 -0.6859 -0.2802
 1472SOL    HW115878   3.091   0.550   4.652  0.4228 -1.5103  1.1058
 1472SOL    HW215879   3.200   0.610   4.570 -0.4317  0.8026 -0.4597
 1473SOL     OW15880   1.823   4.063   7.613 -0.0142 -0.3969  0.2465
 1473SOL    HW115881   1.886   4.077   7.543  1.2344 -1.5099  1.1503
 1473SOL    HW215882   1.874   4.009   7.674  2.0421  1.6948  0.4136
 1474SOL     OW15883   2.359   3.169   0.942  0.3882  0.0842 -0.1653
 1474SOL    HW115884   2.382   3.235   0.877 -2.6670 -0.1266 -1.4864
 1474SOL    HW215885   2.442   3.155   0.987  0.2597 -1.2218 -0.3249
 1475SOL     OW15886   2.660   2.359  10.389 -0.1912 -0.0657  0.1649
 1475SOL    HW115887   2.688   2.269  10.379 -2.7201 -1.2559  3.6551
 1475SOL    HW215888   2.727   2.416  10.352  1.6643 -0.7563  2.4257
 1476SOL     OW15889   3.626   1.830  12.433  0.2981  0.5160 -0.1872
 1476SOL    HW115890   3.692   1.839  12.503 -0.3952 -3.4647  0.9747
 1476SOL    HW215891   3.540   1.832  12.474  0.0125 -0.6968 -0.7540
 1477SOL     OW15892   1.042   0.575   6.153 -0.2596  0.4939 -0.2519
 1477SOL    HW115893   1.095   0.546   6.227 -0.0986  0.3879 -0.4091
 1477SOL    HW215894   0.976   0.633   6.191 -2.5261 -2.7558  0.8322
 1478SOL     OW15895   2.652   3.762  10.962  0.3479  0.2183  0.1530
 1478SOL    HW115896   2.726   3.813  10.993  1.4851 -0.4262 -1.4792
 1478SOL    HW215897   2.595   3.773  11.038 -0.5409  0.3036 -0.5170
 1479SOL     OW15898   1.588   0.828   4.818 -0.0015 -0.5778 -0.1274
 1479SOL    HW115899   1.548   0.835   4.904  1.4282 -0.3258  0.5107
 1479SOL    HW215900   1.614   0.918   4.799  0.0718 -0.1066  2.2861
 1480SOL     OW15901   0.122   4.616  11.852  0.4179  0.4271  0.2361
 1480SOL    HW115902   0.161   4.530  11.865 -1.6184 -0.7218 -1.3229
 1480SOL    HW215903   0.135   4.652  11.940 -1.6216  1.2431  0.1959
 1481SOL     OW15904   0.900   2.106  16.034  0.4309 -0.1981  0.1489
 1481SOL    HW115905   0.895   2.011  16.045 -0.6794 -0.1981 -0.3107
 1481SOL    HW215906   0.902   2.130  16.127  0.2245 -1.0302  0.3697
 1482SOL     OW15907   1.527   1.298   2.008 -0.0427  0.0179  0.4103
 1482SOL    HW115908   1.473   1.233   2.053  1.1824 -0.9349  0.5213
 1482SOL    HW215909   1.579   1.336   2.079  1.5237 -0.1772 -0.6337
 1483SOL     OW15910   2.972   4.446   9.519  0.7858 -0.1794 -0.5493
 1483SOL    HW115911   3.014   4.376   9.569  0.6874 -0.0566 -0.2965
 1483SOL    HW215912   3.033   4.452   9.445 -0.2429 -0.4442 -1.4168
 1484SOL     OW15913   2.573   0.693  16.111  0.6071  0.4172 -0.3951
 1484SOL    HW115914   2.561   0.785  16.133  0.1208  0.3086 -0.2081
 1484SOL    HW215915   2.646   0.688  16.049  0.9587 -2.3664  0.2638
 1485SOL     OW15916   2.072   4.637   7.112 -0.6459  0.0735  0.0386
 1485SOL    HW115917   2.002   4.693   7.080 -1.0442 -0.1779  0.4795
 1485SOL    HW215918   2.145   4.697   7.128 -0.0425 -0.8275  0.6519
 1486SOL     OW15919   3.659   3.078   6.802  0.1184  0.2480  0.0079
 1486SOL    HW115920   3.752   3.089   6.823  0.3216 -0.2002 -0.6872
 1486SOL    HW215921   3.616   3.125   6.873 -1.6489 -1.2202 -0.0866
 1487SOL     OW15922   3.970   0.910   3.244  0.5986  0.0049  0.0067
 1487SOL    HW115923   4.014   0.988   3.208  1.0556 -0.0467  0.4479
 1487SOL    HW215924   3.955   0.937   3.335  0.7969 -0.5730  0.2089
 1488SOL     OW15925   0.337   2.323   4.793  0.0046 -0.4445 -1.0365
 1488SOL    HW115926   0.419   2.372   4.783 -0.4307  0.4581 -0.2652
 1488SOL    HW215927   0.365   2.233   4.800  0.4004 -0.3775 -1.7270
 1489SOL     OW15928   4.662   0.672   5.071  0.3879  0.1190  0.3202
 1489SOL    HW115929   4.700   0.736   5.012  0.8657 -0.9284 -0.5118
 1489SOL    HW215930   4.587   0.645   5.019  0.5347  0.9851 -0.3257
 1490SOL     OW15931   2.319   4.637   6.913 -0.0146  0.5870 -0.1393
 1490SOL    HW115932   2.365   4.608   6.834 -2.2252  0.5214 -1.4041
 1490SOL    HW215933   2.397   4.661   6.964  0.7697  0.2101 -1.1497
 1491SOL     OW15934   2.228   4.455   7.500 -0.0714 -0.4601 -0.0696
 1491SOL    HW115935   2.253   4.474   7.409  0.0979  0.7319  0.2281
 1491SOL    HW215936   2.249   4.538   7.544  1.9351 -1.3561  0.6297
 1492SOL     OW15937   3.143   0.800   1.747  0.5200 -0.4794  0.2534
 1492SOL    HW115938   3.138   0.709   1.717  0.7984 -0.2614 -0.4493
 1492SOL    HW215939   3.216   0.838   1.699  0.4077  1.3565  1.5071
 1493SOL     OW15940   1.572   2.373   6.805 -0.2931 -1.0711 -0.3525
 1493SOL    HW115941   1.539   2.462   6.815  1.1712 -0.3718 -1.8524
 1493SOL    HW215942   1.567   2.348   6.713 -0.4115 -0.9203 -0.3864
 1494SOL     OW15943   0.014   2.665   4.236 -0.4924 -0.0612 -0.1494
 1494SOL    HW115944   0.002   2.673   4.330  1.9965 -0.4651  0.2116
 1494SOL    HW215945   0.067   2.585   4.237  0.0666  0.3129  0.8172
 1495SOL     OW15946   2.678   2.387   6.577 -0.0857  0.0760 -0.3668
 1495SOL    HW115947   2.700   2.294   6.572 -0.3690 -0.0125 -0.0101
 1495SOL    HW215948   2.615   2.382   6.649 -0.0537  1.0151 -0.2771
 1496SOL     OW15949   2.581   0.772   8.950 -0.3401  0.2038 -0.1839
 1496SOL    HW115950   2.659   0.825   8.967 -1.0938  1.0948  0.4939
 1496SOL    HW215951   2.520   0.833   8.909  1.0340  3.1000  2.1098
 1497SOL     OW15952   0.835   2.273   2.426  0.2912  0.3263  0.2386
 1497SOL    HW115953   0.768   2.341   2.438 -1.9430 -1.5784 -1.4498
 1497SOL    HW215954   0.858   2.307   2.339 -0.8683  0.7794  0.0977
 1498SOL     OW15955   1.293   1.551   0.030 -0.1657 -0.0172  0.3605
 1498SOL    HW115956   1.207   1.509   0.030 -0.9232  1.5955 -3.9411
 1498SOL    HW215957   1.342   1.482  17.691 -0.8590  0.5278 -1.2066
 1499SOL     OW15958   0.300   1.783   4.908  0.4506 -0.1139 -0.4203
 1499SOL    HW115959   0.250   1.808   4.986  1.2132 -0.3385  0.1410
 1499SOL    HW215960   0.235   1.732   4.861  0.5161 -2.8135  2.4001
 1500SOL     OW15961   1.287   0.982   2.517 -0.4010  0.0448 -0.9515
 1500SOL    HW115962   1.192   0.972   2.517 -0.3189 -0.7361 -0.4135
 1500SOL    HW215963   1.279   1.064   2.567 -2.2286  0.4500 -1.9210
 1501SOL     OW15964   2.939   1.150   7.554  0.1081 -0.2008  0.8976
 1501SOL    HW115965   3.007   1.136   7.489  0.3110  0.1616  1.0365
 1501SOL    HW215966   2.984   1.183   7.631 -1.5794 -1.5619  2.4728
 1502SOL     OW15967   3.942   4.544   8.089  0.0160 -0.2991 -0.1510
 1502SOL    HW115968   4.023   4.594   8.088 -1.2507  1.6822 -2.2584
 1502SOL    HW215969   3.973   4.457   8.114 -0.3896 -0.3195  0.2906
 1503SOL     OW15970   0.671   0.159   4.127  0.1474 -0.0692 -0.7836
 1503SOL    HW115971   0.686   0.125   4.039 -1.1823  0.2014 -1.1238
 1503SOL    HW215972   0.576   0.172   4.127 -0.0787 -1.7307  0.7973
 1504SOL     OW15973   1.541   3.429  16.510 -0.1105 -0.0128  0.2276
 1504SOL    HW115974   1.496   3.508  16.481  2.7993  1.2269 -0.7933
 1504SOL    HW215975   1.541   3.388  16.423 -1.7088  0.4414  0.0047
 1505SOL     OW15976   2.701   1.447   6.610 -0.0506 -0.6151 -0.7621
 1505SOL    HW115977   2.785   1.405   6.626  0.4390  1.6486  2.5227
 1505SOL    HW215978   2.691   1.500   6.689  1.8672 -0.6104 -0.5339
 1506SOL     OW15979   2.603   4.065   6.495 -0.0218 -0.0146  0.1544
 1506SOL    HW115980   2.581   4.155   6.472  1.8174 -0.0281 -1.5994
 1506SOL    HW215981   2.698   4.066   6.483  0.1867 -0.1707  1.7921
 1507SOL     OW15982   4.247   0.587   4.349  0.2672 -0.1302 -0.1972
 1507SOL    HW115983   4.170   0.530   4.343  0.9052 -0.8849 -1.1129
 1507SOL    HW215984   4.218   0.647   4.279 -3.1020 -1.5065  0.0169
 1508SOL     OW15985   2.056   3.203   3.717  0.5826 -0.1297  0.1786
 1508SOL    HW115986   2.077   3.152   3.639 -0.9303  0.2806 -0.4988
 1508SOL    HW215987   2.134   3.256   3.733  1.3412 -0.9087 -0.9505
 1509SOL     OW15988   1.118   0.099   7.660 -0.4066  0.3487 -0.6554
 1509SOL    HW115989   1.076   0.022   7.623 -1.8487  1.0324 -0.4280
 1509SOL    HW215990   1.046   0.161   7.670 -0.3051  0.2875  0.4540
 1510SOL     OW15991   0.463   3.101   4.503 -0.2341 -0.4822  0.4446
 1510SOL    HW115992   0.507   3.035   4.449 -1.0059 -0.9480  0.3827
 1510SOL    HW215993   0.393   3.122   4.441  2.2441 -1.7503 -2.8096
 1511SOL     OW15994   3.543   1.079   9.020 -0.0342 -0.1591  0.4516
 1511SOL    HW115995   3.615   1.044   9.072 -0.0145  1.2655  1.3836
 1511SOL    HW215996   3.522   1.163   9.062  0.1564  0.0118  0.2105
 1512SOL     OW15997   2.238   2.378  12.432 -0.6908 -0.2709 -0.1782
 1512SOL    HW115998   2.229   2.384  12.337 -0.4021  2.4667 -0.0428
 1512SOL    HW215999   2.289   2.460  12.437 -0.8678 -0.0663 -1.7244
 1513SOL     OW16000   2.051   2.012  10.882 -0.2252  0.2337 -0.0397
 1513SOL    HW116001   2.123   2.047  10.934 -1.4853  1.6928  0.7335
 1513SOL    HW216002   2.084   1.929  10.849 -0.1021 -0.2593  1.3223
 1514SOL     OW16003   3.368   1.546   7.097 -0.0884 -0.3007  0.2499
 1514SOL    HW116004   3.450   1.505   7.124 -0.2570 -1.2855 -0.7235
 1514SOL    HW216005   3.393   1.638   7.084 -1.6815 -0.0556 -1.1039
 1515SOL     OW16006   0.248   0.951  16.765  0.4872 -0.7079 -0.0194
 1515SOL    HW116007   0.342   0.939  16.777  1.0953  1.3059 -2.6073
 1515SOL    HW216008   0.217   0.874  16.812 -0.3881  0.3057  1.0731
 1516SOL     OW16009   1.140   1.764   5.028  0.3643 -0.1043 -0.2356
 1516SOL    HW116010   1.173   1.801   5.109 -0.2387 -1.3035  0.5541
 1516SOL    HW216011   1.208   1.712   4.985  0.2468 -0.4128 -0.0473
 1517SOL     OW16012   2.686   4.287   3.227 -0.0671  0.0384  0.6022
 1517SOL    HW116013   2.756   4.353   3.230  1.9955 -2.3020  3.3204
 1517SOL    HW216014   2.701   4.239   3.308 -0.6902 -0.7415  0.2495
 1518SOL     OW16015   0.962   0.649   7.255  0.5583 -0.5837  0.7215
 1518SOL    HW116016   0.927   0.696   7.330  0.3289  0.1227  0.1780
 1518SOL    HW216017   0.988   0.562   7.284 -0.0573 -0.7136  0.8735
 1519SOL     OW16018   4.185   3.401   3.164 -0.1730  0.4612 -0.1596
 1519SOL    HW116019   4.140   3.345   3.229 -0.5768  0.2058 -0.6611
 1519SOL    HW216020   4.142   3.366   3.086  3.4300  0.4248 -2.1256
 1520SOL     OW16021   2.066   1.553   7.041  0.1859 -0.1458  0.4769
 1520SOL    HW116022   2.119   1.505   7.105 -0.6858  1.9949  2.8419
 1520SOL    HW216023   2.058   1.485   6.975 -0.6531  1.3897 -0.9934
 1521SOL     OW16024   1.973   0.115   2.761  0.2101 -0.1703  0.0287
 1521SOL    HW116025   1.955   0.023   2.781  0.3212 -0.2264 -0.1288
 1521SOL    HW216026   1.987   0.099   2.668 -2.2920 -0.1740 -0.3516
 1522SOL     OW16027   0.006   2.895   7.845 -0.1692  0.3144  0.3908
 1522SOL    HW116028   0.072   2.852   7.790 -1.1336 -0.0269 -0.4937
 1522SOL    HW216029   0.018   2.845   7.926  2.6506  0.2595 -0.0591
 1523SOL     OW16030   0.975   2.728   5.848 -0.1086 -0.0642  0.2520
 1523SOL    HW116031   0.965   2.760   5.937  1.2888 -0.5625  0.5832
 1523SOL    HW216032   1.036   2.798   5.824  1.1097 -1.4453 -0.6440
 1524SOL     OW16033   3.057   0.667  16.190  0.5824 -0.1952 -0.1289
 1524SOL    HW116034   2.985   0.727  16.174 -0.3799 -2.3148 -3.6359
 1524SOL    HW216035   3.112   0.721  16.247  0.6607 -0.6744  0.2491
 1525SOL     OW16036   0.778   2.710  13.008  0.0212  0.7464 -0.2217
 1525SOL    HW116037   0.709   2.724  12.944  1.7710 -0.5847 -2.4335
 1525SOL    HW216038   0.849   2.706  12.943 -1.6253 -0.2582 -1.9424
 1526SOL     OW16039   1.714   3.725  14.160 -0.3595  0.1207 -0.1121
 1526SOL    HW116040   1.770   3.791  14.201 -0.8870 -0.3727  1.3918
 1526SOL    HW216041   1.772   3.669  14.107  1.0500  1.1479  0.3518
 1527SOL     OW16042   4.718   0.174   8.065 -0.2798  0.0253 -0.4755
 1527SOL    HW116043   0.039   0.253   8.089  1.1494 -1.0874  0.3427
 1527SOL    HW216044   4.648   0.203   8.007 -0.1146 -0.7376 -1.0576
 1528SOL     OW16045   0.222   3.886   6.319 -0.3134 -0.1001 -0.3013
 1528SOL    HW116046   0.176   3.969   6.334 -2.8011 -1.4372 -0.3935
 1528SOL    HW216047   0.223   3.895   6.224 -1.7451 -1.9487 -0.4946
 1529SOL     OW16048   2.279   3.799  12.058 -0.3185 -0.3167 -0.1900
 1529SOL    HW116049   2.273   3.868  12.124  0.4011  0.6270 -1.1076
 1529SOL    HW216050   2.278   3.851  11.977  0.9598 -0.2558 -0.1724
 1530SOL     OW16051   4.138   1.819   5.381  0.0384  0.2990 -0.0555
 1530SOL    HW116052   4.095   1.781   5.457 -0.2551 -0.2402 -0.4843
 1530SOL    HW216053   4.114   1.912   5.388 -2.5097 -0.5655  2.7138
 1531SOL     OW16054   2.830   0.902   6.944  0.2910 -0.4673  0.4554
 1531SOL    HW116055   2.776   0.981   6.940 -1.6811 -1.7648  1.4822
 1531SOL    HW216056   2.898   0.909   6.876 -0.0918 -1.7628 -0.0690
 1532SOL     OW16057   3.167   4.505   2.526 -0.3311  0.0798 -0.1278
 1532SOL    HW116058   3.103   4.539   2.588 -1.2291  0.6033 -1.3462
 1532SOL    HW216059   3.212   4.585   2.500 -1.5430  0.7089 -0.2965
 1533SOL     OW16060   2.578   1.813   7.119 -0.3519 -0.4687  0.6705
 1533SOL    HW116061   2.615   1.902   7.125  0.5785 -0.6573 -2.0506
 1533SOL    HW216062   2.660   1.768   7.098 -0.2135 -1.4784  3.4791
 1534SOL     OW16063   4.006   0.421   2.493 -0.7386  0.3497 -0.2871
 1534SOL    HW116064   4.077   0.436   2.556  1.5038 -2.6451 -2.1195
 1534SOL    HW216065   4.052   0.461   2.419 -0.0166 -0.8314 -0.4830
 1535SOL     OW16066   4.262   4.323   8.086  0.4674  0.2131 -0.2584
 1535SOL    HW116067   4.338   4.381   8.081  0.2842  0.3632 -1.2430
 1535SOL    HW216068   4.267   4.275   8.003  2.5749  0.4124 -0.2414
 1536SOL     OW16069   2.729   3.988   8.260  0.5652 -0.1403  0.0940
 1536SOL    HW116070   2.781   3.948   8.190 -1.1131 -1.3327 -0.4668
 1536SOL    HW216071   2.711   3.907   8.308 -0.2973 -0.8384 -1.4321
 1537SOL     OW16072   1.126   2.431   2.080 -0.2552  0.5552  0.5664
 1537SOL    HW116073   1.137   2.345   2.040 -3.7405 -0.6893  2.2347
 1537SOL    HW216074   1.032   2.446   2.089 -0.0000  3.5524 -1.5237
 1538SOL     OW16075   3.999   2.575   6.293 -0.4900  0.1729  0.0428
 1538SOL    HW116076   4.066   2.510   6.274 -0.6850  0.6132 -2.1288
 1538SOL    HW216077   4.057   2.640   6.333  0.4418 -0.5022 -0.2273
 1539SOL     OW16078   4.639   1.729   4.558  0.1866  0.5838  0.1407
 1539SOL    HW116079   4.578   1.774   4.617 -0.7704  0.1601 -0.5087
 1539SOL    HW216080   4.698   1.800   4.535  0.1659  0.7572  0.6165
 1540SOL     OW16081   3.090   2.148   8.343 -0.1224  0.5575 -0.0679
 1540SOL    HW116082   3.153   2.221   8.350 -1.1919  1.4535  0.2630
 1540SOL    HW216083   3.113   2.089   8.415 -0.1158 -1.8378 -2.0423
 1541SOL     OW16084   4.441   1.073  15.361 -0.2969 -0.0614  0.6018
 1541SOL    HW116085   4.347   1.087  15.352 -0.1649  0.9231  0.8040
 1541SOL    HW216086   4.438   0.978  15.346 -1.3373  0.1779 -0.6633
 1542SOL     OW16087   3.859   4.355   1.653  0.6781 -0.0405  0.0067
 1542SOL    HW116088   3.829   4.323   1.568  0.7293  0.2910 -0.1380
 1542SOL    HW216089   3.907   4.280   1.686  0.6220  0.6816  1.7341
 1543SOL     OW16090   0.479   2.197   7.089 -0.0854 -0.1816 -0.7580
 1543SOL    HW116091   0.389   2.220   7.066 -0.8008 -0.7939  1.3997
 1543SOL    HW216092   0.488   2.113   7.046 -1.2194  0.5630 -2.4381
 1544SOL     OW16093   1.337   1.493   7.937 -0.1828  0.4094 -0.0121
 1544SOL    HW116094   1.430   1.515   7.926 -0.3506  0.9043 -0.4539
 1544SOL    HW216095   1.297   1.532   7.859  1.3640  3.1238  0.5620
 1545SOL     OW16096   1.116   3.439   3.101 -0.3102 -0.4916 -0.3637
 1545SOL    HW116097   1.036   3.434   3.048 -1.3335 -1.3499  1.2459
 1545SOL    HW216098   1.193   3.437   3.045 -0.3896  1.5699 -0.5697
 1546SOL     OW16099   1.871   1.440   3.708  0.2756 -0.2678 -0.1436
 1546SOL    HW116100   1.808   1.489   3.760  0.1136 -1.1241  0.4622
 1546SOL    HW216101   1.941   1.504   3.695 -0.1595  0.5420  1.5308
 1547SOL     OW16102   1.750   3.990   5.615  0.3552  0.0062  0.2282
 1547SOL    HW116103   1.722   3.906   5.580 -0.0711 -0.3750  1.4999
 1547SOL    HW216104   1.766   4.044   5.537  0.9547 -2.1716 -1.1368
 1548SOL     OW16105   3.935   1.866   6.464 -0.7046  0.0250  0.0703
 1548SOL    HW116106   3.940   1.960   6.448 -0.4333  0.1843  1.1007
 1548SOL    HW216107   3.938   1.863   6.560  1.6417  2.2416  0.0602
 1549SOL     OW16108   2.631   3.927   5.752 -0.0767  0.0884  0.5741
 1549SOL    HW116109   2.603   3.993   5.689 -1.0099 -0.7163  0.1343
 1549SOL    HW216110   2.599   3.963   5.835 -2.5659 -1.0032  0.1091
 1550SOL     OW16111   1.485   4.076   3.747  0.3783  0.2148 -0.7937
 1550SOL    HW116112   1.406   4.106   3.701 -1.4111  1.0445  2.8542
 1550SOL    HW216113   1.442   4.067   3.832  2.1648  0.3491  0.1108
 1551SOL     OW16114   1.256   1.482   4.747  0.3026  0.1722 -0.1748
 1551SOL    HW116115   1.185   1.543   4.724 -2.2326 -2.9328 -0.7109
 1551SOL    HW216116   1.328   1.519   4.696  0.4335 -1.0190 -0.8732
 1552SOL     OW16117   1.459   2.761   0.631  0.1083 -0.1785 -0.1630
 1552SOL    HW116118   1.493   2.850   0.619  0.2918 -0.4421 -1.5382
 1552SOL    HW216119   1.399   2.743   0.558  0.5714  0.3289 -0.6677
 1553SOL     OW16120   0.458   1.422  13.186 -0.3516  0.4341  0.4280
 1553SOL    HW116121   0.474   1.354  13.121 -0.1367 -1.0214  1.9921
 1553SOL    HW216122   0.459   1.374  13.269  1.1272 -1.2526 -0.5714
 1554SOL     OW16123   0.626   2.985   5.334 -0.0523  0.1408  0.0245
 1554SOL    HW116124   0.581   3.051   5.282 -0.1461 -0.8639 -1.1797
 1554SOL    HW216125   0.714   3.024   5.330 -0.9861  2.2764  0.4318
 1555SOL     OW16126   2.266   4.603  16.706 -0.3516 -0.0696  0.4121
 1555SOL    HW116127   2.201   4.549  16.751 -0.7550  0.7627  0.8360
 1555SOL    HW216128   2.285   4.547  16.631 -1.4071 -0.7791  0.6761
 1556SOL     OW16129   4.535   2.619  15.121 -0.5803  0.7044 -0.0113
 1556SOL    HW116130   4.523   2.579  15.207  0.9488  0.2343 -0.0007
 1556SOL    HW216131   4.620   2.583  15.093 -1.0534  0.6369 -1.3608
 1557SOL     OW16132   3.551   2.325   0.635 -0.2183 -0.5815  0.4901
 1557SOL    HW116133   3.634   2.290   0.669 -1.2529 -0.7172  2.8754
 1557SOL    HW216134   3.584   2.401   0.587  1.3538 -2.4128 -1.3239
 1558SOL     OW16135   3.173   0.034   5.294  0.2534 -0.1225 -0.3912
 1558SOL    HW116136   3.194   0.068   5.207  0.9143 -1.4642 -0.7650
 1558SOL    HW216137   3.169   0.113   5.347  0.1443 -0.6819  0.4352
 1559SOL     OW16138   0.457   3.547  15.048  0.0178 -0.1522  0.1860
 1559SOL    HW116139   0.366   3.575  15.041 -1.2103 -3.8104  1.2371
 1559SOL    HW216140   0.451   3.452  15.040 -0.2862 -0.1819  0.7665
 1560SOL     OW16141   1.746   3.797   1.916  0.5361  0.9786 -0.1744
 1560SOL    HW116142   1.734   3.871   1.975 -0.3288 -0.3875  1.3798
 1560SOL    HW216143   1.657   3.762   1.906  0.9460 -0.3767  0.8946
 1561SOL     OW16144   2.782   0.640   6.565  0.0018  0.1443 -0.0643
 1561SOL    HW116145   2.751   0.729   6.550 -0.4475  0.1230  0.7374
 1561SOL    HW216146   2.853   0.624   6.502  2.2178  0.4296  2.3476
 1562SOL     OW16147   2.014   3.683   8.458 -0.0149  0.0759 -0.1361
 1562SOL    HW116148   2.096   3.646   8.492  1.0370  0.3609 -2.3569
 1562SOL    HW216149   2.027   3.666   8.364 -2.1282 -2.8975  0.1101
 1563SOL     OW16150   3.245   2.205  13.574 -0.3662  0.2517 -0.3919
 1563SOL    HW116151   3.207   2.267  13.512  0.6841  1.9272  0.6269
 1563SOL    HW216152   3.181   2.135  13.571  0.1637 -0.1591 -2.0826
 1564SOL     OW16153   1.237   0.689  14.803 -0.0243  0.0012 -0.6225
 1564SOL    HW116154   1.165   0.685  14.866  1.0361  1.3663  0.6802
 1564SOL    HW216155   1.314   0.685  14.860  0.5228 -1.2652 -1.4459
 1565SOL     OW16156   1.360   3.131   0.784 -1.1969  0.6106  0.1206
 1565SOL    HW116157   1.354   3.102   0.875  0.6716  1.4972  0.5352
 1565SOL    HW216158   1.428   3.198   0.779 -1.8176  1.1260 -1.4676
 1566SOL     OW16159   1.321   3.439   1.780 -0.1555 -0.0872 -0.0262
 1566SOL    HW116160   1.349   3.444   1.872  0.0454 -1.3722 -0.0140
 1566SOL    HW216161   1.262   3.365   1.770 -0.8307  0.7220 -1.9062
 1567SOL     OW16162   3.078   1.490   2.328  0.4705 -0.8102 -0.2170
 1567SOL    HW116163   2.990   1.490   2.289  0.8106  0.8199 -0.9851
 1567SOL    HW216164   3.125   1.518   2.250  1.3487  0.4030  0.7548
 1568SOL     OW16165   0.192   4.435   7.853  0.1232  0.9128 -1.0721
 1568SOL    HW116166   0.244   4.458   7.930 -1.3733 -0.9785  0.5394
 1568SOL    HW216167   0.257   4.425   7.784 -0.2091 -0.6498 -1.1659
 1569SOL     OW16168   2.302   2.269   7.509 -0.4698 -0.5637  0.1810
 1569SOL    HW116169   2.238   2.267   7.438  2.1120 -1.4504 -2.0766
 1569SOL    HW216170   2.385   2.259   7.464 -0.7639 -0.3904 -0.3980
 1570SOL     OW16171   3.666   4.670  15.847  0.1597  0.5153 -0.5044
 1570SOL    HW116172   3.713   4.654  15.929 -0.0619 -0.2914 -0.5375
 1570SOL    HW216173   3.579   4.691  15.881  1.4420  1.2933  2.3397
 1571SOL     OW16174   0.607   4.390   4.365  0.4313  0.0500 -0.2079
 1571SOL    HW116175   0.599   4.340   4.283 -0.6339  1.3384 -0.8950
 1571SOL    HW216176   0.613   4.480   4.332  0.4017  0.4639  0.9066
 1572SOL     OW16177   0.780   0.083   3.652  0.4016  0.0713 -0.2197
 1572SOL    HW116178   0.783   0.176   3.632  2.7705  0.1972  0.7272
 1572SOL    HW216179   0.873   0.067   3.668  0.4089  1.4358  1.1287
 1573SOL     OW16180   1.379   2.100  12.651 -0.0961 -0.3409  0.2172
 1573SOL    HW116181   1.471   2.119  12.665 -1.0810  2.3509  2.9999
 1573SOL    HW216182   1.365   2.097  12.556 -0.1750 -2.6790  0.3119
 1574SOL     OW16183   2.591   3.840   3.593 -0.0039 -0.4335 -0.5722
 1574SOL    HW116184   2.597   3.922   3.643 -4.1806 -0.0912 -0.6075
 1574SOL    HW216185   2.531   3.787   3.645 -1.2041  3.2173  1.8077
 1575SOL     OW16186   2.049   2.417   1.682  0.0204 -0.4788  0.0424
 1575SOL    HW116187   1.988   2.405   1.755 -3.1357  1.4053 -2.3017
 1575SOL    HW216188   2.120   2.359   1.711  0.7616  0.7476  0.6813
 1576SOL     OW16189   0.254   4.624  12.595 -0.3922 -0.5609  0.4588
 1576SOL    HW116190   0.160   4.618  12.576  0.1771 -1.7242 -2.0361
 1576SOL    HW216191   0.252   4.658  12.684 -1.5985  0.3511  0.0916
 1577SOL     OW16192   0.892   1.124   2.591 -0.4816  1.0782 -0.6614
 1577SOL    HW116193   0.946   1.055   2.553  0.2655  1.7348 -0.7993
 1577SOL    HW216194   0.812   1.077   2.613 -0.7942  1.2144 -1.5081
 1578SOL     OW16195   4.131   1.029   2.939  0.4048 -0.1785  0.0830
 1578SOL    HW116196   4.218   0.998   2.966 -0.0215  0.7050  2.4423
 1578SOL    HW216197   4.118   1.098   3.003 -0.1989 -0.2800  0.0668
 1579SOL     OW16198   1.146   2.242   7.570 -0.1807 -0.0060  0.0077
 1579SOL    HW116199   1.159   2.256   7.664 -2.6351  0.6580  0.2402
 1579SOL    HW216200   1.089   2.166   7.576  0.2949 -0.2560  1.6249
 1580SOL     OW16201   0.005   3.971   3.422 -0.2424  0.2513 -0.5303
 1580SOL    HW116202   0.086   3.990   3.469  0.7490 -0.6307 -1.8901
 1580SOL    HW216203   0.041   3.978   3.334  0.9551 -2.0822 -0.2481
 1581SOL     OW16204   0.223   0.530   3.536  0.5539 -0.1862 -0.5348
 1581SOL    HW116205   0.203   0.573   3.453  1.0254 -0.3658 -0.7410
 1581SOL    HW216206   0.199   0.596   3.602  2.1190  0.2243 -0.3758
 1582SOL     OW16207   0.762   2.577   6.317 -0.3140 -0.0977  0.3291
 1582SOL    HW116208   0.785   2.540   6.403 -0.5418  0.5416  0.6634
 1582SOL    HW216209   0.813   2.529   6.252 -1.3825 -0.1335 -0.4741
 1583SOL     OW16210   1.892   4.692   5.124 -0.4725  0.0743 -0.3009
 1583SOL    HW116211   1.890   4.724   5.034 -0.2787  0.3737 -0.2009
 1583SOL    HW216212   1.897   4.599   5.105  3.3887  0.4021 -0.9087
 1584SOL     OW16213   3.849   3.368  16.214 -0.0956 -0.1286 -0.2517
 1584SOL    HW116214   3.911   3.371  16.141 -0.1974 -2.4209 -0.4312
 1584SOL    HW216215   3.843   3.463  16.227  0.5620 -0.1090 -0.0595
 1585SOL     OW16216   2.196   1.754  13.378 -0.0817 -0.5074 -0.0884
 1585SOL    HW116217   2.259   1.766  13.306  0.8676 -2.8795  0.3740
 1585SOL    HW216218   2.266   1.744  13.443  0.3691 -1.7549 -0.7693
 1586SOL     OW16219   0.309   4.131   6.910 -0.4078 -0.2389 -0.0619
 1586SOL    HW116220   0.271   4.219   6.900 -0.9378 -0.4901 -0.2430
 1586SOL    HW216221   0.226   4.083   6.901 -1.5289  1.5419  0.7883
 1587SOL     OW16222   1.489   0.650   6.974  0.3562 -0.7698  0.7301
 1587SOL    HW116223   1.546   0.574   6.988  2.2395  0.6281  0.5013
 1587SOL    HW216224   1.514   0.722   7.032 -2.3227 -0.1314  1.0882
 1588SOL     OW16225   4.162   2.283  15.280  0.3927 -0.6618  0.4564
 1588SOL    HW116226   4.213   2.309  15.203 -0.3845  1.2521  0.5883
 1588SOL    HW216227   4.108   2.212  15.246 -0.7911  0.0251  0.9137
 1589SOL     OW16228   1.899   3.290   8.340  0.2237  0.5869  0.0880
 1589SOL    HW116229   1.897   3.250   8.427  0.4732  1.5680  0.5386
 1589SOL    HW216230   1.825   3.349   8.327 -0.1579  0.0972  0.0116
 1590SOL     OW16231   2.057   2.426  16.494  0.0368 -0.0249  0.2387
 1590SOL    HW116232   2.027   2.494  16.554  1.1558  1.0602 -0.4335
 1590SOL    HW216233   2.147   2.453  16.478 -0.1446  0.4561  0.0331
 1591SOL     OW16234   3.340   0.147  13.360  0.3319 -0.4547  0.3922
 1591SOL    HW116235   3.300   0.206  13.296  0.9000  1.7441  2.0843
 1591SOL    HW216236   3.299   0.181  13.439 -1.6685 -1.2472 -0.2997
 1592SOL     OW16237   2.036   1.576  10.702  0.1899  0.3617  1.0739
 1592SOL    HW116238   1.951   1.606  10.733 -1.1321 -1.0484 -1.2135
 1592SOL    HW216239   2.055   1.507  10.766  0.4914 -0.7907 -0.2616
 1593SOL     OW16240   2.956   2.329   5.783 -0.2786  0.0145 -0.3455
 1593SOL    HW116241   3.043   2.295   5.805 -0.2742 -1.3779 -2.6174
 1593SOL    HW216242   2.956   2.337   5.688  1.0938  1.8222 -0.2004
 1594SOL     OW16243   0.760   2.533  10.228  0.2432  0.1423  0.9280
 1594SOL    HW116244   0.693   2.534  10.297  0.3445 -0.0552  1.0278
 1594SOL    HW216245   0.824   2.488  10.282  1.6973  3.0927  1.6674
 1595SOL     OW16246   3.957   2.218   7.014 -0.4900  0.7021 -0.1789
 1595SOL    HW116247   4.000   2.243   6.932 -0.3517 -1.5207 -0.7918
 1595SOL    HW216248   4.026   2.245   7.075  0.3617 -0.2209 -0.7396
 1596SOL     OW16249   4.200   0.357   7.273  0.5547  0.4916  0.3297
 1596SOL    HW116250   4.204   0.329   7.182 -2.5249  0.3124  0.2641
 1596SOL    HW216251   4.189   0.267   7.303 -1.5139  0.4342 -0.6612
 1597SOL     OW16252   1.639   2.501  16.856  0.3034  0.0494 -0.1549
 1597SOL    HW116253   1.562   2.452  16.887 -0.4694 -0.3646 -2.7382
 1597SOL    HW216254   1.688   2.426  16.823 -2.1707 -0.9918 -1.4743
 1598SOL     OW16255   0.715   0.464   8.767  0.0948  0.1811  0.0367
 1598SOL    HW116256   0.809   0.473   8.785  0.2425 -2.8107  0.8241
 1598SOL    HW216257   0.709   0.449   8.673 -0.5220 -1.5160  0.3414
 1599SOL     OW16258   4.456   0.123   1.940 -0.1418  0.1265 -0.0270
 1599SOL    HW116259   4.516   0.181   1.893 -1.2677  0.7587 -0.6937
 1599SOL    HW216260   4.385   0.115   1.875  1.6858 -1.8662 -1.7801
 1600SOL     OW16261   2.765   4.707  16.346 -0.2866  0.1466 -0.0266
 1600SOL    HW116262   2.682   4.711  16.298  0.3308 -2.8670 -1.3664
 1600SOL    HW216263   2.799   0.070  16.340 -0.3503  0.2783  1.7011
 1601SOL     OW16264   4.469   1.054  13.021  0.6791  0.0551  0.3576
 1601SOL    HW116265   4.383   1.046  12.978 -0.0335 -2.1094  2.1427
 1601SOL    HW216266   4.486   1.146  13.003 -1.7511  0.7436  1.5585
 1602SOL     OW16267   0.689   1.343  13.526 -0.0657  0.2633  0.2019
 1602SOL    HW116268   0.774   1.377  13.501 -0.5039  1.1351 -0.1037
 1602SOL    HW216269   0.670   1.377  13.614 -2.4199 -1.9308  0.5667
 1603SOL     OW16270   1.524   0.079   2.025  0.6902  0.7897  0.8020
 1603SOL    HW116271   1.605   0.051   1.982  0.0559 -0.4561  0.4502
 1603SOL    HW216272   1.456   0.020   1.994 -0.3787  1.7948  1.2334
 1604SOL     OW16273   0.435   1.143  15.974  0.1554 -0.1824  0.2268
 1604SOL    HW116274   0.346   1.117  15.954  0.1309 -1.4124  1.9405
 1604SOL    HW216275   0.450   1.211  15.908  2.0496 -0.6651  0.1458
 1605SOL     OW16276   2.662   3.697  10.655 -0.5586 -0.1084  0.6374
 1605SOL    HW116277   2.631   3.702  10.746  2.1057  4.0553  1.3411
 1605SOL    HW216278   2.745   3.651  10.667  0.1972  0.6150 -1.9195
 1606SOL     OW16279   3.810   4.586  16.051  0.4392 -0.0242  0.0942
 1606SOL    HW116280   3.896   4.629  16.054 -1.3832  3.5342  1.3859
 1606SOL    HW216281   3.851   4.500  16.045 -2.1113 -1.2409  0.3735
 1607SOL     OW16282   1.088   4.142   4.198 -0.1910 -0.7736 -0.1675
 1607SOL    HW116283   1.019   4.153   4.133  1.6581 -0.1270 -2.0605
 1607SOL    HW216284   1.168   4.170   4.153 -0.8333  1.0271 -0.1758
 1608SOL     OW16285   3.333   1.499   7.767  0.7890  0.6558 -0.3169
 1608SOL    HW116286   3.306   1.455   7.686  1.1196  1.7973 -1.0569
 1608SOL    HW216287   3.256   1.529   7.815  1.1702  0.6767  0.2887
 1609SOL     OW16288   2.950   2.590   0.575  0.0423  0.4731 -0.5412
 1609SOL    HW116289   2.977   2.507   0.535  1.8236 -0.8135  3.2978
 1609SOL    HW216290   3.001   2.654   0.525  2.3351 -0.9947 -0.0874
 1610SOL     OW16291   1.245   1.607   7.233  0.1180  0.4297  0.0625
 1610SOL    HW116292   1.269   1.574   7.146 -3.0174 -2.1474  0.1802
 1610SOL    HW216293   1.150   1.597   7.235  0.0213  0.8238 -1.8815
 1611SOL     OW16294   2.641   4.022   6.025  0.2139  0.1600  0.1313
 1611SOL    HW116295   2.724   4.067   6.007  0.8090 -0.7478  0.6111
 1611SOL    HW216296   2.657   3.983   6.111 -0.7686  0.3225  0.3867
 1612SOL     OW16297   3.406   2.670  14.916  0.1944  0.5825  0.6247
 1612SOL    HW116298   3.398   2.716  14.832  0.2696 -1.9872 -0.7849
 1612SOL    HW216299   3.354   2.591  14.901  1.2745 -0.0578  0.3117
 1613SOL     OW16300   0.634   2.312   5.168 -0.4870  0.6095 -0.1242
 1613SOL    HW116301   0.720   2.278   5.193 -0.0425  0.0114 -2.4929
 1613SOL    HW216302   0.660   2.394   5.128 -0.2740  1.8042  2.4427
 1614SOL     OW16303   3.763   0.789  14.215  0.0515  0.2050  0.2911
 1614SOL    HW116304   3.804   0.816  14.297  0.7097  0.7716 -0.2212
 1614SOL    HW216305   3.675   0.757  14.232 -0.0499 -0.2042 -1.0324
 1615SOL     OW16306   0.781   0.780   0.947  0.2375  0.3241  0.2217
 1615SOL    HW116307   0.816   0.853   0.895  0.6176  0.5948  0.8588
 1615SOL    HW216308   0.709   0.825   0.991 -0.5726  0.5782 -1.3643
 1616SOL     OW16309   0.834   3.823   2.929  0.1118 -0.6978 -0.3778
 1616SOL    HW116310   0.815   3.771   3.007 -0.0944  1.4999  1.0159
 1616SOL    HW216311   0.772   3.789   2.864 -1.1529 -0.2357  0.6041
 1617SOL     OW16312   1.792   3.343   2.296 -0.5660  0.5828 -0.0922
 1617SOL    HW116313   1.747   3.259   2.281 -0.3224  0.2259  1.1686
 1617SOL    HW216314   1.791   3.373   2.205 -2.6208  2.1769  0.4676
 1618SOL     OW16315   1.985   1.664   8.336 -0.0311  0.3247  0.1492
 1618SOL    HW116316   2.013   1.651   8.245  0.6425  3.8647 -0.1652
 1618SOL    HW216317   1.910   1.607   8.346  0.1066  0.0919 -0.1447
 1619SOL     OW16318   4.308   3.273   5.236 -0.5989 -0.0497 -0.0384
 1619SOL    HW116319   4.240   3.330   5.200 -0.0726  0.5258 -0.1092
 1619SOL    HW216320   4.366   3.258   5.162 -0.8673 -2.9604  0.3539
 1620SOL     OW16321   4.358   1.231   4.423 -0.6374 -0.1228  0.3179
 1620SOL    HW116322   4.403   1.200   4.344 -2.0124  1.9676 -1.2976
 1620SOL    HW216323   4.429   1.240   4.487 -0.6562 -0.5173  0.3952
 1621SOL     OW16324   4.172   0.100  10.329  0.2462 -0.0106  0.1104
 1621SOL    HW116325   4.239   0.031  10.323  0.4113  0.0271  1.4182
 1621SOL    HW216326   4.206   0.157  10.261 -0.9589  0.6491  0.0602
 1622SOL     OW16327   4.634   3.868   0.900  0.0496  0.5384 -0.2163
 1622SOL    HW116328   4.716   3.822   0.918  0.2863  0.9559 -0.2302
 1622SOL    HW216329   4.621   3.910   0.985  0.5113 -0.7206  0.4710
 1623SOL     OW16330   1.529   0.275  10.343  0.7344 -0.0001  0.5838
 1623SOL    HW116331   1.576   0.272  10.427 -0.1489  1.5331  1.1297
 1623SOL    HW216332   1.469   0.201  10.352  0.5920 -0.4201 -3.8508
 1624SOL     OW16333   2.248   4.726  10.037  0.3053 -0.4092 -0.5156
 1624SOL    HW116334   2.224   4.676   9.959  2.5916 -1.6399 -0.4178
 1624SOL    HW216335   2.268   4.649  10.090 -1.5715 -1.3476 -1.1924
 1625SOL     OW16336   2.811   3.806   2.621 -1.1091 -0.2628  0.0558
 1625SOL    HW116337   2.905   3.793   2.611 -1.2742  0.0065 -1.9458
 1625SOL    HW216338   2.813   3.900   2.603 -0.7438 -0.7838 -2.6002
 1626SOL     OW16339   4.628   2.976   5.000 -0.5453 -0.3380  0.3912
 1626SOL    HW116340   4.715   2.945   4.973 -1.1539 -1.2388 -0.5097
 1626SOL    HW216341   4.577   2.900   5.028 -0.1638  0.0526  2.1943
 1627SOL     OW16342   3.076   3.387  14.659 -0.2240  0.5612  0.4628
 1627SOL    HW116343   3.053   3.374  14.751  1.9191 -1.7918  0.6554
 1627SOL    HW216344   3.170   3.370  14.662 -0.0459  1.4974  0.1830
 1628SOL     OW16345   0.228   0.865   8.283  0.2414  0.1317  0.4944
 1628SOL    HW116346   0.257   0.882   8.373 -2.3955  1.9046  0.9906
 1628SOL    HW216347   0.183   0.781   8.294 -1.0987  0.5634 -1.6584
 1629SOL     OW16348   1.538   0.318  12.708 -0.3149 -0.0203 -0.7306
 1629SOL    HW116349   1.547   0.228  12.739  0.1834  0.7995  1.4871
 1629SOL    HW216350   1.445   0.320  12.687 -0.2676  1.3656 -0.8024
 1630SOL     OW16351   1.449   2.746  14.869 -0.4133 -0.3529  0.2619
 1630SOL    HW116352   1.463   2.693  14.790 -1.5161  0.3449 -0.4008
 1630SOL    HW216353   1.372   2.790  14.834 -0.8089  0.8116  2.6138
 1631SOL     OW16354   3.473   0.048  13.114  0.2239  0.2070 -0.3548
 1631SOL    HW116355   3.378   0.052  13.124  0.1970 -0.6546 -0.2672
 1631SOL    HW216356   3.503   0.077  13.201 -1.7758 -2.4671  1.2064
 1632SOL     OW16357   3.823   1.112   4.516  0.4363 -0.0834 -0.2027
 1632SOL    HW116358   3.762   1.157   4.458  0.3236 -0.8130 -0.6489
 1632SOL    HW216359   3.894   1.175   4.525  0.6171 -0.2332 -0.6146
 1633SOL     OW16360   3.480   0.364   3.758  0.5574 -1.0711 -0.1283
 1633SOL    HW116361   3.474   0.406   3.844 -0.6571 -1.6922  0.0878
 1633SOL    HW216362   3.521   0.436   3.709 -1.3633 -0.1153 -0.3451
 1634SOL     OW16363   3.398   0.936   8.615 -0.3232 -0.7481 -0.8722
 1634SOL    HW116364   3.312   0.924   8.574 -1.8170  0.4585  1.8510
 1634SOL    HW216365   3.380   0.902   8.703  0.5017  1.9986  0.3813
 1635SOL     OW16366   4.584   4.157   8.699 -0.0185 -0.1054  0.2759
 1635SOL    HW116367   4.622   4.156   8.787 -1.6105 -3.2435  0.9454
 1635SOL    HW216368   4.592   4.250   8.682 -1.6024  0.2206  1.2603
 1636SOL     OW16369   3.432   1.533  12.818  0.1991  0.2237  0.1199
 1636SOL    HW116370   3.397   1.555  12.731 -1.7021 -0.1803  0.7829
 1636SOL    HW216371   3.496   1.603  12.821  0.4756 -0.0725  0.9567
 1637SOL     OW16372   3.243   1.252   2.983 -0.2436 -0.2898  0.4003
 1637SOL    HW116373   3.203   1.306   2.915 -1.0118 -0.2326  0.8989
 1637SOL    HW216374   3.170   1.192   2.999 -2.9656  2.7019 -0.9878
 1638SOL     OW16375   0.559   2.799   8.147 -0.1430  0.6927  0.5410
 1638SOL    HW116376   0.568   2.841   8.233  0.4559  3.0666 -0.6651
 1638SOL    HW216377   0.623   2.849   8.095  1.1524 -2.0651 -0.4895
 1639SOL     OW16378   1.447   3.985   2.512  0.3565 -0.5226 -0.0763
 1639SOL    HW116379   1.466   3.955   2.600  2.2455 -0.9017 -0.6241
 1639SOL    HW216380   1.396   3.909   2.483  1.2595 -2.0482  2.3504
 1640SOL     OW16381   3.934   1.081   3.471  0.8661 -0.6844 -0.3456
 1640SOL    HW116382   3.946   1.034   3.554  4.2889  3.2662  1.4026
 1640SOL    HW216383   3.878   1.152   3.504 -0.1519 -1.3757 -0.5995
 1641SOL     OW16384   1.915   2.310   6.767 -0.4431 -0.6024  0.2024
 1641SOL    HW116385   1.969   2.352   6.834  1.9125 -0.4783 -1.7972
 1641SOL    HW216386   1.828   2.314   6.808 -0.5628  3.5104 -0.4015
 1642SOL     OW16387   0.903   3.863  10.316  0.4119 -0.1452  0.1779
 1642SOL    HW116388   0.997   3.864  10.299  0.2028  1.1697 -0.9114
 1642SOL    HW216389   0.892   3.952  10.349  1.4553  0.0030  0.1182
 1643SOL     OW16390   4.285   0.206  10.589  0.2854  0.0274  0.4244
 1643SOL    HW116391   4.322   0.240  10.508  0.9640 -1.8178 -0.0338
 1643SOL    HW216392   4.204   0.164  10.562 -0.6817  1.6599  0.7538
 1644SOL     OW16393   3.897   2.066  13.276  1.2438 -0.0325 -0.4582
 1644SOL    HW116394   3.981   2.070  13.322  1.1293  3.6901 -0.5759
 1644SOL    HW216395   3.842   2.036  13.348  0.8649 -0.9228 -1.1175
 1645SOL     OW16396   0.665   3.667   7.226 -0.3600  0.3341  0.0730
 1645SOL    HW116397   0.718   3.705   7.156  0.8290 -0.7878  0.3444
 1645SOL    HW216398   0.699   3.703   7.308  2.1522  1.1293 -1.3042
 1646SOL     OW16399   1.289   2.210   1.393  0.8026  0.3665 -0.6713
 1646SOL    HW116400   1.372   2.212   1.347  0.5495  2.0375 -1.0670
 1646SOL    HW216401   1.250   2.128   1.362  1.3440 -0.9235  2.0636
 1647SOL     OW16402   0.682   1.785   2.526 -0.2585 -0.0695 -0.0209
 1647SOL    HW116403   0.731   1.779   2.608 -0.1014  0.6095 -0.0647
 1647SOL    HW216404   0.682   1.879   2.510 -0.0408  0.1648  1.2960
 1648SOL     OW16405   3.449   1.751   0.949  0.2520  0.4742  0.0723
 1648SOL    HW116406   3.519   1.718   0.892 -1.3462 -2.6741 -0.0932
 1648SOL    HW216407   3.454   1.703   1.032  0.2134 -1.2186 -0.8866
 1649SOL     OW16408   3.006   3.287  13.932  0.1550  0.0238 -0.4749
 1649SOL    HW116409   3.070   3.247  13.874 -0.4127 -1.4863 -0.0465
 1649SOL    HW216410   3.049   3.308  14.015  0.8936  0.5435 -0.9918
 1650SOL     OW16411   2.626   4.532   4.045 -0.0836  0.0845  0.4757
 1650SOL    HW116412   2.548   4.588   4.047 -1.2935 -1.5792 -0.9497
 1650SOL    HW216413   2.657   4.538   3.954 -0.3218 -3.1570  0.1948
 1651SOL     OW16414   3.225   2.319   8.623  0.2053 -0.0362  0.1335
 1651SOL    HW116415   3.199   2.355   8.708 -0.1918  0.5783 -0.2501
 1651SOL    HW216416   3.174   2.240   8.640 -1.1675  0.7690 -0.2815
 1652SOL     OW16417   2.146   3.453  16.695  0.0098 -0.0446  0.2044
 1652SOL    HW116418   2.070   3.509  16.715 -0.6616 -1.4963  1.7224
 1652SOL    HW216419   2.116   3.410  16.615  0.4542  1.8591 -0.9829
 1653SOL     OW16420   4.625   1.052  12.359  0.1329 -0.7871  0.4441
 1653SOL    HW116421   4.583   1.041  12.273  1.1177  1.2212 -0.2794
 1653SOL    HW216422   4.655   0.962  12.373  2.0636 -0.0209  1.1363
 1654SOL     OW16423   3.879   3.141   3.820  0.2223 -0.3630 -0.0199
 1654SOL    HW116424   3.901   3.191   3.742 -2.5246 -0.2836 -0.7417
 1654SOL    HW216425   3.806   3.090   3.784 -1.7188  1.9194  0.7041
 1655SOL     OW16426   2.165   0.300   1.271 -0.0597  0.1936 -0.3566
 1655SOL    HW116427   2.143   0.316   1.363 -1.6651  0.2675 -0.7561
 1655SOL    HW216428   2.081   0.270   1.235  0.1371 -0.4738 -0.2602
 1656SOL     OW16429   1.705   3.081   2.241 -0.4404  0.0770  0.2159
 1656SOL    HW116430   1.761   3.030   2.300 -0.7621 -1.1787 -0.5508
 1656SOL    HW216431   1.728   3.024   2.167 -0.4958  1.7101 -1.0522
 1657SOL     OW16432   4.286   3.088   1.974  0.1035  0.3302  0.1275
 1657SOL    HW116433   4.276   3.029   1.900 -2.5423 -3.1454  3.2629
 1657SOL    HW216434   4.300   3.170   1.927  0.2745 -0.2785 -0.8847
 1658SOL     OW16435   2.634   1.103   1.006  0.2992  0.3733  0.2109
 1658SOL    HW116436   2.640   1.190   1.045  2.2986  0.6921 -0.8294
 1658SOL    HW216437   2.693   1.123   0.934 -0.8825  2.7759 -0.0749
 1659SOL     OW16438   1.025   3.105   1.935 -0.2259 -0.2489  0.2090
 1659SOL    HW116439   1.062   3.118   1.848 -1.4103  0.1866 -0.2315
 1659SOL    HW216440   1.032   3.197   1.961  1.3870  0.1391 -1.6064
 1660SOL     OW16441   2.175   3.333   8.364 -0.4754  0.6270  0.5423
 1660SOL    HW116442   2.204   3.243   8.352  0.4624  0.7946  1.5628
 1660SOL    HW216443   2.080   3.321   8.363 -0.2090 -1.2729 -0.7612
 1661SOL     OW16444   0.399   3.922   7.095  0.5030 -1.0311  0.3812
 1661SOL    HW116445   0.363   3.988   7.037 -1.6489 -0.9083  1.8480
 1661SOL    HW216446   0.368   3.950   7.181 -0.7061 -1.2111  0.0068
 1662SOL     OW16447   2.953   4.700  17.033 -0.5961 -0.0125  0.3186
 1662SOL    HW116448   2.971   0.035  17.105  2.8344  0.4509 -0.9100
 1662SOL    HW216449   2.862   4.718  17.009 -0.1101  0.7804 -0.9469
 1663SOL     OW16450   4.508   0.835   7.676 -0.0956  0.1912 -0.6667
 1663SOL    HW116451   4.423   0.811   7.638 -1.0138 -0.6368  1.9365
 1663SOL    HW216452   4.534   0.910   7.622 -0.2121  1.2298  0.7322
 1664SOL     OW16453   0.143   3.368   5.638 -0.1833 -0.2030 -0.5772
 1664SOL    HW116454   0.066   3.385   5.692 -0.1381 -1.2381 -0.1854
 1664SOL    HW216455   0.191   3.445   5.668 -0.2710  0.9676 -3.4783
 1665SOL     OW16456   3.246   0.480   5.989  0.1921 -0.5845 -0.1290
 1665SOL    HW116457   3.303   0.556   5.976 -0.5692  0.0609  0.3263
 1665SOL    HW216458   3.296   0.407   5.951  1.0008  0.3977 -0.9520
 1666SOL     OW16459   0.766   2.310   3.848 -0.2359  0.1512 -0.3155
 1666SOL    HW116460   0.817   2.276   3.921  1.6265  0.2740 -1.5419
 1666SOL    HW216461   0.723   2.233   3.811  1.8125 -0.9483 -0.4145
 1667SOL     OW16462   3.773   2.453  17.298  0.0188  0.4899 -0.0428
 1667SOL    HW116463   3.713   2.476  17.227 -1.3651  0.2592  1.0477
 1667SOL    HW216464   3.777   2.359  17.279  0.6593  0.4293  0.3852
 1668SOL     OW16465   2.772   2.019   0.976  0.1462  0.0717 -0.5530
 1668SOL    HW116466   2.774   1.925   0.988  3.8505  0.2939  0.6529
 1668SOL    HW216467   2.865   2.043   0.982  0.0467 -0.1769  1.8783
 1669SOL     OW16468   3.721   2.418   4.230  0.0561 -0.0670 -0.1800
 1669SOL    HW116469   3.809   2.441   4.259  0.9451 -0.9931 -2.1669
 1669SOL    HW216470   3.705   2.339   4.281 -1.8221 -0.8743 -2.0137
 1670SOL     OW16471   3.956   3.733   3.143 -0.0765  0.4514 -0.3091
 1670SOL    HW116472   3.939   3.667   3.076 -2.0081  0.2086  0.4258
 1670SOL    HW216473   3.892   3.715   3.212  0.1488 -0.2514 -0.2848
 1671SOL     OW16474   1.191   3.870   0.297 -0.3887  0.0703  0.0301
 1671SOL    HW116475   1.222   3.782   0.277  1.4681  0.8776 -0.6173
 1671SOL    HW216476   1.277   3.909   0.283  0.5441 -1.5172  1.3163
 1672SOL     OW16477   4.127   3.242   3.387 -0.2220  0.7222 -0.5192
 1672SOL    HW116478   4.103   3.318   3.441  0.0960 -0.5942  1.4544
 1672SOL    HW216479   4.063   3.178   3.417  0.0948  2.1362  3.2050
 1673SOL     OW16480   2.608   2.754   6.788 -0.5992 -0.1560  0.8324
 1673SOL    HW116481   2.695   2.778   6.755 -0.6855  0.6311  1.1899
 1673SOL    HW216482   2.612   2.757   6.883  0.4622 -2.0017  0.8516
 1674SOL     OW16483   1.225   2.713   4.960  0.0850 -0.5809 -0.1684
 1674SOL    HW116484   1.297   2.773   4.983 -1.6674  2.0806 -1.5833
 1674SOL    HW216485   1.173   2.700   5.040 -3.2415 -1.1370 -2.4236
 1675SOL     OW16486   1.212   4.615  11.045  0.2406 -0.1754  0.5059
 1675SOL    HW116487   1.258   4.590  11.126 -1.0615  0.4497  1.4390
 1675SOL    HW216488   1.163   4.534  11.032 -1.6325  0.5116  3.0718
 1676SOL     OW16489   2.964   2.504   0.842  0.3090 -0.1612 -0.1592
 1676SOL    HW116490   2.927   2.524   0.756  0.6858 -0.5829 -0.4182
 1676SOL    HW216491   3.034   2.569   0.854  1.0470 -1.0505  0.2713
 1677SOL     OW16492   1.236   2.989  14.791  0.0342  0.3336  0.0164
 1677SOL    HW116493   1.192   3.010  14.709 -1.7882 -1.2870  0.5806
 1677SOL    HW216494   1.166   2.999  14.855  0.2991 -1.0601  0.5337
 1678SOL     OW16495   2.459   0.419  11.589 -0.1781 -0.2071  0.3229
 1678SOL    HW116496   2.438   0.475  11.663 -1.1375  0.1223 -0.1982
 1678SOL    HW216497   2.370   0.393  11.563  0.6074  1.6190 -4.0369
 1679SOL     OW16498   0.482   4.334   2.915 -0.0094  0.2516 -0.0913
 1679SOL    HW116499   0.552   4.297   2.861 -0.0143 -0.1734  0.1957
 1679SOL    HW216500   0.411   4.356   2.854 -0.1753  2.1614  0.7985
 1680SOL     OW16501   1.281   0.241   3.422 -0.4280  0.3152 -0.5595
 1680SOL    HW116502   1.295   0.330   3.453  0.8008 -0.0200 -0.1775
 1680SOL    HW216503   1.190   0.241   3.393  0.1741 -1.0774 -2.4627
 1681SOL     OW16504   1.990   4.431   7.263 -0.2525 -0.0348  0.4717
 1681SOL    HW116505   1.943   4.396   7.188  1.6330 -0.7809 -0.3810
 1681SOL    HW216506   2.026   4.503   7.212 -1.8273  1.8080  1.9926
 1682SOL     OW16507   2.738   2.635   1.381  0.2696  0.0004 -0.3954
 1682SOL    HW116508   2.770   2.620   1.292  0.3963 -1.6651 -0.0820
 1682SOL    HW216509   2.814   2.671   1.427 -0.2282  1.7886 -1.0107
 1683SOL     OW16510   1.107   3.412  17.574  0.0563 -0.1748 -0.4675
 1683SOL    HW116511   1.168   3.485  17.577 -0.1657  0.0258 -0.8615
 1683SOL    HW216512   1.104   3.388  17.481 -0.7716  1.6065 -0.8844
 1684SOL     OW16513   2.632   4.303   1.152 -0.5735  0.5245 -0.2376
 1684SOL    HW116514   2.703   4.347   1.106  1.6758  0.9517  3.6039
 1684SOL    HW216515   2.580   4.378   1.181  0.2155  0.7652  0.5768
 1685SOL     OW16516   3.285   4.377   6.699  0.5813 -0.6721 -0.2466
 1685SOL    HW116517   3.255   4.308   6.640 -2.0385  0.5472 -0.3564
 1685SOL    HW216518   3.277   4.337   6.785  1.2034 -1.0331 -0.3566
 1686SOL     OW16519   0.163   1.568   8.223  0.0763  0.2042 -0.0482
 1686SOL    HW116520   0.157   1.582   8.317  1.2857  1.0587 -0.1085
 1686SOL    HW216521   0.251   1.532   8.212 -0.2791 -0.8500  0.5538
 1687SOL     OW16522   1.134   3.230   1.725 -0.7846  0.5921 -0.2162
 1687SOL    HW116523   1.157   3.233   1.632  1.2008 -0.8985  0.2445
 1687SOL    HW216524   1.054   3.283   1.729 -1.4639 -0.5713  1.4316
 1688SOL     OW16525   1.026   3.270   3.946  0.5730 -0.2052 -0.2406
 1688SOL    HW116526   0.944   3.232   3.916  0.9988 -1.2816 -0.0312
 1688SOL    HW216527   1.068   3.283   3.860  0.9656 -1.1561 -0.1930
 1689SOL     OW16528   2.828   1.225   1.643 -0.3160  0.6520 -0.3417
 1689SOL    HW116529   2.900   1.165   1.664  1.7973  2.5987 -2.0245
 1689SOL    HW216530   2.826   1.237   1.548  2.2628  2.8795 -0.1216
 1690SOL     OW16531   1.863   1.871   3.698  0.5843  0.9041  0.6547
 1690SOL    HW116532   1.867   1.830   3.784  0.9936  2.2582  1.2728
 1690SOL    HW216533   1.773   1.904   3.700  0.5334  0.6836  1.9953
 1691SOL     OW16534   2.576   4.192   2.209  0.0517  0.0712  0.1289
 1691SOL    HW116535   2.604   4.187   2.300  0.7433  1.5326 -0.0080
 1691SOL    HW216536   2.511   4.121   2.206  0.5480 -0.3174 -1.5415
 1692SOL     OW16537   0.532   1.932   6.968  0.6759 -0.4850  0.1570
 1692SOL    HW116538   0.598   1.909   6.903  0.6042 -0.7769  0.1876
 1692SOL    HW216539   0.566   1.910   7.055 -0.0572  0.7442  0.7488
 1693SOL     OW16540   3.404   1.407  15.255  0.1831 -0.3286  0.7074
 1693SOL    HW116541   3.312   1.428  15.271  0.4390  1.3271  0.0054
 1693SOL    HW216542   3.444   1.462  15.321 -0.0825 -0.1750  0.7394
 1694SOL     OW16543   3.036   4.021  14.503  0.0162 -0.1258  0.5140
 1694SOL    HW116544   3.089   4.088  14.545 -0.6422 -0.3398  1.6836
 1694SOL    HW216545   2.963   4.021  14.565 -0.6725 -2.4393 -0.2999
 1695SOL     OW16546   2.219   3.457   5.649 -0.1491 -0.3809 -0.0613
 1695SOL    HW116547   2.144   3.499   5.609 -0.8999 -2.3556 -0.7440
 1695SOL    HW216548   2.190   3.417   5.731  1.0306 -0.4430  0.3395
 1696SOL     OW16549   4.171   3.664   3.281 -0.0242  0.1709  0.1490
 1696SOL    HW116550   4.192   3.585   3.232  1.0328  0.2258  0.5140
 1696SOL    HW216551   4.101   3.697   3.225 -0.9793 -4.8895 -1.6284
 1697SOL     OW16552   0.934   1.761   4.474  1.0924 -0.1480  0.0322
 1697SOL    HW116553   0.965   1.851   4.468 -1.6253  0.8476  1.0036
 1697SOL    HW216554   0.841   1.773   4.488  1.0556  1.8320 -2.0305
 1698SOL     OW16555   3.512   0.226  14.262  0.2790 -0.1174 -0.2269
 1698SOL    HW116556   3.505   0.283  14.338  0.7860 -0.9699  0.4720
 1698SOL    HW216557   3.550   0.280  14.193  2.3743  0.6655  1.5444
 1699SOL     OW16558   1.664   3.207   8.630  0.1079 -0.0768  0.2171
 1699SOL    HW116559   1.589   3.157   8.598 -0.5715 -0.0827  1.8200
 1699SOL    HW216560   1.633   3.297   8.639  2.0679  0.2997  3.0673
 1700SOL     OW16561   2.886   1.239   6.704  0.0896 -0.1036  0.1000
 1700SOL    HW116562   2.963   1.230   6.760  0.8200  1.1199 -0.7147
 1700SOL    HW216563   2.917   1.179   6.637  3.1151  1.4540  0.0961
 1701SOL     OW16564   2.822   4.290  11.169 -0.0124 -0.7154  0.2267
 1701SOL    HW116565   2.739   4.301  11.216  0.6551 -0.8610  1.4259
 1701SOL    HW216566   2.819   4.363  11.106 -0.5516 -1.3867 -0.5216
 1702SOL     OW16567   3.486   4.452   1.984 -0.1265 -0.2200  0.0771
 1702SOL    HW116568   3.456   4.537   1.952 -0.0718 -0.3383 -0.2869
 1702SOL    HW216569   3.568   4.446   1.935 -0.3775 -0.0677 -0.3680
 1703SOL     OW16570   4.044   1.011   8.572 -0.2080 -0.1418  0.4952
 1703SOL    HW116571   4.017   0.930   8.529  0.5527 -0.7521  1.1687
 1703SOL    HW216572   3.989   1.019   8.650 -1.0394 -1.4841  0.0323
 1704SOL     OW16573   4.072   0.889   6.841 -0.1373 -0.3303 -0.2732
 1704SOL    HW116574   4.092   0.953   6.773 -0.3903  0.9136  0.8299
 1704SOL    HW216575   4.043   0.818   6.784 -3.8911 -1.4145  3.0306
 1705SOL     OW16576   4.291   0.905   5.199  0.1434 -0.0633  0.2734
 1705SOL    HW116577   4.348   0.866   5.265 -0.3499 -1.7909 -0.3339
 1705SOL    HW216578   4.229   0.959   5.250 -0.4136  0.5856 -1.0949
 1706SOL     OW16579   0.053   2.406   0.052  0.1249 -0.7415  0.5650
 1706SOL    HW116580   0.016   2.332   0.004  1.0291 -1.1740  0.5528
 1706SOL    HW216581   0.006   2.395   0.135  2.2379  1.1816  2.0033
 1707SOL     OW16582   1.306   1.168   1.552  0.1672  0.1185  0.2259
 1707SOL    HW116583   1.224   1.209   1.581  0.6831  2.3208 -1.3800
 1707SOL    HW216584   1.349   1.121   1.623  2.7956 -0.7788 -1.9750
 1708SOL     OW16585   0.556   1.402   2.163  0.1555  0.1402  0.0186
 1708SOL    HW116586   0.589   1.351   2.089  2.3151  1.5875 -0.0146
 1708SOL    HW216587   0.631   1.462   2.168 -0.8470  1.1727  2.6991
 1709SOL     OW16588   0.340   4.112  12.201 -0.3312  0.2240  0.8272
 1709SOL    HW116589   0.286   4.052  12.150 -0.7048 -0.0263  1.5244
 1709SOL    HW216590   0.414   4.057  12.225  0.7832  1.0329 -0.6963
 1710SOL     OW16591   2.885   2.447   3.446  1.2218  0.1533  0.1951
 1710SOL    HW116592   2.862   2.505   3.373 -1.8776  0.4266  1.3942
 1710SOL    HW216593   2.894   2.508   3.518 -0.6702  1.3012 -0.5242
 1711SOL     OW16594   0.060   1.899  11.397 -0.3527  0.1248  0.3783
 1711SOL    HW116595   0.150   1.931  11.396 -0.3739  0.1669 -0.2668
 1711SOL    HW216596   0.055   1.844  11.318  0.0841 -1.0083  1.1419
 1712SOL     OW16597   3.745   3.788   2.771 -0.1640  0.2205  0.0456
 1712SOL    HW116598   3.803   3.795   2.696 -2.7137  1.5482 -1.7890
 1712SOL    HW216599   3.802   3.752   2.839  2.0249  1.4211 -1.1890
 1713SOL     OW16600   3.757   3.887   6.190 -0.1822 -0.1915  0.3798
 1713SOL    HW116601   3.707   3.806   6.179 -0.8867  0.0546  1.7839
 1713SOL    HW216602   3.742   3.937   6.109 -0.7786 -0.6876  0.1848
 1714SOL     OW16603   1.101   2.679   0.418 -0.7826 -0.3853  0.6840
 1714SOL    HW116604   1.167   2.745   0.400 -0.2164 -1.5060 -1.2885
 1714SOL    HW216605   1.151   2.616   0.471  1.3607  0.9509  0.2257
 1715SOL     OW16606   3.662   4.585  11.817  0.0661 -0.2267  0.0546
 1715SOL    HW116607   3.752   4.580  11.849  0.7149 -2.3239 -2.0783
 1715SOL    HW216608   3.611   4.595  11.898 -0.5005  1.1604 -0.4809
 1716SOL     OW16609   2.982   2.279   2.200  0.1951 -1.1349  0.0477
 1716SOL    HW116610   2.978   2.195   2.246 -0.9897 -1.1453 -0.0909
 1716SOL    HW216611   2.922   2.258   2.129  1.6782  0.6890 -1.7415
 1717SOL     OW16612   0.167   4.385   5.350 -0.3981  0.1539 -0.5207
 1717SOL    HW116613   0.205   4.429   5.274  2.1451 -1.5665 -0.2336
 1717SOL    HW216614   0.206   4.438   5.420  0.3334 -1.7429  0.4969
 1718SOL     OW16615   3.445   1.506   0.223  0.2610 -0.4589 -0.1178
 1718SOL    HW116616   3.417   1.427   0.268 -2.1661  0.1189 -0.6606
 1718SOL    HW216617   3.416   1.574   0.285  2.1148 -0.7294  1.0594
 1719SOL     OW16618   1.788   2.823   8.246 -0.2968  0.3287 -0.2504
 1719SOL    HW116619   1.835   2.904   8.265  0.7466 -0.2572 -0.3528
 1719SOL    HW216620   1.852   2.752   8.236 -0.4533  0.4153 -2.0235
 1720SOL     OW16621   3.888   0.091  13.024  0.2321 -0.5069  0.1868
 1720SOL    HW116622   3.961   0.031  13.013  0.7387  0.3822 -1.3483
 1720SOL    HW216623   3.894   0.152  12.950 -1.0558 -1.5053 -0.7493
 1721SOL     OW16624   1.350   2.837  15.705 -0.1251  0.3875  0.2026
 1721SOL    HW116625   1.364   2.907  15.769 -1.5727  1.0960 -0.2373
 1721SOL    HW216626   1.279   2.879  15.655  1.1453 -0.2080 -2.1104
 1722SOL     OW16627   2.838   4.452  11.452  0.6975 -0.4418  0.4524
 1722SOL    HW116628   2.791   4.492  11.526 -0.4633 -0.3052 -0.3642
 1722SOL    HW216629   2.763   4.403  11.419  0.4766  1.5061 -1.9416
 1723SOL     OW16630   2.561   2.993  10.849  0.0631 -0.6119  0.3080
 1723SOL    HW116631   2.579   2.997  10.756 -0.5027  0.0488  0.2329
 1723SOL    HW216632   2.470   2.963  10.856 -0.8582  1.8985 -1.0462
 1724SOL     OW16633   1.846   1.253   1.963  0.1121  0.4816  0.5716
 1724SOL    HW116634   1.890   1.334   1.938 -0.9315 -0.0428 -3.0370
 1724SOL    HW216635   1.806   1.294   2.039  0.0921 -1.0966  1.4138
 1725SOL     OW16636   1.963   0.515   2.009  0.0890 -0.3351  0.2731
 1725SOL    HW116637   1.871   0.488   2.003  0.6731 -2.1893 -0.4967
 1725SOL    HW216638   1.982   0.468   2.091  0.5519  2.2587  1.6455
 1726SOL     OW16639   0.595   0.743   6.732 -0.3491  0.1790  0.4885
 1726SOL    HW116640   0.524   0.752   6.796 -0.1445  1.5265  0.5167
 1726SOL    HW216641   0.555   0.686   6.666  0.7028  0.8309 -0.6963
 1727SOL     OW16642   3.034   1.487  17.275  0.3873 -0.1039 -0.4524
 1727SOL    HW116643   3.116   1.532  17.294  0.2533  1.7388 -4.1971
 1727SOL    HW216644   3.020   1.442  17.358 -0.9416  0.7281 -0.2193
 1728SOL     OW16645   0.030   0.721   7.697 -0.3738 -0.2333  0.5776
 1728SOL    HW116646   0.072   0.803   7.672  0.7802 -0.8748  0.3807
 1728SOL    HW216647   4.667   0.755   7.698 -0.3886 -0.3048  1.3696
 1729SOL     OW16648   1.413   3.129  10.829 -0.3024 -0.5167  0.5495
 1729SOL    HW116649   1.505   3.156  10.824 -0.5718  0.5362  1.3685
 1729SOL    HW216650   1.427   3.034  10.821  0.7968 -0.6194  3.7083
 1730SOL     OW16651   3.386   1.258   2.120  0.5673 -0.1507 -0.1867
 1730SOL    HW116652   3.366   1.169   2.148 -0.1258 -0.0492 -0.3689
 1730SOL    HW216653   3.480   1.264   2.106  0.5769  1.3254  0.4549
 1731SOL     OW16654   3.866   2.130  15.749 -0.3730 -0.4318 -0.1735
 1731SOL    HW116655   3.922   2.193  15.795 -0.9758 -0.5129  0.6786
 1731SOL    HW216656   3.784   2.174  15.770  0.8392  1.7975 -0.1567
 1732SOL     OW16657   4.305   3.812   9.830 -0.3831 -0.3288  0.2522
 1732SOL    HW116658   4.348   3.772   9.755 -0.5321  1.0996 -0.5934
 1732SOL    HW216659   4.312   3.739   9.891 -0.0305 -1.6506 -1.3641
 1733SOL     OW16660   1.458   3.251   2.951  0.4167 -0.2114  0.3894
 1733SOL    HW116661   1.385   3.243   2.890  0.0249  0.7707  0.7334
 1733SOL    HW216662   1.449   3.172   3.003  1.4773  0.4697  1.6288
 1734SOL     OW16663   1.088   1.980   8.591 -0.1060  0.3034  0.2978
 1734SOL    HW116664   1.123   1.893   8.611 -1.8484 -0.5420 -0.3346
 1734SOL    HW216665   1.130   2.029   8.662 -1.9961  2.4078 -0.0257
 1735SOL     OW16666   4.386   3.640   2.872 -0.6062  0.5581 -0.3578
 1735SOL    HW116667   4.383   3.586   2.793  1.5296  0.9087 -0.6953
 1735SOL    HW216668   4.333   3.711   2.837  0.0115  1.6706  0.9435
 1736SOL     OW16669   3.508   1.549  17.651 -0.6463 -0.3187  0.0296
 1736SOL    HW116670   3.503   1.546   0.041  0.3120  1.4173  0.1242
 1736SOL    HW216671   3.464   1.472  17.615 -0.3220 -0.6929  0.4266
 1737SOL     OW16672   0.586   4.002  13.868  0.4325  0.4113 -0.2746
 1737SOL    HW116673   0.628   3.922  13.837  0.0665 -0.0054  0.3119
 1737SOL    HW216674   0.639   4.025  13.945  0.7338 -0.8395 -0.1173
 1738SOL     OW16675   4.421   1.909   8.270 -0.5773 -0.2670  0.8436
 1738SOL    HW116676   4.327   1.900   8.257 -0.7162  1.4733  0.5446
 1738SOL    HW216677   4.435   1.999   8.239  2.6707 -0.8127  0.7659
 1739SOL     OW16678   0.416   0.418   7.058  0.1502  0.5897  0.0634
 1739SOL    HW116679   0.332   0.429   7.103 -0.4912 -1.9777 -0.4814
 1739SOL    HW216680   0.422   0.322   7.065  0.2944  0.5198 -0.9736
 1740SOL     OW16681   0.127   4.077   5.797  0.6917  0.0501  0.3999
 1740SOL    HW116682   0.116   4.105   5.706 -3.7862 -0.6248  0.7313
 1740SOL    HW216683   0.052   4.122   5.836 -1.0553 -3.7010  1.4304
 1741SOL     OW16684   2.110   4.586   0.283 -0.4016  0.2818  0.1129
 1741SOL    HW116685   2.137   4.500   0.313  1.2797 -0.0865 -2.4623
 1741SOL    HW216686   2.193   4.634   0.288 -0.0568 -0.2375 -0.6303
 1742SOL     OW16687   4.095   0.419   7.671 -0.0907 -0.0392  0.1880
 1742SOL    HW116688   4.183   0.412   7.707  0.0312  2.8377  0.4796
 1742SOL    HW216689   4.066   0.328   7.674 -0.1533 -0.0138  0.3540
 1743SOL     OW16690   2.107   3.408   5.134 -0.4732 -0.2068 -0.2561
 1743SOL    HW116691   2.128   3.399   5.227  0.5699  0.1667 -0.4622
 1743SOL    HW216692   2.078   3.499   5.139 -1.2185 -0.5004  0.8282
 1744SOL     OW16693   3.998   4.132   0.862  0.0508 -0.0786 -0.0934
 1744SOL    HW116694   4.084   4.119   0.901  0.4905 -1.1285 -1.4414
 1744SOL    HW216695   3.985   4.218   0.903 -1.5233 -0.3605 -0.0058
 1745SOL     OW16696   2.548   4.692   4.981 -0.4484  0.4375  0.1426
 1745SOL    HW116697   2.644   4.693   4.976 -0.5691  2.8290 -1.7851
 1745SOL    HW216698   2.526   0.035   4.919  1.3721  0.8523 -0.0275
 1746SOL     OW16699   1.086   0.961   4.361  0.1471 -0.1011  0.0989
 1746SOL    HW116700   1.040   0.974   4.279 -2.1426  1.1687  1.5979
 1746SOL    HW216701   1.103   1.052   4.386  3.5225 -0.9100  0.7240
 1747SOL     OW16702   2.189   0.227  10.534  0.4523  0.1875 -0.3520
 1747SOL    HW116703   2.265   0.276  10.503  0.2538  0.3644 -0.5559
 1747SOL    HW216704   2.189   0.143  10.488 -0.0646 -0.2547  0.4469
 1748SOL     OW16705   3.700   1.134   8.323  0.0879 -0.5376 -0.5226
 1748SOL    HW116706   3.735   1.082   8.251  0.6449 -2.5896  1.2262
 1748SOL    HW216707   3.610   1.150   8.295  0.2960  0.8010 -0.4112
 1749SOL     OW16708   4.422   0.404   6.228  0.0692  0.2204 -0.4533
 1749SOL    HW116709   4.383   0.338   6.170 -1.1774  0.6072 -0.0538
 1749SOL    HW216710   4.447   0.348   6.301 -0.8865  0.7556  0.2923
 1750SOL     OW16711   4.325   4.702   8.629 -0.5888 -0.4366  0.0687
 1750SOL    HW116712   4.303   4.699   8.723 -0.0862 -0.5124  0.1814
 1750SOL    HW216713   4.315   4.609   8.609  0.6979 -0.1993 -1.6025
 1751SOL     OW16714   0.510   1.441   6.761 -0.0571 -0.4532 -0.0757
 1751SOL    HW116715   0.564   1.408   6.689 -2.8568 -0.6209 -2.0899
 1751SOL    HW216716   0.457   1.505   6.714 -0.1235 -1.9257 -2.0031
 1752SOL     OW16717   1.408   0.197   5.466  0.1557  0.2377 -0.3803
 1752SOL    HW116718   1.401   0.134   5.537  2.2945 -1.6670 -1.8599
 1752SOL    HW216719   1.468   0.152   5.406 -0.9291  1.2747 -2.2445
 1753SOL     OW16720   4.430   1.607   0.565 -0.2496  0.3793  0.6830
 1753SOL    HW116721   4.389   1.689   0.593 -1.1667 -0.2553  1.2128
 1753SOL    HW216722   4.368   1.537   0.544  0.5971 -0.7318  1.9025
 1754SOL     OW16723   3.165   1.506   6.489  0.4324  0.7532 -0.4815
 1754SOL    HW116724   3.256   1.533   6.474  0.9720 -1.4938 -1.1117
 1754SOL    HW216725   3.115   1.550   6.420 -4.0803 -2.2559  0.8850
 1755SOL     OW16726   3.172   2.533   2.777  0.1024 -0.4808  0.1319
 1755SOL    HW116727   3.199   2.569   2.862  3.2459  0.0087 -1.0739
 1755SOL    HW216728   3.254   2.538   2.728 -1.1311  2.0116 -1.6488
 1756SOL     OW16729   4.320   2.617   3.322  0.3325  0.0599  0.2675
 1756SOL    HW116730   4.303   2.664   3.240  2.0875 -0.8785 -0.6380
 1756SOL    HW216731   4.270   2.674   3.380 -1.3279 -2.1077  0.9435
 1757SOL     OW16732   1.625   2.103  12.743  0.6432  0.4475 -0.1447
 1757SOL    HW116733   1.703   2.119  12.689  0.4377  2.8314  0.2539
 1757SOL    HW216734   1.664   2.030  12.790 -1.6135 -0.1754  0.7818
 1758SOL     OW16735   3.172   2.962   0.079 -0.1396  0.0245  0.5533
 1758SOL    HW116736   3.160   3.040   0.026 -0.2696 -0.6637 -0.4302
 1758SOL    HW216737   3.267   2.953   0.073 -0.3066 -1.1321 -0.3188
 1759SOL     OW16738   1.934   0.317  17.438  0.0876  0.9763  0.0904
 1759SOL    HW116739   1.864   0.308  17.503 -1.8141 -0.4885 -2.1365
 1759SOL    HW216740   1.984   0.239  17.464  0.5066  1.0803 -0.4055
 1760SOL     OW16741   3.557   4.487   7.031 -0.1911 -0.6398  0.0142
 1760SOL    HW116742   3.547   4.534   6.948 -1.1506  0.2414  0.6279
 1760SOL    HW216743   3.526   4.551   7.095 -2.9131 -1.4162 -0.5314
 1761SOL     OW16744   4.416   1.903   7.490  0.2198 -0.2950 -0.0821
 1761SOL    HW116745   4.480   1.925   7.557  0.7123 -0.4942 -0.4849
 1761SOL    HW216746   4.342   1.893   7.550 -0.5669  1.1684 -0.7876
 1762SOL     OW16747   3.432   1.934  14.234 -0.3690 -0.2800  0.0795
 1762SOL    HW116748   3.432   1.958  14.327 -0.3574  0.0434 -0.0026
 1762SOL    HW216749   3.406   1.842  14.235  1.5577 -0.8369 -0.6379
 1763SOL     OW16750   3.834   4.091   3.853  0.3784 -0.1047 -0.1521
 1763SOL    HW116751   3.849   4.093   3.758 -0.1414 -2.4333 -0.2866
 1763SOL    HW216752   3.923   4.085   3.888  1.4504  2.7899 -2.4187
 1764SOL     OW16753   1.706   0.085   6.165 -0.0930 -0.7309  0.1548
 1764SOL    HW116754   1.787   0.100   6.116  0.2034  2.4723  1.6267
 1764SOL    HW216755   1.752   0.047   6.239  2.2374  2.7330  0.5066
 1765SOL     OW16756   1.861   1.521   6.417  0.1065 -0.2448 -0.7363
 1765SOL    HW116757   1.783   1.475   6.385  0.1449 -1.3250  0.7223
 1765SOL    HW216758   1.892   1.558   6.335  3.2817 -1.1878  0.0442
 1766SOL     OW16759   2.873   3.341   4.171  0.5081 -0.9484  0.7305
 1766SOL    HW116760   2.798   3.302   4.215 -0.2754  0.4465  0.6244
 1766SOL    HW216761   2.870   3.320   4.077 -0.4650  0.7637  0.3794
 1767SOL     OW16762   4.248   3.609   7.544 -0.3319 -0.0430 -0.8225
 1767SOL    HW116763   4.192   3.598   7.621  1.1422 -2.9957 -0.1752
 1767SOL    HW216764   4.248   3.523   7.502 -1.3334  0.5778 -2.0834
 1768SOL     OW16765   0.768   3.646   6.336  0.2778 -0.1579 -0.0709
 1768SOL    HW116766   0.851   3.656   6.382  0.2388  4.6899 -1.1376
 1768SOL    HW216767   0.786   3.704   6.263  1.1530 -0.3609 -0.0217
 1769SOL     OW16768   4.454   1.066   2.138  0.4022 -0.1860  0.0205
 1769SOL    HW116769   4.399   1.074   2.216 -0.6158  0.2141 -0.7284
 1769SOL    HW216770   4.543   1.067   2.172  0.7137 -1.5480 -0.7563
 1770SOL     OW16771   2.762   1.079   4.144  0.1501  0.0324  0.1617
 1770SOL    HW116772   2.769   1.002   4.088 -0.4717  0.0704  0.0384
 1770SOL    HW216773   2.784   1.146   4.079  0.8328 -0.0284  0.3283
 1771SOL     OW16774   1.016   1.941   4.854 -0.1554 -0.2235 -0.2636
 1771SOL    HW116775   1.069   1.892   4.918 -1.7680 -0.8815  0.5834
 1771SOL    HW216776   0.954   1.984   4.913  0.7015 -2.0457  1.9736
 1772SOL     OW16777   4.321   1.939   3.844 -0.4072 -0.0628 -0.1566
 1772SOL    HW116778   4.251   1.935   3.909  0.8817  1.1590  1.3150
 1772SOL    HW216779   4.277   1.922   3.761 -1.1073  1.1617 -0.0317
 1773SOL     OW16780   1.526   4.642   4.509 -0.0486 -0.3099 -0.1267
 1773SOL    HW116781   1.432   4.623   4.517 -0.4040  1.6801  0.4741
 1773SOL    HW216782   1.557   4.573   4.568  0.1660 -0.0165  0.1037
 1774SOL     OW16783   3.110   3.391   8.310  0.2340 -0.2319  0.2860
 1774SOL    HW116784   3.039   3.351   8.360 -0.0330 -1.3686 -0.9850
 1774SOL    HW216785   3.182   3.329   8.324  1.4421  1.1975  0.3857
 1775SOL     OW16786   4.440   1.164   6.642  0.3335 -0.1514 -0.2567
 1775SOL    HW116787   4.518   1.109   6.645  1.0930  0.9422 -0.2330
 1775SOL    HW216788   4.474   1.250   6.663  0.6091 -0.2618 -0.2576
 1776SOL     OW16789   4.474   2.340   8.757 -0.0460 -0.2173 -0.4634
 1776SOL    HW116790   4.427   2.304   8.832 -1.2158  0.4447 -0.8705
 1776SOL    HW216791   4.486   2.430   8.788  2.8111 -0.6755 -0.2829
 1777SOL     OW16792   4.276   2.295   0.494  0.1507  0.5288  0.0976
 1777SOL    HW116793   4.238   2.368   0.445 -0.2289  0.0311 -0.3503
 1777SOL    HW216794   4.311   2.245   0.420  0.2136  0.4852  0.1567
 1778SOL     OW16795   3.626   0.472  10.733 -0.2084  0.5460  0.5673
 1778SOL    HW116796   3.603   0.434  10.648 -1.2950  1.7784  0.3115
 1778SOL    HW216797   3.599   0.396  10.785 -1.0989  1.3338  1.2457
 1779SOL     OW16798   3.250   1.144   1.913  0.4575  0.2043  0.3152
 1779SOL    HW116799   3.322   1.081   1.908 -0.8670 -1.3412  0.5323
 1779SOL    HW216800   3.292   1.199   1.980  1.0185 -1.6988  1.5234
 1780SOL     OW16801   0.160   4.268   6.581  0.5320 -0.0334  0.0772
 1780SOL    HW116802   0.191   4.181   6.605  0.2061 -0.4224 -0.8937
 1780SOL    HW216803   0.165   4.304   6.669  3.2287 -1.8872  0.6876
 1781SOL     OW16804   3.791   2.016   5.821  0.1818  0.5848 -0.9886
 1781SOL    HW116805   3.877   2.001   5.859 -1.0263 -0.5034  1.2867
 1781SOL    HW216806   3.760   2.084   5.881  0.4706  0.6208 -0.8840
 1782SOL     OW16807   3.159   4.682  10.676  0.5056 -0.9430 -0.0685
 1782SOL    HW116808   3.182   0.043  10.645  0.8959 -0.7568  0.7318
 1782SOL    HW216809   3.148   4.636  10.593 -0.7316 -1.2110  0.2385
 1783SOL     OW16810   1.984   2.902   1.651 -0.3807 -0.3010  0.2280
 1783SOL    HW116811   1.971   2.957   1.573  2.4307 -2.1052 -1.5193
 1783SOL    HW216812   2.020   2.821   1.615 -1.8077 -1.7666  2.0960
 1784SOL     OW16813   0.187   1.365   5.465  0.3504 -0.3668  0.1778
 1784SOL    HW116814   0.262   1.323   5.508  1.3787  0.2105 -1.0737
 1784SOL    HW216815   0.132   1.289   5.447  1.3109 -1.1218  0.4198
 1785SOL     OW16816   2.797   0.196   4.140  0.4046  0.5479 -0.6670
 1785SOL    HW116817   2.780   0.186   4.234 -0.2819  1.5464 -0.6850
 1785SOL    HW216818   2.854   0.121   4.121  1.6070  0.6547  2.5744
 1786SOL     OW16819   1.434   2.559  10.917 -0.3079 -0.2701  0.0615
 1786SOL    HW116820   1.400   2.601  10.837  0.4546  0.5354  0.1569
 1786SOL    HW216821   1.364   2.498  10.939 -0.0459 -0.6180 -0.0695
 1787SOL     OW16822   1.712   2.258  11.450 -0.2597  0.2259  0.3272
 1787SOL    HW116823   1.796   2.212  11.448 -1.5809 -2.1928  0.4641
 1787SOL    HW216824   1.740   2.349  11.438 -0.7329  0.4518  0.9563
 1788SOL     OW16825   3.638   3.629   3.217  0.1678  0.3526 -0.0843
 1788SOL    HW116826   3.674   3.674   3.293 -0.9002 -0.5102  0.9367
 1788SOL    HW216827   3.543   3.642   3.215 -0.0110 -1.2321 -2.4582
 1789SOL     OW16828   2.412   3.165   2.485  0.0209  0.1347  0.2137
 1789SOL    HW116829   2.422   3.081   2.531  1.1819  0.0637 -0.1652
 1789SOL    HW216830   2.495   3.204   2.513  0.2144 -0.2496  0.1854
 1790SOL     OW16831   3.744   3.596   5.285  0.4503 -0.7858 -0.3422
 1790SOL    HW116832   3.805   3.664   5.259  1.7982 -2.7577 -2.3321
 1790SOL    HW216833   3.694   3.635   5.357  0.6984  0.3641 -0.8017
 1791SOL     OW16834   1.379   0.555   2.330  0.5273 -0.3152  0.3307
 1791SOL    HW116835   1.427   0.519   2.256 -0.6198  1.1380 -1.1308
 1791SOL    HW216836   1.346   0.472   2.362 -0.2401 -0.8680 -1.9075
 1792SOL     OW16837   2.771   4.700   6.263 -0.2441 -0.1354  0.2014
 1792SOL    HW116838   2.707   4.630   6.277  0.6421 -1.0556 -0.3222
 1792SOL    HW216839   2.753   4.714   6.170  0.0095 -0.5812  0.0819
 1793SOL     OW16840   0.948   2.991   2.267 -0.3081  0.5666  0.7334
 1793SOL    HW116841   1.021   2.961   2.213  0.0143  1.7653  0.4909
 1793SOL    HW216842   0.995   3.066   2.303 -2.0982  1.8850  0.3365
 1794SOL     OW16843   4.296   3.134   8.654  0.0839  0.3571  0.3583
 1794SOL    HW116844   4.233   3.128   8.727 -0.2456  1.7757  0.1948
 1794SOL    HW216845   4.242   3.131   8.575  2.0599  0.6353 -0.9984
 1795SOL     OW16846   4.254   0.447   8.498 -0.5523  0.3959 -0.3873
 1795SOL    HW116847   4.288   0.446   8.408 -2.9780 -2.4054 -1.2936
 1795SOL    HW216848   4.226   0.538   8.508 -1.8408  0.0521 -0.9162
 1796SOL     OW16849   0.510   3.699   1.860 -0.4343 -0.1971  0.9789
 1796SOL    HW116850   0.569   3.715   1.787 -2.1041  1.3747 -0.0151
 1796SOL    HW216851   0.424   3.719   1.824  0.6071 -1.1999 -1.9993
 1797SOL     OW16852   0.749   1.081   2.163  0.5716  0.2863  0.2916
 1797SOL    HW116853   0.843   1.098   2.173  0.6579 -1.0949  1.7186
 1797SOL    HW216854   0.715   1.155   2.112  0.9102 -0.6600 -1.2842
 1798SOL     OW16855   4.535   0.248  15.053  0.0104  0.4973  0.0980
 1798SOL    HW116856   4.451   0.292  15.043  0.5257  1.3954 -0.2591
 1798SOL    HW216857   4.528   0.223  15.145  0.2824  1.1013  0.2802
 1799SOL     OW16858   1.961   1.087   5.735  0.1433 -0.3313  0.2529
 1799SOL    HW116859   1.962   1.183   5.734  1.5908 -0.3181  2.3444
 1799SOL    HW216860   2.055   1.068   5.739 -0.1461 -1.6992  0.3268
 1800SOL     OW16861   0.986   2.208  10.855  0.4562  0.4728  0.3848
 1800SOL    HW116862   0.920   2.262  10.899  0.3256  0.5958  0.0404
 1800SOL    HW216863   1.036   2.155  10.916  1.4796  1.2734  0.2505
 1801SOL     OW16864   4.682   2.259   1.585 -0.8767  0.0372 -0.2285
 1801SOL    HW116865   4.687   2.300   1.671  0.3419 -0.7489  0.0625
 1801SOL    HW216866   4.723   2.333   1.539 -0.6237 -1.0791 -1.7873
 1802SOL     OW16867   3.684   3.170   1.828 -0.3178  0.1502  0.2758
 1802SOL    HW116868   3.768   3.175   1.873  1.4826  1.1455 -3.2461
 1802SOL    HW216869   3.616   3.199   1.890  0.1197 -2.8476  2.1985
 1803SOL     OW16870   4.261   4.687   0.083 -0.1458 -0.2566  0.4268
 1803SOL    HW116871   4.340   4.660   0.130 -0.5241 -0.1996  1.1063
 1803SOL    HW216872   4.276   0.051   0.056  3.7851 -0.6231  1.3737
 1804SOL     OW16873   1.836   2.288   9.422  0.2347 -0.2482  0.3903
 1804SOL    HW116874   1.916   2.305   9.473  0.3313 -3.6400  1.3988
 1804SOL    HW216875   1.868   2.234   9.350  1.1274  1.2516 -0.3373
 1805SOL     OW16876   1.399   2.734   7.047 -0.1065 -0.1963  0.1848
 1805SOL    HW116877   1.431   2.679   6.976 -0.2846  1.7805 -1.4337
 1805SOL    HW216878   1.343   2.800   7.006 -2.9268 -2.8430 -0.2305
 1806SOL     OW16879   2.025   0.879  16.462  0.0004  0.0208 -0.2081
 1806SOL    HW116880   2.114   0.846  16.469 -0.7516 -1.8751  0.4234
 1806SOL    HW216881   1.992   0.842  16.543  1.5860  0.2012  0.5234
 1807SOL     OW16882   1.893   2.351  11.188  0.1902  0.1414  0.0761
 1807SOL    HW116883   1.804   2.377  11.213  0.0122  0.7705 -1.1930
 1807SOL    HW216884   1.953   2.423  11.209  1.0870 -1.8245  4.2247
 1808SOL     OW16885   4.466   3.814  11.516  0.1009 -0.0007 -0.1993
 1808SOL    HW116886   4.519   3.787  11.591 -1.0579 -1.9151 -0.0657
 1808SOL    HW216887   4.378   3.803  11.551  0.6071 -1.0756  0.7534
 1809SOL     OW16888   0.448   0.062   4.514  0.5361  0.1658  0.3791
 1809SOL    HW116889   0.411   4.702   4.495  1.7005 -0.1383 -0.5318
 1809SOL    HW216890   0.390   0.117   4.462  0.0736  0.0453  0.7693
 1810SOL     OW16891   3.877   4.147  16.668 -0.3069 -0.1434 -0.2350
 1810SOL    HW116892   3.934   4.207  16.619  0.2588 -1.7357 -1.5226
 1810SOL    HW216893   3.829   4.097  16.602  0.9471 -0.9900 -0.5139
 1811SOL     OW16894   1.614   2.759   6.387 -0.5046  0.2715  0.7210
 1811SOL    HW116895   1.550   2.814   6.343  0.6242  2.9176  2.3779
 1811SOL    HW216896   1.660   2.830   6.431  0.9569 -0.7426  0.8288
 1812SOL     OW16897   0.885   0.642   8.209 -0.0513 -0.0101  0.7086
 1812SOL    HW116898   0.931   0.558   8.210  1.7441  0.9804 -0.2904
 1812SOL    HW216899   0.801   0.615   8.171 -0.6963  1.5000  1.0807
 1813SOL     OW16900   2.235   1.055   5.808 -0.2033  0.6668  0.4036
 1813SOL    HW116901   2.319   1.057   5.763 -0.9926 -0.2895 -1.1139
 1813SOL    HW216902   2.269   1.013   5.887  0.1825  0.4252  0.1104
 1814SOL     OW16903   1.515   0.290   2.440  0.0494  0.1930  0.0509
 1814SOL    HW116904   1.478   0.259   2.357  0.2666  0.6970 -0.2346
 1814SOL    HW216905   1.439   0.319   2.491  1.0184  0.9354  1.0930
 1815SOL     OW16906   4.364   3.318   1.870 -0.1160  0.0537  0.0166
 1815SOL    HW116907   4.395   3.363   1.792  2.0183 -0.5967  0.4901
 1815SOL    HW216908   4.416   3.354   1.941 -1.4059  1.5637  0.1844
 1816SOL     OW16909   3.170   2.012   7.333  0.2653  0.1209 -0.3160
 1816SOL    HW116910   3.115   1.996   7.410 -0.0515 -0.4297 -0.6576
 1816SOL    HW216911   3.190   1.919   7.323 -2.2205 -0.3161 -1.3263
 1817SOL     OW16912   0.102   4.233   7.496  0.0839  0.3624  0.3608
 1817SOL    HW116913   0.082   4.310   7.549 -2.5509 -1.2605  1.7352
 1817SOL    HW216914   0.022   4.183   7.512  0.5230 -0.1683  0.8788
 1818SOL     OW16915   4.486   4.215   3.603  0.2442 -0.6459 -0.1067
 1818SOL    HW116916   4.501   4.309   3.596  1.8841 -0.8033  1.3201
 1818SOL    HW216917   4.417   4.227   3.669 -1.2991  2.5941 -2.3112
 1819SOL     OW16918   2.670   3.114  13.207 -0.1643  0.0663  0.3861
 1819SOL    HW116919   2.707   3.154  13.286 -0.4030  0.2501  0.4012
 1819SOL    HW216920   2.728   3.041  13.185 -0.4445 -0.2975  0.8529
 1820SOL     OW16921   2.761   4.701   2.037  0.3681  0.6576  0.3494
 1820SOL    HW116922   2.838   4.722   2.091  2.0240  2.5987 -2.7618
 1820SOL    HW216923   2.772   4.606   2.026  0.2337  0.5251  1.3996
 1821SOL     OW16924   0.270   2.407  11.125 -0.4385 -0.2414 -0.8397
 1821SOL    HW116925   0.358   2.392  11.091 -0.1472  3.3763 -1.6528
 1821SOL    HW216926   0.293   2.424  11.217  1.4397  0.8008 -1.5130
 1822SOL     OW16927   3.737   1.544   9.673  0.1965  0.1438  0.4368
 1822SOL    HW116928   3.653   1.511   9.704 -0.3311  1.8292  0.7974
 1822SOL    HW216929   3.715   1.617   9.615  0.4044  1.1771  1.6461
 1823SOL     OW16930   2.748   0.331   3.450  0.5250 -0.0256  0.5610
 1823SOL    HW116931   2.673   0.333   3.509 -0.8085  0.2808 -1.1313
 1823SOL    HW216932   2.787   0.416   3.467  1.3396 -0.3085  0.1167
 1824SOL     OW16933   3.507   3.129  11.206  0.3440  0.1431  0.6047
 1824SOL    HW116934   3.555   3.101  11.128 -0.4576  0.9847 -0.1868
 1824SOL    HW216935   3.541   3.217  11.219 -1.3021  1.2518 -2.5380
 1825SOL     OW16936   3.809   3.852  10.996  0.0700  0.5766  1.1815
 1825SOL    HW116937   3.892   3.898  10.990  0.5047 -0.3031  0.3385
 1825SOL    HW216938   3.834   3.796  11.069 -2.2163 -2.0664 -0.0480
 1826SOL     OW16939   2.044   0.270   8.490 -0.1355 -0.2147 -0.2964
 1826SOL    HW116940   2.121   0.216   8.473  0.0456  0.0457 -0.3125
 1826SOL    HW216941   2.063   0.324   8.566  0.0836 -0.5457 -0.1181
 1827SOL     OW16942   0.930   3.932  13.540 -0.2425 -0.1608  0.4058
 1827SOL    HW116943   0.976   3.968  13.616 -0.6233  1.5870 -0.2039
 1827SOL    HW216944   0.892   4.015  13.511 -1.4659 -0.4584  1.1481
 1828SOL     OW16945   1.695   3.231   4.298 -0.5376 -0.2797  0.0100
 1828SOL    HW116946   1.684   3.158   4.237  0.1392 -1.8793  1.8203
 1828SOL    HW216947   1.715   3.307   4.242  2.6743 -1.8410 -0.9813
 1829SOL     OW16948   1.469   1.603   1.299  0.3297 -0.8668 -0.2289
 1829SOL    HW116949   1.427   1.689   1.295 -0.5552 -1.3878 -2.4542
 1829SOL    HW216950   1.447   1.576   1.388 -4.0286  0.5452 -0.8834
 1830SOL     OW16951   3.048   2.101   5.460 -0.3691 -0.0527 -0.3115
 1830SOL    HW116952   3.073   2.080   5.370  0.5302 -1.1350  0.1911
 1830SOL    HW216953   3.031   2.193   5.442  1.5578  0.5202  0.8069
 1831SOL     OW16954   2.562   0.314   1.416 -0.1909 -0.7372 -0.6417
 1831SOL    HW116955   2.617   0.280   1.487 -0.2305 -0.6120 -0.5500
 1831SOL    HW216956   2.511   0.383   1.458  1.6547  0.0724  0.2649
 1832SOL     OW16957   4.610   2.787   0.766  0.1556  0.0931 -0.1001
 1832SOL    HW116958   4.582   2.705   0.807  0.3052  0.0177 -0.1484
 1832SOL    HW216959   4.652   2.763   0.683  0.9500  1.1652 -0.0159
 1833SOL     OW16960   3.088   4.680   7.685  0.2420  0.1050 -0.0563
 1833SOL    HW116961   3.099   4.627   7.764  0.1133  0.3619  0.1340
 1833SOL    HW216962   3.131   0.034   7.714  0.0433  0.3312 -0.3934
 1834SOL     OW16963   2.136   2.417   8.113 -0.6752  0.2459 -0.1471
 1834SOL    HW116964   2.232   2.410   8.113 -0.7563 -0.4882  4.7101
 1834SOL    HW216965   2.108   2.331   8.145  0.3511 -0.7831 -1.9714
 1835SOL     OW16966   0.319   0.726   2.231  0.6539  0.0004 -0.2018
 1835SOL    HW116967   0.412   0.748   2.215  0.7795  0.9013  1.7927
 1835SOL    HW216968   0.322   0.631   2.220 -4.1960 -0.2813  1.0809
 1836SOL     OW16969   4.436   1.838   6.020 -0.2535  0.3444 -0.2574
 1836SOL    HW116970   4.422   1.759   6.072 -2.2405 -0.6392 -2.2691
 1836SOL    HW216971   4.502   1.885   6.071  0.4845 -0.6345 -0.3054
 1837SOL     OW16972   2.161   4.190   7.726  0.0494  0.7068  0.3850
 1837SOL    HW116973   2.238   4.147   7.691 -1.1947 -1.3912  0.2360
 1837SOL    HW216974   2.176   4.191   7.821 -0.6684  0.8896  0.5011
 1838SOL     OW16975   2.141   0.221  12.165 -0.2527 -0.0374 -0.2175
 1838SOL    HW116976   2.057   0.210  12.211 -0.7355 -0.8353 -1.2928
 1838SOL    HW216977   2.198   0.190  12.235 -0.2352 -3.3582 -1.6701
 1839SOL     OW16978   1.128   3.445   3.706 -0.0184 -0.0740  0.2763
 1839SOL    HW116979   1.099   3.411   3.621  2.1040  2.3309 -1.4282
 1839SOL    HW216980   1.091   3.534   3.700  1.6440  0.5852 -0.3077
 1840SOL     OW16981   0.646   4.375   3.224 -0.7058 -0.6688 -0.6899
 1840SOL    HW116982   0.551   4.384   3.230 -0.3360  5.7503 -5.1293
 1840SOL    HW216983   0.685   4.461   3.210 -0.2747 -0.5062  1.4729
 1841SOL     OW16984   0.804   0.092   2.090 -0.0226  0.0723  0.7868
 1841SOL    HW116985   0.810   0.150   2.013 -0.4133  0.7139  1.2421
 1841SOL    HW216986   0.834   0.015   2.041 -0.4335  1.2724 -1.3950
 1842SOL     OW16987   1.291   3.917   2.166 -0.7144 -0.0922  0.3618
 1842SOL    HW116988   1.294   3.871   2.250  0.9432  0.0614  0.3911
 1842SOL    HW216989   1.338   3.998   2.187 -1.5923  0.9771 -1.8001
 1843SOL     OW16990   1.261   3.408   5.070  0.3385  0.0039 -0.0439
 1843SOL    HW116991   1.187   3.373   5.020 -1.5476  3.4392  0.3804
 1843SOL    HW216992   1.336   3.352   5.048  0.7880  0.7869 -0.4999
 1844SOL     OW16993   0.753   0.640  14.764  0.6106 -0.6629 -0.0163
 1844SOL    HW116994   0.705   0.692  14.700  1.5048  0.5210  0.2773
 1844SOL    HW216995   0.700   0.561  14.772  1.4371 -0.7929  3.8934
 1845SOL     OW16996   3.157   1.616   9.685 -0.3555  0.7652 -0.0090
 1845SOL    HW116997   3.243   1.632   9.644 -0.6906 -1.7560 -1.6593
 1845SOL    HW216998   3.168   1.581   9.773  1.6618 -0.2312 -0.6536
 1846SOL     OW16999   2.585   4.081   2.737  0.2394  0.1266  0.2709
 1846SOL    HW117000   2.536   4.024   2.796 -0.1586 -1.0001 -1.1593
 1846SOL    HW217001   2.675   4.057   2.758  0.6928 -0.1314 -1.9769
 1847SOL     OW17002   0.004   3.588   4.431 -0.2807 -0.5806 -0.4618
 1847SOL    HW117003   4.642   3.598   4.396 -0.5832 -2.1864 -0.1813
 1847SOL    HW217004   0.013   3.666   4.485  1.3481  0.6088 -2.4402
 1848SOL     OW17005   1.207   2.363  11.074  0.1883  1.0769 -0.3068
 1848SOL    HW117006   1.182   2.274  11.050 -0.7646  1.5879 -1.2281
 1848SOL    HW217007   1.130   2.393  11.122 -0.5612 -1.6392  0.1538
 1849SOL     OW17008   1.469   0.077   2.680  0.5079  0.1165 -0.0463
 1849SOL    HW117009   1.450   0.044   2.592 -1.0431 -0.0533  0.3495
 1849SOL    HW217010   1.510   4.723   2.711  0.4787  0.9337  2.1564
 1850SOL     OW17011   3.955   1.024  14.865  0.0392  0.1841 -0.5517
 1850SOL    HW117012   3.969   1.101  14.919 -0.3647  0.1150 -0.3550
 1850SOL    HW217013   3.860   1.019  14.860 -0.0293  0.3076  0.7438
 1851SOL     OW17014   4.716   2.793  15.397  0.0890 -0.1943  0.5201
 1851SOL    HW117015   0.050   2.723  15.371 -0.7939 -0.4092 -0.9165
 1851SOL    HW217016   4.711   2.769  15.490 -0.0435 -0.1720  0.5191
 1852SOL     OW17017   3.819   1.460  13.853  0.1382  0.2885 -0.0881
 1852SOL    HW117018   3.734   1.430  13.822  0.4676  0.1514 -0.8656
 1852SOL    HW217019   3.882   1.402  13.811  0.0788  1.1715 -1.3895
 1853SOL     OW17020   4.705   2.711   0.524  0.1932 -0.2483  0.4813
 1853SOL    HW117021   0.006   2.622   0.546  0.2805 -0.2051  0.5471
 1853SOL    HW217022   4.652   2.694   0.445 -0.8124 -2.3009  1.5770
 1854SOL     OW17023   1.944   0.191   2.068 -0.4435 -0.1993  0.7878
 1854SOL    HW117024   2.013   0.207   2.004 -0.6989 -1.1984  0.2611
 1854SOL    HW217025   1.923   0.101   2.041 -0.7200 -1.1341  3.9891
 1855SOL     OW17026   3.845   2.051  16.515 -0.2519 -0.3269 -0.3660
 1855SOL    HW117027   3.797   2.075  16.594 -1.1291 -1.3522 -0.5967
 1855SOL    HW217028   3.898   1.979  16.550  0.2969  0.7919  1.1537
 1856SOL     OW17029   3.202   2.747  12.386  0.4117  0.1287  0.6576
 1856SOL    HW117030   3.278   2.793  12.420 -0.0259  1.7533 -0.5580
 1856SOL    HW217031   3.211   2.753  12.291 -1.9838  0.0140  0.4222
 1857SOL     OW17032   1.717   2.774   1.598 -0.0300 -0.1827  0.0579
 1857SOL    HW117033   1.687   2.705   1.657  1.7030  1.0052  2.3723
 1857SOL    HW217034   1.794   2.807   1.645  0.0338  0.8818 -0.7991
 1858SOL     OW17035   4.536   1.572   1.767 -0.1467  0.2970  0.0429
 1858SOL    HW117036   4.536   1.629   1.690  1.0632 -1.2007 -1.0764
 1858SOL    HW217037   4.538   1.487   1.722 -0.4047  1.1494 -1.6007
 1859SOL     OW17038   1.006   4.390   6.061  0.0722  0.0680  0.7133
 1859SOL    HW117039   1.055   4.400   5.979  1.8457 -1.3015  1.5824
 1859SOL    HW217040   0.929   4.340   6.036 -0.3568  0.1436  1.9335
 1860SOL     OW17041   0.755   1.610   7.122 -0.0661 -0.4729 -0.1240
 1860SOL    HW117042   0.811   1.607   7.045 -0.6275 -0.3055 -0.5366
 1860SOL    HW217043   0.675   1.630   7.074 -0.2817 -1.4542 -0.1633
 1861SOL     OW17044   1.980   3.378   9.123 -0.0794  0.0322 -0.0559
 1861SOL    HW117045   1.944   3.392   9.036  0.8625 -0.3197 -0.4985
 1861SOL    HW217046   2.039   3.453   9.116 -0.4062  0.1046 -2.0266
 1862SOL     OW17047   0.857   3.970   3.246 -0.2028 -0.0422  0.2826
 1862SOL    HW117048   0.842   3.884   3.283  1.1060 -0.1151  0.6604
 1862SOL    HW217049   0.851   3.944   3.154 -1.1875  0.5279  0.1868
 1863SOL     OW17050   3.351   4.116   5.435  0.1197  0.2594 -0.2803
 1863SOL    HW117051   3.282   4.170   5.473  1.1179  0.7566  0.8278
 1863SOL    HW217052   3.429   4.172   5.439  0.6692 -0.6678  2.0747
 1864SOL     OW17053   0.118   2.936   7.474  0.6652 -0.4474  0.4832
 1864SOL    HW117054   0.201   2.984   7.473  1.1349 -1.3098 -1.4458
 1864SOL    HW217055   0.060   3.006   7.446  0.1290  0.4168  3.7846
 1865SOL     OW17056   0.303   4.481   2.186  0.1319 -0.9127  0.2454
 1865SOL    HW117057   0.320   4.514   2.274  0.1913  1.4820 -0.6688
 1865SOL    HW217058   0.212   4.451   2.186  0.0985 -0.7971 -1.0618
 1866SOL     OW17059   0.979   3.685   3.623 -0.9918  0.2314 -0.2875
 1866SOL    HW117060   0.920   3.681   3.699  0.6157  0.6712  0.9744
 1866SOL    HW217061   0.926   3.635   3.560  0.2606 -0.1650 -1.0390
 1867SOL     OW17062   4.369   2.187  10.915 -0.7009 -0.1600 -0.3717
 1867SOL    HW117063   4.285   2.181  10.868  0.2003 -0.3631 -1.9332
 1867SOL    HW217064   4.372   2.277  10.948  1.1468 -0.1672 -0.5362
 1868SOL     OW17065   0.232   3.990   8.041  0.7973  0.3526  0.2274
 1868SOL    HW117066   0.187   3.919   8.088  0.8324  0.2607  0.1208
 1868SOL    HW217067   0.172   4.051   7.998  1.6667  2.6448  2.2163
 1869SOL     OW17068   1.885   3.459   8.881 -0.3527 -0.3753  0.2596
 1869SOL    HW117069   1.799   3.441   8.842 -1.2326  0.1286  1.9913
 1869SOL    HW217070   1.905   3.543   8.839 -2.1385 -0.1230 -0.1113
 1870SOL     OW17071   4.585   2.642   1.560  0.0313 -0.3839 -0.1762
 1870SOL    HW117072   4.544   2.605   1.481 -0.8257  0.1368  0.0362
 1870SOL    HW217073   4.670   2.597   1.554  0.4132  0.0872  1.7870
 1871SOL     OW17074   0.750   3.390   7.922  0.1942  0.4257 -0.1979
 1871SOL    HW117075   0.719   3.323   7.861 -0.0653  1.4109 -1.1503
 1871SOL    HW217076   0.762   3.347   8.007  0.9661  2.3156  0.6399
 1872SOL     OW17077   4.024   2.698  12.516 -0.3257  0.3732 -0.0796
 1872SOL    HW117078   4.104   2.723  12.562  0.3559 -1.1019 -0.4664
 1872SOL    HW217079   4.038   2.735  12.429 -1.4261 -0.3213 -0.5513
 1873SOL     OW17080   3.107   4.483  17.078  0.0242 -0.0938 -0.0663
 1873SOL    HW117081   3.105   4.474  16.982  1.2547 -1.3034  0.0205
 1873SOL    HW217082   3.056   4.563  17.075 -0.5106 -0.4537 -0.4726
 1874SOL     OW17083   2.039   1.401  12.099 -0.2719 -0.1753 -0.1152
 1874SOL    HW117084   2.075   1.312  12.107  2.2941  0.7540 -1.3163
 1874SOL    HW217085   2.001   1.398  12.011  1.0543  1.5280 -0.7410
 1875SOL     OW17086   2.366   4.609   4.661 -0.2218 -0.7153 -0.0734
 1875SOL    HW117087   2.299   4.633   4.725  0.5938  1.9144 -0.1894
 1875SOL    HW217088   2.392   4.523   4.694 -0.7107 -0.3158  1.3696
 1876SOL     OW17089   4.584   0.898   8.865 -0.2193  0.3736 -0.2594
 1876SOL    HW117090   4.532   0.914   8.944 -0.9867  0.7178 -0.8386
 1876SOL    HW217091   4.528   0.843   8.811 -0.6529  1.9401 -1.4065
 1877SOL     OW17092   3.518   1.024   2.710  0.0228  0.1954 -0.4697
 1877SOL    HW117093   3.434   0.980   2.722 -0.1815  1.4158  2.5031
 1877SOL    HW217094   3.501   1.111   2.673  1.0869  1.1905  1.3950
 1878SOL     OW17095   3.916   3.508   1.711 -0.3311  0.1611 -0.0497
 1878SOL    HW117096   3.826   3.516   1.743 -0.4828 -2.2205  0.1112
 1878SOL    HW217097   3.906   3.479   1.620  1.5398  1.8499 -0.8088
 1879SOL     OW17098   2.274   2.765  15.952 -0.4328  0.0262 -0.4978
 1879SOL    HW117099   2.249   2.819  15.877 -1.5521 -0.6222 -0.5912
 1879SOL    HW217100   2.244   2.829  16.016  0.2627 -0.8162  0.6617
 1880SOL     OW17101   1.349   2.706  12.207 -0.3312 -0.3444  0.1276
 1880SOL    HW117102   1.416   2.752  12.258  0.7827 -0.7379 -0.9722
 1880SOL    HW217103   1.324   2.762  12.135 -1.3570  0.5996  1.2190
 1881SOL     OW17104   2.793   0.749   7.449  0.2449  0.0955  0.0631
 1881SOL    HW117105   2.737   0.813   7.406 -0.1363  1.1079  2.0816
 1881SOL    HW217106   2.809   0.680   7.385 -2.0097  0.0862 -0.4717
 1882SOL     OW17107   3.686   1.759   9.525  0.4910  0.1757  0.8748
 1882SOL    HW117108   3.704   1.850   9.548 -1.2674  0.6172  0.4695
 1882SOL    HW217109   3.626   1.766   9.450 -0.7034 -0.0116  1.8246
 1883SOL     OW17110   4.592   1.567  12.503 -0.6947  0.3664 -0.4344
 1883SOL    HW117111   4.583   1.473  12.515 -1.2786  0.4576 -0.1663
 1883SOL    HW217112   4.638   1.578  12.420  1.4627 -0.4142  0.6389
 1884SOL     OW17113   0.986   1.199   2.024  0.3520  0.9243  0.1254
 1884SOL    HW117114   0.923   1.180   1.954 -1.1930 -0.4882  1.9033
 1884SOL    HW217115   1.067   1.172   1.981  0.4581  1.8381 -0.2543
 1885SOL     OW17116   3.108   1.775  15.401  0.2082  0.3924 -0.2401
 1885SOL    HW117117   3.034   1.833  15.420  1.0242  0.6807  2.0453
 1885SOL    HW217118   3.182   1.800  15.457  0.3439  0.6570 -0.5345
 1886SOL     OW17119   2.361   0.173  11.795  0.2462 -0.4438  0.5270
 1886SOL    HW117120   2.268   0.173  11.772  0.0876  0.7956  1.1645
 1886SOL    HW217121   2.374   0.258  11.837  1.1953  0.2376 -1.1244
 1887SOL     OW17122   2.289   0.708   3.753 -0.3499  0.0486  0.1412
 1887SOL    HW117123   2.314   0.633   3.700 -1.9345 -1.8042  2.0443
 1887SOL    HW217124   2.296   0.771   3.680  0.4087 -0.0108  0.1571
 1888SOL     OW17125   3.952   3.255   2.681  0.2437  0.8452 -0.3501
 1888SOL    HW117126   3.955   3.257   2.586  0.9039 -2.3930 -0.3742
 1888SOL    HW217127   3.974   3.168   2.713  3.4208  2.0011  0.6040
 1889SOL     OW17128   3.484   3.964   7.261  0.0472 -0.5385 -0.2821
 1889SOL    HW117129   3.391   3.986   7.254  0.0719 -0.3116  0.1224
 1889SOL    HW217130   3.511   3.992   7.349 -0.0206 -0.6431 -0.2277
 1890SOL     OW17131   0.072   4.026   1.995  0.6839 -0.0429  0.3551
 1890SOL    HW117132   0.133   3.992   1.930 -0.0395  0.5133 -0.6178
 1890SOL    HW217133   0.123   4.048   2.073  2.5548  1.2171 -1.2244
 1891SOL     OW17134   3.487   0.251   7.725  0.1141  0.0446  0.0548
 1891SOL    HW117135   3.513   0.221   7.812 -0.6021 -1.4624 -0.2446
 1891SOL    HW217136   3.557   0.225   7.665  0.6786  0.1485  0.6749
 1892SOL     OW17137   1.007   2.715   9.693 -0.7911 -0.0278 -0.1417
 1892SOL    HW117138   1.084   2.750   9.647 -0.3885 -0.6443  0.0581
 1892SOL    HW217139   0.956   2.701   9.613  1.1882 -1.4071 -1.1696
 1893SOL     OW17140   1.688   4.307   5.992  0.4573 -0.6149 -0.1383
 1893SOL    HW117141   1.758   4.272   6.047  0.0492 -2.0815 -0.5596
 1893SOL    HW217142   1.663   4.227   5.946  0.1611  0.0770 -1.1695
 1894SOL     OW17143   3.821   3.562   0.297 -0.1074  0.0991  0.4939
 1894SOL    HW117144   3.908   3.527   0.319 -0.2823 -0.6294  0.0152
 1894SOL    HW217145   3.802   3.515   0.216 -0.4657 -0.0632  0.6721
 1895SOL     OW17146   3.900   0.930  16.931 -0.6303  0.0698  0.4029
 1895SOL    HW117147   3.895   0.865  17.000  1.2316 -2.7278 -2.0787
 1895SOL    HW217148   3.968   0.989  16.964 -1.1641  0.6166  0.5423
 1896SOL     OW17149   0.308   0.738   6.911 -0.1722 -0.0282  0.0063
 1896SOL    HW117150   0.308   0.645   6.932  0.2791  0.1851  0.9574
 1896SOL    HW217151   0.321   0.784   6.994  0.8614 -1.5365  0.6836
 1897SOL     OW17152   3.320   4.288  13.153  0.3987  0.1113  0.4337
 1897SOL    HW117153   3.403   4.317  13.190 -0.8892  0.0363  3.3976
 1897SOL    HW217154   3.331   4.195  13.171 -1.1438 -0.3003 -0.6754
 1898SOL     OW17155   1.999   3.363   0.365  0.0074  0.2184 -0.3025
 1898SOL    HW117156   1.950   3.416   0.428  1.2664  1.3129 -0.2568
 1898SOL    HW217157   2.075   3.418   0.350  0.8560 -0.5371  1.2862
 1899SOL     OW17158   1.772   0.410  16.368  0.6004  0.2594  0.3724
 1899SOL    HW117159   1.814   0.356  16.434  2.0356  0.7517 -0.1256
 1899SOL    HW217160   1.839   0.402  16.300  0.2889  0.5448  0.0283
 1900SOL     OW17161   4.659   3.915   6.928  0.0988 -0.2397  0.1555
 1900SOL    HW117162   4.656   3.821   6.949 -0.1889 -0.3902 -0.5506
 1900SOL    HW217163   4.704   3.938   7.009 -0.6528  0.7677  0.2850
 1901SOL     OW17164   4.478   4.717  13.253  0.9835  0.2050  0.6158
 1901SOL    HW117165   4.497   4.662  13.328 -0.5264 -1.9043 -0.5360
 1901SOL    HW217166   4.558   4.690  13.207 -1.0621 -2.7977 -1.1911
 1902SOL     OW17167   0.229   4.390   2.785 -0.4448 -0.0930  0.5670
 1902SOL    HW117168   0.218   4.475   2.743  2.6218  0.3055  0.5462
 1902SOL    HW217169   0.200   4.335   2.712 -1.1137  0.2652  0.5602
 1903SOL     OW17170   4.035   1.846   0.586 -0.1189 -0.1673 -0.0512
 1903SOL    HW117171   4.019   1.916   0.522  0.5169 -0.1723 -0.2172
 1903SOL    HW217172   3.966   1.870   0.648  0.6606 -1.8642  1.4841
 1904SOL     OW17173   2.927   2.576   7.733  0.1256 -0.5352  0.0349
 1904SOL    HW117174   2.969   2.587   7.818 -0.6149 -0.8845  0.4530
 1904SOL    HW217175   2.903   2.667   7.716  1.1613 -0.6916 -2.2398
 1905SOL     OW17176   4.044   2.514  17.184 -0.6629 -0.0786  0.4694
 1905SOL    HW117177   4.046   2.524  17.088  1.5141 -1.9426  0.3144
 1905SOL    HW217178   3.949   2.515  17.192 -0.3644  0.7027  3.5859
 1906SOL     OW17179   3.915   0.100   7.095 -0.3622  0.2721  0.3663
 1906SOL    HW117180   3.887   0.026   7.149  1.2622  0.4764  1.4803
 1906SOL    HW217181   3.833   0.148   7.084 -0.1902  0.1675 -1.4545
 1907SOL     OW17182   3.421   1.460   3.029 -0.1583 -0.6575 -0.5316
 1907SOL    HW117183   3.368   1.381   3.018 -0.5277 -0.5814  0.7143
 1907SOL    HW217184   3.359   1.525   3.063  0.8021  1.1143 -2.1673
 1908SOL     OW17185   1.605   2.909   7.793  0.1442  0.3053  0.0137
 1908SOL    HW117186   1.642   2.831   7.835 -0.6925 -0.0715  0.0425
 1908SOL    HW217187   1.667   2.973   7.827 -1.9772  0.8278  2.9525
 1909SOL     OW17188   0.194   1.588   8.497 -0.3123  0.4149 -0.9516
 1909SOL    HW117189   0.189   1.560   8.588  0.4683 -0.0886 -1.0649
 1909SOL    HW217190   0.210   1.680   8.520  1.9239 -0.5766  1.3907
 1910SOL     OW17191   1.955   4.457   2.161  0.9697 -0.3682 -0.3024
 1910SOL    HW117192   1.984   4.423   2.076  3.0857 -2.0864  1.0795
 1910SOL    HW217193   1.860   4.454   2.157  0.9980  0.4268 -1.6180
 1911SOL     OW17194   0.157   3.131  10.186  0.2685 -0.5029 -0.1639
 1911SOL    HW117195   0.146   3.043  10.149 -0.0840 -0.0332 -1.1855
 1911SOL    HW217196   0.252   3.141  10.188  0.1242  0.2809  2.2954
 1912SOL     OW17197   1.760   4.411   7.481 -0.2066 -0.2967  0.5992
 1912SOL    HW117198   1.827   4.426   7.414 -0.5366  2.0605  0.7963
 1912SOL    HW217199   1.809   4.394   7.561 -0.5880  1.5937  1.2464
 1913SOL     OW17200   1.803   3.420   5.238  0.0288  0.0731  0.5124
 1913SOL    HW117201   1.759   3.489   5.189 -1.8666 -0.8549  0.8983
 1913SOL    HW217202   1.842   3.375   5.163 -0.2842 -0.7316  0.8293
 1914SOL     OW17203   4.713   2.840  11.453 -0.0668  0.1177  0.3505
 1914SOL    HW117204   4.714   2.778  11.526 -0.5927 -0.3650 -0.0480
 1914SOL    HW217205   0.029   2.794  11.381  0.4265  1.0503  0.0429
 1915SOL     OW17206   4.676   2.756   4.485 -0.2244 -0.3288 -0.2897
 1915SOL    HW117207   4.720   2.756   4.569  0.2726  0.6322 -0.5505
 1915SOL    HW217208   4.590   2.731   4.520 -0.6214  1.1419 -0.2137
 1916SOL     OW17209   2.149   0.063  15.810  0.2037  0.6015  0.0018
 1916SOL    HW117210   2.201   0.045  15.732  0.2492 -2.3542  0.7080
 1916SOL    HW217211   2.146   0.159  15.801 -2.3738  0.4724 -0.7093
 1917SOL     OW17212   4.168   2.864   2.653 -0.4845 -0.1684 -0.2240
 1917SOL    HW117213   4.251   2.841   2.694 -0.8629  0.1464  0.7110
 1917SOL    HW217214   4.190   2.880   2.561 -0.8612  1.0868 -0.0928
 1918SOL     OW17215   3.071   1.465  10.381  0.5015 -0.0902  0.4836
 1918SOL    HW117216   3.165   1.483  10.377  1.1345 -2.9429  2.7867
 1918SOL    HW217217   3.038   1.554  10.364  2.1702  0.6517  1.1317
 1919SOL     OW17218   0.186   4.266  16.916  0.4058 -0.9195 -0.2545
 1919SOL    HW117219   0.092   4.252  16.900  0.5483 -1.8708 -0.2402
 1919SOL    HW217220   0.171   4.334  16.982  1.1933 -1.8703  0.9016
 1920SOL     OW17221   1.382   1.382   5.282 -0.6576 -0.5242 -0.1424
 1920SOL    HW117222   1.407   1.469   5.251 -1.2727 -0.8158 -1.4600
 1920SOL    HW217223   1.333   1.407   5.360  0.2616  0.6395  0.0546
 1921SOL     OW17224   2.146   1.763   4.281 -0.0380 -0.2562 -0.0211
 1921SOL    HW117225   2.141   1.708   4.359 -1.2460 -0.0572  0.0463
 1921SOL    HW217226   2.141   1.850   4.322 -0.4342 -0.4543  0.3447
 1922SOL     OW17227   2.747   3.772   7.582 -0.3303 -0.1923 -0.0348
 1922SOL    HW117228   2.700   3.695   7.611 -1.6249  1.3852  2.0048
 1922SOL    HW217229   2.732   3.778   7.487 -0.7681  0.8998  0.0977
 1923SOL     OW17230   2.504   2.621   3.154  0.7735 -0.3311  0.5924
 1923SOL    HW117231   2.411   2.636   3.135  0.9932  2.0774  1.3161
 1923SOL    HW217232   2.530   2.712   3.174 -1.1683  0.8775 -2.4235
 1924SOL     OW17233   4.632   1.469   8.539 -0.7068 -0.3679 -0.1185
 1924SOL    HW117234   4.682   1.425   8.470  2.1604  2.9868 -0.2086
 1924SOL    HW217235   4.606   1.394   8.593 -0.5655 -0.2622  0.0961
 1925SOL     OW17236   3.406   3.482   1.113  0.7177 -0.0106 -0.3167
 1925SOL    HW117237   3.397   3.467   1.018 -0.1983 -2.0118  0.0785
 1925SOL    HW217238   3.451   3.402   1.139 -0.7455 -0.4749  0.7666
 1926SOL     OW17239   3.186   0.160  11.857 -0.7483 -0.0210 -0.5158
 1926SOL    HW117240   3.278   0.137  11.848 -0.6587  0.1672 -0.0755
 1926SOL    HW217241   3.184   0.177  11.952 -0.9919 -0.2398 -0.4816
 1927SOL     OW17242   1.178   3.445   6.788 -0.2890 -0.3063 -0.6446
 1927SOL    HW117243   1.177   3.532   6.749  0.6569  0.2550  0.5506
 1927SOL    HW217244   1.164   3.479   6.877  0.3585  0.1248 -0.7050
 1928SOL     OW17245   1.377   0.251   4.316  0.3705 -0.2441 -0.3705
 1928SOL    HW117246   1.318   0.267   4.390  0.6541 -0.9170 -0.0036
 1928SOL    HW217247   1.417   0.338   4.322 -0.6636  0.3301 -1.7420
 1929SOL     OW17248   4.625   2.819   2.836 -0.3441  0.5011  0.0203
 1929SOL    HW117249   4.635   2.878   2.911  1.2980 -1.4788  1.3846
 1929SOL    HW217250   4.669   2.865   2.764  1.0321 -4.6715 -2.4112
 1930SOL     OW17251   1.625   4.477   6.609 -0.2622  0.0470 -0.0394
 1930SOL    HW117252   1.692   4.437   6.554  0.0587  0.3355  0.1465
 1930SOL    HW217253   1.642   4.569   6.592 -1.3721 -0.0563 -1.6961
 1931SOL     OW17254   3.443   0.813  13.046 -0.5457  0.4848 -0.5129
 1931SOL    HW117255   3.411   0.797  13.135  0.0260 -2.2581 -0.7782
 1931SOL    HW217256   3.531   0.778  13.032  0.6227  3.0774  0.4109
 1932SOL     OW17257   0.342   2.596  10.387 -0.1427  0.2457 -0.1246
 1932SOL    HW117258   0.319   2.553  10.469  5.0410 -4.1538 -0.9893
 1932SOL    HW217259   0.263   2.595  10.334  1.3826  1.4706 -2.4646
 1933SOL     OW17260   3.251   3.228   3.190 -0.3135  0.0822  0.0458
 1933SOL    HW117261   3.262   3.186   3.276  0.8559 -2.3293 -1.3041
 1933SOL    HW217262   3.280   3.319   3.204 -3.5963  0.9520  1.0636
 1934SOL     OW17263   1.844   1.787  12.349  0.4439 -0.3727  0.0229
 1934SOL    HW117264   1.796   1.858  12.305  0.0601  0.2971  1.5222
 1934SOL    HW217265   1.844   1.815  12.441 -0.1291  0.3684 -0.1957
 1935SOL     OW17266   0.133   1.439  15.449  0.0083 -0.2363 -0.4682
 1935SOL    HW117267   0.092   1.449  15.363  0.2990  1.5207 -0.4031
 1935SOL    HW217268   0.221   1.469  15.427 -0.3255  0.5309 -0.7341
 1936SOL     OW17269   3.154   4.589   7.051 -0.4156 -0.1368  0.5553
 1936SOL    HW117270   3.182   4.609   7.140  2.6070 -1.3360 -0.1484
 1936SOL    HW217271   3.179   4.497   7.040 -2.0904 -0.8989  3.1934
 1937SOL     OW17272   1.532   0.574   2.670  0.3572  0.0641 -0.0219
 1937SOL    HW117273   1.494   0.491   2.700  2.9555 -0.5960  1.5247
 1937SOL    HW217274   1.508   0.566   2.578  0.3359 -1.6740  0.1212
 1938SOL     OW17275   1.687   2.049   6.312 -0.2467 -0.0028 -0.4618
 1938SOL    HW117276   1.772   2.090   6.325 -1.0499  1.3511  0.5961
 1938SOL    HW217277   1.708   2.012   6.227 -0.2373 -1.7775  0.3075
 1939SOL     OW17278   2.244   3.966   9.513  0.1114 -0.7493  0.3082
 1939SOL    HW117279   2.310   4.023   9.551  0.9364  0.3918 -2.8605
 1939SOL    HW217280   2.226   4.014   9.432 -1.0643 -1.0911  0.3547
 1940SOL     OW17281   3.802   2.207  17.087  0.0867 -0.0017 -0.0037
 1940SOL    HW117282   3.824   2.165  17.171 -1.9659 -0.7206  0.1620
 1940SOL    HW217283   3.886   2.246  17.061 -0.1166 -0.2968 -1.1083
 1941SOL     OW17284   1.603   1.565  13.068 -0.7065 -0.0466 -0.4090
 1941SOL    HW117285   1.526   1.515  13.042 -0.3373 -1.6289  1.5862
 1941SOL    HW217286   1.628   1.532  13.154 -1.6595 -1.3280 -0.6305
 1942SOL     OW17287   0.181   1.202  16.876 -0.0883 -0.0955 -0.7983
 1942SOL    HW117288   0.143   1.250  16.802 -1.3773 -2.2206 -1.5322
 1942SOL    HW217289   0.197   1.117  16.835 -1.2145 -2.0223  2.7780
 1943SOL     OW17290   3.740   2.626  11.454 -0.8744 -0.4847 -0.6399
 1943SOL    HW117291   3.774   2.580  11.532 -1.9051  0.9461  0.6332
 1943SOL    HW217292   3.699   2.700  11.498  1.3400  1.3925 -1.7449
 1944SOL     OW17293   4.300   4.543  14.397 -0.4021 -0.6704 -0.1238
 1944SOL    HW117294   4.253   4.463  14.376  0.9148 -1.5721  0.3757
 1944SOL    HW217295   4.240   4.602  14.352 -1.7874 -2.8718 -1.1169
 1945SOL     OW17296   4.290   3.533  12.782 -0.1537 -0.2924  0.1592
 1945SOL    HW117297   4.330   3.597  12.723  0.4836 -1.0166 -0.2045
 1945SOL    HW217298   4.272   3.455  12.729  2.1743 -0.3180 -0.6094
 1946SOL     OW17299   0.571   2.486   5.978 -0.1089 -0.0208  0.1652
 1946SOL    HW117300   0.543   2.404   5.936  0.6661 -0.8846  1.3508
 1946SOL    HW217301   0.665   2.488   5.965  0.0995  2.4774  2.2256
 1947SOL     OW17302   2.224   0.348   6.247  0.3646 -0.1481  0.1157
 1947SOL    HW117303   2.293   0.289   6.276 -1.4911 -2.6775 -0.6249
 1947SOL    HW217304   2.260   0.384   6.166 -1.8792 -0.8158 -1.1920
 1948SOL     OW17305   3.041   3.635   1.897 -0.2331 -0.2933 -0.4100
 1948SOL    HW117306   3.113   3.615   1.956  0.4306  0.7997 -0.8563
 1948SOL    HW217307   2.971   3.583   1.937  0.1459  0.0010  0.6366
 1949SOL     OW17308   1.423   2.241  15.908  0.5817 -0.4421 -0.8753
 1949SOL    HW117309   1.388   2.183  15.840 -0.1464  0.7619 -1.5240
 1949SOL    HW217310   1.357   2.309  15.914  1.3598  0.2320 -0.0696
 1950SOL     OW17311   3.699   4.571   7.549 -0.0037  0.0527  0.0057
 1950SOL    HW117312   3.604   4.585   7.547  0.2752  1.7664 -1.1541
 1950SOL    HW217313   3.718   4.478   7.554 -1.0847 -0.3609 -3.6680
 1951SOL     OW17314   2.833   1.156   7.207  0.1161 -0.4054  0.3814
 1951SOL    HW117315   2.778   1.178   7.131  0.7096  0.2646  0.1500
 1951SOL    HW217316   2.842   1.239   7.253  1.8705 -0.4013  0.0305
 1952SOL     OW17317   3.443   4.583  11.586 -0.5202  0.2652 -0.3811
 1952SOL    HW117318   3.389   4.568  11.509  1.0408 -2.9201 -0.8489
 1952SOL    HW217319   3.400   4.539  11.660  0.0670  1.2448  0.5518
 1953SOL     OW17320   2.939   1.779   4.103  0.1740 -0.2445  0.5239
 1953SOL    HW117321   2.880   1.824   4.043  1.0637  0.3496  0.0980
 1953SOL    HW217322   2.878   1.726   4.155 -0.4142  1.8941  2.0116
 1954SOL     OW17323   4.074   3.689   1.233  0.6564 -0.1465  0.3216
 1954SOL    HW117324   4.085   3.772   1.186 -0.0759  0.7500  1.7219
 1954SOL    HW217325   4.072   3.724   1.322  1.2195 -0.5616  0.5022
 1955SOL     OW17326   0.854   4.410  14.622  0.2704 -0.4146 -0.2264
 1955SOL    HW117327   0.925   4.379  14.566  0.3822 -1.0769  0.2842
 1955SOL    HW217328   0.769   4.373  14.598  0.3612 -0.2335 -0.8121
 1956SOL     OW17329   3.116   1.963  13.500  0.3188  0.1778  0.3032
 1956SOL    HW117330   3.113   1.939  13.592  0.8435 -1.2150 -0.0226
 1956SOL    HW217331   3.186   1.903  13.473 -0.5359 -0.2098 -1.0666
 1957SOL     OW17332   2.197   1.187   5.072  0.1660  0.2083  0.6019
 1957SOL    HW117333   2.260   1.210   5.004 -1.6195  0.2749 -1.0178
 1957SOL    HW217334   2.156   1.270   5.095  0.2864  0.2224  0.7666
 1958SOL     OW17335   1.849   0.864   0.453  0.0157  0.3504 -0.1950
 1958SOL    HW117336   1.781   0.858   0.520  0.1728 -0.7718 -0.1358
 1958SOL    HW217337   1.803   0.919   0.389  0.2595 -0.4809 -1.0801
 1959SOL     OW17338   0.961   2.367  10.384  0.3658 -0.2028 -0.5845
 1959SOL    HW117339   0.990   2.353  10.474  2.7730  2.2204 -0.9746
 1959SOL    HW217340   1.040   2.333  10.342  0.9199 -0.0513  0.3498
 1960SOL     OW17341   1.780   0.423   7.225  0.6078  0.1120 -0.6205
 1960SOL    HW117342   1.701   0.445   7.274  0.5798  0.8680 -1.0062
 1960SOL    HW217343   1.843   0.453   7.291  0.0544  2.4378 -1.1691
 1961SOL     OW17344   2.966   0.204   4.438 -0.8194  1.1332 -0.6738
 1961SOL    HW117345   2.873   0.224   4.434 -0.8131  1.3331  0.3746
 1961SOL    HW217346   2.958   0.109   4.447 -0.1458  1.1402  0.0314
 1962SOL     OW17347   3.440   2.634  10.067 -0.4369 -0.2370 -0.2701
 1962SOL    HW117348   3.356   2.599  10.038 -0.0833 -0.0440 -1.5160
 1962SOL    HW217349   3.439   2.619  10.162  0.9470 -0.9034 -0.3707
 1963SOL     OW17350   2.558   3.620   5.939  0.8370  0.0567 -0.1074
 1963SOL    HW117351   2.518   3.572   6.011 -0.0859  3.1050  1.4161
 1963SOL    HW217352   2.626   3.667   5.989  0.6856  0.9351 -0.7308
 1964SOL     OW17353   0.281   2.269  10.093 -0.1388  0.1647 -0.5165
 1964SOL    HW117354   0.310   2.262  10.002 -0.0791 -0.7311 -0.4354
 1964SOL    HW217355   0.335   2.334  10.137 -1.8897  1.3779 -0.1656
 1965SOL     OW17356   4.033   3.110   0.049  0.1211 -0.2095  0.0624
 1965SOL    HW117357   4.114   3.104  17.703  0.5727 -0.6895  0.8312
 1965SOL    HW217358   4.031   3.019   0.076  1.2920  0.6112  2.9017
 1966SOL     OW17359   2.685   3.386  17.644 -0.7598  0.0068  0.0015
 1966SOL    HW117360   2.668   3.374   0.031 -0.2301 -1.5125 -0.0960
 1966SOL    HW217361   2.718   3.300  17.617 -1.0143 -0.4177  1.0214
 1967SOL     OW17362   3.977   4.715  12.609  0.0553 -0.3659  0.0880
 1967SOL    HW117363   3.888   4.717  12.642 -0.4753 -1.2277 -1.3113
 1967SOL    HW217364   3.986   0.065  12.551  2.6734  0.3379  1.3850
 1968SOL     OW17365   3.568   1.574   3.257 -0.2307  0.1941  0.1406
 1968SOL    HW117366   3.577   1.668   3.240 -0.9905  0.3780  0.7257
 1968SOL    HW217367   3.535   1.541   3.174  1.6339 -1.1019 -0.0782
 1969SOL     OW17368   0.025   2.982   5.368 -0.2804 -0.1458  1.0815
 1969SOL    HW117369   0.032   3.077   5.363  0.6075 -0.1703  1.8500
 1969SOL    HW217370   4.666   2.975   5.411 -0.9797 -1.8198 -0.6093
 1970SOL     OW17371   1.331   1.595   4.365 -0.0336 -0.0185  0.5071
 1970SOL    HW117372   1.356   1.518   4.314  1.9910  0.3926  0.8850
 1970SOL    HW217373   1.248   1.560   4.398  0.7463 -0.5831  1.8322
 1971SOL     OW17374   4.056   4.615  13.864 -0.2715  0.1443  0.1077
 1971SOL    HW117375   4.022   4.551  13.927  1.0952  0.3403  1.0459
 1971SOL    HW217376   3.977   4.654  13.828 -1.4837 -1.1303  1.3689
 1972SOL     OW17377   0.582   0.792   3.447  0.1378 -0.0776 -0.0176
 1972SOL    HW117378   0.552   0.720   3.391 -0.1063  0.6719 -0.8453
 1972SOL    HW217379   0.568   0.868   3.390  2.9456  0.0026 -0.6490
 1973SOL     OW17380   2.939   3.288  11.089 -0.1077 -0.3667  0.4185
 1973SOL    HW117381   2.856   3.283  11.136  0.2368 -2.6122  0.8135
 1973SOL    HW217382   2.911   3.256  11.004 -0.6489  6.4124 -1.9381
 1974SOL     OW17383   0.327   0.207   0.739 -0.2246  0.0396  0.1305
 1974SOL    HW117384   0.326   0.279   0.802 -2.6571 -1.1967  1.5341
 1974SOL    HW217385   0.257   0.225   0.675 -2.6752 -3.4447  1.8141
 1975SOL     OW17386   2.442   3.756   7.250 -0.3434 -0.0904  0.4496
 1975SOL    HW117387   2.447   3.662   7.266  2.3396 -0.4931 -2.5171
 1975SOL    HW217388   2.387   3.753   7.171 -2.9009 -0.3795  2.2660
 1976SOL     OW17389   1.116   3.918   5.176  0.2230 -0.0777  0.3758
 1976SOL    HW117390   1.206   3.885   5.171 -0.7203 -2.4860 -0.3965
 1976SOL    HW217391   1.114   3.941   5.269  1.0770  0.3849  0.2881
 1977SOL     OW17392   0.728   0.023   0.080 -0.1816  0.1769  0.1414
 1977SOL    HW117393   0.759   0.089   0.018 -1.6675 -1.2026 -2.0394
 1977SOL    HW217394   0.764   0.064   0.159  2.8883  1.0173 -1.6959
 1978SOL     OW17395   0.392   1.251   5.272  1.0420  0.1345 -0.1538
 1978SOL    HW117396   0.424   1.258   5.362  0.0117 -0.2431  0.2418
 1978SOL    HW217397   0.424   1.168   5.239  2.0024  0.8337 -0.9732
 1979SOL     OW17398   2.548   3.816   2.339  0.0893 -0.6575 -0.1797
 1979SOL    HW117399   2.613   3.874   2.378 -0.2746 -1.0787  1.0312
 1979SOL    HW217400   2.497   3.884   2.295  1.5217  0.5871  0.1024
 1980SOL     OW17401   1.219   3.091   6.709 -0.2264 -0.2774  0.2525
 1980SOL    HW117402   1.258   3.148   6.643 -0.3000 -0.2000  0.2748
 1980SOL    HW217403   1.124   3.090   6.700 -0.3049  2.1913  0.6961
 1981SOL     OW17404   1.089   1.565   8.129  0.1808 -0.1050  0.3737
 1981SOL    HW117405   1.086   1.660   8.132 -2.0131 -0.1434 -1.2127
 1981SOL    HW217406   1.168   1.549   8.078 -0.5937  0.9926 -1.1465
 1982SOL     OW17407   4.085   4.720  12.841  0.1997 -0.4994  0.0393
 1982SOL    HW117408   4.059   0.009  12.750  0.9531  0.5146 -0.0050
 1982SOL    HW217409   4.161   4.662  12.838  1.8109  1.6922 -1.3584
 1983SOL     OW17410   3.820   3.710  11.565  0.2526 -0.2157  1.0303
 1983SOL    HW117411   3.787   3.776  11.626  0.0142  2.7579 -2.3373
 1983SOL    HW217412   3.763   3.728  11.491  0.1422 -2.0675  0.6553
 1984SOL     OW17413   2.423   1.821   4.798 -0.3150 -0.1184  0.5923
 1984SOL    HW117414   2.483   1.895   4.795  2.1494 -2.2406 -1.2073
 1984SOL    HW217415   2.410   1.787   4.887  1.3135 -2.0889  0.0693
 1985SOL     OW17416   4.473   0.784   3.698  0.1085 -0.0104 -0.1387
 1985SOL    HW117417   4.389   0.738   3.703  1.4387 -2.3978 -0.0674
 1985SOL    HW217418   4.499   0.781   3.606 -0.3130 -3.3237 -0.1500
 1986SOL     OW17419   0.357   1.847   6.040 -0.3517  0.0051 -0.4273
 1986SOL    HW117420   0.265   1.870   6.028 -0.4380 -0.9968 -1.7236
 1986SOL    HW217421   0.364   1.853   6.135 -1.1715 -1.9614 -0.2248
 1987SOL     OW17422   0.378   1.962  15.207  0.7122  0.1797  0.5690
 1987SOL    HW117423   0.332   2.035  15.167 -0.6643 -0.7297  0.4990
 1987SOL    HW217424   0.307   1.898  15.200 -0.6748  1.8747 -0.5425
 1988SOL     OW17425   3.293   1.064   3.746 -0.2350  0.4607 -0.4520
 1988SOL    HW117426   3.288   1.076   3.651  1.7562  1.5991 -0.4229
 1988SOL    HW217427   3.388   1.073   3.747 -0.4080  2.1336  0.1361
 1989SOL     OW17428   3.842   0.610   8.567  0.8456 -0.2252  0.0028
 1989SOL    HW117429   3.792   0.529   8.550  0.6672 -0.2353  0.5683
 1989SOL    HW217430   3.859   0.640   8.478  0.8589 -0.2307  0.0035
 1990SOL     OW17431   4.077   1.668  13.272 -0.1704 -0.2615 -0.2272
 1990SOL    HW117432   4.092   1.575  13.289 -0.0369  0.0629  1.4191
 1990SOL    HW217433   4.026   1.689  13.350 -1.9976  0.6416 -1.6515
 1991SOL     OW17434   1.965   4.072   2.059 -0.4897 -0.3970  0.1514
 1991SOL    HW117435   1.980   4.144   1.998 -0.6615 -0.7224 -0.2739
 1991SOL    HW217436   1.877   4.043   2.034 -0.4385  0.8633 -1.5164
 1992SOL     OW17437   2.120   0.269   5.754  0.2755  0.4649  0.0726
 1992SOL    HW117438   2.064   0.296   5.680 -0.3682 -3.4225 -0.8494
 1992SOL    HW217439   2.192   0.222   5.713 -0.1534  1.1849 -1.5289
 1993SOL     OW17440   1.835   2.375  13.130  0.8336 -1.3166 -0.3135
 1993SOL    HW117441   1.903   2.379  13.063  0.4400  0.8354 -0.5866
 1993SOL    HW217442   1.831   2.281  13.147  0.2546 -0.9475  1.6423
 1994SOL     OW17443   0.557   4.579   6.432  0.4304  0.2736  0.3797
 1994SOL    HW117444   0.609   4.564   6.352 -0.0733  2.6904 -0.3928
 1994SOL    HW217445   0.553   4.674   6.429  1.5755  0.4032  3.2761
 1995SOL     OW17446   2.861   2.619  12.659 -0.0014 -0.7674 -0.6392
 1995SOL    HW117447   2.838   2.679  12.588 -1.7147 -0.0360  0.5662
 1995SOL    HW217448   2.950   2.592  12.637 -0.0200  0.2627 -1.9850
 1996SOL     OW17449   0.126   0.937   8.775  0.3739  0.1671  0.2493
 1996SOL    HW117450   0.115   1.013   8.833  1.2715  1.5051 -1.3556
 1996SOL    HW217451   0.046   0.893   8.804 -0.3629  1.2743 -0.0943
 1997SOL     OW17452   0.765   4.507  12.575 -0.2428 -0.4339 -0.2855
 1997SOL    HW117453   0.836   4.570  12.569  1.1276 -1.7297  2.2156
 1997SOL    HW217454   0.736   4.504  12.666 -0.8276 -1.8221 -0.5140
 1998SOL     OW17455   2.532   2.232   9.089 -0.3407  0.1702  0.0442
 1998SOL    HW117456   2.570   2.145   9.085 -0.0942  0.2599  0.4055
 1998SOL    HW217457   2.439   2.220   9.067 -0.4383  1.5450 -0.3199
 1999SOL     OW17458   4.199   3.875   0.011 -0.3341 -1.0307  0.5367
 1999SOL    HW117459   4.152   3.862  17.635  0.6177 -1.4760  0.0589
 1999SOL    HW217460   4.287   3.872  17.679  0.5946  2.7275  2.3866
 2000SOL     OW17461   0.469   2.717   6.121 -0.2614 -0.2996  0.3303
 2000SOL    HW117462   0.477   2.627   6.152 -0.3869 -1.1279 -2.0802
 2000SOL    HW217463   0.534   2.728   6.051  1.7397 -0.6878  2.1410
 2001SOL     OW17464   0.134   4.664   2.791  0.8207  0.1511 -0.4231
 2001SOL    HW117465   0.086   0.020   2.784 -0.0612 -0.3419 -0.1409
 2001SOL    HW217466   0.094   4.613   2.861 -0.4105  1.7852  0.0393
 2002SOL     OW17467   1.024   0.426   8.353 -0.5234  0.0070  0.6236
 2002SOL    HW117468   0.940   0.382   8.364  0.0179 -2.5135 -4.9548
 2002SOL    HW217469   1.074   0.345   8.339 -0.7731 -0.3159  1.6526
 2003SOL     OW17470   0.984   3.922  17.274  0.8185  0.0223 -0.6311
 2003SOL    HW117471   1.047   3.851  17.269  0.9625  0.2030 -1.4561
 2003SOL    HW217472   0.916   3.877  17.224  0.6538  0.2225 -0.5910
 2004SOL     OW17473   0.635   3.731   2.122 -0.3864 -0.3432 -0.3001
 2004SOL    HW117474   0.626   3.826   2.130 -1.3797 -0.4189 -0.6045
 2004SOL    HW217475   0.588   3.730   2.039  0.9140 -1.4843 -1.0127
 2005SOL     OW17476   1.705   1.489   5.639  0.1845  0.3593 -0.7055
 2005SOL    HW117477   1.664   1.518   5.557 -2.2869 -2.2634 -0.3699
 2005SOL    HW217478   1.700   1.571   5.688 -1.5046 -0.5926  0.6798
 2006SOL     OW17479   1.257   3.626   7.923  0.0097  0.1719 -0.0710
 2006SOL    HW117480   1.326   3.576   7.968  2.0658  1.0898 -2.2465
 2006SOL    HW217481   1.193   3.557   7.904  0.4712  0.2040 -1.7181
 2007SOL     OW17482   4.110   4.490   5.940 -0.2349 -0.7282  0.1672
 2007SOL    HW117483   4.186   4.546   5.954 -0.8584 -0.1141  1.0904
 2007SOL    HW217484   4.074   4.483   6.029 -0.8656  1.6044  0.0809
 2008SOL     OW17485   2.231   0.588   8.858  0.1789  0.4057 -0.1682
 2008SOL    HW117486   2.230   0.684   8.864  2.3298  0.4503 -0.6764
 2008SOL    HW217487   2.324   0.569   8.869 -0.4930 -2.5109  0.3871
 2009SOL     OW17488   3.948   2.485   7.740 -0.1712 -0.4548  0.2873
 2009SOL    HW117489   3.908   2.400   7.760 -0.6516 -0.8197 -2.2741
 2009SOL    HW217490   3.996   2.507   7.820 -0.1075  0.4123  0.0152
 2010SOL     OW17491   1.561   1.082  15.849 -0.4954 -0.1576 -0.0824
 2010SOL    HW117492   1.596   1.136  15.778 -0.1711 -0.3672 -0.0843
 2010SOL    HW217493   1.499   1.144  15.886 -1.6418  0.2519 -2.7383
 2011SOL     OW17494   3.688   0.221   1.137 -0.3520  0.4866  0.2564
 2011SOL    HW117495   3.755   0.245   1.201  0.0218  1.1251 -0.3794
 2011SOL    HW217496   3.634   0.298   1.123  0.1785  0.7733 -0.1995
 2012SOL     OW17497   3.128   3.088   3.985  0.3473 -0.1657  0.2739
 2012SOL    HW117498   3.196   3.022   4.000  0.2903 -0.4710 -0.7824
 2012SOL    HW217499   3.131   3.137   3.902 -0.4495  0.6415  0.7272
 2013SOL     OW17500   1.548   0.967   5.804 -0.2668 -0.1671  0.2653
 2013SOL    HW117501   1.560   0.943   5.896  0.9451  1.2569  0.4765
 2013SOL    HW217502   1.539   1.062   5.796 -0.8825 -0.4073 -1.8960
 2014SOL     OW17503   4.120   1.609   2.627 -0.7590  0.0007 -0.0968
 2014SOL    HW117504   4.204   1.593   2.670 -1.4473  2.6794  2.1980
 2014SOL    HW217505   4.131   1.558   2.546 -2.6123  1.3365 -1.2012
 2015SOL     OW17506   2.504   3.501  11.132 -0.0328  0.8888 -0.5147
 2015SOL    HW117507   2.540   3.590  11.131  2.3128 -0.0468  1.1697
 2015SOL    HW217508   2.436   3.505  11.199 -1.2302 -2.1734 -1.5662
 2016SOL     OW17509   4.617   4.200  17.259  0.6166 -0.2975 -0.4094
 2016SOL    HW117510   4.682   4.256  17.216  0.7031 -0.0924 -0.0120
 2016SOL    HW217511   4.608   4.129  17.196  0.4193 -0.0959 -0.6106
 2017SOL     OW17512   4.615   2.178   4.037  0.1530  0.0695 -0.5670
 2017SOL    HW117513   4.572   2.248   4.086  0.3288 -0.6753  0.6370
 2017SOL    HW217514   4.561   2.164   3.959 -0.8627 -1.0793  0.3553
 2018SOL     OW17515   1.418   3.502  11.079  0.2376  0.3908  0.5076
 2018SOL    HW117516   1.482   3.494  11.009  0.2420 -3.4351  0.9464
 2018SOL    HW217517   1.381   3.591  11.073 -0.0098  0.1974 -0.9095
 2019SOL     OW17518   0.256   2.380   6.203 -0.1913  0.3452  0.3010
 2019SOL    HW117519   0.334   2.371   6.258 -0.4422  1.6103  0.8591
 2019SOL    HW217520   0.292   2.384   6.114  1.1712 -5.8161  0.6054
 2020SOL     OW17521   3.122   4.227   9.084  0.6620  0.7820 -0.0177
 2020SOL    HW117522   3.118   4.300   9.145 -1.1017 -0.3526  1.2073
 2020SOL    HW217523   3.161   4.274   9.009  1.3050 -0.9202 -0.7599
 2021SOL     OW17524   1.134   0.920   6.334 -0.6582  0.1601 -0.6477
 2021SOL    HW117525   1.041   0.898   6.332 -0.3189 -1.3233  0.6886
 2021SOL    HW217526   1.170   0.858   6.397  1.4894  0.5692 -1.4620
 2022SOL     OW17527   4.387   3.704  17.518 -0.0034  0.0573 -0.1576
 2022SOL    HW117528   4.319   3.753  17.472 -0.2150 -0.3205 -0.2490
 2022SOL    HW217529   4.422   3.768  17.580  0.8845 -1.3065  0.7509
 2023SOL     OW17530   1.366   4.526   7.913 -0.2822  0.7324  0.0316
 2023SOL    HW117531   1.394   4.438   7.937 -0.3714  0.5641 -0.4705
 2023SOL    HW217532   1.427   4.554   7.845  0.0123  0.6536  0.2648
 2024SOL     OW17533   3.199   2.079   6.865  0.4419  0.2897 -0.5182
 2024SOL    HW117534   3.281   2.042   6.900 -1.0929 -0.8331  1.8707
 2024SOL    HW217535   3.140   2.069   6.939  0.6392  1.0805 -0.2658
 2025SOL     OW17536   0.270   3.284  10.784 -0.0204 -0.0393 -0.2743
 2025SOL    HW117537   0.221   3.363  10.763  2.3215  1.1618 -1.2816
 2025SOL    HW217538   0.359   3.315  10.800 -0.5501  0.7437  1.1530
 2026SOL     OW17539   1.266   4.565   1.018  0.4270  0.0811  0.0375
 2026SOL    HW117540   1.341   4.531   0.970  1.5348  1.1161  1.0376
 2026SOL    HW217541   1.215   4.484   1.014 -0.0135  0.4292 -1.8866
 2027SOL     OW17542   3.213   1.080   1.131  0.1558 -0.2882 -0.0990
 2027SOL    HW117543   3.218   1.057   1.224  1.1282  3.0424  0.6689
 2027SOL    HW217544   3.155   1.009   1.104  0.0645 -0.0529 -0.5175
 2028SOL     OW17545   3.842   4.419   3.792 -0.3683 -0.2027 -0.4568
 2028SOL    HW117546   3.754   4.456   3.787 -0.2214  0.4629  2.2748
 2028SOL    HW217547   3.824   4.335   3.833 -0.2097 -0.7585 -1.5239
 2029SOL     OW17548   0.115   0.390   3.231  0.0326  0.2041  0.2514
 2029SOL    HW117549   0.089   0.336   3.156  3.2014  0.1809 -0.8513
 2029SOL    HW217550   0.204   0.422   3.216 -0.0034 -0.5840 -1.5815
 2030SOL     OW17551   3.514   0.601   2.590  0.2698  0.2750  0.1257
 2030SOL    HW117552   3.536   0.589   2.682  1.2498  1.0968 -0.0060
 2030SOL    HW217553   3.560   0.683   2.574  3.5608 -1.1715  2.0728
 2031SOL     OW17554   3.993   0.301   6.769 -0.0859 -0.7217  0.6833
 2031SOL    HW117555   3.898   0.308   6.771 -0.1084 -0.0860 -1.8983
 2031SOL    HW217556   4.019   0.233   6.707 -0.4524  0.7511 -1.0936
 2032SOL     OW17557   2.166   2.659   0.394  0.3730 -0.0276 -0.1165
 2032SOL    HW117558   2.139   2.614   0.315 -0.3038 -0.9168  0.6302
 2032SOL    HW217559   2.223   2.594   0.434 -1.0428  0.1061  2.1165
 2033SOL     OW17560   1.681   3.432   8.285  0.5829  0.1352 -0.6541
 2033SOL    HW117561   1.640   3.517   8.301  1.6800  0.5200  0.0753
 2033SOL    HW217562   1.607   3.400   8.232 -0.1454  0.6675  0.0493
 2034SOL     OW17563   3.100   3.181  12.386 -0.0887 -0.6276 -0.6032
 2034SOL    HW117564   3.074   3.268  12.357  2.0961 -0.1188 -1.0326
 2034SOL    HW217565   3.149   3.141  12.314  0.0714  2.6296 -2.2835
 2035SOL     OW17566   1.774   0.380  10.260 -0.1213  0.2963 -0.3830
 2035SOL    HW117567   1.762   0.469  10.294 -1.0803  0.4040 -0.9913
 2035SOL    HW217568   1.687   0.339  10.264 -0.2422  0.5979  0.0702
 2036SOL     OW17569   0.478   1.385   8.886  0.9829 -0.3053 -0.2370
 2036SOL    HW117570   0.398   1.424   8.850  0.9500 -1.6034 -1.5887
 2036SOL    HW217571   0.438   1.304   8.917 -0.4007 -0.5586 -2.6203
 2037SOL     OW17572   1.052   3.880  12.198  0.0220 -0.4744 -0.0674
 2037SOL    HW117573   1.138   3.922  12.200 -0.4660  0.4898  0.9093
 2037SOL    HW217574   0.999   3.902  12.275  1.1439 -0.1989  0.6288
 2038SOL     OW17575   3.058   2.361  14.619  0.0060  0.5099 -0.1518
 2038SOL    HW117576   3.019   2.288  14.572  0.2022  1.5549 -1.9576
 2038SOL    HW217577   3.152   2.345  14.628  0.0493  1.0363  0.3149
 2039SOL     OW17578   3.306   4.502   2.158  0.3600 -0.2562 -0.8983
 2039SOL    HW117579   3.231   4.471   2.106  0.0814  0.8318 -1.1413
 2039SOL    HW217580   3.370   4.488   2.089 -0.5298 -1.3276 -1.5233
 2040SOL     OW17581   3.672   3.539  10.103 -0.2436  0.1419  0.0447
 2040SOL    HW117582   3.704   3.490  10.178  2.6493  0.4549 -0.9793
 2040SOL    HW217583   3.739   3.607  10.106  0.1032 -0.1674 -0.6344
 2041SOL     OW17584   4.527   0.745   6.493 -0.8741  0.2902  0.5637
 2041SOL    HW117585   4.448   0.695   6.513 -2.0537  1.6540 -0.7621
 2041SOL    HW217586   4.596   0.681   6.512  0.1275  1.4901  0.9772
 2042SOL     OW17587   0.484   3.698   2.989 -0.2102 -0.2056  0.2600
 2042SOL    HW117588   0.518   3.610   3.004 -1.0517 -0.3557  1.3098
 2042SOL    HW217589   0.520   3.721   2.903 -1.2419 -1.1150 -0.4274
 2043SOL     OW17590   1.530   0.626   7.618 -0.9985  0.6247 -0.2217
 2043SOL    HW117591   1.448   0.672   7.601 -0.4053  1.7255 -0.1530
 2043SOL    HW217592   1.521   0.593   7.708  2.2315  1.2245  0.3083
 2044SOL     OW17593   2.104   0.401  11.126  0.0880  0.2297  0.0823
 2044SOL    HW117594   2.022   0.366  11.091 -1.1354  3.5836 -0.3742
 2044SOL    HW217595   2.131   0.320  11.169  0.7712 -0.3905 -1.5130
 2045SOL     OW17596   2.801   2.979   4.095  0.1606 -0.3773  0.5520
 2045SOL    HW117597   2.812   3.053   4.036  0.8498 -0.4094  0.6350
 2045SOL    HW217598   2.737   3.012   4.158  0.2456  2.1283 -0.6750
 2046SOL     OW17599   4.660   4.383   9.486  0.0664 -0.0113  0.6790
 2046SOL    HW117600   4.572   4.372   9.450  0.6877  1.6131 -1.3732
 2046SOL    HW217601   4.645   4.403   9.578  0.1982  0.8692  0.5063
 2047SOL     OW17602   1.647   1.743   3.427  0.5985 -0.0775  0.3173
 2047SOL    HW117603   1.645   1.808   3.357  0.9810  1.5799  1.8527
 2047SOL    HW217604   1.708   1.779   3.491  0.0603  1.9380 -0.2835
 2048SOL     OW17605   0.457   2.212  15.000 -0.1006  0.0763  0.4958
 2048SOL    HW117606   0.514   2.274  14.955 -0.3729 -0.0079  0.0353
 2048SOL    HW217607   0.466   2.136  14.943 -1.0923  0.3819 -0.0743
 2049SOL     OW17608   3.724   2.192  12.318 -0.4763 -0.3215 -0.2385
 2049SOL    HW117609   3.783   2.250  12.269  0.4532  0.2124  1.5376
 2049SOL    HW217610   3.641   2.208  12.273 -2.4524 -0.7323  3.3098
 2050SOL     OW17611   4.430   3.220   4.343  0.2023 -0.0468  0.1457
 2050SOL    HW117612   4.501   3.157   4.352 -1.7166 -2.0083  1.8047
 2050SOL    HW217613   4.382   3.195   4.264 -0.7384  1.6561  0.1828
 2051SOL     OW17614   0.142   4.532   4.737 -0.1864 -0.0942 -0.6548
 2051SOL    HW117615   0.187   4.600   4.787  0.6448 -2.0858  1.3435
 2051SOL    HW217616   0.072   4.584   4.698  0.5731 -0.2244 -2.1564
 2052SOL     OW17617   3.514   3.093  15.403 -0.0825  0.2403 -0.1484
 2052SOL    HW117618   3.594   3.145  15.417  0.4692 -0.8470  0.7285
 2052SOL    HW217619   3.461   3.148  15.460 -0.3798 -0.9489  0.7094
 2053SOL     OW17620   3.633   0.915   8.139  0.3561 -0.0251  0.7785
 2053SOL    HW117621   3.577   0.989   8.117  2.1527  1.1802  0.2064
 2053SOL    HW217622   3.590   0.855   8.201  0.7993  0.5183  1.6200
 2054SOL     OW17623   0.122   1.365   6.484 -0.1796 -0.5011 -0.4299
 2054SOL    HW117624   0.169   1.290   6.522 -0.2315  0.1098  0.8400
 2054SOL    HW217625   0.045   1.321   6.448 -0.2529  0.7903 -1.8563
 2055SOL     OW17626   3.151   0.018   5.756  0.6155  0.3727 -0.2782
 2055SOL    HW117627   3.226   4.695   5.722  0.0411 -1.0985  0.5591
 2055SOL    HW217628   3.085   4.717   5.692 -1.0320  0.9025  1.1818
 2056SOL     OW17629   3.013   3.366   2.854 -0.1847 -0.6842  0.6457
 2056SOL    HW117630   3.095   3.401   2.889  0.1391 -1.3493  0.5467
 2056SOL    HW217631   3.035   3.350   2.762 -0.4543  0.9813  0.2913
 2057SOL     OW17632   3.804   2.885   7.047 -0.1962 -0.5532 -0.3056
 2057SOL    HW117633   3.797   2.980   7.055 -1.6555 -0.5322 -1.8100
 2057SOL    HW217634   3.900   2.886   7.056 -0.2893  3.4524  0.1545
 2058SOL     OW17635   3.257   0.578   2.856  0.4498  0.0966  0.1941
 2058SOL    HW117636   3.189   0.596   2.791  0.6279  0.9409  0.2402
 2058SOL    HW217637   3.287   0.490   2.835 -0.6691  0.1873 -1.8039
 2059SOL     OW17638   0.351   2.622  13.636 -0.2346  0.4927 -0.0180
 2059SOL    HW117639   0.312   2.704  13.667 -1.6488  0.2876 -1.2727
 2059SOL    HW217640   0.383   2.593  13.722 -0.3804  0.5049  0.0393
 2060SOL     OW17641   0.290   3.184   9.577 -0.2206 -0.0029  0.3394
 2060SOL    HW117642   0.282   3.096   9.613 -1.2103 -0.4774 -1.0003
 2060SOL    HW217643   0.321   3.231   9.654 -2.0381  2.7466 -0.5867
 2061SOL     OW17644   3.050   3.057   6.442  0.8393  0.4664 -0.5864
 2061SOL    HW117645   3.014   3.019   6.362  2.5588 -1.5414 -0.4165
 2061SOL    HW217646   3.028   3.149   6.431  0.0526  0.4880  1.1415
 2062SOL     OW17647   0.814   1.115   4.960 -0.5004 -0.0963  0.1909
 2062SOL    HW117648   0.735   1.158   4.929  0.8276  0.5452 -2.2364
 2062SOL    HW217649   0.790   1.108   5.053 -0.5848 -0.9099  0.1116
 2063SOL     OW17650   1.989   0.763   3.810 -0.3757  0.1917  0.2098
 2063SOL    HW117651   1.993   0.802   3.723 -0.0725  1.5140  0.8104
 2063SOL    HW217652   2.083   0.754   3.829  0.0220  2.0762 -0.8136
 2064SOL     OW17653   0.021   4.039   2.366  0.1358 -0.5075 -0.0695
 2064SOL    HW117654   0.073   3.999   2.436 -1.4417  0.3533  1.6009
 2064SOL    HW217655   0.093   4.076   2.315 -0.2492 -0.2380 -0.4216
 2065SOL     OW17656   4.241   2.398  10.258 -0.3609 -0.0083 -0.0139
 2065SOL    HW117657   4.312   2.463  10.254  1.0659 -1.6710 -1.8767
 2065SOL    HW217658   4.205   2.415  10.345 -1.7262  0.9204 -0.7612
 2066SOL     OW17659   2.670   1.901   2.218  0.3525 -0.0765 -0.3965
 2066SOL    HW117660   2.643   1.943   2.136  3.4941  0.1548 -1.3298
 2066SOL    HW217661   2.750   1.853   2.199  0.6481  1.2683 -2.6032
 2067SOL     OW17662   0.589   2.171  11.626  0.7483  0.3179 -0.1169
 2067SOL    HW117663   0.629   2.256  11.645 -1.5138  1.4420 -0.4759
 2067SOL    HW217664   0.499   2.178  11.656  0.8129  1.1332 -0.1178
 2068SOL     OW17665   1.932   0.124   6.020 -0.2835 -0.4471 -0.4863
 2068SOL    HW117666   1.944   0.052   5.957  0.8279 -1.4723  0.9021
 2068SOL    HW217667   1.987   0.095   6.093  0.0583  3.4491  0.7640
 2069SOL     OW17668   0.697   2.245   4.550  0.6842  0.2868 -0.2364
 2069SOL    HW117669   0.719   2.162   4.507  1.2629 -0.2208  1.0274
 2069SOL    HW217670   0.784   2.283   4.558  1.0800 -0.8077  0.6895
 2070SOL     OW17671   1.510   2.405   5.909  0.0990  0.1589 -0.4988
 2070SOL    HW117672   1.585   2.364   5.865 -1.5075  0.2277 -3.3341
 2070SOL    HW217673   1.483   2.485   5.865  1.4424  2.4080  2.7878
 2071SOL     OW17674   1.886   3.930   8.518 -0.5030  0.1628 -0.1488
 2071SOL    HW117675   1.963   3.985   8.526  0.3221 -1.0682  0.3600
 2071SOL    HW217676   1.925   3.844   8.504  1.4184  1.2588 -1.4833
 2072SOL     OW17677   3.663   4.518   5.533 -0.1861  0.1037 -0.4263
 2072SOL    HW117678   3.575   4.533   5.498 -0.5493  0.1941  0.5158
 2072SOL    HW217679   3.701   4.605   5.523 -0.4800  0.4838  1.8148
 2073SOL     OW17680   3.309   4.089   3.528  0.2822 -0.5089  0.8087
 2073SOL    HW117681   3.231   4.034   3.540  1.5675 -2.4506  0.1158
 2073SOL    HW217682   3.264   4.170   3.504 -1.8099 -1.1361  2.5345
 2074SOL     OW17683   0.583   2.908   6.840  0.1154  0.4233  0.1246
 2074SOL    HW117684   0.529   2.903   6.761 -0.2291 -0.4131  0.4097
 2074SOL    HW217685   0.665   2.916   6.792  0.4081 -1.0238  0.3731
 2075SOL     OW17686   1.001   4.014   6.641 -0.4342 -0.1621 -0.8022
 2075SOL    HW117687   0.919   4.038   6.685 -0.5937 -1.2228 -0.5117
 2075SOL    HW217688   0.981   4.011   6.547  1.6295  2.8773 -1.3506
 2076SOL     OW17689   3.000   0.983   4.314 -0.2881  0.5005 -0.5937
 2076SOL    HW117690   2.949   1.028   4.246 -0.3878  1.4372  0.0995
 2076SOL    HW217691   2.971   0.892   4.304  1.0983  0.1915 -1.8715
 2077SOL     OW17692   2.209   2.266   9.770 -0.2661 -0.2022  0.0555
 2077SOL    HW117693   2.279   2.238   9.829  0.4382  2.5784  0.5353
 2077SOL    HW217694   2.146   2.291   9.837  0.6411  1.9943  0.0717
 2078SOL     OW17695   0.396   1.138   7.587  0.4148 -0.3652  0.0256
 2078SOL    HW117696   0.453   1.089   7.646  1.5360  2.6193  1.3933
 2078SOL    HW217697   0.439   1.223   7.595 -3.1809  1.6261 -1.4859
 2079SOL     OW17698   1.754   0.136   4.615  1.4716 -0.2312 -0.6437
 2079SOL    HW117699   1.736   0.211   4.558 -0.6851 -1.0079 -0.9602
 2079SOL    HW217700   1.675   0.085   4.596  0.5751  0.9973 -0.2090
 2080SOL     OW17701   1.142   2.099  15.881 -0.0377  0.1451 -0.2525
 2080SOL    HW117702   1.120   2.171  15.822  1.0880  1.5881  1.0781
 2080SOL    HW217703   1.062   2.120  15.930 -0.7525 -0.9216 -0.9597
 2081SOL     OW17704   3.054   1.618   6.247  0.0757  0.1181  0.6454
 2081SOL    HW117705   2.983   1.681   6.259  1.2349  1.6076 -0.3482
 2081SOL    HW217706   3.121   1.662   6.194 -0.9390 -0.2240 -0.9187
 2082SOL     OW17707   1.524   3.174   1.098  0.2610  0.5580 -0.3777
 2082SOL    HW117708   1.561   3.094   1.134  3.0222  0.8554 -2.5566
 2082SOL    HW217709   1.572   3.182   1.015 -1.0481  2.7722 -0.9455
 2083SOL     OW17710   0.413   4.661   4.865 -0.1162  0.2312 -0.3004
 2083SOL    HW117711   0.434   4.621   4.950 -0.9237  1.5024  0.4950
 2083SOL    HW217712   0.479   0.004   4.873 -1.3039  1.1459  1.5168
 2084SOL     OW17713   1.507   3.054   8.948  0.0541  0.0126  0.0117
 2084SOL    HW117714   1.437   3.035   9.010 -1.0089 -4.3012 -2.5616
 2084SOL    HW217715   1.467   3.010   8.874  0.0049 -0.6128  0.4062
 2085SOL     OW17716   0.079   0.981   5.102 -0.4216  0.4991 -0.5800
 2085SOL    HW117717   0.103   1.066   5.067  2.9338  1.0587  2.9849
 2085SOL    HW217718   0.021   0.948   5.034 -0.2984  1.9290 -1.3715
 2086SOL     OW17719   3.817   2.060   4.621 -0.8845 -0.1234 -1.0590
 2086SOL    HW117720   3.853   2.023   4.702 -1.0817 -0.4867 -1.1373
 2086SOL    HW217721   3.772   2.136   4.657 -1.1762 -0.9555  0.3569
 2087SOL     OW17722   2.175   4.060  13.965 -0.2618  0.6501  0.1450
 2087SOL    HW117723   2.087   4.025  13.953 -0.3981  1.6192 -1.8114
 2087SOL    HW217724   2.169   4.112  13.884  1.5839  0.0853 -0.3645
 2088SOL     OW17725   4.127   0.613   5.880  0.3334 -0.2372 -0.4323
 2088SOL    HW117726   4.209   0.564   5.867 -0.0842 -0.4953 -2.1612
 2088SOL    HW217727   4.096   0.622   5.790 -2.7429  0.1295  0.6976
 2089SOL     OW17728   2.195   1.996   2.570  0.2537  0.0609  0.2290
 2089SOL    HW117729   2.196   1.984   2.665 -1.2176 -0.0431  0.2314
 2089SOL    HW217730   2.174   2.089   2.557  1.9463  0.2257 -1.2237
 2090SOL     OW17731   4.320   4.670  17.348  0.0253  0.0555  0.5115
 2090SOL    HW117732   4.389   4.641  17.289  0.1892  0.2221  0.6188
 2090SOL    HW217733   4.323   4.601  17.414  1.0929 -0.3727  0.0115
 2091SOL     OW17734   2.433   4.245   3.065 -0.5576  0.1852  0.6289
 2091SOL    HW117735   2.529   4.242   3.056 -1.0123 -1.7948 -3.3214
 2091SOL    HW217736   2.402   4.281   2.982 -0.6277  0.1158  0.6255
 2092SOL     OW17737   0.297   3.417   8.301  0.3309  0.5713 -0.1270
 2092SOL    HW117738   0.391   3.436   8.310  0.8474 -3.1456  1.9290
 2092SOL    HW217739   0.262   3.461   8.379 -1.6327 -0.6118 -0.3559
 2093SOL     OW17740   0.332   1.038  12.070  0.2706 -0.0530  0.0789
 2093SOL    HW117741   0.422   1.023  12.042 -0.2095  0.2764 -1.6684
 2093SOL    HW217742   0.308   1.117  12.022 -1.0568 -0.8883 -0.6369
 2094SOL     OW17743   4.089   3.572   5.602  0.0697 -0.0039 -0.1159
 2094SOL    HW117744   4.028   3.502   5.626  1.9474 -0.3671  3.6003
 2094SOL    HW217745   4.148   3.519   5.548  1.1616  1.9774 -0.8547
 2095SOL     OW17746   1.061   1.534   6.646  0.3963 -0.4301 -0.1253
 2095SOL    HW117747   0.996   1.544   6.576 -0.0240 -2.2252  0.0218
 2095SOL    HW217748   1.132   1.483   6.608 -0.8302 -1.4197 -1.1086
 2096SOL     OW17749   3.902   4.491   5.749 -0.1990 -0.2477 -0.3785
 2096SOL    HW117750   3.963   4.511   5.820 -0.5406  0.8325 -0.3889
 2096SOL    HW217751   3.936   4.407   5.718 -1.3193 -0.7136 -0.3707
 2097SOL     OW17752   2.791   3.754   4.773 -0.2194  0.3505  0.3508
 2097SOL    HW117753   2.779   3.723   4.863 -0.4400 -0.4036  0.0652
 2097SOL    HW217754   2.705   3.769   4.735  0.8520  1.3689 -1.6657
 2098SOL     OW17755   0.870   2.651   8.085  0.1651  0.0163 -0.6474
 2098SOL    HW117756   0.952   2.626   8.042  1.6371  2.2574  0.8696
 2098SOL    HW217757   0.891   2.733   8.130  1.6487 -1.0801  0.6277
 2099SOL     OW17758   4.052   2.486   6.000 -0.4057 -0.1265  0.4263
 2099SOL    HW117759   3.995   2.558   6.029 -1.0874 -1.4057  2.1990
 2099SOL    HW217760   4.104   2.544   5.943 -1.8569  0.0112 -0.7724
 2100SOL     OW17761   1.986   2.073   3.551 -0.1469 -0.3423 -0.3778
 2100SOL    HW117762   2.005   1.999   3.494 -0.8904 -0.6048 -0.2796
 2100SOL    HW217763   1.952   2.022   3.623  0.2990  0.2858  0.2871
 2101SOL     OW17764   1.927   0.117  12.355  0.1950 -0.1879  0.3937
 2101SOL    HW117765   2.002   0.131  12.413 -1.2750  0.4881  2.1361
 2101SOL    HW217766   1.860   0.162  12.406 -0.3891 -0.3133 -0.2548
 2102SOL     OW17767   3.957   4.095   1.731  0.6672 -0.0014  0.4841
 2102SOL    HW117768   4.031   4.126   1.679  1.5245  1.5296  2.6284
 2102SOL    HW217769   3.987   4.006   1.751 -0.8426 -0.9053 -1.2556
 2103SOL     OW17770   4.548   0.965   1.721 -0.2942  0.3365  0.0046
 2103SOL    HW117771   4.620   0.937   1.778 -0.2016  0.0127 -0.2751
 2103SOL    HW217772   4.472   0.969   1.780 -0.2824 -4.5150  0.3615
 2104SOL     OW17773   3.943   4.139   4.577 -0.0872 -0.1086  0.2105
 2104SOL    HW117774   3.853   4.111   4.561  0.5517 -2.1825  0.3011
 2104SOL    HW217775   3.979   4.115   4.492 -1.5350 -0.3881 -0.3378
 2105SOL     OW17776   0.138   3.813   7.589 -0.2183 -0.7230 -0.3014
 2105SOL    HW117777   0.095   3.776   7.512  0.0753  0.2098 -0.9070
 2105SOL    HW217778   0.134   3.735   7.645 -1.7044  0.0192  0.6279
 2106SOL     OW17779   2.722   0.129   6.482  0.2046 -0.0231 -0.2722
 2106SOL    HW117780   2.750   0.079   6.405 -1.2760  0.8936 -1.4114
 2106SOL    HW217781   2.786   0.199   6.494 -0.2291  0.3667 -0.2080
 2107SOL     OW17782   0.103   3.970  12.943  0.5296 -0.0962  0.2635
 2107SOL    HW117783   0.142   3.931  13.021  1.4901  1.8817  0.7769
 2107SOL    HW217784   0.092   3.896  12.883 -1.8621 -0.1676  0.7592
 2108SOL     OW17785   1.198   1.178   5.950 -0.2089  0.0107 -0.1891
 2108SOL    HW117786   1.273   1.237   5.949  0.3171 -0.6625 -0.1343
 2108SOL    HW217787   1.228   1.101   5.998  2.3008  1.6197  0.8530
 2109SOL     OW17788   2.265   1.142   3.967 -0.1613  0.3147  0.2102
 2109SOL    HW117789   2.294   1.231   3.988  1.2877  0.0019 -0.4891
 2109SOL    HW217790   2.202   1.159   3.897 -1.4123 -0.3432  1.1767
 2110SOL     OW17791   0.084   1.597   6.034  0.3601 -0.1021  0.1845
 2110SOL    HW117792   0.060   1.674   6.085 -2.2109 -0.0022 -1.1706
 2110SOL    HW217793   0.034   1.525   6.072  1.1748 -0.7784 -0.0235
 2111SOL     OW17794   3.134   1.445   3.336 -0.0795 -0.0281  0.9214
 2111SOL    HW117795   3.083   1.507   3.388 -2.3537  1.2443 -2.7614
 2111SOL    HW217796   3.156   1.506   3.265  1.2926  0.9103  2.1676
 2112SOL     OW17797   4.024   3.402  12.280  0.6413  0.4018  0.0183
 2112SOL    HW117798   3.997   3.313  12.257 -0.0043  0.8342 -0.8617
 2112SOL    HW217799   3.948   3.455  12.256  1.3579  1.2248 -0.4286
 2113SOL     OW17800   3.464   0.295   6.417 -0.0552 -0.1920 -0.1653
 2113SOL    HW117801   3.382   0.289   6.369 -0.7228 -1.4754  1.1264
 2113SOL    HW217802   3.476   0.389   6.410 -0.0114 -0.3786 -2.5593
 2114SOL     OW17803   3.159   2.488   3.382 -0.6353 -0.4460 -0.0109
 2114SOL    HW117804   3.112   2.548   3.324 -2.5216 -0.2006  1.7703
 2114SOL    HW217805   3.079   2.457   3.424 -0.7667  1.5797  1.2282
 2115SOL     OW17806   1.136   3.516   5.275 -0.6609 -0.4636 -1.1124
 2115SOL    HW117807   1.055   3.468   5.258 -1.6371  0.5783  0.5603
 2115SOL    HW217808   1.185   3.484   5.200 -1.8426 -0.9305 -1.6777
 2116SOL     OW17809   4.611   0.777   3.455  0.6392 -0.4590  0.4417
 2116SOL    HW117810   4.671   0.813   3.390  0.2483  0.1480  0.4079
 2116SOL    HW217811   4.631   0.685   3.436 -1.3735 -0.8928  0.3428
 2117SOL     OW17812   0.415   4.201   7.675 -0.1223  0.0505 -0.6480
 2117SOL    HW117813   0.401   4.148   7.597 -0.1577 -0.1146 -0.5307
 2117SOL    HW217814   0.484   4.150   7.719 -0.9163  0.0993  0.6577
 2118SOL     OW17815   4.715   2.675   2.438 -0.0963  0.1929  0.0279
 2118SOL    HW117816   0.049   2.601   2.448 -0.7656 -0.1056  1.7642
 2118SOL    HW217817   0.021   2.739   2.502 -0.7154  0.5272 -0.0004
 2119SOL     OW17818   3.704   1.644   5.378 -0.1423 -0.0608 -0.3982
 2119SOL    HW117819   3.750   1.726   5.396  0.4429 -0.5681  0.4212
 2119SOL    HW217820   3.614   1.674   5.363  0.0604 -0.0704 -1.6056
 2120SOL     OW17821   2.002   1.327   2.452  0.6819 -0.3973 -0.3528
 2120SOL    HW117822   1.920   1.279   2.450  0.3737  0.1319 -0.2600
 2120SOL    HW217823   2.043   1.270   2.387 -0.7955 -3.0147  1.0269
 2121SOL     OW17824   0.363   4.115   0.031  0.2039 -0.2269  0.1874
 2121SOL    HW117825   0.350   4.187   0.092  1.2702 -1.2877  1.6605
 2121SOL    HW217826   0.457   4.123   0.015  0.1906 -1.2725 -0.4564
 2122SOL     OW17827   0.629   4.268   0.736 -0.2150 -0.0716 -0.3373
 2122SOL    HW117828   0.551   4.320   0.753 -0.7421 -1.5437  1.7739
 2122SOL    HW217829   0.625   4.196   0.799 -1.4417 -1.4160 -1.9539
 2123SOL     OW17830   0.691   3.944   5.403  0.7222  0.2238  0.7919
 2123SOL    HW117831   0.727   3.894   5.330  0.8059 -2.1343  2.4163
 2123SOL    HW217832   0.675   3.876   5.468  0.7107 -0.3072  0.2376
 2124SOL     OW17833   2.341   2.064   8.049  0.4952 -0.2840 -0.1861
 2124SOL    HW117834   2.370   2.018   8.128  1.1396  0.4218 -0.0079
 2124SOL    HW217835   2.361   2.152   8.082  2.2298 -1.3323  1.5538
 2125SOL     OW17836   0.065   0.068  13.039  0.5710 -0.2863  0.1423
 2125SOL    HW117837   0.065   0.124  13.116  0.2120 -0.4627  0.2724
 2125SOL    HW217838   0.019   4.714  13.065  0.8286  0.2681  2.3071
 2126SOL     OW17839   4.612   0.536   3.288 -0.3835  0.2781 -0.4811
 2126SOL    HW117840   4.693   0.494   3.261  0.0811 -0.2819  1.7556
 2126SOL    HW217841   4.554   0.460   3.295  0.1993  0.1765  3.4798
 2127SOL     OW17842   2.711   0.912  11.144 -0.6127  0.0489  0.0838
 2127SOL    HW117843   2.753   0.828  11.125  0.0659  0.3061  0.4657
 2127SOL    HW217844   2.621   0.896  11.114 -0.5064  1.6501 -1.1335
 2128SOL     OW17845   2.309   3.362  10.993  0.1824 -0.1146  0.9962
 2128SOL    HW117846   2.384   3.392  11.044  1.9592 -0.0783 -1.5996
 2128SOL    HW217847   2.270   3.450  10.993  0.8647  0.1923  0.6298
 2129SOL     OW17848   1.190   0.977  16.065  0.0882  0.4361 -0.1848
 2129SOL    HW117849   1.225   0.922  16.135  0.1364 -0.0416 -0.5891
 2129SOL    HW217850   1.234   1.062  16.074  0.6988 -0.0215  1.1843
 2130SOL     OW17851   1.499   3.279  11.870 -0.3886 -0.0610 -0.0424
 2130SOL    HW117852   1.522   3.268  11.777  1.7082 -1.3236  0.6219
 2130SOL    HW217853   1.558   3.348  11.900  0.3038 -0.4861 -0.4102
 2131SOL     OW17854   2.401   4.300  17.559  0.4512 -0.0636  0.3131
 2131SOL    HW117855   2.430   4.248  17.634 -1.8698 -2.3382 -0.3759
 2131SOL    HW217856   2.444   4.258  17.485 -2.2276  1.1346 -1.9165
 2132SOL     OW17857   3.284   2.993   3.357  0.0658  0.1059  0.4513
 2132SOL    HW117858   3.361   2.946   3.323  0.7223  1.6796 -0.2391
 2132SOL    HW217859   3.223   2.933   3.314  0.1162 -0.0088  0.5386
 2133SOL     OW17860   2.922   4.406   2.945 -0.4621  0.5798  0.1620
 2133SOL    HW117861   2.992   4.355   2.902  0.4814  1.0763  1.1107
 2133SOL    HW217862   2.979   4.448   3.009  1.1854 -2.3015  0.5913
 2134SOL     OW17863   0.103   0.276   2.483  0.4382 -0.1612  0.7542
 2134SOL    HW117864   0.119   0.264   2.389 -0.6061  0.4274  0.5022
 2134SOL    HW217865   0.191   0.283   2.520 -0.6677  0.0858  3.3073
 2135SOL     OW17866   2.917   1.727  11.494 -0.3665  0.1965  0.6457
 2135SOL    HW117867   2.945   1.797  11.436 -1.7790  0.8099  0.7012
 2135SOL    HW217868   2.991   1.715  11.553 -0.1465  3.4084  1.0256
 2136SOL     OW17869   0.009   3.023   0.234  0.6988  0.0789  0.5302
 2136SOL    HW117870   4.721   3.004   0.327  0.6261 -0.0790  0.4865
 2136SOL    HW217871   0.064   2.946   0.219 -2.2147 -1.9073  0.0006
 2137SOL     OW17872   0.314   4.322  12.377  0.0988 -0.1171  0.6337
 2137SOL    HW117873   0.315   4.252  12.311 -1.3902  0.2976  0.1713
 2137SOL    HW217874   0.308   4.407  12.334  1.0569 -1.6679 -2.5982
 2138SOL     OW17875   3.423   1.117   3.168 -0.0055  0.3580 -0.2194
 2138SOL    HW117876   3.430   1.043   3.108 -2.4311  0.2629 -0.4185
 2138SOL    HW217877   3.402   1.186   3.105 -0.3124 -0.7314 -1.3144
 2139SOL     OW17878   1.214   4.251   9.312 -0.5182 -0.5958  0.3922
 2139SOL    HW117879   1.303   4.253   9.348 -0.9746  1.4974  1.4264
 2139SOL    HW217880   1.179   4.179   9.365 -1.0668 -0.4806  0.1807
 2140SOL     OW17881   1.150   0.531   3.952 -0.0803 -0.6641  0.8450
 2140SOL    HW117882   1.129   0.616   3.914 -3.1989 -1.0800  1.6005
 2140SOL    HW217883   1.139   0.472   3.878  1.6185 -0.6205  0.5531
 2141SOL     OW17884   4.509   0.971   2.561 -0.0336 -0.1238  0.3139
 2141SOL    HW117885   4.449   1.005   2.627 -1.9929 -0.4301 -1.2952
 2141SOL    HW217886   4.565   0.921   2.619  0.9890 -0.1128 -0.6741
 2142SOL     OW17887   1.139   2.649  14.682 -0.1813 -0.0916 -0.4547
 2142SOL    HW117888   1.107   2.673  14.595  2.0590  2.2761 -0.6303
 2142SOL    HW217889   1.054   2.630  14.720 -0.4708 -1.2495 -1.6591
 2143SOL     OW17890   1.042   3.147   3.127 -0.4901  0.4406 -0.1758
 2143SOL    HW117891   1.137   3.158   3.133 -0.5213 -0.6182  2.2168
 2143SOL    HW217892   1.011   3.237   3.123 -2.9796 -0.4937 -1.6935
 2144SOL     OW17893   1.902   1.165   2.736  0.1268 -0.1728  0.0576
 2144SOL    HW117894   1.860   1.083   2.710 -0.0039 -0.3667  0.8630
 2144SOL    HW217895   1.978   1.126   2.780 -0.2812  1.5023  2.2431
 2145SOL     OW17896   4.148   4.292   5.740  0.0813 -0.1282  0.4016
 2145SOL    HW117897   4.127   4.317   5.649  0.7937 -0.1439  0.2314
 2145SOL    HW217898   4.159   4.375   5.788 -1.7212  0.1240  0.3912
 2146SOL     OW17899   1.273   3.973   6.715 -0.1913  0.0243 -0.0203
 2146SOL    HW117900   1.180   3.981   6.695  0.6963  1.4515 -3.6518
 2146SOL    HW217901   1.301   4.059   6.682 -2.3596  1.5448  2.1724
 2147SOL     OW17902   2.591   2.504  12.380 -0.1449  0.3933  0.3892
 2147SOL    HW117903   2.563   2.531  12.468 -0.7441  0.1811  0.2590
 2147SOL    HW217904   2.614   2.414  12.401 -3.1933 -0.4370  0.0135
 2148SOL     OW17905   0.686   1.131   3.405  0.3002  0.2310  0.3661
 2148SOL    HW117906   0.602   1.170   3.381  1.2986  2.1813  0.0454
 2148SOL    HW217907   0.676   1.103   3.496  0.6772  1.5473  0.8136
 2149SOL     OW17908   2.484   2.602   6.613  0.1347  0.1346 -0.0744
 2149SOL    HW117909   2.509   2.653   6.690 -0.7971  2.0325 -1.0137
 2149SOL    HW217910   2.572   2.591   6.578 -0.3098  0.0311 -1.1476
 2150SOL     OW17911   3.348   2.834   7.188  0.0879  0.3388  0.4728
 2150SOL    HW117912   3.437   2.821   7.157 -0.4460  0.0551 -0.9146
 2150SOL    HW217913   3.362   2.827   7.283  1.0846  0.5069  0.3329
 2151SOL     OW17914   0.603   2.579   4.775 -0.3775 -0.2600 -0.0600
 2151SOL    HW117915   0.606   2.557   4.681  2.1137 -1.4687  0.3091
 2151SOL    HW217916   0.647   2.663   4.787  1.0674 -0.8584 -1.0720
 2152SOL     OW17917   1.022   2.113   1.425  0.0500 -0.1817 -0.3694
 2152SOL    HW117918   1.085   2.170   1.470  3.2349 -3.9746  0.0223
 2152SOL    HW217919   1.090   2.055   1.390 -1.1935 -2.3648  0.8242
 2153SOL     OW17920   1.669   4.243   7.794 -0.2931 -0.4659  0.1867
 2153SOL    HW117921   1.710   4.174   7.743 -0.1693 -1.2024  1.2887
 2153SOL    HW217922   1.737   4.307   7.812  1.8717 -2.1923 -1.9125
 2154SOL     OW17923   3.554   2.319   7.629  0.1657 -0.2108 -0.0070
 2154SOL    HW117924   3.574   2.406   7.596  0.4310 -0.4461 -0.4521
 2154SOL    HW217925   3.603   2.312   7.711 -2.4757 -6.2600  1.0876
 2155SOL     OW17926   0.362   3.998  14.028 -0.0509  0.2332 -0.4314
 2155SOL    HW117927   0.321   3.912  14.019  0.9014 -0.4468  1.4783
 2155SOL    HW217928   0.431   3.993  13.962 -1.4982  2.4785 -2.0855
 2156SOL     OW17929   4.408   2.511   5.511 -0.1156  0.7419 -0.1788
 2156SOL    HW117930   4.489   2.560   5.496  0.2232 -0.1719 -1.3868
 2156SOL    HW217931   4.449   2.448   5.570 -1.6921  0.3399  0.4736
 2157SOL     OW17932   3.304   2.030   0.258  0.1401 -0.0723  0.0841
 2157SOL    HW117933   3.255   2.032   0.341 -0.0298  0.8847 -0.0367
 2157SOL    HW217934   3.231   2.029   0.196  0.1695 -0.6777  0.0527
 2158SOL     OW17935   1.121   0.030   5.474 -0.0018  0.2656 -0.4289
 2158SOL    HW117936   1.031   4.724   5.477  0.4400 -0.9112 -0.1847
 2158SOL    HW217937   1.129   0.051   5.567  0.7969  0.4991 -0.5468
 2159SOL     OW17938   1.012   2.097  16.715  0.6649  0.0943  0.0386
 2159SOL    HW117939   0.961   2.117  16.794 -0.1397 -0.9503 -0.2156
 2159SOL    HW217940   0.950   2.115  16.644  0.1201 -1.2028  0.1639
 2160SOL     OW17941   1.350   1.538   3.967  0.0083 -0.3953 -0.1346
 2160SOL    HW117942   1.272   1.574   4.010  1.9067  1.6810  1.5900
 2160SOL    HW217943   1.388   1.623   3.946 -0.2153 -0.1328  0.5344
 2161SOL     OW17944   4.046   3.752  13.677  0.2584  0.1506 -0.8941
 2161SOL    HW117945   3.962   3.748  13.724 -0.3093 -1.4620 -2.0468
 2161SOL    HW217946   4.107   3.744  13.751 -0.0927 -1.7289 -0.7908
 2162SOL     OW17947   0.754   4.426   7.606 -0.1453  0.2011 -0.3962
 2162SOL    HW117948   0.818   4.495   7.625  0.9193 -0.8084 -0.2789
 2162SOL    HW217949   0.759   4.415   7.511 -2.0346  2.0341 -0.6999
 2163SOL     OW17950   4.040   0.329   1.807  0.3356 -0.3304 -0.1768
 2163SOL    HW117951   3.976   0.258   1.798  0.1378  0.0133 -1.5590
 2163SOL    HW217952   3.992   0.410   1.790  0.7552  0.3828  2.0465
 2164SOL     OW17953   4.592   2.493   6.109 -0.1406 -0.4261 -0.4372
 2164SOL    HW117954   4.559   2.407   6.136  0.5067  0.2376  2.4943
 2164SOL    HW217955   4.664   2.499   6.172  0.8843  0.5437 -1.7130
 2165SOL     OW17956   4.669   0.413   3.018 -0.0692 -0.2807 -0.6614
 2165SOL    HW117957   4.620   0.345   2.972  0.0894 -1.0852  0.3734
 2165SOL    HW217958   4.591   0.468   3.027  0.0554  0.1901 -2.4722
 2166SOL     OW17959   3.017   1.134   0.548 -0.4137 -0.4400 -0.2003
 2166SOL    HW117960   3.030   1.111   0.640  0.5643 -0.8451 -0.4351
 2166SOL    HW217961   2.924   1.121   0.531 -0.4897 -1.2975  0.8592
 2167SOL     OW17962   3.042   4.708  11.066 -0.2103  0.0488 -0.3478
 2167SOL    HW117963   2.989   0.023  10.997  1.2416 -0.4025 -1.7497
 2167SOL    HW217964   3.016   0.039  11.138  1.5537  1.0927 -0.5458
 2168SOL     OW17965   0.228   0.954   5.931  0.1612  0.2070  0.2492
 2168SOL    HW117966   0.176   0.940   6.010 -0.5343  0.6535 -0.1320
 2168SOL    HW217967   0.200   0.879   5.881  0.7192 -0.1281  0.4334
 2169SOL     OW17968   2.013   3.198   2.406 -0.1680 -0.7077  0.2987
 2169SOL    HW117969   1.966   3.256   2.346 -1.0593 -0.6536  1.0511
 2169SOL    HW217970   1.950   3.126   2.404 -2.4764  1.2691  1.6029
 2170SOL     OW17971   2.081   0.414   8.731 -0.1769  0.1520  0.3255
 2170SOL    HW117972   2.027   0.378   8.802 -1.1012  0.6523 -0.1201
 2170SOL    HW217973   2.125   0.484   8.780 -0.3020 -0.8185  1.8247
 2171SOL     OW17974   3.384   3.170   0.509 -0.7885  0.1844 -0.0554
 2171SOL    HW117975   3.438   3.192   0.584 -0.8242  0.7175 -0.1800
 2171SOL    HW217976   3.341   3.252   0.485 -1.4103  0.3450  1.6416
 2172SOL     OW17977   4.167   4.201   5.238 -0.3757 -0.0132 -0.3043
 2172SOL    HW117978   4.230   4.203   5.311 -1.6118 -0.8272  0.7773
 2172SOL    HW217979   4.191   4.116   5.200 -1.3277 -0.1352 -0.6165
 2173SOL     OW17980   3.080   0.035   6.003  0.4990  0.3036  0.2422
 2173SOL    HW117981   3.104   0.040   5.910  0.3497  0.7931  0.2256
 2173SOL    HW217982   3.026   4.683   6.009 -1.0550  1.3820  0.2775
 2174SOL     OW17983   0.654   2.253  14.679 -0.0069 -0.0806 -0.0079
 2174SOL    HW117984   0.604   2.319  14.727 -1.7090 -0.8012 -0.7597
 2174SOL    HW217985   0.583   2.203  14.640 -0.3546 -0.1013  0.6505
 2175SOL     OW17986   1.609   4.513   8.293  0.6077 -0.1405 -0.1705
 2175SOL    HW117987   1.539   4.448   8.290  2.3548 -2.1604  2.2565
 2175SOL    HW217988   1.559   4.592   8.311  1.4125  0.1213  0.9122
 2176SOL     OW17989   2.508   0.147   2.647  0.1368 -0.0530  0.3671
 2176SOL    HW117990   2.494   0.231   2.689 -2.3866 -0.2300 -0.1401
 2176SOL    HW217991   2.455   0.091   2.703  0.6107 -1.6956 -0.8122
 2177SOL     OW17992   1.092   3.318   6.563  0.2728 -0.1361 -0.1955
 2177SOL    HW117993   1.163   3.265   6.527  0.4330  0.9637 -1.5113
 2177SOL    HW217994   1.114   3.336   6.654 -1.6874  2.2759 -0.2133
 2178SOL     OW17995   0.151   2.581   6.761 -0.1427  0.2447  0.0686
 2178SOL    HW117996   0.168   2.672   6.787 -1.0194  0.1523  0.9479
 2178SOL    HW217997   0.204   2.575   6.682 -0.9149  0.5748 -0.4786
 2179SOL     OW17998   3.202   2.139   3.506 -0.0406  0.1698 -0.6957
 2179SOL    HW117999   3.133   2.183   3.456  0.7838  0.8184 -1.2504
 2179SOL    HW218000   3.239   2.206   3.563 -1.1735  1.6416 -1.6781
 2180SOL     OW18001   2.684   3.705   0.066 -0.1276  0.3621  0.2884
 2180SOL    HW118002   2.645   3.644   0.004  0.9192 -0.0874  0.0704
 2180SOL    HW218003   2.606   3.738   0.110 -0.5443  1.8193 -1.5332
 2181SOL     OW18004   1.691   1.840   8.773  0.4090  0.2521  0.1450
 2181SOL    HW118005   1.605   1.848   8.813  0.0952 -1.4309 -0.1966
 2181SOL    HW218006   1.687   1.764   8.715  1.8249 -0.6822  1.2582
 2182SOL     OW18007   4.227   1.749   2.949  0.4131 -0.2159  0.0051
 2182SOL    HW118008   4.192   1.710   3.028 -1.4600  0.4097 -0.5235
 2182SOL    HW218009   4.317   1.716   2.943  0.0372 -1.0194 -1.3705
 2183SOL     OW18010   0.180   1.243   5.857 -0.3693  0.0423  0.1514
 2183SOL    HW118011   0.250   1.270   5.916  0.7311  1.0679 -1.5911
 2183SOL    HW218012   0.176   1.151   5.882 -1.7851 -0.0890 -0.5451
 2184SOL     OW18013   1.885   3.189  14.552  0.2879 -0.3816  0.1283
 2184SOL    HW118014   1.835   3.137  14.489 -2.5443  0.9731  1.2585
 2184SOL    HW218015   1.911   3.260  14.493 -1.1001 -1.2079 -1.4833
 2185SOL     OW18016   0.222   4.309   8.922  0.4031  0.3749 -0.1893
 2185SOL    HW118017   0.251   4.364   8.849 -0.4540  0.2052 -0.6580
 2185SOL    HW218018   0.305   4.268   8.946  0.8886  2.8743  2.3959
 2186SOL     OW18019   0.341   1.358   8.354  0.1757  0.1436 -0.1564
 2186SOL    HW118020   0.246   1.361   8.367  0.3514  1.7375  0.6880
 2186SOL    HW218021   0.368   1.270   8.380  2.5480  1.4335  1.7002
 2187SOL     OW18022   3.621   4.530   5.812 -0.0909  0.5063  0.0552
 2187SOL    HW118023   3.671   4.557   5.735  0.4570  0.8487  0.5328
 2187SOL    HW218024   3.669   4.451   5.837 -2.5039 -0.8058  0.6134
 2188SOL     OW18025   3.850   4.382   7.307  0.3175 -0.1686 -0.9340
 2188SOL    HW118026   3.775   4.334   7.343  0.5737  1.0744  1.2724
 2188SOL    HW218027   3.850   4.352   7.216 -0.6091  0.8439 -1.2756
 2189SOL     OW18028   3.477   2.169   2.228 -0.1074  0.5612  0.1568
 2189SOL    HW118029   3.409   2.102   2.224 -0.4737  0.9173  0.3657
 2189SOL    HW218030   3.472   2.224   2.150  2.4046  0.7942  0.1393
 2190SOL     OW18031   3.532   0.650  12.603  0.1607 -0.3006 -0.3763
 2190SOL    HW118032   3.544   0.600  12.523  1.7165  1.5145 -1.2800
 2190SOL    HW218033   3.526   0.578  12.666  1.9787  0.0357  0.1706
 2191SOL     OW18034   3.144   0.058  16.807  0.3436 -0.3420 -0.4324
 2191SOL    HW118035   3.080   0.027  16.871  1.1526 -1.7476 -0.2939
 2191SOL    HW218036   3.227   0.065  16.854  0.0634 -0.7593  0.1223
 2192SOL     OW18037   3.507   0.114   6.844  0.1295  0.0052 -0.2960
 2192SOL    HW118038   3.526   0.033   6.796  1.4688  0.6303 -0.8196
 2192SOL    HW218039   3.412   0.115   6.854  0.0174  0.5393 -1.3990
 2193SOL     OW18040   2.834   4.226   4.619  0.5198 -0.0541 -0.4287
 2193SOL    HW118041   2.879   4.142   4.611  0.5674 -0.1282  0.5346
 2193SOL    HW218042   2.768   4.220   4.551 -0.7326 -0.3400  0.7994
 2194SOL     OW18043   0.952   4.465   5.226 -0.2562  0.2930  0.2728
 2194SOL    HW118044   1.028   4.467   5.284 -1.0631 -0.7972  1.3727
 2194SOL    HW218045   0.991   4.494   5.144 -0.0261 -0.8447 -0.0132
 2195SOL     OW18046   3.028   1.872   3.700 -0.0277  0.0255  0.2585
 2195SOL    HW118047   3.074   1.951   3.729  0.2228 -0.6294  1.6516
 2195SOL    HW218048   3.056   1.804   3.762 -0.1100 -1.0305 -0.8674
 2196SOL     OW18049   0.249   1.800   4.602 -0.2737  0.8818  0.1172
 2196SOL    HW118050   0.163   1.759   4.603 -0.0240  0.3233 -1.1675
 2196SOL    HW218051   0.307   1.729   4.630 -4.0471 -1.7833  1.1667
 2197SOL     OW18052   1.780   0.640   1.693 -0.1887 -1.1034 -0.2234
 2197SOL    HW118053   1.688   0.615   1.704  0.2630 -3.3028 -1.4837
 2197SOL    HW218054   1.773   0.684   1.609 -2.3675 -1.8812 -0.4550
 2198SOL     OW18055   2.878   4.431  16.346 -0.7787  0.1411  0.3664
 2198SOL    HW118056   2.807   4.469  16.294 -1.5409  0.2963  1.4969
 2198SOL    HW218057   2.921   4.369  16.288  1.7564  1.2148  1.1025
 2199SOL     OW18058   2.521   2.795   7.059 -0.3765 -0.3006  0.3167
 2199SOL    HW118059   2.432   2.823   7.036  0.6891  2.4470 -0.5226
 2199SOL    HW218060   2.516   2.747   7.142  1.8144 -3.0904 -1.1783
 2200SOL     OW18061   0.396   3.274   1.046  0.6019  0.2563 -0.2581
 2200SOL    HW118062   0.401   3.184   1.078  1.0105  1.7189  3.8041
 2200SOL    HW218063   0.458   3.265   0.974  1.2870 -2.9700  0.7319
 2201SOL     OW18064   4.542   4.277  15.257  0.0473  0.3189  0.5022
 2201SOL    HW118065   4.467   4.236  15.299  0.4859  0.0452  1.0308
 2201SOL    HW218066   4.600   4.279  15.333 -0.6703  0.6310  1.0417
 2202SOL     OW18067   2.565   1.450   8.456 -0.5552  0.0913  0.2987
 2202SOL    HW118068   2.561   1.523   8.519 -1.7089  1.3246 -1.2200
 2202SOL    HW218069   2.603   1.492   8.379  2.7708 -1.4272  1.0872
 2203SOL     OW18070   3.350   1.417  15.647 -0.5534 -0.0342  0.6190
 2203SOL    HW118071   3.350   1.458  15.560  1.2359 -0.9633  0.1814
 2203SOL    HW218072   3.415   1.346  15.646  1.4572  1.8440 -1.3270
 2204SOL     OW18073   0.797   4.597   3.477 -0.4031  0.0424 -0.2068
 2204SOL    HW118074   0.736   4.637   3.415  1.8450  2.5173 -0.8183
 2204SOL    HW218075   0.796   4.676   3.530  0.8243 -0.6232  0.8000
 2205SOL     OW18076   2.114   4.136  12.116 -0.2623  0.0618 -0.4206
 2205SOL    HW118077   2.040   4.105  12.169  0.1501  1.5055  1.0056
 2205SOL    HW218078   2.079   4.111  12.030  0.4409 -1.5989 -0.2210
 2206SOL     OW18079   1.295   0.628  12.577  0.8645  0.3082  0.4078
 2206SOL    HW118080   1.374   0.638  12.630  2.5578 -1.9344 -1.6844
 2206SOL    HW218081   1.257   0.714  12.595  1.4927 -0.2101  4.2481
 2207SOL     OW18082   4.475   0.567   2.076  0.5663 -0.3813  0.2498
 2207SOL    HW118083   4.467   0.661   2.058  0.7678 -0.4309 -0.1020
 2207SOL    HW218084   4.388   0.536   2.050 -0.3216 -0.6813  3.6025
 2208SOL     OW18085   1.765   0.390   2.486 -0.2449 -0.4249 -0.1454
 2208SOL    HW118086   1.821   0.331   2.437 -0.5429 -0.9005  0.0794
 2208SOL    HW218087   1.677   0.351   2.483  1.0075 -3.2493  0.8400
 2209SOL     OW18088   1.349   4.377  17.019  0.8371 -1.1008 -0.1171
 2209SOL    HW118089   1.434   4.334  17.009  2.6087  2.2958  0.2018
 2209SOL    HW218090   1.371   4.453  17.072 -1.4774 -0.7698  0.3854
 2210SOL     OW18091   2.070   2.734   9.158 -0.1003  0.4337 -0.5883
 2210SOL    HW118092   1.999   2.788   9.124  0.8062  1.6070 -0.6147
 2210SOL    HW218093   2.136   2.802   9.174  0.5548 -0.3200 -0.0928
 2211SOL     OW18094   3.439   4.654   7.239  0.1911 -0.6751  0.3529
 2211SOL    HW118095   3.377   4.604   7.293 -1.4001 -0.4736 -1.2817
 2211SOL    HW218096   3.453   0.008   7.289 -0.9943 -0.6505  0.6470
 2212SOL     OW18097   2.869   1.843   0.296 -0.1146  0.1417  0.1058
 2212SOL    HW118098   2.792   1.887   0.259 -0.0649  0.5803  0.5266
 2212SOL    HW218099   2.905   1.792   0.224 -1.1412  0.7154 -0.8138
 2213SOL     OW18100   1.674   4.703   2.936 -0.1940 -0.0040  0.1060
 2213SOL    HW118101   1.596   4.681   2.885 -0.8266 -1.6254  1.7949
 2213SOL    HW218102   1.737   4.664   2.875  0.6071  0.6862  0.5010
 2214SOL     OW18103   2.416   1.192  11.028  0.4518  0.1761 -0.0693
 2214SOL    HW118104   2.347   1.237  10.979  0.4964  0.3820  0.0578
 2214SOL    HW218105   2.458   1.141  10.958  1.1280 -1.7117  1.7219
 2215SOL     OW18106   3.194   2.971   6.186 -0.2741 -0.5938 -0.0902
 2215SOL    HW118107   3.178   3.065   6.196 -0.7656 -0.5217 -1.5487
 2215SOL    HW218108   3.225   2.930   6.267 -0.2241 -0.3081  0.0332
 2216SOL     OW18109   3.926   2.553   7.211 -0.0569 -0.3520  0.6595
 2216SOL    HW118110   4.006   2.505   7.234 -1.2458 -1.1359  3.1116
 2216SOL    HW218111   3.967   2.602   7.140 -1.2129  0.7560  0.7645
 2217SOL     OW18112   2.631   1.571   8.228 -0.5066  0.5350  0.2025
 2217SOL    HW118113   2.573   1.646   8.215 -0.3153  0.5791 -0.4123
 2217SOL    HW218114   2.713   1.602   8.190 -0.0298  1.0500  1.6597
 2218SOL     OW18115   2.645   0.323   6.150 -0.0920  0.3395 -0.2040
 2218SOL    HW118116   2.601   0.238   6.152  1.5497 -0.5625 -1.7603
 2218SOL    HW218117   2.733   0.293   6.124 -0.9401 -0.5561 -2.0534
 2219SOL     OW18118   2.123   4.208   6.301 -0.1754  0.3324  0.3738
 2219SOL    HW118119   2.179   4.194   6.224  0.8702  1.0454  1.0017
 2219SOL    HW218120   2.135   4.133   6.359  1.5366 -0.3426 -0.8467
 2220SOL     OW18121   1.408   3.936   0.082  0.4328  0.1889  0.0866
 2220SOL    HW118122   1.455   3.939   0.166 -1.0413  1.4099  0.8737
 2220SOL    HW218123   1.379   4.027   0.079  1.6817  0.5667 -0.6486
 2221SOL     OW18124   3.577   0.335   5.482  0.2206 -0.0569 -0.1641
 2221SOL    HW118125   3.517   0.402   5.450 -0.1201  0.5111  1.6537
 2221SOL    HW218126   3.572   0.275   5.408 -1.9805  1.1125 -0.9615
 2222SOL     OW18127   4.285   2.653   5.117  0.3181  0.1359 -0.4805
 2222SOL    HW118128   4.294   2.737   5.162  0.5263 -1.6540  2.8114
 2222SOL    HW218129   4.350   2.595   5.157  1.5025  1.0919 -1.0350
 2223SOL     OW18130   2.995   4.649   6.694 -0.6525 -0.2414  0.3095
 2223SOL    HW118131   2.911   4.627   6.736 -0.2793 -0.7630  0.7890
 2223SOL    HW218132   3.013   0.004   6.741  0.6053  0.2656 -1.0679
 2224SOL     OW18133   1.536   2.926   3.759  0.0830  0.3594  0.2760
 2224SOL    HW118134   1.515   3.019   3.747  0.4156  0.4863  0.6828
 2224SOL    HW218135   1.612   2.940   3.816  0.1712  0.7769  0.0537
 2225SOL     OW18136   4.122   1.544   4.934  0.4368 -0.6638 -0.0586
 2225SOL    HW118137   4.120   1.630   4.975 -0.6513 -1.0522  0.6961
 2225SOL    HW218138   4.132   1.557   4.840 -1.2754 -0.6555 -0.2403
 2226SOL     OW18139   4.326   1.257   3.290  0.2921  0.2770  0.7020
 2226SOL    HW118140   4.285   1.191   3.347  0.3736  0.3577  0.8537
 2226SOL    HW218141   4.350   1.323   3.355 -2.5970  1.6388  0.4239
 2227SOL     OW18142   0.056   0.912   3.305  0.3802 -0.0961 -0.0895
 2227SOL    HW118143   0.069   0.974   3.234 -0.4316  2.8792  2.3186
 2227SOL    HW218144   0.086   0.971   3.374  1.5151  0.0280 -0.6903
 2228SOL     OW18145   3.319   2.207  14.705 -0.2599 -0.1718  0.1668
 2228SOL    HW118146   3.348   2.226  14.615 -1.6337 -1.3862 -0.5268
 2228SOL    HW218147   3.379   2.138  14.734 -1.4893 -1.1811  0.2891
 2229SOL     OW18148   0.807   3.156   0.577  0.5559 -0.6799  0.5424
 2229SOL    HW118149   0.761   3.240   0.584  0.3769 -0.8501  1.3927
 2229SOL    HW218150   0.790   3.122   0.664  0.6523 -1.9902  0.0385
 2230SOL     OW18151   0.203   3.533   3.078 -0.1137 -0.1436 -0.0714
 2230SOL    HW118152   0.256   3.612   3.076  0.3675 -0.4486  1.0463
 2230SOL    HW218153   0.121   3.560   3.036 -0.3731 -1.3260 -0.3481
 2231SOL     OW18154   2.177   3.607  10.920 -0.3189 -0.3252 -0.7852
 2231SOL    HW118155   2.182   3.608  11.015  2.7785 -1.8724 -0.9322
 2231SOL    HW218156   2.244   3.675  10.911 -0.2657 -0.3982 -0.9379
 2232SOL     OW18157   0.455   1.355   8.110 -0.0861  0.6822  0.2740
 2232SOL    HW118158   0.426   1.347   8.201  1.7869  0.7066  0.8751
 2232SOL    HW218159   0.550   1.365   8.116 -0.1693  0.6279  1.6369
 2233SOL     OW18160   3.049   4.541  12.669  0.0498 -0.9416  0.4496
 2233SOL    HW118161   3.050   4.519  12.762 -2.4488 -0.7524  0.5150
 2233SOL    HW218162   2.966   4.500  12.647 -0.8173  0.0192  1.9419
 2234SOL     OW18163   4.142   4.320  14.327  0.6799 -0.4602  0.2097
 2234SOL    HW118164   4.200   4.245  14.340 -0.1576 -1.5157 -2.1765
 2234SOL    HW218165   4.078   4.292  14.262  2.1292 -0.9868 -1.0124
 2235SOL     OW18166   1.057   4.298   8.765 -0.2479  0.4932  0.1083
 2235SOL    HW118167   0.963   4.284   8.763 -0.0221 -0.7314 -1.9500
 2235SOL    HW218168   1.100   4.214   8.782 -1.4453  0.1102  1.2273
 2236SOL     OW18169   1.389   1.889   8.743 -0.5723  0.0664  0.3247
 2236SOL    HW118170   1.343   1.971   8.762 -1.6868 -0.6751  0.8109
 2236SOL    HW218171   1.419   1.858   8.828 -2.2268 -0.7070  0.6182
 2237SOL     OW18172   2.811   0.148   5.996  0.1651  0.0572 -0.5597
 2237SOL    HW118173   2.798   0.061   5.959 -1.6276 -0.6059  1.5966
 2237SOL    HW218174   2.898   0.129   6.029 -0.2405  1.5235  1.3535
 2238SOL     OW18175   1.218   2.677   3.033  0.7222  0.0893  0.1628
 2238SOL    HW118176   1.166   2.755   3.015  0.9973  0.4167  0.7788
 2238SOL    HW218177   1.213   2.621   2.956 -0.1945  0.2857  0.0753
 2239SOL     OW18178   1.087   0.194  10.492 -0.0842 -0.1224 -0.4735
 2239SOL    HW118179   1.121   0.254  10.559  1.4804  2.8711 -3.9792
 2239SOL    HW218180   0.992   0.202  10.502 -0.2661 -1.9167 -0.7303
 2240SOL     OW18181   2.625   2.168   1.726  0.9191  0.7350 -0.1171
 2240SOL    HW118182   2.577   2.250   1.718 -0.3610 -0.0563 -0.5311
 2240SOL    HW218183   2.546   2.116   1.739  0.6652  1.9123  2.9716
 2241SOL     OW18184   0.703   1.441   2.740 -0.2577 -0.1691  0.1313
 2241SOL    HW118185   0.787   1.436   2.694 -0.7391  0.2917 -0.7939
 2241SOL    HW218186   0.709   1.370   2.805  0.3510 -0.1206  0.1232
 2242SOL     OW18187   3.840   3.358   7.966 -0.2317  0.1563 -0.7285
 2242SOL    HW118188   3.841   3.263   7.981  1.3226  0.3729  0.4980
 2242SOL    HW218189   3.924   3.377   8.007  0.6137  0.2654 -2.5179
 2243SOL     OW18190   2.804   1.756  14.011 -0.3915 -0.0021  0.1326
 2243SOL    HW118191   2.854   1.725  14.086 -2.1449  0.6553  1.5465
 2243SOL    HW218192   2.875   1.762  13.947  0.1355 -2.2046  0.4934
 2244SOL     OW18193   0.465   2.506   7.122  0.3716 -0.2980  0.2994
 2244SOL    HW118194   0.440   2.562   7.049  1.6904  0.6713  0.6055
 2244SOL    HW218195   0.523   2.442   7.082  1.7130  1.7473 -0.9959
 2245SOL     OW18196   3.033   3.849   5.308  0.6410 -0.4794 -0.1060
 2245SOL    HW118197   2.966   3.818   5.369  1.2989 -4.2306 -1.3051
 2245SOL    HW218198   3.012   3.814   5.222  1.4296  1.5571 -1.1067
 2246SOL     OW18199   2.627   4.678   3.583 -0.1822  0.0005 -0.2190
 2246SOL    HW118200   2.588   4.624   3.652  1.8853  0.8715  1.6447
 2246SOL    HW218201   2.663   0.023   3.637 -0.9992  0.9141 -0.8672
 2247SOL     OW18202   0.699   2.553   3.461 -0.2129  0.2534  0.0524
 2247SOL    HW118203   0.771   2.609   3.432  0.6189 -1.4583 -1.1049
 2247SOL    HW218204   0.729   2.466   3.438  2.4933  0.9085  1.1623
 2248SOL     OW18205   2.812   0.723   4.852  0.3846  0.3236  0.1172
 2248SOL    HW118206   2.757   0.737   4.775  0.1886 -0.2926  0.1432
 2248SOL    HW218207   2.843   0.811   4.873 -0.6760  0.6083  0.5362
 2249SOL     OW18208   0.370   3.905   2.034  0.7378 -0.5378 -0.5590
 2249SOL    HW118209   0.343   3.890   1.943 -1.0117  2.5242 -0.5584
 2249SOL    HW218210   0.423   3.984   2.026 -2.4356  1.7137  0.4587
 2250SOL     OW18211   1.531   2.936   1.706 -0.6892 -0.3334 -0.2571
 2250SOL    HW118212   1.576   2.878   1.645  0.1373 -0.2398  0.2633
 2250SOL    HW218213   1.460   2.985   1.665  0.7026  1.5333 -0.4195
 2251SOL     OW18214   3.440   0.439   0.647 -0.3051  0.1332  0.6234
 2251SOL    HW118215   3.486   0.412   0.567  0.0729 -0.1880  0.9489
 2251SOL    HW218216   3.520   0.434   0.700  0.9741 -0.0037 -1.3118
 2252SOL     OW18217   3.544   0.462   1.036 -0.2961 -0.0637  0.1613
 2252SOL    HW118218   3.549   0.549   0.998  0.8962 -0.4958 -0.6614
 2252SOL    HW218219   3.464   0.481   1.086  0.3122  0.8291  0.7824
 2253SOL     OW18220   4.660   3.481   0.214  0.8580 -0.2330  0.2074
 2253SOL    HW118221   4.626   3.481   0.124 -1.0571 -0.0649  0.9205
 2253SOL    HW218222   4.607   3.413   0.257 -0.1350  0.6046  0.3148
 2254SOL     OW18223   2.091   3.694  17.587 -0.0021 -0.8461  0.1941
 2254SOL    HW118224   2.167   3.727  17.636 -1.2335 -0.7079  2.0054
 2254SOL    HW218225   2.059   3.622  17.641  2.1556 -1.4708  0.6658
 2255SOL     OW18226   0.678   3.475   1.634  0.5035  0.0020  0.2411
 2255SOL    HW118227   0.601   3.446   1.683  2.2861 -0.1384  2.9687
 2255SOL    HW218228   0.648   3.548   1.581 -0.6156  0.7913  1.9449
 2256SOL     OW18229   1.120   3.896   3.563 -0.0619  0.1240 -0.1760
 2256SOL    HW118230   1.142   3.905   3.656 -0.5511 -0.1509 -0.0280
 2256SOL    HW218231   1.062   3.820   3.571  0.4188 -0.1854  0.3436
 2257SOL     OW18232   2.400   4.524   2.454 -0.1997 -0.9064  0.0283
 2257SOL    HW118233   2.367   4.614   2.454  1.2261 -0.3867 -0.5919
 2257SOL    HW218234   2.469   4.529   2.389  0.7447 -1.3985  0.9815
 2258SOL     OW18235   3.536   0.053  12.495  0.2584 -0.6210 -0.2073
 2258SOL    HW118236   3.569   4.704  12.447 -2.2000 -1.7508 -0.1249
 2258SOL    HW218237   3.593   0.046  12.572  1.5338  1.1173 -0.9766
 2259SOL     OW18238   0.873   1.847  16.068 -0.5457  0.1686 -0.1441
 2259SOL    HW118239   0.874   1.797  16.149  0.2218  0.1092 -0.1818
 2259SOL    HW218240   0.864   1.782  15.998  2.7680  0.6393 -1.0135
 2260SOL     OW18241   3.153   4.500   3.151  0.0058  1.0738 -0.3913
 2260SOL    HW118242   3.213   4.570   3.179  0.1504  0.9437 -0.3792
 2260SOL    HW218243   3.222   4.443   3.119 -1.0708  0.4875 -1.6389
 2261SOL     OW18244   0.403   2.581   8.148 -0.5981  0.0194 -0.3020
 2261SOL    HW118245   0.396   2.529   8.068  2.5880 -0.9120  0.0153
 2261SOL    HW218246   0.464   2.651   8.124 -1.2050  0.1126 -1.6128
 2262SOL     OW18247   1.142   1.877  16.789  0.4323 -0.0905  0.8426
 2262SOL    HW118248   1.236   1.879  16.773 -0.0644 -2.9666 -2.6563
 2262SOL    HW218249   1.110   1.964  16.766 -0.6003 -1.1277 -1.6998
 2263SOL     OW18250   0.461   2.426  10.201  0.2053  0.3912 -0.2481
 2263SOL    HW118251   0.529   2.404  10.265  0.9730 -0.7885 -1.4644
 2263SOL    HW218252   0.415   2.503  10.235 -3.3166 -2.9435  2.6557
 2264SOL     OW18253   2.257   0.408   3.898  0.1533 -0.2332  0.3145
 2264SOL    HW118254   2.235   0.334   3.841 -0.0786  0.2203 -0.1833
 2264SOL    HW218255   2.168   0.440   3.913  1.0971  2.4772  0.1366
 2265SOL     OW18256   3.076   0.829   1.118  0.1605  0.5915 -0.5531
 2265SOL    HW118257   3.151   0.775   1.091  0.3882  1.1075 -0.9497
 2265SOL    HW218258   3.005   0.770   1.144 -1.4106  3.2550  1.1084
 2266SOL     OW18259   2.852   2.739   5.919  0.7391 -0.2027 -0.0533
 2266SOL    HW118260   2.830   2.789   5.840  1.0959  0.5948  0.3608
 2266SOL    HW218261   2.881   2.808   5.978 -1.2978  0.5338  0.1068
 2267SOL     OW18262   1.027   3.931  11.742  0.0213 -0.0746 -0.2420
 2267SOL    HW118263   0.938   3.935  11.779 -0.0815  1.1688 -0.5996
 2267SOL    HW218264   1.058   3.856  11.793  1.5917  0.3506 -0.5935
 2268SOL     OW18265   3.984   1.899   8.827  0.1327  0.0182 -0.8239
 2268SOL    HW118266   4.079   1.895   8.836  0.2088  2.1828 -0.5775
 2268SOL    HW218267   3.961   1.991   8.812 -4.0588 -0.7054  1.3132
 2269SOL     OW18268   4.436   4.716   2.984 -0.0429 -0.2258 -0.0771
 2269SOL    HW118269   4.464   4.627   2.965  1.6761 -0.6328  4.2927
 2269SOL    HW218270   4.357   4.708   3.038 -0.0834  1.5862  0.1385
 2270SOL     OW18271   0.600   3.744   7.729  0.0320  0.1498  0.2198
 2270SOL    HW118272   0.634   3.701   7.808  0.3028  0.2509  0.1600
 2270SOL    HW218273   0.539   3.677   7.698  0.2975 -0.4157  0.9183
 2271SOL     OW18274   1.007   0.184   6.056 -0.3254  0.0904  0.3289
 2271SOL    HW118275   0.971   0.221   6.136 -1.0020 -0.5630  0.3263
 2271SOL    HW218276   1.032   0.095   6.082  0.4167  0.7389  1.8138
 2272SOL     OW18277   0.033   4.321   4.855 -0.2998 -0.2256 -0.0065
 2272SOL    HW118278   0.094   4.375   4.804 -0.3164 -0.6888 -0.5167
 2272SOL    HW218279   0.058   4.356   4.940 -1.4839 -0.2754  0.3618
 2273SOL     OW18280   1.555   0.871   8.255 -0.3185 -0.0700 -0.0891
 2273SOL    HW118281   1.488   0.843   8.193  0.1158  1.2321 -1.1429
 2273SOL    HW218282   1.573   0.956   8.215 -2.6242 -0.3062 -1.6324
 2274SOL     OW18283   0.988   3.344   6.010  0.5204  0.1661 -0.1783
 2274SOL    HW118284   0.919   3.364   5.946 -0.5843 -1.2401  0.5934
 2274SOL    HW218285   0.949   3.361   6.096  1.0506 -1.6612  0.4041
 2275SOL     OW18286   3.420   3.840   1.033 -0.2545 -0.9296  0.2719
 2275SOL    HW118287   3.354   3.795   1.086 -0.5115  1.0633  1.6472
 2275SOL    HW218288   3.447   3.916   1.084  1.0203 -1.7817  0.8751
 2276SOL     OW18289   3.370   3.501   8.511  0.0562 -0.0689 -0.0561
 2276SOL    HW118290   3.352   3.416   8.471 -0.2966 -0.7570  1.5570
 2276SOL    HW218291   3.275   3.510   8.520 -0.0962 -1.4131 -0.3627
 2277SOL     OW18292   3.578   2.821   2.660 -0.3353  0.6079 -0.4743
 2277SOL    HW118293   3.643   2.891   2.648 -0.1714  0.2367 -1.7964
 2277SOL    HW218294   3.500   2.865   2.628 -0.6946 -0.0755 -0.5266
 2278SOL     OW18295   3.825   0.817   7.434  0.3427 -0.1945 -0.4657
 2278SOL    HW118296   3.801   0.865   7.513 -0.1445  0.0950 -0.7865
 2278SOL    HW218297   3.849   0.734   7.474 -3.0679 -1.3122 -0.7782
 2279SOL     OW18298   0.951   0.717   4.827  0.6150 -0.0144 -0.3290
 2279SOL    HW118299   0.967   0.738   4.735  1.0038  0.1981 -0.2151
 2279SOL    HW218300   0.934   0.623   4.828 -2.1214  0.4888 -2.2147
 2280SOL     OW18301   1.241   1.180   1.288  0.5892 -0.1984 -0.7801
 2280SOL    HW118302   1.264   1.197   1.379 -0.3934  0.8712 -0.7341
 2280SOL    HW218303   1.287   1.257   1.253 -1.0002  1.8788  1.6986
 2281SOL     OW18304   2.860   1.540   3.128 -0.0848  0.0003  0.4959
 2281SOL    HW118305   2.911   1.615   3.096 -0.3187 -0.4886 -0.9935
 2281SOL    HW218306   2.885   1.551   3.220  4.5463  2.1552 -0.9993
 2282SOL     OW18307   2.815   0.033   6.987  0.8790  0.4938  0.0045
 2282SOL    HW118308   2.864   0.081   6.920  2.0696 -2.6485 -1.3843
 2282SOL    HW218309   2.880   0.002   7.050  1.3326 -1.5036 -1.4561
 2283SOL     OW18310   3.689   3.369   6.640  0.7056  0.0009  0.1384
 2283SOL    HW118311   3.690   3.406   6.552 -0.5480 -0.9241 -0.2629
 2283SOL    HW218312   3.602   3.330   6.629  1.0594 -0.2059 -1.9116
 2284SOL     OW18313   1.259   0.365   2.097  0.1329  0.0878  0.1134
 2284SOL    HW118314   1.248   0.390   2.005 -0.9681 -0.1221  0.1838
 2284SOL    HW218315   1.342   0.410   2.109  0.2754  0.0277 -0.7088
 2285SOL     OW18316   0.109   3.028   4.778 -0.2434  0.3727 -0.1990
 2285SOL    HW118317   0.126   2.935   4.764 -0.0464  0.6259 -1.6573
 2285SOL    HW218318   0.195   3.064   4.755  0.3376 -1.3069 -0.6768
 2286SOL     OW18319   4.214   0.715   3.457  1.1751 -0.1184  0.4596
 2286SOL    HW118320   4.143   0.672   3.410  1.0099 -1.1975  1.6733
 2286SOL    HW218321   4.222   0.658   3.534  1.0679 -1.1299 -0.2874
 2287SOL     OW18322   4.410   4.683  10.317  0.2578  0.2333  0.1976
 2287SOL    HW118323   4.482   4.712  10.373  0.5069  0.4975 -0.2648
 2287SOL    HW218324   4.410   4.588  10.324  2.6173  0.1028 -1.8750
 2288SOL     OW18325   4.618   3.092   1.815 -0.3611 -0.0603 -0.1615
 2288SOL    HW118326   4.566   3.029   1.765 -0.4111 -0.9249  0.9903
 2288SOL    HW218327   4.703   3.050   1.802  0.1225  0.6107  0.8020
 2289SOL     OW18328   4.451   3.617   4.288 -0.2518 -0.4619  0.3996
 2289SOL    HW118329   4.449   3.652   4.199  0.7913 -1.4910 -0.0283
 2289SOL    HW218330   4.427   3.693   4.340 -0.3465 -1.2067  1.4438
 2290SOL     OW18331   2.443   3.005  10.366  0.0412  0.3664 -0.3630
 2290SOL    HW118332   2.496   3.065  10.312  1.1334  0.2654  0.5982
 2290SOL    HW218333   2.451   2.932  10.305  0.7327 -0.2688  0.4926
 2291SOL     OW18334   2.194   3.915   4.105  0.6221  0.4054  0.4377
 2291SOL    HW118335   2.141   3.977   4.155 -1.3238  0.0779 -1.2417
 2291SOL    HW218336   2.136   3.878   4.039  1.6275  0.0563 -0.2507
 2292SOL     OW18337   4.511   0.938   9.576  0.5475  0.2449  0.3569
 2292SOL    HW118338   4.543   0.851   9.599 -0.5470 -0.0956  0.5871
 2292SOL    HW218339   4.496   0.921   9.483 -0.6754 -0.2770  0.6570
 2293SOL     OW18340   1.454   1.804   8.139  0.0001 -0.1119 -0.0053
 2293SOL    HW118341   1.399   1.814   8.061 -0.7697  0.9420  0.6663
 2293SOL    HW218342   1.393   1.832   8.207 -0.7638 -0.3303 -0.5993
 2294SOL     OW18343   3.214   2.627   2.426 -0.3254 -0.1848  0.5650
 2294SOL    HW118344   3.307   2.614   2.445 -0.5511  0.3625  2.0620
 2294SOL    HW218345   3.165   2.552   2.459  0.2050  0.1257  2.0574
 2295SOL     OW18346   2.991   2.833   1.119  0.2927 -0.6904  0.3372
 2295SOL    HW118347   2.975   2.743   1.147 -0.7235 -0.3087  0.9924
 2295SOL    HW218348   2.911   2.869   1.157  2.2940  0.6779  3.2677
 2296SOL     OW18349   4.457   4.164   4.411 -0.1472 -0.1801  0.0575
 2296SOL    HW118350   4.489   4.118   4.488 -2.4179 -1.2982  0.3187
 2296SOL    HW218351   4.539   4.172   4.361  0.4136  2.2294  1.3567
 2297SOL     OW18352   3.022   0.783   6.721 -0.3806 -0.3463 -0.4022
 2297SOL    HW118353   3.075   0.802   6.644  0.0925  2.2738  0.5795
 2297SOL    HW218354   3.026   0.688   6.716  0.7856 -0.4116  1.7548
 2298SOL     OW18355   0.538   1.869   5.008  0.3912 -0.6271  0.5863
 2298SOL    HW118356   0.553   1.816   5.086  3.2897 -1.6562 -0.6287
 2298SOL    HW218357   0.448   1.844   4.988 -0.0210 -0.8229  2.7010
 2299SOL     OW18358   1.684   2.554   6.589 -0.2722  0.2180  0.2273
 2299SOL    HW118359   1.622   2.486   6.564  0.1597  0.7546 -2.3194
 2299SOL    HW218360   1.697   2.603   6.508 -0.7730 -0.7957 -0.4547
 2300SOL     OW18361   2.128   1.770   5.057  0.1077 -0.4811  0.4358
 2300SOL    HW118362   2.075   1.700   5.096 -0.5548 -0.3701 -0.2747
 2300SOL    HW218363   2.192   1.796   5.123 -0.6565 -0.0862  1.0192
 2301SOL     OW18364   2.385   0.330   8.329  0.6332  0.1085  0.5160
 2301SOL    HW118365   2.425   0.303   8.412  0.0082 -1.1928  0.4065
 2301SOL    HW218366   2.430   0.413   8.315 -0.4640  0.8688  1.4403
 2302SOL     OW18367   1.394   2.544   8.372 -0.0461  0.0873 -0.8637
 2302SOL    HW118368   1.446   2.504   8.303  0.4164  0.6011 -0.8158
 2302SOL    HW218369   1.305   2.555   8.337 -0.1824 -0.9094 -0.8226
 2303SOL     OW18370   1.480   2.659  16.089  0.6068 -0.0696  0.0107
 2303SOL    HW118371   1.400   2.695  16.128  0.6285 -0.1445  0.1232
 2303SOL    HW218372   1.549   2.669  16.155  1.3648 -1.8687 -0.5342
 2304SOL     OW18373   1.297   3.933   7.835 -0.3071 -0.2967 -0.1109
 2304SOL    HW118374   1.262   3.845   7.851  1.0258 -1.1623 -1.9486
 2304SOL    HW218375   1.349   3.918   7.756 -0.5033 -0.8520 -0.1337
 2305SOL     OW18376   4.508   0.131   0.301  0.3444  0.1179  0.1168
 2305SOL    HW118377   4.500   0.041   0.267  1.7439  1.1928 -3.1108
 2305SOL    HW218378   4.424   0.144   0.345 -0.3157  1.4786 -1.5290
 2306SOL     OW18379   0.856   3.145   6.416  0.2407  0.0794  0.1898
 2306SOL    HW118380   0.874   3.214   6.352 -1.9925 -0.0877 -0.6091
 2306SOL    HW218381   0.802   3.190   6.481  0.9752  2.3698 -0.7769
 2307SOL     OW18382   4.381   0.155  15.886  0.4328 -0.5109  0.5147
 2307SOL    HW118383   4.299   0.206  15.888  0.0489 -1.2755  3.7153
 2307SOL    HW218384   4.422   0.186  15.967 -0.5135  3.6147 -0.5601
 2308SOL     OW18385   2.662   3.258  11.073  0.1339 -0.4642  0.4042
 2308SOL    HW118386   2.603   3.243  10.999  1.1524 -0.6877 -0.3512
 2308SOL    HW218387   2.618   3.334  11.114 -1.7884 -1.9938  1.1797
 2309SOL     OW18388   4.141   1.463   9.917  0.2037  0.0041 -0.4759
 2309SOL    HW118389   4.142   1.390   9.855 -0.2991 -0.8954  0.5902
 2309SOL    HW218390   4.201   1.524   9.873 -1.9412  2.8211  0.5364
 2310SOL     OW18391   0.197   0.217   2.235  0.1329 -0.0884 -0.7263
 2310SOL    HW118392   0.255   0.264   2.175 -1.0152 -0.0413 -1.8161
 2310SOL    HW218393   0.162   0.156   2.169 -0.9329 -0.9267  0.5970
 2311SOL     OW18394   2.757   4.436   6.992 -0.4663 -0.6071 -0.1084
 2311SOL    HW118395   2.708   4.476   7.064 -1.4313 -1.2176 -0.4229
 2311SOL    HW218396   2.835   4.402   7.037 -1.1274  0.1096  1.5552
 2312SOL     OW18397   2.500   1.573  10.221  0.1549 -0.1418 -0.6199
 2312SOL    HW118398   2.583   1.582  10.269 -0.5566 -0.2741  0.6317
 2312SOL    HW218399   2.501   1.659  10.179 -0.9037  0.3664  0.4138
 2313SOL     OW18400   4.188   1.210  15.191  0.0070 -0.2358 -0.4931
 2313SOL    HW118401   4.246   1.245  15.124  0.1962 -0.9078 -0.6800
 2313SOL    HW218402   4.138   1.286  15.221 -0.0272 -0.8677  1.0629
 2314SOL     OW18403   1.653   2.398  10.956  0.5539  0.2055  0.0942
 2314SOL    HW118404   1.740   2.438  10.959  1.0215 -0.9755  2.3195
 2314SOL    HW218405   1.596   2.475  10.956 -2.3187 -1.9115  1.8934
 2315SOL     OW18406   2.045   2.475   6.977  0.8168 -0.8044  0.4184
 2315SOL    HW118407   2.046   2.493   7.071 -2.4271  2.0152 -0.0739
 2315SOL    HW218408   2.136   2.452   6.958  0.7913 -0.6151  0.0738
 2316SOL     OW18409   3.189   3.020  14.677 -0.3347  0.2684  0.1935
 2316SOL    HW118410   3.177   3.078  14.603  0.9497 -1.2738 -1.2088
 2316SOL    HW218411   3.270   2.972  14.658  0.5855  1.7810  0.3187
 2317SOL     OW18412   4.233   1.021   3.812  0.1394 -0.3984 -0.0153
 2317SOL    HW118413   4.294   0.949   3.799 -0.0598 -0.8164  1.3903
 2317SOL    HW218414   4.287   1.100   3.803 -0.4549  0.0592  0.4618
 2318SOL     OW18415   3.795   2.576   0.185  0.1071 -0.5424  0.1132
 2318SOL    HW118416   3.859   2.545   0.122 -0.3354  1.2199 -1.2089
 2318SOL    HW218417   3.762   2.657   0.145 -0.5426 -1.0921 -0.4746
 2319SOL     OW18418   4.526   2.930   5.528 -0.2830  0.3012  0.5998
 2319SOL    HW118419   4.432   2.915   5.534 -0.1395 -0.8774  0.0339
 2319SOL    HW218420   4.542   2.990   5.600  0.8715 -0.6676  1.1540
 2320SOL     OW18421   2.734   4.126   8.661  0.7396 -0.2093  0.0887
 2320SOL    HW118422   2.823   4.096   8.679  1.4649  1.1271 -1.2301
 2320SOL    HW218423   2.717   4.186   8.733  0.3836 -0.5573  0.2962
 2321SOL     OW18424   3.435   1.171   8.262 -0.1054 -0.8790 -0.5775
 2321SOL    HW118425   3.401   1.221   8.336  2.1581  3.2947 -2.4032
 2321SOL    HW218426   3.356   1.118   8.249 -1.9266  2.5297 -3.1123
 2322SOL     OW18427   2.699   2.705   6.378 -0.1213 -0.3810  0.1977
 2322SOL    HW118428   2.700   2.633   6.315  1.5083 -1.3313  1.3161
 2322SOL    HW218429   2.614   2.699   6.423  1.1485 -1.7885  2.4314
 2323SOL     OW18430   3.850   0.773   6.162 -0.4077  0.2447 -0.3166
 2323SOL    HW118431   3.859   0.681   6.136 -0.5777  0.1895 -0.1813
 2323SOL    HW218432   3.929   0.811   6.123 -0.7462  1.2933  0.0276
 2324SOL     OW18433   0.944   1.125  15.534 -0.2088 -0.5631 -0.1925
 2324SOL    HW118434   0.921   1.170  15.616 -0.7215 -2.0680  0.5017
 2324SOL    HW218435   1.011   1.067  15.571 -0.1874  0.5982  1.5996
 2325SOL     OW18436   0.931   2.704   3.408 -0.3981 -0.1083 -0.2646
 2325SOL    HW118437   0.988   2.760   3.461 -1.1448  2.9607 -2.7298
 2325SOL    HW218438   0.992   2.666   3.346 -0.9566 -2.6863  0.7456
 2326SOL     OW18439   0.431   4.199   6.450 -0.3118  0.2919  0.4118
 2326SOL    HW118440   0.488   4.123   6.459  1.9221  1.8799 -0.2425
 2326SOL    HW218441   0.425   4.194   6.355  2.1574  0.7016  0.2383
 2327SOL     OW18442   1.151   1.741   8.701 -0.2159  0.0881  0.1513
 2327SOL    HW118443   1.173   1.648   8.707 -0.3800  0.0525  0.2026
 2327SOL    HW218444   1.100   1.759   8.780  2.0116  1.9903  1.1543
 2328SOL     OW18445   1.591   0.396   8.642 -0.0068 -0.0357 -0.1064
 2328SOL    HW118446   1.591   0.490   8.657  2.3932 -0.3226  1.5722
 2328SOL    HW218447   1.659   0.401   8.575 -1.0241 -0.4214 -1.1779
 2329SOL     OW18448   3.960   4.404   0.489  0.6052  0.2379  0.7235
 2329SOL    HW118449   3.958   4.412   0.394 -0.8022 -4.4408  0.3758
 2329SOL    HW218450   3.936   4.496   0.499 -0.7172 -0.2173  1.6126
 2330SOL     OW18451   1.528   3.165  13.243  0.6257 -0.6310 -0.0513
 2330SOL    HW118452   1.563   3.183  13.331  0.2384  1.3565 -0.3061
 2330SOL    HW218453   1.542   3.072  13.228 -0.4843 -0.5271 -1.7145
 2331SOL     OW18454   2.720   0.538   4.521  0.3612 -0.4533 -0.1894
 2331SOL    HW118455   2.741   0.471   4.586  0.1710 -0.8005 -0.4777
 2331SOL    HW218456   2.644   0.491   4.485  1.0842 -2.0167  0.3298
 2332SOL     OW18457   1.767   3.269   7.635  0.0962 -0.1833  0.3491
 2332SOL    HW118458   1.687   3.313   7.605  0.3764  0.1339  0.0806
 2332SOL    HW218459   1.809   3.258   7.550  1.0488 -0.5588  0.8699
 2333SOL     OW18460   2.161   1.705   2.950 -0.0453 -0.1281 -0.4145
 2333SOL    HW118461   2.095   1.745   2.893 -1.4689 -1.9259 -0.0423
 2333SOL    HW218462   2.218   1.775   2.980 -1.5848  0.8469  0.1719
 2334SOL     OW18463   2.341   3.370   2.941 -0.3218  0.2171  0.3317
 2334SOL    HW118464   2.346   3.444   2.881 -1.2242  0.1699  0.2000
 2334SOL    HW218465   2.269   3.318   2.906  0.8309 -0.4880 -0.9822
 2335SOL     OW18466   4.291   2.643  17.157 -0.8493  0.1511  0.3048
 2335SOL    HW118467   4.346   2.568  17.137  0.2575  1.4499 -1.5639
 2335SOL    HW218468   4.210   2.615  17.114  0.3903 -0.4527 -1.6176
 2336SOL     OW18469   2.115   1.868   8.800  0.1907 -0.0928 -0.6906
 2336SOL    HW118470   2.204   1.833   8.797  0.8122  1.2497  1.6037
 2336SOL    HW218471   2.087   1.871   8.892 -0.2901  1.5228 -0.8910
 2337SOL     OW18472   3.146   1.547   1.608 -0.0215 -0.1851 -0.3003
 2337SOL    HW118473   3.070   1.605   1.609 -0.7460 -1.1570  1.1480
 2337SOL    HW218474   3.192   1.562   1.690  0.7404  2.0877 -1.1418
 2338SOL     OW18475   2.831   1.913   7.403 -0.1694  0.2525  0.1368
 2338SOL    HW118476   2.898   1.945   7.464 -0.0894 -1.3740  0.9309
 2338SOL    HW218477   2.754   1.929   7.458  0.9412 -1.3479  2.2206
 2339SOL     OW18478   1.690   3.635  11.023 -0.0803 -0.9241  0.3767
 2339SOL    HW118479   1.777   3.619  10.987  0.9114  0.1590  2.2868
 2339SOL    HW218480   1.652   3.553  10.993  0.8973 -0.8947 -0.9147
 2340SOL     OW18481   3.786   4.214   0.645  0.1291  0.2918  0.0758
 2340SOL    HW118482   3.748   4.258   0.721  1.3438 -0.3979  1.0864
 2340SOL    HW218483   3.737   4.132   0.646 -2.1378  1.6599  0.6895
 2341SOL     OW18484   1.869   0.299   6.532  0.2022  0.0746 -0.1313
 2341SOL    HW118485   1.784   0.320   6.494 -0.1863  0.6440  1.0499
 2341SOL    HW218486   1.892   0.352   6.609  2.7255  0.8091 -1.4023
 2342SOL     OW18487   3.217   2.073   4.811  0.4081 -0.2737 -0.2323
 2342SOL    HW118488   3.174   2.124   4.742  0.7179 -2.6787 -2.2090
 2342SOL    HW218489   3.239   2.002   4.751  0.5587  0.7093 -1.3333
 2343SOL     OW18490   0.834   2.358   6.145 -0.1514  0.1843 -0.2413
 2343SOL    HW118491   0.836   2.373   6.050 -0.9252  1.7257 -0.0097
 2343SOL    HW218492   0.745   2.323   6.155  0.1023 -0.1023  1.0246
 2344SOL     OW18493   0.433   1.263   5.567 -0.0105 -0.0302  0.3333
 2344SOL    HW118494   0.486   1.334   5.605 -0.3912  1.2870 -1.5725
 2344SOL    HW218495   0.403   1.217   5.645 -0.7297 -1.5265 -0.8269
 2345SOL     OW18496   1.771   2.186   8.810 -0.0526  0.3077  0.3810
 2345SOL    HW118497   1.730   2.221   8.731 -0.0966  2.1138  1.2243
 2345SOL    HW218498   1.859   2.163   8.779 -0.6323  0.4495 -1.3756
 2346SOL     OW18499   4.562   1.741  10.420  0.7950  0.2018 -0.2183
 2346SOL    HW118500   4.619   1.786  10.482  1.4625 -0.0188 -0.6604
 2346SOL    HW218501   4.480   1.789  10.412  0.3752 -0.9099 -2.6201
 2347SOL     OW18502   3.942   2.757   0.415 -0.0182  0.0812 -0.3702
 2347SOL    HW118503   3.878   2.689   0.390 -1.3220  0.0020  3.2302
 2347SOL    HW218504   3.979   2.718   0.494  1.0934  2.6709  0.3645
 2348SOL     OW18505   4.241   1.794   6.874 -0.0049 -0.0866  0.4004
 2348SOL    HW118506   4.171   1.762   6.817  1.1360 -0.0874 -1.0322
 2348SOL    HW218507   4.258   1.715   6.925 -0.1106  0.1407  0.7811
 2349SOL     OW18508   3.438   4.623   7.532 -0.1710  0.1620 -0.7931
 2349SOL    HW118509   3.414   4.619   7.625 -1.7069  2.4967 -1.0838
 2349SOL    HW218510   3.451   4.714   7.506 -0.9839  0.3929 -0.4150
 2350SOL     OW18511   4.540   0.491   8.998 -0.1006 -0.5926 -0.3390
 2350SOL    HW118512   4.545   0.398   9.017 -0.1253 -1.3560 -4.0204
 2350SOL    HW218513   4.569   0.521   9.084 -1.2046 -3.6859  1.1141
 2351SOL     OW18514   0.971   1.036  13.339 -0.5185 -0.1030 -0.2438
 2351SOL    HW118515   0.959   1.126  13.310 -2.2251 -0.4897 -0.6884
 2351SOL    HW218516   1.036   1.017  13.271 -1.0801  0.8438 -1.0372
 2352SOL     OW18517   1.650   1.924   9.242 -0.6316 -0.1311  0.0323
 2352SOL    HW118518   1.557   1.902   9.236 -0.7007 -0.2476  1.5186
 2352SOL    HW218519   1.642   1.992   9.176 -3.0330 -0.6251 -0.1780
 2353SOL     OW18520   2.749   2.005   8.541  0.5669  0.5464  0.0780
 2353SOL    HW118521   2.721   1.965   8.623 -0.0237  0.6503 -0.0708
 2353SOL    HW218522   2.756   1.924   8.491 -2.0387  0.0185  0.5931
 2354SOL     OW18523   4.705   1.327   6.757 -0.1897  0.0550  0.1900
 2354SOL    HW118524   0.013   1.352   6.671  0.7643 -1.4989  0.1094
 2354SOL    HW218525   0.023   1.243   6.770 -0.1122  0.1452  0.5022
 2355SOL     OW18526   3.549   0.257   4.693 -0.0063 -0.4729  0.1003
 2355SOL    HW118527   3.634   0.220   4.717 -0.9278 -2.0334  0.9439
 2355SOL    HW218528   3.553   0.346   4.729 -1.4530  0.0698 -1.1133
 2356SOL     OW18529   2.501   3.215   7.401 -0.0398 -0.5391  0.2686
 2356SOL    HW118530   2.587   3.255   7.413  0.0799 -0.9953  0.9591
 2356SOL    HW218531   2.515   3.173   7.316  0.7104 -1.0420  0.6362
 2357SOL     OW18532   2.716   2.443   9.436  0.0305 -0.0135  0.4917
 2357SOL    HW118533   2.805   2.426   9.405  0.1551  2.4135 -0.4172
 2357SOL    HW218534   2.676   2.358   9.419 -0.7510  0.3372  0.5846
 2358SOL     OW18535   0.904   4.163   3.966  0.1637  0.1683  0.3835
 2358SOL    HW118536   0.970   4.221   3.928  1.2200 -1.3127 -0.0584
 2358SOL    HW218537   0.861   4.133   3.886  1.5650  1.2560 -0.7792
 2359SOL     OW18538   2.622   4.595  10.587 -0.3835 -0.6202  0.0512
 2359SOL    HW118539   2.635   4.532  10.657  0.2965 -2.0189 -1.3289
 2359SOL    HW218540   2.622   4.542  10.507 -1.4948 -1.7352  0.8051
 2360SOL     OW18541   4.229   3.589   2.203  0.3807 -0.0724 -0.2925
 2360SOL    HW118542   4.191   3.561   2.120  0.9604 -0.0322 -0.5696
 2360SOL    HW218543   4.296   3.655   2.184 -1.1792  0.7457 -2.9420
 2361SOL     OW18544   3.713   0.751  17.572  0.4049 -0.1467 -0.2066
 2361SOL    HW118545   3.677   0.834  17.604 -0.2791 -0.0700 -1.1691
 2361SOL    HW218546   3.640   0.722  17.517 -0.0868 -0.4237  0.5941
 2362SOL     OW18547   1.181   2.973   3.780  0.7846  0.2094 -0.1409
 2362SOL    HW118548   1.196   3.039   3.848  0.6671 -2.0567  2.1069
 2362SOL    HW218549   1.172   2.888   3.825 -1.0597  1.3412  1.6244
 2363SOL     OW18550   3.625   0.781  10.117  0.3239 -0.4001  0.3448
 2363SOL    HW118551   3.706   0.788  10.067 -1.2397 -1.3949 -2.3312
 2363SOL    HW218552   3.582   0.853  10.071 -0.6840 -0.3857  1.3141
 2364SOL     OW18553   1.059   0.419   7.337 -0.3991  0.3328  0.0846
 2364SOL    HW118554   1.144   0.460   7.318 -0.2187 -0.4381 -0.8147
 2364SOL    HW218555   1.096   0.338   7.371  0.8146 -0.6562 -3.5068
 2365SOL     OW18556   2.716   0.066  13.483 -0.4784  0.1019 -0.6342
 2365SOL    HW118557   2.620   0.067  13.485 -0.4480 -1.3780  0.8495
 2365SOL    HW218558   2.724   4.701  13.454  0.5513 -0.2780  0.8639
 2366SOL     OW18559   1.971   2.108  11.470  0.2831  1.2519  0.4071
 2366SOL    HW118560   2.031   2.182  11.475  0.2419  1.2483  0.9341
 2366SOL    HW218561   1.960   2.104  11.375  0.2716 -1.0225  0.5142
 2367SOL     OW18562   3.186   4.667   8.809  0.3710 -0.2949  0.2201
 2367SOL    HW118563   3.129   4.679   8.732  1.1205  2.1579  0.0643
 2367SOL    HW218564   3.263   4.718   8.786 -0.7122  0.9880 -0.5411
 2368SOL     OW18565   1.235   4.485  15.440 -0.5247 -0.5256 -0.0838
 2368SOL    HW118566   1.181   4.465  15.364 -1.5251 -0.4893  0.6230
 2368SOL    HW218567   1.234   4.400  15.483  0.4980 -1.1808 -1.3483
 2369SOL     OW18568   0.855   1.848   3.029  0.0924  0.8639  0.6203
 2369SOL    HW118569   0.902   1.765   3.017 -0.1298  0.6928  0.9299
 2369SOL    HW218570   0.837   1.863   3.122 -0.3331 -2.2070  1.0390
 2370SOL     OW18571   2.904   1.337   7.977  0.4414 -0.7066 -0.1208
 2370SOL    HW118572   2.964   1.275   7.935  0.8322 -0.5790  0.2475
 2370SOL    HW218573   2.831   1.327   7.916  0.0024  0.4281  0.2201
 2371SOL     OW18574   0.102   0.489   3.938  0.4078  0.0111 -0.3358
 2371SOL    HW118575   0.062   0.413   3.895  2.1391 -1.0814  0.0044
 2371SOL    HW218576   0.028   0.549   3.926  1.3323  1.4990  1.4075
 2372SOL     OW18577   3.576   1.926   4.483 -0.3556 -0.0259  0.8737
 2372SOL    HW118578   3.635   1.852   4.467 -1.0074 -0.7307  1.7458
 2372SOL    HW218579   3.575   1.929   4.578  0.5566 -2.7576  0.9623
 2373SOL     OW18580   0.072   1.714   6.974  0.4666  0.3560 -0.0084
 2373SOL    HW118581   0.044   1.641   7.030  0.0087  0.8135  0.3528
 2373SOL    HW218582   4.710   1.744   6.951  0.8926 -0.3812 -2.6447
 2374SOL     OW18583   2.190   2.800   3.563 -0.0705 -0.0895 -0.2103
 2374SOL    HW118584   2.142   2.745   3.625  0.7707  1.1194  1.4889
 2374SOL    HW218585   2.255   2.736   3.537 -1.4333 -0.9320 -1.5608
 2375SOL     OW18586   2.233   0.539   4.450  0.3020 -0.1598  0.0016
 2375SOL    HW118587   2.326   0.558   4.462  0.6496 -1.2542 -0.9264
 2375SOL    HW218588   2.213   0.608   4.387  1.7719 -0.5767 -0.9101
 2376SOL     OW18589   1.289   1.433   2.167  0.2496  0.0639  0.1041
 2376SOL    HW118590   1.287   1.392   2.080  0.9414 -2.6452  1.3528
 2376SOL    HW218591   1.199   1.413   2.193  0.2544 -1.1739 -0.7957
 2377SOL     OW18592   1.732   4.242  10.635  0.1656 -0.1196 -0.1790
 2377SOL    HW118593   1.696   4.328  10.660  0.7964  0.6333 -1.8389
 2377SOL    HW218594   1.743   4.252  10.541 -3.5575 -0.3930 -0.6559
 2378SOL     OW18595   0.650   1.437   9.496  0.1948  0.1932 -0.0838
 2378SOL    HW118596   0.569   1.483   9.515 -0.3596  0.7502 -3.6527
 2378SOL    HW218597   0.635   1.358   9.548  0.3093 -0.4884 -1.0819
 2379SOL     OW18598   4.593   4.197  16.259  0.4424 -0.0129  0.6470
 2379SOL    HW118599   4.539   4.184  16.337  1.9629  0.3018  1.7533
 2379SOL    HW218600   4.641   4.275  16.287  1.0327 -0.4786  0.9208
 2380SOL     OW18601   4.145   1.256   8.881 -0.2621 -0.3607 -0.3182
 2380SOL    HW118602   4.058   1.296   8.880 -0.3927 -0.6890 -1.9858
 2380SOL    HW218603   4.185   1.317   8.819 -0.1101  1.9932  2.1102
 2381SOL     OW18604   2.085   4.106   3.227 -0.6579 -0.6736 -0.2116
 2381SOL    HW118605   2.003   4.138   3.266 -0.5759  1.2143 -1.5805
 2381SOL    HW218606   2.088   4.160   3.147 -2.3537  1.7452  1.3482
 2382SOL     OW18607   1.484   4.173   6.854 -0.9220  0.0786 -0.2822
 2382SOL    HW118608   1.572   4.159   6.818  0.1223  1.7293  1.6641
 2382SOL    HW218609   1.459   4.246   6.796  0.4131  0.4894 -0.3490
 2383SOL     OW18610   3.113   1.050   4.973 -0.0702  0.0916  1.2786
 2383SOL    HW118611   3.094   1.142   4.958  0.1075 -0.2112 -0.7187
 2383SOL    HW218612   3.206   1.035   4.954 -0.1226  1.2682  0.1264
 2384SOL     OW18613   2.863   2.951   5.127 -0.5956  0.4068  0.3953
 2384SOL    HW118614   2.832   2.986   5.043 -0.7996 -0.0303  0.2880
 2384SOL    HW218615   2.905   3.027   5.168  1.4792 -0.6883  0.2803
 2385SOL     OW18616   0.283   1.946   9.976 -0.0641  0.5950 -0.4166
 2385SOL    HW118617   0.317   1.862  10.006  0.8848  1.2103  0.2443
 2385SOL    HW218618   0.362   1.980   9.932  0.3209 -0.5888 -0.6302
 2386SOL     OW18619   3.589   1.049   5.903 -0.2063 -0.6410 -0.3313
 2386SOL    HW118620   3.529   1.120   5.925  0.6299  0.0256 -0.2000
 2386SOL    HW218621   3.669   1.096   5.881 -0.9481  0.8020  0.0922
 2387SOL     OW18622   0.576   4.577  16.665 -0.2559 -0.2076 -0.0518
 2387SOL    HW118623   0.618   4.614  16.742  0.6018  1.5163 -1.3453
 2387SOL    HW218624   0.501   4.528  16.699 -0.3922 -0.4151 -0.6397
 2388SOL     OW18625   1.993   2.828   2.778 -0.0544 -0.0658 -0.2328
 2388SOL    HW118626   1.934   2.816   2.704  3.3101 -0.5219 -2.8620
 2388SOL    HW218627   2.079   2.796   2.752 -0.1128  0.8971 -1.6004
 2389SOL     OW18628   4.123   0.061   7.289 -0.4875 -0.1493  0.3883
 2389SOL    HW118629   4.187   0.009   7.242 -0.2678  1.1374 -0.7270
 2389SOL    HW218630   4.048   0.074   7.231  0.9413 -2.5288 -1.9204
 2390SOL     OW18631   3.145   0.675   8.704 -0.0430  0.0923 -0.5721
 2390SOL    HW118632   3.148   0.702   8.795 -0.0626 -2.2998  0.1245
 2390SOL    HW218633   3.054   0.693   8.684 -0.4640 -0.1999  1.1298
 2391SOL     OW18634   2.633   3.727  12.259 -0.1439  0.5688 -0.1344
 2391SOL    HW118635   2.568   3.671  12.218  0.0698  0.2101  0.0191
 2391SOL    HW218636   2.628   3.810  12.210  0.3783  0.2140 -0.7870
 2392SOL     OW18637   4.406   3.515   6.487 -0.0705  1.2147  0.0916
 2392SOL    HW118638   4.361   3.485   6.566 -1.2985  0.9430 -0.6966
 2392SOL    HW218639   4.336   3.550   6.432 -0.6272  1.1544  0.7598
 2393SOL     OW18640   2.256   3.664   6.993 -0.4410 -0.3877 -0.1620
 2393SOL    HW118641   2.270   3.735   6.931  4.1810 -0.1181  1.2160
 2393SOL    HW218642   2.204   3.713   7.056  1.0193  1.1805 -0.1789
 2394SOL     OW18643   3.241   2.538   3.052 -0.0505 -0.2048 -0.1452
 2394SOL    HW118644   3.213   2.449   3.029 -0.4884  0.6495 -3.0052
 2394SOL    HW218645   3.181   2.552   3.125 -1.4734 -3.7623 -0.6243
 2395SOL     OW18646   2.988   3.535   5.376 -0.6495 -0.0936 -0.1871
 2395SOL    HW118647   3.041   3.604   5.417  2.3801 -0.5962 -3.3027
 2395SOL    HW218648   2.984   3.477   5.452  1.8465  0.8146  0.6281
 2396SOL     OW18649   2.064   2.531  15.854 -0.5394  0.0342  0.0520
 2396SOL    HW118650   2.099   2.443  15.865  0.8708  0.8562  2.0470
 2396SOL    HW218651   2.109   2.553  15.773  2.3747  2.2371  2.2803
 2397SOL     OW18652   2.171   0.790   7.275 -0.1404 -0.5551 -0.5361
 2397SOL    HW118653   2.134   0.785   7.363 -0.4519 -0.8204 -0.6807
 2397SOL    HW218654   2.112   0.856   7.238  0.5861  0.1406 -0.4501
 2398SOL     OW18655   2.000   0.760   8.083 -0.1896 -0.0288  0.4739
 2398SOL    HW118656   2.033   0.791   8.168  1.9153 -2.5851  0.5921
 2398SOL    HW218657   2.083   0.734   8.043  0.5411 -1.4464  2.8987
 2399SOL     OW18658   4.540   3.142   5.739  0.3176  0.1894  0.4473
 2399SOL    HW118659   4.597   3.212   5.707 -1.9488  1.7880 -0.1364
 2399SOL    HW218660   4.450   3.163   5.715  0.0507  1.0720  2.2738
 2400SOL     OW18661   3.452   3.693   8.244  0.4355 -0.0984 -0.3343
 2400SOL    HW118662   3.356   3.692   8.253  0.5062 -1.8435  0.2609
 2400SOL    HW218663   3.464   3.780   8.205  1.5293  0.2118  0.6917
 2401SOL     OW18664   4.251   1.863   3.593 -0.0499  0.1804 -0.2302
 2401SOL    HW118665   4.284   1.913   3.519 -0.2046 -0.4720 -0.7416
 2401SOL    HW218666   4.172   1.823   3.557  0.2049  0.7052 -1.3616
 2402SOL     OW18667   1.208   1.059   8.074 -0.1436 -0.0319  0.2028
 2402SOL    HW118668   1.149   0.991   8.105 -0.3347  0.3431  0.6723
 2402SOL    HW218669   1.184   1.135   8.127  0.6931 -0.8379  1.7386
 2403SOL     OW18670   3.623   4.248   2.457  0.4295 -0.3159  0.0354
 2403SOL    HW118671   3.553   4.306   2.486  0.4655 -0.5454  0.5875
 2403SOL    HW218672   3.584   4.232   2.370 -2.6318  0.0233  1.3558
 2404SOL     OW18673   0.359   1.136   8.924 -0.4127  0.0375  0.1901
 2404SOL    HW118674   0.417   1.063   8.945  0.9119  0.1348 -3.1889
 2404SOL    HW218675   0.272   1.108   8.955 -0.2040  0.2202  0.9380
 2405SOL     OW18676   4.305   1.445   6.516  0.2554  0.6096  0.0109
 2405SOL    HW118677   4.305   1.448   6.612 -0.0087  2.2409 -0.0430
 2405SOL    HW218678   4.274   1.355   6.502  0.3967  0.1957  2.3288
 2406SOL     OW18679   4.217   2.214   1.724 -0.2982  0.2981 -0.4474
 2406SOL    HW118680   4.277   2.280   1.687 -0.2756  0.9806  0.7917
 2406SOL    HW218681   4.183   2.168   1.648 -3.8160  0.9390  0.7387
 2407SOL     OW18682   1.174   4.326   3.939 -0.6093 -0.2263  0.2171
 2407SOL    HW118683   1.138   4.392   3.880 -1.6295 -0.2813  0.7760
 2407SOL    HW218684   1.251   4.312   3.885 -0.1830  0.9140  0.5349
 2408SOL     OW18685   3.423   0.778   0.744 -0.2722 -0.5893  0.3319
 2408SOL    HW118686   3.518   0.785   0.735 -0.3828  0.2671 -0.1676
 2408SOL    HW218687   3.408   0.871   0.757  1.9342 -0.1837 -0.0595
 2409SOL     OW18688   1.520   0.237  16.635 -0.0448 -0.2234 -0.0907
 2409SOL    HW118689   1.492   0.306  16.695  0.3244 -1.7039  1.7965
 2409SOL    HW218690   1.438   0.188  16.624 -1.3146  1.9114 -0.1728
 2410SOL     OW18691   4.701   0.965   1.955 -0.1228 -0.4845  0.2063
 2410SOL    HW118692   4.690   1.060   1.962 -1.6826 -0.6182 -0.3577
 2410SOL    HW218693   0.035   0.942   2.025 -0.4390 -1.2605  0.2213
 2411SOL     OW18694   4.353   4.355  15.707  0.3146  0.1240  0.2356
 2411SOL    HW118695   4.315   4.275  15.745  0.3478 -1.0938 -2.2323
 2411SOL    HW218696   4.398   4.312  15.634 -0.6038 -2.3470  1.1039
 2412SOL     OW18697   2.884   2.223   3.813  0.1306 -0.1635  0.1032
 2412SOL    HW118698   2.832   2.294   3.849  0.3564 -0.1036  0.3123
 2412SOL    HW218699   2.851   2.222   3.724  2.2302  2.0496 -0.6870
 2413SOL     OW18700   3.929   4.351   4.085  0.3098  0.1819  0.2648
 2413SOL    HW118701   4.009   4.305   4.061 -0.6309 -0.2326 -2.0329
 2413SOL    HW218702   3.965   4.420   4.142 -0.2592 -0.1019  0.9651
 2414SOL     OW18703   1.165   4.162   9.057 -0.4454  0.4552 -0.5412
 2414SOL    HW118704   1.181   4.183   9.149 -1.2403 -0.0487 -0.2958
 2414SOL    HW218705   1.246   4.202   9.024 -0.2709  0.1920 -0.4343
 2415SOL     OW18706   0.371   0.981   3.992  0.4443 -0.3031  0.0681
 2415SOL    HW118707   0.347   0.894   4.026  0.9150 -0.6208 -0.4098
 2415SOL    HW218708   0.332   1.032   4.063 -0.2443 -0.1357 -0.4270
 2416SOL     OW18709   4.316   4.294   1.950  0.6443  0.2978 -0.2968
 2416SOL    HW118710   4.296   4.351   1.876 -1.0379  1.7723  1.2740
 2416SOL    HW218711   4.228   4.287   1.986  0.8207  1.5141  0.3884
 2417SOL     OW18712   2.012   1.434   7.491 -0.6388 -0.4775  0.7174
 2417SOL    HW118713   2.066   1.414   7.568  0.1766 -1.9176 -0.2155
 2417SOL    HW218714   1.978   1.519   7.518  2.8905  1.2225 -0.1725
 2418SOL     OW18715   0.849   4.562   2.341 -0.5397 -0.3625  0.1492
 2418SOL    HW118716   0.824   4.474   2.312  2.3137 -1.1384  0.0285
 2418SOL    HW218717   0.769   4.614   2.328  0.3555  0.7016 -1.1444
 2419SOL     OW18718   3.077   1.329   4.914 -0.1627  0.7893  0.1950
 2419SOL    HW118719   3.170   1.316   4.933  0.1727  0.4788 -1.6589
 2419SOL    HW218720   3.088   1.370   4.829  0.2362  1.1131  0.4007
 2420SOL     OW18721   3.686   2.429   2.909  1.2075  0.2554 -0.2692
 2420SOL    HW118722   3.706   2.516   2.874 -0.0692  0.7136  0.1527
 2420SOL    HW218723   3.618   2.398   2.850  0.3027 -0.4833  1.1693
 2421SOL     OW18724   4.535   3.609   0.963 -0.5780  0.0416  0.1526
 2421SOL    HW118725   4.486   3.663   1.025 -0.1146  0.0501  0.5134
 2421SOL    HW218726   4.572   3.677   0.906  0.1443 -0.0420  0.5220
 2422SOL     OW18727   4.413   0.220   8.191 -0.0356  0.5128  0.1918
 2422SOL    HW118728   4.504   0.205   8.166 -0.2840 -0.0432 -0.3948
 2422SOL    HW218729   4.367   0.223   8.107 -1.7185 -0.3314  1.0723
 2423SOL     OW18730   2.456   1.005   0.638  0.4853 -0.1755  0.2410
 2423SOL    HW118731   2.377   0.950   0.641  0.9084 -0.8030 -0.1816
 2423SOL    HW218732   2.524   0.948   0.674 -0.9730 -3.0192 -1.5269
 2424SOL     OW18733   3.997   0.943   2.294  0.1036  0.2928 -0.4529
 2424SOL    HW118734   3.990   0.871   2.358  0.9291 -0.9379 -1.7456
 2424SOL    HW218735   3.932   0.915   2.230  0.6062 -2.3400  0.1558
 2425SOL     OW18736   3.988   3.951   2.293 -0.0322  0.1797  0.0244
 2425SOL    HW118737   4.038   3.993   2.222 -1.5584 -1.0445 -1.7905
 2425SOL    HW218738   3.906   3.954   2.244 -0.1655 -0.0562  0.2330
 2426SOL     OW18739   0.246   4.601  15.658  0.2163  0.4294  0.2181
 2426SOL    HW118740   0.152   4.591  15.647  0.3050  1.0397 -1.2546
 2426SOL    HW218741   0.263   4.654  15.579 -0.4007  0.8429  0.3609
 2427SOL     OW18742   0.914   3.694   4.233  0.4035  0.1838  0.4461
 2427SOL    HW118743   0.939   3.785   4.246 -0.4500  0.4777  0.0623
 2427SOL    HW218744   0.859   3.718   4.158  2.6138  0.5873 -1.0144
 2428SOL     OW18745   3.027   3.748   6.842  0.0205  0.0261  0.3929
 2428SOL    HW118746   3.102   3.693   6.865  0.4901  0.9813  1.1169
 2428SOL    HW218747   3.032   3.800   6.923 -1.9213  1.0825 -0.1521
 2429SOL     OW18748   2.528   3.600   6.702  0.4564 -0.1574 -0.0016
 2429SOL    HW118749   2.548   3.623   6.612  1.4443 -0.4318  0.1529
 2429SOL    HW218750   2.444   3.554   6.698 -0.4448  1.6001 -1.1881
 2430SOL     OW18751   2.233   4.471   5.237 -0.0753 -0.2110  0.2068
 2430SOL    HW118752   2.211   4.379   5.252 -0.3781 -0.1763 -0.0214
 2430SOL    HW218753   2.301   4.487   5.303  0.1648 -1.5721  0.2900
 2431SOL     OW18754   2.806   4.035   0.976  0.1060 -0.5845  0.1154
 2431SOL    HW118755   2.712   4.046   0.990 -0.1889  0.3652 -2.5972
 2431SOL    HW218756   2.840   4.032   1.066  0.1857  1.3660  0.1550
 2432SOL     OW18757   3.276   4.340   8.106 -0.0388  0.2936  0.4353
 2432SOL    HW118758   3.314   4.407   8.163 -3.0644  1.9763  0.4774
 2432SOL    HW218759   3.187   4.339   8.139  0.2335  1.5632  1.2324
 2433SOL     OW18760   3.490   1.165  16.679 -0.1977  0.5494  0.3691
 2433SOL    HW118761   3.524   1.245  16.721 -1.2307  1.1570  0.0283
 2433SOL    HW218762   3.560   1.110  16.716  1.0270  0.6902 -1.7130
 2434SOL     OW18763   4.707   3.632   7.015 -0.7468  0.2994 -0.0533
 2434SOL    HW118764   4.673   3.551   7.054 -0.5816 -0.6897 -1.9870
 2434SOL    HW218765   0.074   3.614   7.027 -1.5666 -1.5934  3.4724
 2435SOL     OW18766   0.124   0.928   6.195  0.2935 -0.0663 -0.0035
 2435SOL    HW118767   0.034   0.933   6.228  0.3224  0.7570 -0.0654
 2435SOL    HW218768   0.172   0.888   6.267 -0.1888 -1.4126 -0.4224
 2436SOL     OW18769   0.789   4.667   7.359  0.2559  0.0393 -0.0082
 2436SOL    HW118770   0.720   0.006   7.358  0.8538  0.6215 -4.6119
 2436SOL    HW218771   0.793   4.665   7.263 -0.4410  0.7515 -0.0482
 2437SOL     OW18772   3.696   3.989   7.111  0.0811  0.3232  0.2375
 2437SOL    HW118773   3.691   4.084   7.098 -0.6681  0.2368 -0.1333
 2437SOL    HW218774   3.623   3.984   7.174 -0.5545 -1.2819 -0.6396
 2438SOL     OW18775   3.613   1.303   8.083 -0.1504 -0.4957  0.0896
 2438SOL    HW118776   3.547   1.290   8.151  0.3521  1.3025  0.9250
 2438SOL    HW218777   3.572   1.278   8.000 -1.0594 -1.8446  0.9424
 2439SOL     OW18778   1.487   3.327   5.394  0.4225  0.3965 -0.4616
 2439SOL    HW118779   1.432   3.271   5.449  0.0508  0.8721 -0.3492
 2439SOL    HW218780   1.564   3.275   5.371 -0.7164 -1.4408 -0.0809
 2440SOL     OW18781   2.071   0.482  12.500  0.5090  0.0718 -0.5460
 2440SOL    HW118782   1.989   0.451  12.538  0.1745  0.2628 -1.1196
 2440SOL    HW218783   2.115   0.399  12.482  3.6070  1.4435  0.7995
 2441SOL     OW18784   3.237   0.547   3.788  0.1999  0.0242 -0.8557
 2441SOL    HW118785   3.295   0.535   3.863 -1.1926 -1.0966  0.0314
 2441SOL    HW218786   3.272   0.626   3.745 -2.7330  0.8933 -1.6654
 2442SOL     OW18787   3.839   4.298   5.505 -0.7173  0.1402  0.2366
 2442SOL    HW118788   3.784   4.370   5.535  1.8945  2.2122 -0.0051
 2442SOL    HW218789   3.888   4.331   5.430 -1.9153 -0.7468 -0.9274
 2443SOL     OW18790   0.932   1.305  15.769  0.1360  0.4010  0.1114
 2443SOL    HW118791   0.837   1.316  15.765  0.2123  0.1607 -2.1964
 2443SOL    HW218792   0.961   1.395  15.786 -0.2249  0.2773  1.3697
 2444SOL     OW18793   4.057   3.817   8.332 -0.2076  0.2250 -0.0166
 2444SOL    HW118794   4.014   3.815   8.417  1.0350  0.6997  0.6115
 2444SOL    HW218795   4.077   3.910   8.329 -0.6546  0.3515  0.7834
 2445SOL     OW18796   1.523   2.517   9.005  0.3865 -0.2355  0.0630
 2445SOL    HW118797   1.461   2.590   9.001 -0.7153 -1.2212 -1.1277
 2445SOL    HW218798   1.597   2.554   8.958 -1.1052  1.4297 -0.9900
 2446SOL     OW18799   2.474   0.120   1.252 -0.2480  0.5218 -0.0632
 2446SOL    HW118800   2.525   0.178   1.309  1.4781 -1.8092  0.7867
 2446SOL    HW218801   2.542   0.055   1.235 -1.7501 -1.1272  0.2686
 2447SOL     OW18802   3.409   3.068   4.576  0.8657 -0.6462 -0.0503
 2447SOL    HW118803   3.392   3.011   4.502 -2.0880 -1.0393  0.9434
 2447SOL    HW218804   3.380   3.017   4.651  1.7011 -0.9223  0.0850
 2448SOL     OW18805   1.742   1.416   2.170 -0.2616  0.2769 -0.2374
 2448SOL    HW118806   1.735   1.346   2.234 -1.9734  0.3050 -0.3668
 2448SOL    HW218807   1.671   1.473   2.200 -3.1534 -2.3453 -2.0847
 2449SOL     OW18808   3.765   2.317  11.419 -0.2374  0.0363  0.7931
 2449SOL    HW118809   3.817   2.245  11.453 -0.0011 -0.8848 -1.4957
 2449SOL    HW218810   3.781   2.378  11.491  1.2970  0.3170  0.2034
 2450SOL     OW18811   1.283   2.888   5.275  0.2726 -0.1753 -0.0653
 2450SOL    HW118812   1.228   2.828   5.324  0.0870  1.2837  1.4976
 2450SOL    HW218813   1.226   2.942   5.221  0.5151  0.0022 -0.1432
 2451SOL     OW18814   4.454   2.982   1.310  0.4730 -0.0179  0.2243
 2451SOL    HW118815   4.405   2.940   1.239  1.7197 -1.0714 -0.0258
 2451SOL    HW218816   4.434   3.073   1.289 -0.9723 -0.4350 -0.2560
 2452SOL     OW18817   2.464   0.477   6.025  0.1754  0.1230  0.0065
 2452SOL    HW118818   2.537   0.431   6.066 -0.6396 -0.8651  0.3221
 2452SOL    HW218819   2.509   0.529   5.958  0.4931  0.6570  0.6365
 2453SOL     OW18820   1.623   1.942  13.945 -0.6009 -0.1073  0.2248
 2453SOL    HW118821   1.692   1.897  13.995 -0.5572  1.1980  1.3449
 2453SOL    HW218822   1.623   2.031  13.980 -0.5953 -0.1838  0.4239
 2454SOL     OW18823   1.891   0.571   4.457 -0.4106  0.3404 -0.8553
 2454SOL    HW118824   1.928   0.645   4.505 -3.1644  0.9015  0.3841
 2454SOL    HW218825   1.966   0.511   4.455 -2.0256 -1.6771  0.0493
 2455SOL     OW18826   0.916   2.204   8.190  0.1861 -0.3908 -0.1062
 2455SOL    HW118827   0.982   2.222   8.123  2.1325  1.1814  2.2166
 2455SOL    HW218828   0.961   2.137   8.241 -1.6219 -2.5987 -1.4300
 2456SOL     OW18829   3.445   0.482   6.781 -0.6941  0.2088  0.3302
 2456SOL    HW118830   3.372   0.421   6.789 -1.1546  0.7567  0.3223
 2456SOL    HW218831   3.454   0.522   6.867 -0.0126 -1.7913  1.1855
 2457SOL     OW18832   3.743   3.418   6.372 -0.3923 -0.0497  0.2280
 2457SOL    HW118833   3.810   3.486   6.364 -1.9259  1.2618 -1.3669
 2457SOL    HW218834   3.801   3.346   6.397 -1.6675 -1.7557 -1.7529
 2458SOL     OW18835   0.362   3.606  12.186  0.0950  0.3263 -0.5544
 2458SOL    HW118836   0.357   3.675  12.252  2.3780  1.0506 -1.1431
 2458SOL    HW218837   0.337   3.540  12.250  1.8139  1.5049  1.3252
 2459SOL     OW18838   4.056   3.125   1.613 -0.1926 -0.5599 -0.1461
 2459SOL    HW118839   4.035   3.151   1.703 -0.3804 -4.7752  1.0452
 2459SOL    HW218840   3.971   3.092   1.585 -0.0866  1.5043 -2.8196
 2460SOL     OW18841   3.340   1.805   3.692  0.1892 -0.2340 -0.0556
 2460SOL    HW118842   3.329   1.713   3.668  1.1067  0.0762 -1.6501
 2460SOL    HW218843   3.286   1.846   3.624  1.2651  0.9787 -0.1875
 2461SOL     OW18844   2.126   3.138  16.726 -0.6333  0.0230  0.6819
 2461SOL    HW118845   2.141   3.230  16.704  3.5275 -1.2148 -1.6385
 2461SOL    HW218846   2.206   3.125  16.778 -0.7186 -0.9126  0.5686
 2462SOL     OW18847   2.018   4.311   4.040 -0.2688 -0.4468  0.8476
 2462SOL    HW118848   1.955   4.382   4.035  1.5960  1.2887  2.1869
 2462SOL    HW218849   2.081   4.337   4.106 -0.4619 -0.6785  1.1241
 2463SOL     OW18850   0.223   3.124  17.582  0.8915 -0.1664  0.0722
 2463SOL    HW118851   0.290   3.176  17.537  0.2069  1.1708  0.6229
 2463SOL    HW218852   0.257   3.039  17.553  0.6166 -0.2699  0.0552
 2464SOL     OW18853   3.487   2.704   8.255 -0.0935  0.2038  0.2236
 2464SOL    HW118854   3.432   2.627   8.268 -1.7736  1.3815  0.0796
 2464SOL    HW218855   3.464   2.719   8.163 -1.0437  0.8484  0.5656
 2465SOL     OW18856   1.869   1.228  13.694 -0.2376 -0.3923  0.4451
 2465SOL    HW118857   1.891   1.231  13.601  0.2661  0.0562  0.5765
 2465SOL    HW218858   1.786   1.181  13.684 -0.8467  0.5216  1.2100
 2466SOL     OW18859   2.605   2.919   2.907 -0.0480  0.4303 -0.2699
 2466SOL    HW118860   2.519   2.879   2.925 -0.3195  0.8957 -0.5399
 2466SOL    HW218861   2.589   3.011   2.928 -2.2333 -0.1911  0.8085
 2467SOL     OW18862   0.666   1.538   8.187 -0.4812  0.6427  0.4052
 2467SOL    HW118863   0.691   1.501   8.271 -1.3936  1.6911  1.1391
 2467SOL    HW218864   0.699   1.469   8.129 -1.9180 -1.4964  2.1690
 2468SOL     OW18865   4.267   4.190   3.263  0.2705 -0.3494  0.2389
 2468SOL    HW118866   4.277   4.200   3.168 -1.9068  2.4659  0.2933
 2468SOL    HW218867   4.356   4.166   3.287  0.3998 -0.3081 -0.1883
 2469SOL     OW18868   0.775   0.244   8.915  0.1310 -0.5413  0.0765
 2469SOL    HW118869   0.845   0.220   8.854  0.2567 -2.0932  0.8301
 2469SOL    HW218870   0.738   0.316   8.864  1.6137  0.2933  0.1838
 2470SOL     OW18871   1.110   2.561   7.190 -0.2037  0.0080  0.4235
 2470SOL    HW118872   1.024   2.548   7.231 -0.7705  1.9342 -0.1775
 2470SOL    HW218873   1.090   2.529   7.102 -2.5052 -0.4968  1.1243
 2471SOL     OW18874   4.479   1.223   8.635 -0.0736  0.0315  0.0743
 2471SOL    HW118875   4.552   1.184   8.587  0.5972 -0.2668  1.3320
 2471SOL    HW218876   4.413   1.162   8.602  1.2557 -0.8927 -0.9045
 2472SOL     OW18877   0.456   3.154   5.112 -0.0419  0.0518 -0.4393
 2472SOL    HW118878   0.449   3.072   5.064  1.0162  0.4681 -1.3079
 2472SOL    HW218879   0.365   3.182   5.111 -1.1105 -3.4678 -1.5715
 2473SOL     OW18880   2.940   3.016   5.939  0.3080 -0.0899  0.3516
 2473SOL    HW118881   2.927   3.110   5.950  1.1790  0.0326  0.3714
 2473SOL    HW218882   3.028   3.014   5.902 -0.0190  1.2005 -0.4947
 2474SOL     OW18883   3.670   2.041   9.589  0.7336 -0.0653 -0.3828
 2474SOL    HW118884   3.698   2.100   9.520  1.9967 -0.8599 -0.5461
 2474SOL    HW218885   3.576   2.047   9.572  0.8987 -2.9181 -2.2765
 2475SOL     OW18886   0.367   3.508  13.952 -0.6759 -0.1634  0.3773
 2475SOL    HW118887   0.289   3.563  13.961  0.3834  1.2274  1.0707
 2475SOL    HW218888   0.359   3.454  14.031 -1.2957  1.1458  1.2144
 2476SOL     OW18889   1.717   3.127  14.319  0.4712 -0.1676  0.2051
 2476SOL    HW118890   1.703   3.221  14.319 -0.8661 -0.3670 -0.6269
 2476SOL    HW218891   1.631   3.101  14.352 -0.3795  2.8422  0.3206
 2477SOL     OW18892   4.284   0.702   7.847 -0.7519  0.1301 -0.0519
 2477SOL    HW118893   4.301   0.691   7.754 -0.2040  0.1320  0.0463
 2477SOL    HW218894   4.313   0.614   7.874 -1.4836  0.5022  1.9505
 2478SOL     OW18895   1.908   3.541  16.764  0.3526 -0.4254  0.1100
 2478SOL    HW118896   1.889   3.634  16.752 -2.2180 -1.2379 -1.9486
 2478SOL    HW218897   1.924   3.533  16.858  0.6662  0.6870  0.1513
 2479SOL     OW18898   1.403   4.592   1.862 -0.1824 -0.7255 -0.4128
 2479SOL    HW118899   1.315   4.606   1.898  0.7680 -0.0773  1.6498
 2479SOL    HW218900   1.413   4.519   1.922  2.0195 -0.0923 -0.0049
 2480SOL     OW18901   4.662   4.106  15.537  0.3872 -0.0703  0.1382
 2480SOL    HW118902   4.679   4.194  15.505 -0.1363  0.1079  0.3516
 2480SOL    HW218903   4.675   4.114  15.631  2.6596  0.5119 -0.2304
 2481SOL     OW18904   1.942   3.050   1.865  0.1672 -0.0840 -0.9248
 2481SOL    HW118905   2.028   3.091   1.872 -0.2704  0.8195 -0.8151
 2481SOL    HW218906   1.948   2.995   1.787 -2.3931 -0.2839 -0.9980
 2482SOL     OW18907   3.117   2.797   0.476  0.0620  0.4157 -0.0866
 2482SOL    HW118908   3.040   2.853   0.471  1.6382  2.6235  0.3513
 2482SOL    HW218909   3.183   2.866   0.467  0.7682 -0.4411 -1.6097
 2483SOL     OW18910   0.046   1.485   7.850 -0.4572  0.6149 -0.0422
 2483SOL    HW118911   0.135   1.494   7.883 -0.3558 -1.2204  0.1823
 2483SOL    HW218912   0.002   1.550   7.905 -2.3172 -2.1265  1.6839
 2484SOL     OW18913   3.934   2.723   2.595 -0.5455 -0.0140 -0.4314
 2484SOL    HW118914   4.006   2.779   2.624 -0.0019 -0.3754 -1.1060
 2484SOL    HW218915   3.952   2.719   2.501 -2.2864  0.2189 -0.7702
 2485SOL     OW18916   4.199   2.471   8.247 -0.4107  0.5771 -0.5923
 2485SOL    HW118917   4.231   2.471   8.337 -0.5813  0.6158 -0.5317
 2485SOL    HW218918   4.283   2.454   8.204 -0.6905 -1.7816 -0.1611
 2486SOL     OW18919   1.160   3.224  16.275  0.5773 -0.0998  0.2246
 2486SOL    HW118920   1.159   3.233  16.180 -2.5166 -0.9726  0.1593
 2486SOL    HW218921   1.072   3.192  16.294 -0.2499  0.5386 -2.6212
 2487SOL     OW18922   3.409   0.544  11.647  0.1624 -0.6954 -0.5323
 2487SOL    HW118923   3.379   0.619  11.698 -0.5276 -1.5556  0.3189
 2487SOL    HW218924   3.500   0.574  11.652 -0.5370  1.1863  0.4848
 2488SOL     OW18925   0.066   2.529   0.787 -0.4056 -0.2239 -0.5883
 2488SOL    HW118926   4.703   2.515   0.820 -0.5733  0.1501 -0.8778
 2488SOL    HW218927   0.105   2.534   0.874  0.9390 -1.5155 -1.1207
 2489SOL     OW18928   0.369   0.293   5.980  0.6122 -0.0629  0.1469
 2489SOL    HW118929   0.334   0.329   6.061 -0.2575 -0.3213 -0.1135
 2489SOL    HW218930   0.360   0.199   5.993  1.1080 -0.2599 -0.9341
 2490SOL     OW18931   2.182   4.505   9.387 -0.3533 -0.0631 -0.1592
 2490SOL    HW118932   2.202   4.596   9.409 -2.1551  0.3967 -0.3808
 2490SOL    HW218933   2.268   4.464   9.394  0.0209  1.0154  1.5180
 2491SOL     OW18934   2.834   0.733   7.964 -0.1639  0.0392  0.1716
 2491SOL    HW118935   2.814   0.644   7.937  0.4790 -0.2109  0.5123
 2491SOL    HW218936   2.900   0.768   7.904 -0.1670  0.5670  0.4753
 2492SOL     OW18937   2.371   3.192  14.583  0.1614 -0.1165  0.1059
 2492SOL    HW118938   2.317   3.114  14.595  0.3652 -0.3489 -0.5041
 2492SOL    HW218939   2.438   3.157  14.525 -2.5156 -0.7854 -2.5355
 2493SOL     OW18940   0.896   2.528   5.592  0.4736 -0.6878 -0.7683
 2493SOL    HW118941   0.968   2.480   5.633  3.2695  2.1083 -2.3933
 2493SOL    HW218942   0.923   2.620   5.591  1.7661 -1.0489  1.2924
 2494SOL     OW18943   1.388   2.359  11.304  0.0283  0.0931 -0.3267
 2494SOL    HW118944   1.386   2.393  11.215  1.6831  1.8725  0.3054
 2494SOL    HW218945   1.439   2.279  11.294  0.1190  0.1941 -0.6614
 2495SOL     OW18946   1.574   0.895   2.863  0.7001 -0.3988  0.2336
 2495SOL    HW118947   1.622   0.841   2.799  0.0004  1.0601 -1.5218
 2495SOL    HW218948   1.611   0.878   2.949  0.4770 -0.3867  0.3306
 2496SOL     OW18949   0.462   2.907   2.670 -0.3676  0.0158 -0.0128
 2496SOL    HW118950   0.384   2.852   2.663  0.0227 -0.9131  2.6617
 2496SOL    HW218951   0.522   2.849   2.717 -0.7712 -1.1865 -0.9833
 2497SOL     OW18952   2.494   3.117  16.134 -0.3644  0.5662  0.4368
 2497SOL    HW118953   2.532   3.034  16.104 -2.3046  0.5541 -1.9811
 2497SOL    HW218954   2.429   3.137  16.067 -1.6534 -3.7197  0.4377
 2498SOL     OW18955   2.225   1.358  13.702  0.0991  0.1803  0.3796
 2498SOL    HW118956   2.230   1.328  13.793 -1.2935 -0.9014  0.1029
 2498SOL    HW218957   2.144   1.409  13.694  0.3903  0.1355 -2.8971
 2499SOL     OW18958   0.813   3.030  11.763  0.7070  0.0572 -0.7978
 2499SOL    HW118959   0.729   3.005  11.801  0.8724  0.5289 -0.1230
 2499SOL    HW218960   0.841   3.099  11.823  0.4206  0.2885 -0.9333
 2500SOL     OW18961   0.857   3.031   5.648  0.2309  0.0380 -0.0715
 2500SOL    HW118962   0.907   3.103   5.686 -0.2549 -0.2143  1.0567
 2500SOL    HW218963   0.770   3.070   5.637  1.0721  1.5683 -1.2168
 2501SOL     OW18964   0.036   2.519  14.982  0.0602  0.5846  0.1606
 2501SOL    HW118965   0.056   2.429  14.955  2.6664  0.8502  1.1633
 2501SOL    HW218966   0.061   2.554  14.896  0.3421  3.1634  1.2973
 2502SOL     OW18967   3.027   2.933   7.922  0.3610  0.4395 -0.6060
 2502SOL    HW118968   3.070   3.014   7.950  1.7225  0.2699 -2.2103
 2502SOL    HW218969   2.993   2.961   7.837 -0.6919  2.3170  0.4340
 2503SOL     OW18970   1.901   4.349  15.862 -0.0886 -0.1956  0.3791
 2503SOL    HW118971   1.909   4.443  15.845 -1.4529 -0.4815 -1.8349
 2503SOL    HW218972   1.817   4.341  15.907 -0.8180 -1.5510 -1.2462
 2504SOL     OW18973   1.692   2.952   6.568  0.0479  0.9606  0.0999
 2504SOL    HW118974   1.624   2.959   6.635 -1.7423 -1.3091 -1.4968
 2504SOL    HW218975   1.770   2.980   6.618 -1.8067  0.8674  3.0690
 2505SOL     OW18976   1.566   1.006   0.679  0.4298 -0.4227 -0.3372
 2505SOL    HW118977   1.525   0.935   0.628 -1.8710 -0.0233  0.9385
 2505SOL    HW218978   1.611   1.057   0.612  0.1784 -0.0330 -0.2104
 2506SOL     OW18979   0.752   3.040  16.390 -0.0482 -0.1527 -0.1280
 2506SOL    HW118980   0.732   3.092  16.468 -0.0105  0.1944 -0.3488
 2506SOL    HW218981   0.793   3.104  16.331 -2.6636  0.2378 -1.4931
 2507SOL     OW18982   1.444   3.331   7.255  0.4028  0.4684  0.0589
 2507SOL    HW118983   1.501   3.324   7.332  1.2525  2.3651 -0.4032
 2507SOL    HW218984   1.376   3.385   7.295 -0.6082 -1.1165  0.4923
 2508SOL     OW18985   3.987   2.086   2.176  0.4436  0.0868 -0.3896
 2508SOL    HW118986   3.992   2.091   2.081  1.6346 -0.1177 -0.3437
 2508SOL    HW218987   3.978   1.991   2.184  1.1747 -0.1141 -2.0011
 2509SOL     OW18988   3.146   2.178   3.870 -0.3012  0.1666 -0.3802
 2509SOL    HW118989   3.122   2.178   3.963  1.1186  2.3788  0.0065
 2509SOL    HW218990   3.060   2.185   3.830  0.3360  2.9485 -1.2888
 2510SOL     OW18991   2.906   2.609  15.252  0.6428  0.1306  0.1805
 2510SOL    HW118992   2.962   2.683  15.275 -0.9017  1.1288  0.7495
 2510SOL    HW218993   2.837   2.653  15.203  0.2779  0.2179  0.7724
 2511SOL     OW18994   1.984   4.378   2.429  0.1492  0.1219 -0.0606
 2511SOL    HW118995   2.076   4.355   2.415  0.0904 -0.6899  0.8437
 2511SOL    HW218996   1.978   4.431   2.349 -0.8098 -0.7062 -0.5407
 2512SOL     OW18997   2.604   0.112  14.981  0.6455  0.1079  0.2831
 2512SOL    HW118998   2.675   0.161  14.941  1.5339 -0.1583  1.5296
 2512SOL    HW218999   2.628   0.111  15.073  0.6101  0.0298  0.2915
 2513SOL     OW19000   3.661   3.144  11.822 -0.3244 -0.2674 -0.0142
 2513SOL    HW119001   3.715   3.097  11.885 -1.1775  0.0809  0.9738
 2513SOL    HW219002   3.585   3.151  11.878 -0.9662  1.3462 -1.0777
 2514SOL     OW19003   0.805   1.347   2.462 -0.4313 -0.0762 -0.4750
 2514SOL    HW119004   0.870   1.364   2.394 -0.3511 -2.5157 -1.0031
 2514SOL    HW219005   0.848   1.271   2.501 -0.5843 -0.4191 -0.9720
 2515SOL     OW19006   3.020   3.523   4.723 -0.2156 -0.3871 -0.4544
 2515SOL    HW119007   2.937   3.523   4.675 -0.0524  0.8911 -0.7185
 2515SOL    HW219008   3.000   3.585   4.793 -0.6551 -0.3954 -0.5684
 2516SOL     OW19009   4.239   2.544   3.606  0.1792  0.8895 -0.3683
 2516SOL    HW119010   4.219   2.626   3.561 -1.3782  1.6340  1.6722
 2516SOL    HW219011   4.239   2.568   3.699 -1.6029 -0.2663 -0.0705
 2517SOL     OW19012   4.493   1.685   2.324  0.4208  0.0655 -0.6052
 2517SOL    HW119013   4.436   1.753   2.360  0.3840  0.5122 -1.4997
 2517SOL    HW219014   4.431   1.612   2.336  0.4332  0.6511  2.9524
 2518SOL     OW19015   3.994   3.085   6.126 -0.2650  0.3444  0.0880
 2518SOL    HW119016   3.965   3.102   6.216 -3.9272  0.2178 -1.0880
 2518SOL    HW219017   4.007   3.174   6.093 -0.8688  0.2031 -0.5079
 2519SOL     OW19018   2.892   4.410  10.146  0.1006  0.4625  0.2338
 2519SOL    HW119019   2.953   4.344  10.178  1.8521  1.2027 -1.5916
 2519SOL    HW219020   2.942   4.448  10.074  1.8352 -0.8642  0.7172
 2520SOL     OW19021   4.143   1.558   4.624  0.2834  0.0814  0.3192
 2520SOL    HW119022   4.233   1.559   4.590  0.1794  1.4897  0.0562
 2520SOL    HW219023   4.099   1.618   4.564 -1.9591 -2.9224 -1.0025
 2521SOL     OW19024   1.185   2.907   6.942  0.6003  0.0200  0.1535
 2521SOL    HW119025   1.182   2.960   7.022 -0.2423 -0.4641  0.4449
 2521SOL    HW219026   1.191   2.971   6.872  1.5549  1.2991  1.4075
 2522SOL     OW19027   1.222   4.058   7.543  0.1129  0.5974  0.3477
 2522SOL    HW119028   1.311   4.062   7.508 -0.5300  1.4103 -1.2086
 2522SOL    HW219029   1.219   3.969   7.578  2.3391  1.3537  2.4472
 2523SOL     OW19030   2.978   3.226   3.422 -0.7149  0.4183  0.1986
 2523SOL    HW119031   2.952   3.177   3.345  0.0215 -0.2794  0.3944
 2523SOL    HW219032   3.011   3.311   3.392  0.8340  0.1304  1.0869
 2524SOL     OW19033   2.246   0.347   4.196 -0.0582  0.3610  0.4702
 2524SOL    HW119034   2.198   0.420   4.236  1.8540  1.3803  0.8648
 2524SOL    HW219035   2.215   0.344   4.106  0.1600 -1.0770  0.4436
 2525SOL     OW19036   0.749   2.003  13.400  0.3738 -0.1022 -0.0434
 2525SOL    HW119037   0.669   1.962  13.367  0.2913  0.4369 -0.5077
 2525SOL    HW219038   0.746   1.950  13.479  1.2000  1.7403  1.2251
 2526SOL     OW19039   0.683   0.751   0.091  0.0118  0.3550  0.0129
 2526SOL    HW119040   0.630   0.674   0.068  2.2950 -1.2357  0.1559
 2526SOL    HW219041   0.750   0.768   0.026  1.1699  0.2496  1.1912
 2527SOL     OW19042   3.779   2.281  17.628 -0.5493 -0.8908 -0.6795
 2527SOL    HW119043   3.760   2.198  17.673 -1.3890  3.0538  6.3511
 2527SOL    HW219044   3.705   2.338  17.648  0.5463 -0.3683  1.9059
 2528SOL     OW19045   1.996   4.481   4.648 -0.1671 -0.8298 -0.1216
 2528SOL    HW119046   2.027   4.392   4.666  0.3641  0.1087  3.7154
 2528SOL    HW219047   1.909   4.464   4.613  0.4486 -0.5527 -1.7862
 2529SOL     OW19048   2.933   4.338   6.665 -0.4155 -0.1594  0.1998
 2529SOL    HW119049   2.992   4.275   6.706 -1.8507 -1.1683  0.7242
 2529SOL    HW219050   2.979   4.346   6.582 -3.0559  0.2675 -1.2075
 2530SOL     OW19051   2.786   3.928   3.347 -0.2693 -0.3111 -0.6712
 2530SOL    HW119052   2.738   3.961   3.422  0.5612 -1.1061  0.2114
 2530SOL    HW219053   2.729   3.860   3.310  0.0925 -1.7537  1.4051
 2531SOL     OW19054   2.925   0.154  11.239  0.3468 -0.1043  0.0186
 2531SOL    HW119055   2.861   0.225  11.239  0.9532  0.4244 -2.1559
 2531SOL    HW219056   2.941   0.138  11.332 -2.6409  0.5649  0.6226
 2532SOL     OW19057   4.524   4.442   3.181  0.4335  0.2286  0.1428
 2532SOL    HW119058   4.444   4.494   3.172  0.0428  0.1576  3.1211
 2532SOL    HW219059   4.596   4.499   3.209  1.4943 -1.2028  0.3219
 2533SOL     OW19060   2.536   2.408   1.197 -0.4893  0.0919  0.0613
 2533SOL    HW119061   2.513   2.322   1.161  0.5122  1.5730 -4.0797
 2533SOL    HW219062   2.612   2.427   1.143  1.5051  0.3049  2.9674
 2534SOL     OW19063   1.227   0.680   7.087 -0.1725  0.3794 -0.5638
 2534SOL    HW119064   1.219   0.594   7.129 -0.5321  0.1889 -1.0261
 2534SOL    HW219065   1.306   0.663   7.036 -0.5111 -0.4546 -0.8077
 2535SOL     OW19066   1.719   2.671   3.604 -0.1596  0.0532  0.5812
 2535SOL    HW119067   1.665   2.722   3.665 -0.4873 -2.2990  2.2452
 2535SOL    HW219068   1.801   2.666   3.653  0.2181  1.8388  0.1327
 2536SOL     OW19069   1.132   2.785   2.539  0.4188 -0.1797  0.1476
 2536SOL    HW119070   1.134   2.746   2.451 -0.0400 -0.1792  0.1396
 2536SOL    HW219071   1.224   2.800   2.559  0.3086 -0.4583  0.8656
 2537SOL     OW19072   3.944   3.037   3.478 -0.0612  0.1140  0.2478
 2537SOL    HW119073   3.894   3.115   3.501 -1.8716 -1.0693  0.3100
 2537SOL    HW219074   3.984   3.014   3.561  2.1410  0.1342 -0.7998
 2538SOL     OW19075   3.134   4.064   0.630  0.3210  0.4553  0.4280
 2538SOL    HW119076   3.127   4.018   0.546  0.5136  0.9954  0.1184
 2538SOL    HW219077   3.225   4.091   0.629 -0.0571  1.8060  3.1011
 2539SOL     OW19078   0.174   3.351  13.334 -0.3353 -0.4847 -0.8308
 2539SOL    HW119079   0.227   3.287  13.381  0.4402  0.9252  0.2262
 2539SOL    HW219080   0.095   3.300  13.313  0.1423 -2.4389  2.1891
 2540SOL     OW19081   2.648   1.772   9.465 -0.1282  0.0013 -0.4584
 2540SOL    HW119082   2.738   1.787   9.437  0.4160 -1.5382  0.4957
 2540SOL    HW219083   2.624   1.691   9.419 -2.2409  1.7669 -2.4718
 2541SOL     OW19084   2.795   4.694   8.362  0.5032 -0.4062 -0.4115
 2541SOL    HW119085   2.766   4.670   8.450  1.7376 -0.7492 -0.1051
 2541SOL    HW219086   2.710   4.690   8.318  1.3011  1.9345 -2.1776
 2542SOL     OW19087   3.201   3.662   8.284  0.1188  0.8218  0.0881
 2542SOL    HW119088   3.155   3.645   8.366  0.1152 -0.6085 -0.2115
 2542SOL    HW219089   3.177   3.583   8.235  1.3726  0.5184 -0.0565
 2543SOL     OW19090   3.979   4.370  16.029  0.1388 -0.3328 -0.7783
 2543SOL    HW119091   3.957   4.316  15.953  1.0425  2.2541 -2.8928
 2543SOL    HW219092   4.075   4.369  16.026  0.1327 -0.5225 -0.9800
 2544SOL     OW19093   1.957   3.950   4.450  0.1828  0.1234  0.1036
 2544SOL    HW119094   1.972   4.024   4.509  0.9674  0.4461 -0.5010
 2544SOL    HW219095   1.984   3.980   4.363 -0.6810  0.7432  0.0463
 2545SOL     OW19096   1.021   3.667  12.463 -0.0350 -0.0259 -0.6805
 2545SOL    HW119097   1.066   3.661  12.547  0.0517 -0.4466 -0.7585
 2545SOL    HW219098   1.101   3.676  12.412  0.5532 -0.2184  0.2028
 2546SOL     OW19099   2.776   1.279   3.032  0.3197  0.1563  0.7991
 2546SOL    HW119100   2.862   1.251   2.999 -0.5024  0.1944 -1.3753
 2546SOL    HW219101   2.798   1.372   3.044 -0.0567 -0.0651  3.0855
 2547SOL     OW19102   1.834   3.744   6.028  0.5129 -0.0014 -0.6146
 2547SOL    HW119103   1.797   3.718   5.944  0.3610  2.2974 -1.2339
 2547SOL    HW219104   1.924   3.730   5.999  0.3783 -3.5483  0.5694
 2548SOL     OW19105   2.312   4.617   3.560 -0.5996 -0.3603  0.2797
 2548SOL    HW119106   2.259   4.549   3.518 -2.4574  3.2812 -3.3458
 2548SOL    HW219107   2.370   4.646   3.489 -0.3214 -1.5717  0.0174
 2549SOL     OW19108   0.099   2.479   7.801  0.1765  0.0484  0.5198
 2549SOL    HW119109   0.052   2.538   7.742  1.4334  1.3076  0.7981
 2549SOL    HW219110   0.189   2.505   7.783 -0.2401  1.0596 -0.1512
 2550SOL     OW19111   2.350   1.721   5.544  0.3785 -0.2504  0.0336
 2550SOL    HW119112   2.398   1.641   5.525 -1.3235 -0.9354 -1.4070
 2550SOL    HW219113   2.415   1.756   5.605  1.1659 -1.6760  0.0050
 2551SOL     OW19114   1.663   4.306   2.618  0.1258  0.1004 -0.5382
 2551SOL    HW119115   1.758   4.321   2.612 -0.0513  1.5631  0.1254
 2551SOL    HW219116   1.662   4.287   2.711  1.9706 -1.4194 -0.8206
 2552SOL     OW19117   2.039   3.318   8.063 -0.6387  0.3503 -0.0256
 2552SOL    HW119118   1.975   3.292   8.130  0.1651 -0.3217  0.4780
 2552SOL    HW219119   2.104   3.248   8.075  0.3375  1.1276 -0.8536
 2553SOL     OW19120   1.234   1.499  11.848  0.4482  0.0608 -0.6613
 2553SOL    HW119121   1.299   1.494  11.778  0.2355  0.0579 -0.8573
 2553SOL    HW219122   1.196   1.411  11.844  1.1190 -0.3330  1.4445
 2554SOL     OW19123   3.872   2.020   5.302  0.6295  0.4621  0.3437
 2554SOL    HW119124   3.838   2.031   5.391  0.1834 -0.3554  0.2764
 2554SOL    HW219125   3.812   1.950   5.275  0.3315  0.3617  1.2692
 2555SOL     OW19126   1.142   4.503   2.194  0.3372 -0.0298 -0.4503
 2555SOL    HW119127   1.120   4.413   2.171  0.7573 -0.6655  1.6019
 2555SOL    HW219128   1.062   4.520   2.244  0.6151 -1.0386  0.3336
 2556SOL     OW19129   2.482   0.477   6.353 -0.4470 -0.0214 -0.1881
 2556SOL    HW119130   2.513   0.402   6.302  1.0903  0.0838  0.6178
 2556SOL    HW219131   2.534   0.545   6.311  0.6684 -0.4865  0.4561
 2557SOL     OW19132   1.783   4.234  11.179  0.3100 -0.1073 -0.4847
 2557SOL    HW119133   1.796   4.248  11.085  1.1687  0.8987 -0.2154
 2557SOL    HW219134   1.866   4.188  11.194 -0.7296 -1.6821  0.4739
 2558SOL     OW19135   1.181   0.224   8.246 -0.5346 -0.2294  0.0329
 2558SOL    HW119136   1.262   0.185   8.212 -0.6114  1.1848 -1.8160
 2558SOL    HW219137   1.126   0.227   8.167 -2.7288  0.5531  1.5994
 2559SOL     OW19138   3.854   1.721  13.470 -0.3858 -0.1930 -0.0040
 2559SOL    HW119139   3.825   1.807  13.441 -0.6511 -0.3259 -0.1334
 2559SOL    HW219140   3.897   1.748  13.552  1.2645 -2.4877 -0.1229
 2560SOL     OW19141   1.925   0.311  12.889 -0.8092  0.3834 -0.4741
 2560SOL    HW119142   1.870   0.340  12.816 -1.2213  2.9875  0.8691
 2560SOL    HW219143   1.944   0.396  12.929 -1.4824  1.6154 -2.7550
 2561SOL     OW19144   1.508   3.806  12.518  0.1972  0.0315  0.3090
 2561SOL    HW119145   1.601   3.811  12.498  0.7425  0.3624  2.9081
 2561SOL    HW219146   1.519   3.738  12.585 -0.2957 -1.0664 -0.7021
 2562SOL     OW19147   1.247   0.476   6.316 -0.6103 -0.2679  0.1586
 2562SOL    HW119148   1.331   0.519   6.301 -1.1855  0.6785 -0.3560
 2562SOL    HW219149   1.247   0.455   6.409 -0.8676  1.0162  0.4503
 2563SOL     OW19150   3.003   2.422   5.507 -0.7307 -0.1187 -0.1004
 2563SOL    HW119151   3.063   2.497   5.508 -1.1858  0.2323  1.9423
 2563SOL    HW219152   2.996   2.410   5.413  2.2178  1.3588 -0.5381
 2564SOL     OW19153   2.233   1.042  14.650 -0.0282 -0.3562  0.1236
 2564SOL    HW119154   2.250   1.062  14.558  3.8830 -1.6219  0.5864
 2564SOL    HW219155   2.245   0.947  14.656  0.2307 -0.2048  2.1084
 2565SOL     OW19156   1.051   3.313  16.845 -0.1930  0.0043 -0.5174
 2565SOL    HW119157   1.090   3.398  16.865  0.3681 -0.9002  2.1320
 2565SOL    HW219158   1.059   3.318  16.750  0.4587  1.6290 -0.3748
 2566SOL     OW19159   4.461   0.467  15.969  0.0684  0.3011  0.0067
 2566SOL    HW119160   4.435   0.475  15.878  0.9472  2.0137 -0.1044
 2566SOL    HW219161   4.388   0.418  16.007 -2.3015  0.1471 -4.7955
 2567SOL     OW19162   3.413   2.026   8.515 -0.0991 -0.4192 -0.3924
 2567SOL    HW119163   3.479   1.961   8.489 -0.1992  0.4434 -2.7851
 2567SOL    HW219164   3.417   2.013   8.610  1.7204  1.9302 -0.1617
 2568SOL     OW19165   0.581   2.072   4.071 -0.2073  0.6143  0.1266
 2568SOL    HW119166   0.537   2.108   3.994 -0.5619  1.5399  0.7558
 2568SOL    HW219167   0.606   2.153   4.116  0.0901  0.6083 -0.0254
 2569SOL     OW19168   3.018   3.514   3.430  0.0044  1.0595  0.5564
 2569SOL    HW119169   3.029   3.597   3.475 -1.5797  2.0334 -0.8012
 2569SOL    HW219170   3.105   3.507   3.390 -0.6121 -1.8754 -0.3099
 2570SOL     OW19171   0.980   2.496   6.518  0.7044  0.2321  1.1843
 2570SOL    HW119172   0.976   2.591   6.509  0.3951  0.1019 -0.0729
 2570SOL    HW219173   0.954   2.489   6.610  0.7593  1.4167  1.2861
 2571SOL     OW19174   3.388   3.006  13.608  0.4356 -0.3377 -0.4026
 2571SOL    HW119175   3.387   2.911  13.625  1.0960 -0.0846  1.0917
 2571SOL    HW219176   3.461   3.029  13.666  0.0572  1.4538 -0.6384
 2572SOL     OW19177   0.787   2.861   2.443  0.0607  0.4456  0.2654
 2572SOL    HW119178   0.843   2.911   2.384 -1.5356  0.2129 -1.4515
 2572SOL    HW219179   0.741   2.934   2.484  0.6398  0.9967 -0.0734
 2573SOL     OW19180   3.701   4.512   7.867 -0.0488  0.3064  0.1679
 2573SOL    HW119181   3.752   4.432   7.881  0.7171  0.9439  1.0205
 2573SOL    HW219182   3.734   4.557   7.945  1.1330  0.7051 -0.5521
 2574SOL     OW19183   4.373   2.070  10.199 -0.8282  0.2883 -0.1380
 2574SOL    HW119184   4.443   2.021  10.156  0.0463  2.0167 -0.7193
 2574SOL    HW219185   4.424   2.100  10.275 -3.9761 -4.0687  3.6216
 2575SOL     OW19186   2.189   1.311   7.118  0.1402  0.3139 -0.1617
 2575SOL    HW119187   2.270   1.295   7.166 -0.3311  0.1785  0.5746
 2575SOL    HW219188   2.180   1.251   7.044 -3.0957  1.6695 -0.8535
 2576SOL     OW19189   3.506   2.692   6.142  0.0045 -0.6829 -0.0153
 2576SOL    HW119190   3.566   2.625   6.173  0.1096 -0.7899 -0.4388
 2576SOL    HW219191   3.484   2.668   6.052  0.4075 -0.6782 -0.1131
 2577SOL     OW19192   1.186   3.774   7.595 -0.4488  0.1425 -0.6936
 2577SOL    HW119193   1.248   3.709   7.563  0.6989 -0.0522  1.9476
 2577SOL    HW219194   1.135   3.721   7.656 -2.0182  0.1879 -1.9696
 2578SOL     OW19195   2.716   2.172  13.228 -0.0979  0.2672 -0.7268
 2578SOL    HW119196   2.706   2.095  13.172  0.9075 -0.3625 -0.0404
 2578SOL    HW219197   2.788   2.149  13.287 -1.1413 -1.5406 -0.1740
 2579SOL     OW19198   4.335   2.964   8.025  0.2532  0.1999  0.1396
 2579SOL    HW119199   4.394   2.954   8.100  0.3111  2.1194  0.3362
 2579SOL    HW219200   4.286   2.882   8.037 -2.9388  2.2672  1.3875
 2580SOL     OW19201   0.130   1.699   5.773  0.2575 -0.0877  0.3067
 2580SOL    HW119202   0.109   1.628   5.833  3.3865  0.0371  1.5505
 2580SOL    HW219203   0.143   1.765   5.841 -0.4351 -1.6170  1.8924
 2581SOL     OW19204   4.182   1.225   6.403  0.0147  0.5731  0.1709
 2581SOL    HW119205   4.092   1.252   6.385  0.0123  0.8228  0.5525
 2581SOL    HW219206   4.167   1.150   6.461 -0.3362  0.4378 -0.1017
 2582SOL     OW19207   4.629   1.897   7.204  0.2240 -0.4704 -0.0570
 2582SOL    HW119208   4.606   1.811   7.169 -1.3074  0.6199 -1.7676
 2582SOL    HW219209   4.574   1.903   7.282 -0.8601 -3.7197 -0.5812
 2583SOL     OW19210   0.263   2.136   6.576  0.5058 -0.1676 -0.6031
 2583SOL    HW119211   0.173   2.169   6.575  0.4891 -0.1697  0.3604
 2583SOL    HW219212   0.312   2.208   6.615  0.8681 -0.9031  0.3046
 2584SOL     OW19213   3.667   1.256   0.107  0.1597  0.4777  0.0996
 2584SOL    HW119214   3.572   1.255   0.123  0.0145 -1.4861 -0.9431
 2584SOL    HW219215   3.694   1.180   0.159 -1.3956 -0.8729 -1.0835
 2585SOL     OW19216   0.478   1.150   2.925  0.0306 -0.3299  0.1604
 2585SOL    HW119217   0.422   1.165   2.849 -0.5281 -0.9745  0.4423
 2585SOL    HW219218   0.429   1.081   2.970 -1.5889  2.0396  2.0110
 2586SOL     OW19219   1.957   3.339   2.839  0.2694 -0.3911  0.0472
 2586SOL    HW119220   1.899   3.331   2.763  0.6268 -3.5449  0.1031
 2586SOL    HW219221   2.009   3.258   2.845  1.4625  0.3721 -0.0653
 2587SOL     OW19222   1.504   1.637   9.443 -0.3606  0.1041 -0.1130
 2587SOL    HW119223   1.559   1.693   9.497  2.1455  0.0018 -2.5476
 2587SOL    HW219224   1.449   1.595   9.510 -1.4371  3.5607  1.1656
 2588SOL     OW19225   4.035   2.613   9.955  0.4401 -0.1781  0.4741
 2588SOL    HW119226   4.013   2.602   9.863  0.1648 -2.4992  0.8111
 2588SOL    HW219227   3.948   2.634   9.988  0.0931 -1.6879  0.5128
 2589SOL     OW19228   3.964   1.414   7.548 -0.3114  0.2736 -0.4077
 2589SOL    HW119229   3.993   1.505   7.542 -1.4413  0.7432  1.2378
 2589SOL    HW219230   3.971   1.402   7.643  0.7490 -0.4371 -0.5664
 2590SOL     OW19231   0.403   4.454  13.417 -0.1571 -0.1354  0.1657
 2590SOL    HW119232   0.335   4.520  13.427  0.4202  0.6180 -0.8567
 2590SOL    HW219233   0.479   4.512  13.416  0.6828 -1.2516 -0.6716
 2591SOL     OW19234   2.826   3.070  10.269 -0.1281 -0.3874  0.0579
 2591SOL    HW119235   2.842   3.119  10.350 -3.5124 -1.5049  1.3690
 2591SOL    HW219236   2.740   3.103  10.246  1.1847  2.8654 -0.2388
 2592SOL     OW19237   4.269   1.648   1.760 -0.6615  0.3710 -0.1855
 2592SOL    HW119238   4.245   1.578   1.700 -0.6167  0.3230 -0.1480
 2592SOL    HW219239   4.362   1.633   1.777 -0.5736  0.9898 -0.1018
 2593SOL     OW19240   2.426   0.321   3.067 -0.1476 -0.8668 -0.0891
 2593SOL    HW119241   2.454   0.235   3.037 -0.1647 -0.4009 -1.4334
 2593SOL    HW219242   2.333   0.315   3.045  0.0567 -1.9909 -0.6423
 2594SOL     OW19243   2.914   4.134   5.647 -0.1803 -0.1043 -0.0688
 2594SOL    HW119244   2.839   4.179   5.609  0.3145 -0.3638 -1.3542
 2594SOL    HW219245   2.943   4.093   5.565  2.2642 -1.8598  1.6711
 2595SOL     OW19246   2.634   0.513   5.795  0.9399  0.6393  0.5207
 2595SOL    HW119247   2.718   0.521   5.842  2.4284 -1.4149 -1.8013
 2595SOL    HW219248   2.630   0.421   5.771 -2.1191  1.7261 -3.0573
 2596SOL     OW19249   4.066   2.200   7.926  0.7768  0.2696 -0.0289
 2596SOL    HW119250   3.985   2.156   7.951  0.0927  1.5284  0.0003
 2596SOL    HW219251   4.124   2.129   7.897 -1.3156 -1.0617 -0.9064
 2597SOL     OW19252   0.662   1.262  15.144 -0.0714  0.0553  0.6641
 2597SOL    HW119253   0.751   1.227  15.153 -0.1774 -0.7612 -1.4436
 2597SOL    HW219254   0.634   1.235  15.056  0.8231  2.2860 -0.3156
 2598SOL     OW19255   3.012   1.451  11.308 -0.1772  0.2614 -0.1371
 2598SOL    HW119256   3.048   1.469  11.222  0.2424  1.8425  0.3575
 2598SOL    HW219257   3.057   1.368  11.327 -2.5329 -1.0439 -0.3242
 2599SOL     OW19258   0.217   0.431   4.815  0.0635  0.0303  0.4380
 2599SOL    HW119259   0.233   0.339   4.798 -1.2377 -0.1629  0.2985
 2599SOL    HW219260   0.305   0.464   4.795  0.5739 -2.4994 -1.4992
 2600SOL     OW19261   3.693   3.018   0.079 -0.2101  0.0676 -0.0812
 2600SOL    HW119262   3.767   3.055   0.127  0.3542 -0.5845 -0.4398
 2600SOL    HW219263   3.724   3.006  17.696 -1.2078 -0.0079 -0.4054
 2601SOL     OW19264   1.076   1.886  17.580  0.0705 -0.0167  0.6162
 2601SOL    HW119265   1.077   1.886  17.485  2.2000 -1.2834  0.6295
 2601SOL    HW219266   1.092   1.980  17.583 -0.8912  0.1721 -0.6723
 2602SOL     OW19267   2.807   3.138   5.474  0.0640  0.1932 -0.6778
 2602SOL    HW119268   2.781   3.105   5.560 -0.7513  0.2370 -0.9017
 2602SOL    HW219269   2.720   3.171   5.448 -0.1122  3.6055  4.2232
 2603SOL     OW19270   2.323   3.506  10.219 -0.6040  0.6622 -0.3379
 2603SOL    HW119271   2.389   3.447  10.256  0.6522  0.7451 -2.4526
 2603SOL    HW219272   2.306   3.456  10.139  0.6673  2.3366 -1.6420
 2604SOL     OW19273   1.043   1.397   2.216 -0.1743 -0.1354 -0.1058
 2604SOL    HW119274   1.019   1.336   2.146  1.0359 -0.2134 -0.4513
 2604SOL    HW219275   0.972   1.459   2.200  2.3357  2.7320 -0.0754
 2605SOL     OW19276   2.329   1.258   1.647  0.2834  0.8042 -0.4298
 2605SOL    HW119277   2.255   1.197   1.654 -0.3514  1.4401 -1.6472
 2605SOL    HW219278   2.357   1.277   1.736 -0.8419  0.9567 -0.1123
 2606SOL     OW19279   0.641   1.651   7.622 -0.1458 -0.0022  0.6988
 2606SOL    HW119280   0.602   1.565   7.610 -0.5797  0.1207  1.2286
 2606SOL    HW219281   0.725   1.646   7.577  0.2281 -0.7893  1.5142
 2607SOL     OW19282   0.593   2.546   8.556 -0.3927 -0.2286  0.3861
 2607SOL    HW119283   0.521   2.509   8.504 -0.4678  0.9492 -0.3556
 2607SOL    HW219284   0.583   2.503   8.641  0.3684  1.1370  1.1726
 2608SOL     OW19285   1.879   0.886   1.823 -0.7392 -0.1035  0.3111
 2608SOL    HW119286   1.845   0.815   1.768 -1.2447  0.5815 -0.2638
 2608SOL    HW219287   1.943   0.847   1.882  1.3272  1.9308 -0.5915
 2609SOL     OW19288   1.056   1.787   0.606 -0.5279  0.1980  0.4177
 2609SOL    HW119289   0.980   1.774   0.550  0.0318 -1.0794 -0.0642
 2609SOL    HW219290   1.123   1.826   0.549 -0.4650  1.6812  1.4870
 2610SOL     OW19291   1.865   0.831   4.236 -0.2698  0.0916 -0.0371
 2610SOL    HW119292   1.870   0.926   4.251  0.4188 -0.0917  0.8583
 2610SOL    HW219293   1.953   0.813   4.269  0.2537  0.0839 -1.4429
 2611SOL     OW19294   3.663   3.361   4.946 -0.0984 -0.3029 -0.1263
 2611SOL    HW119295   3.664   3.269   4.974 -0.0541 -0.3804 -0.3842
 2611SOL    HW219296   3.581   3.360   4.897 -0.0390 -1.7600 -0.2090
 2612SOL     OW19297   0.312   1.786   7.051  0.2414  0.6784  0.2470
 2612SOL    HW119298   0.317   1.862   6.992  0.1064  1.4194  1.1976
 2612SOL    HW219299   0.221   1.760   7.036 -0.1209  1.8350  0.4537
 2613SOL     OW19300   3.198   2.685   0.214 -0.0481 -0.2958  0.0066
 2613SOL    HW119301   3.153   2.702   0.296  0.0875  1.0819 -0.2095
 2613SOL    HW219302   3.167   2.762   0.167 -2.5411 -1.1923  0.1939
 2614SOL     OW19303   2.990   3.200   7.783 -0.1909  0.8793 -0.6947
 2614SOL    HW119304   3.020   3.195   7.692 -1.9391 -2.2293 -1.0842
 2614SOL    HW219305   3.040   3.279   7.807 -2.4962  2.0510  0.2114
 2615SOL     OW19306   0.139   0.088   8.690  0.3061 -0.1701 -0.0450
 2615SOL    HW119307   0.223   0.127   8.666  1.2597 -0.2998  3.0794
 2615SOL    HW219308   0.141   0.088   8.786 -0.9873  0.7041 -0.0167
 2616SOL     OW19309   3.877   3.288   7.613 -0.1147  0.0912 -0.1257
 2616SOL    HW119310   3.954   3.316   7.663 -0.0142 -2.4099  1.1264
 2616SOL    HW219311   3.835   3.230   7.676 -0.8823  0.6612 -0.1135
 2617SOL     OW19312   0.703   4.545   5.314 -0.0514 -0.0538  0.4174
 2617SOL    HW119313   0.758   4.536   5.237 -1.0304 -1.0646 -0.1610
 2617SOL    HW219314   0.657   4.461   5.314  2.6142 -1.4850 -3.4160
 2618SOL     OW19315   3.458   0.223  12.304  0.1195  0.3841 -0.1326
 2618SOL    HW119316   3.477   0.301  12.356 -0.4331  1.6501 -1.8447
 2618SOL    HW219317   3.477   0.158  12.372  1.7759 -0.6420 -1.5870
 2619SOL     OW19318   0.557   2.363  11.406  0.3981 -0.0234  0.1107
 2619SOL    HW119319   0.622   2.292  11.410  0.9861  0.4690 -0.6063
 2619SOL    HW219320   0.589   2.420  11.476  1.0358  0.2840 -0.4259
 2620SOL     OW19321   2.892   1.992   3.493  0.1076  0.4101  0.2643
 2620SOL    HW119322   2.966   2.044   3.462 -0.0246 -1.2191 -2.7682
 2620SOL    HW219323   2.909   1.976   3.586 -1.6692 -1.4597  0.2416
 2621SOL     OW19324   1.451   1.981   8.379  0.0907 -0.3704  0.0473
 2621SOL    HW119325   1.416   2.046   8.439  1.6175  1.7587 -1.3680
 2621SOL    HW219326   1.454   2.042   8.305 -0.6400 -0.2797  0.0932
 2622SOL     OW19327   4.533   2.182   3.324  0.4084 -0.4187 -0.1904
 2622SOL    HW119328   4.487   2.251   3.276  2.1064  0.6975 -0.2277
 2622SOL    HW219329   4.557   2.223   3.407 -1.5080 -0.2048  0.2540
 2623SOL     OW19330   3.368   4.578  16.145  0.6552  0.7584 -0.4433
 2623SOL    HW119331   3.357   4.637  16.220  1.0612 -2.5134  2.1720
 2623SOL    HW219332   3.412   4.507  16.191 -0.5344  0.6570  0.5348
 2624SOL     OW19333   4.403   4.366   8.458 -0.4516 -0.3245  0.2178
 2624SOL    HW119334   4.449   4.311   8.394 -0.3099 -0.9311  0.8362
 2624SOL    HW219335   4.470   4.377   8.525 -0.7431  3.0889 -0.0401
 2625SOL     OW19336   1.440   3.057   7.641  0.1987 -0.4885 -0.2569
 2625SOL    HW119337   1.489   2.997   7.697 -3.1462 -2.5002  0.5079
 2625SOL    HW219338   1.500   3.131   7.638 -0.7170  0.2515 -0.3468
 2626SOL     OW19339   0.274   2.264   0.105 -0.0091  0.2423 -0.1833
 2626SOL    HW119340   0.200   2.325   0.102  1.0743  1.4531 -2.6223
 2626SOL    HW219341   0.318   2.267   0.020 -1.8222 -0.8115 -1.1624
 2627SOL     OW19342   4.685   3.841   2.168  0.1795  0.5771  0.1108
 2627SOL    HW119343   0.013   3.871   2.095  2.0551 -2.4737  0.2959
 2627SOL    HW219344   4.715   3.906   2.232 -0.3343  1.8996 -0.9709
 2628SOL     OW19345   3.113   0.931  13.385 -0.0719  0.3235  0.2367
 2628SOL    HW119346   3.107   0.863  13.453  1.2745 -2.5538 -2.5504
 2628SOL    HW219347   3.204   0.915  13.359 -0.2569 -0.0305 -0.2013
 2629SOL     OW19348   1.045   4.331  14.466 -0.3096 -0.6221  0.3750
 2629SOL    HW119349   1.131   4.293  14.483 -0.6110 -2.1824 -1.6455
 2629SOL    HW219350   1.058   4.374  14.382  0.0079 -1.6135 -0.0849
 2630SOL     OW19351   0.184   1.290   1.097  0.2472 -0.6229 -0.2320
 2630SOL    HW119352   0.269   1.316   1.062  0.0084 -0.1797 -0.4798
 2630SOL    HW219353   0.165   1.210   1.048  0.9269 -1.0926  0.2644
 2631SOL     OW19354   1.924   2.107   6.007  0.0680 -0.0295 -0.2824
 2631SOL    HW119355   1.979   2.031   6.026 -0.2609  0.2075  1.6214
 2631SOL    HW219356   1.838   2.066   5.993  0.9052 -1.4489 -1.2202
 2632SOL     OW19357   4.612   2.460   9.105 -0.8722  0.3700 -0.0871
 2632SOL    HW119358   4.574   2.494   9.186 -0.5484 -1.7393  0.9632
 2632SOL    HW219359   4.561   2.380   9.095 -0.4157  0.3290 -2.1968
 2633SOL     OW19360   4.302   1.430   7.570  0.0960  0.0297 -0.0711
 2633SOL    HW119361   4.348   1.367   7.516  0.1024 -0.5505  0.6177
 2633SOL    HW219362   4.229   1.445   7.510  0.0635  0.2718  0.0271
 2634SOL     OW19363   2.619   2.323   8.241 -0.0593  0.3525  0.2548
 2634SOL    HW119364   2.665   2.405   8.221  1.7635 -0.5054  0.9079
 2634SOL    HW219365   2.679   2.288   8.307 -1.8246  0.7165  2.0211
 2635SOL     OW19366   3.762   1.045   9.587  0.3275 -0.0945  0.0193
 2635SOL    HW119367   3.697   1.032   9.518  0.7129 -2.5613  0.1301
 2635SOL    HW219368   3.828   1.102   9.548  0.0324  3.3613  4.4687
 2636SOL     OW19369   1.310   3.845   8.834  0.1087  0.3494 -0.0883
 2636SOL    HW119370   1.295   3.762   8.789  2.2529 -0.6163  0.9962
 2636SOL    HW219371   1.403   3.855   8.852  0.0703  0.9383 -0.1892
 2637SOL     OW19372   1.460   1.093   1.754  0.2982 -0.2840 -1.2581
 2637SOL    HW119373   1.556   1.093   1.764  0.1630 -0.3365 -0.0006
 2637SOL    HW219374   1.456   0.997   1.753  3.2895 -0.4378 -0.3782
 2638SOL     OW19375   0.498   2.310   3.231  0.0247  0.0817  0.1452
 2638SOL    HW119376   0.425   2.253   3.209 -2.4913  2.5693  2.0864
 2638SOL    HW219377   0.568   2.248   3.251 -0.3575 -0.4976 -0.2866
 2639SOL     OW19378   4.400   3.798   2.156 -0.0380 -0.0903  0.2216
 2639SOL    HW119379   4.492   3.807   2.131 -0.3005  0.0886 -0.6806
 2639SOL    HW219380   4.359   3.876   2.119  2.8886  0.8103 -1.1478
 2640SOL     OW19381   2.128   1.138  13.140 -0.1234 -0.5032 -0.2007
 2640SOL    HW119382   2.121   1.150  13.235 -1.2103 -1.9117 -0.0922
 2640SOL    HW219383   2.200   1.075  13.138  2.9077  3.0314 -2.0641
 2641SOL     OW19384   4.131   1.023  13.651  0.2971 -0.2709  0.0435
 2641SOL    HW119385   4.191   0.967  13.700 -1.1611 -0.3410  1.7578
 2641SOL    HW219386   4.154   1.109  13.686 -1.9118  0.4982 -0.3659
 2642SOL     OW19387   2.848   2.142  10.078 -0.0778 -0.4104 -0.0113
 2642SOL    HW119388   2.803   2.188  10.007 -1.3288 -0.3948  0.7894
 2642SOL    HW219389   2.777   2.090  10.115 -0.0353 -0.6678 -0.2916
 2643SOL     OW19390   1.772   2.693   0.481  0.0315 -0.3843 -0.2954
 2643SOL    HW119391   1.843   2.756   0.475  0.8882 -1.3520 -0.3511
 2643SOL    HW219392   1.732   2.700   0.394 -1.1760 -0.5067  0.2501
 2644SOL     OW19393   3.984   2.922   5.508 -0.4199  0.0725 -1.4118
 2644SOL    HW119394   3.897   2.960   5.518 -0.0872  0.1495  1.1500
 2644SOL    HW219395   4.023   2.953   5.590 -1.1857  0.3293 -1.1448
 2645SOL     OW19396   3.949   1.405   7.118 -0.2981  0.9712  0.5187
 2645SOL    HW119397   3.901   1.440   7.193  0.7280  1.4289  0.9673
 2645SOL    HW219398   3.971   1.488   7.074 -1.8734 -0.0952 -2.2609
 2646SOL     OW19399   0.492   0.486   5.764 -0.4187 -0.4188  0.1025
 2646SOL    HW119400   0.498   0.558   5.827 -2.1615 -1.8079  1.8905
 2646SOL    HW219401   0.412   0.441   5.792 -0.4892  0.6197  1.6131
 2647SOL     OW19402   3.847   1.745  14.933 -0.1896 -0.3032  0.5754
 2647SOL    HW119403   3.920   1.713  14.881 -1.2125  0.4645 -1.3252
 2647SOL    HW219404   3.775   1.688  14.905  1.5139 -0.8771 -2.6060
 2648SOL     OW19405   1.798   3.471   4.159 -0.4057  0.2447 -0.2966
 2648SOL    HW119406   1.716   3.518   4.145  1.4330  3.0976 -1.5419
 2648SOL    HW219407   1.838   3.525   4.227 -2.0383  1.8249 -0.6023
 2649SOL     OW19408   1.156   0.631   4.250  0.0022  0.4776 -0.0622
 2649SOL    HW119409   1.172   0.725   4.238 -2.1337  0.8735  0.2203
 2649SOL    HW219410   1.167   0.596   4.161 -0.8193  0.4578 -0.1490
 2650SOL     OW19411   4.058   1.966   2.997  0.4317 -0.0597 -0.8493
 2650SOL    HW119412   3.981   1.917   3.027 -0.7494  0.5220 -2.9627
 2650SOL    HW219413   4.118   1.893   2.986 -0.1434 -1.0505  2.4425
 2651SOL     OW19414   2.010   2.256   4.405 -0.3214 -0.2820 -0.6046
 2651SOL    HW119415   1.959   2.186   4.445 -0.8280  0.6139  0.2973
 2651SOL    HW219416   2.032   2.308   4.482  1.2724 -0.1702 -1.1147
 2652SOL     OW19417   2.069   2.209   9.559 -0.4644 -0.7839 -0.1594
 2652SOL    HW119418   2.008   2.143   9.592  0.5510 -2.1844 -1.0816
 2652SOL    HW219419   2.125   2.216   9.637  1.8919 -1.0753 -1.8317
 2653SOL     OW19420   1.329   1.813  12.607 -0.2583 -0.2855  0.4140
 2653SOL    HW119421   1.319   1.902  12.574 -3.1165  0.4500  3.2662
 2653SOL    HW219422   1.337   1.765  12.525 -2.3469 -0.7504  0.4771
 2654SOL     OW19423   2.887   2.844   7.247 -0.0991 -0.1865  0.4404
 2654SOL    HW119424   2.899   2.887   7.162 -1.2356 -0.9150 -0.0776
 2654SOL    HW219425   2.862   2.757   7.218 -0.8469  0.1445  0.0800
 2655SOL     OW19426   1.253   3.445   4.160  0.6134 -0.2758 -0.3647
 2655SOL    HW119427   1.173   3.431   4.210 -1.4579 -0.0924 -3.6486
 2655SOL    HW219428   1.216   3.490   4.084 -0.2214 -0.1010  0.1469
 2656SOL     OW19429   4.250   2.687  10.105  0.4326 -0.3544  0.4130
 2656SOL    HW119430   4.177   2.630  10.084  0.9322 -1.0400  0.5449
 2656SOL    HW219431   4.214   2.742  10.175 -2.3661 -0.3789 -1.0071
 2657SOL     OW19432   0.923   2.485   8.541  0.6500 -0.3310  0.3101
 2657SOL    HW119433   0.881   2.527   8.616 -0.3068  0.3242 -0.6074
 2657SOL    HW219434   0.841   2.446   8.512  0.0358  0.0459  1.5381
 2658SOL     OW19435   1.978   4.259   3.029  0.4996 -0.1886  0.4523
 2658SOL    HW119436   1.909   4.192   3.029 -0.1159  0.4603 -1.4960
 2658SOL    HW219437   1.994   4.271   2.936 -0.9316  0.6635  0.3173
 2659SOL     OW19438   0.237   2.563   1.916 -0.1368 -0.4846  0.6901
 2659SOL    HW119439   0.169   2.601   1.970 -1.3880 -2.3378  0.4104
 2659SOL    HW219440   0.282   2.518   1.988 -0.0360  1.4918  1.8562
 2660SOL     OW19441   1.157   4.644   1.951  0.1798  0.3358 -0.3656
 2660SOL    HW119442   1.146   4.612   2.040  2.5052  1.9667  0.5059
 2660SOL    HW219443   1.067   4.654   1.920 -0.1587 -0.2574  0.4203
 2661SOL     OW19444   0.033   2.093   5.183 -0.2052  0.0078  0.9211
 2661SOL    HW119445   0.126   2.075   5.167  0.0429  1.2600  0.9540
 2661SOL    HW219446   0.043   2.168   5.242  1.8218  1.8975 -1.8485
 2662SOL     OW19447   1.410   0.697  15.947 -1.1502  0.1133 -0.5885
 2662SOL    HW119448   1.330   0.661  15.985 -1.5049  1.3622 -0.1545
 2662SOL    HW219449   1.439   0.752  16.020 -0.5430 -0.8890 -0.0673
 2663SOL     OW19450   4.626   4.185   5.858  0.6499  0.4357 -0.2026
 2663SOL    HW119451   4.589   4.226   5.780 -0.0343  0.8004  0.3141
 2663SOL    HW219452   4.625   4.260   5.917 -1.1883  0.3618 -0.1232
 2664SOL     OW19453   0.865   1.373   6.096 -0.0428 -0.2121 -0.2882
 2664SOL    HW119454   0.878   1.358   6.003  0.3874 -1.3316 -0.0361
 2664SOL    HW219455   0.801   1.444   6.087  1.0715  0.6332 -1.4735
 2665SOL     OW19456   1.277   4.131   5.354 -0.2705  0.1645  0.5346
 2665SOL    HW119457   1.217   4.075   5.403 -0.8701 -0.4373 -0.8710
 2665SOL    HW219458   1.334   4.132   5.430  1.1527 -0.2245 -0.5302
 2666SOL     OW19459   3.241   3.936   0.389  0.4085 -0.0676 -0.1542
 2666SOL    HW119460   3.279   3.969   0.308 -1.4265 -1.4233 -1.5704
 2666SOL    HW219461   3.307   3.955   0.456 -0.3129  0.9521  0.2655
 2667SOL     OW19462   4.172   2.264   6.845 -0.1713  0.3171 -0.1614
 2667SOL    HW119463   4.178   2.183   6.793  1.0751 -1.1483  2.2532
 2667SOL    HW219464   4.260   2.277   6.880 -0.1229 -1.8005  0.5195
 2668SOL     OW19465   4.666   0.005  12.811 -0.0254  0.1443  0.1600
 2668SOL    HW119466   0.006   0.033  12.874  0.2333  0.4030 -0.2244
 2668SOL    HW219467   4.588   0.026  12.862  1.3474  3.6895  0.7725
 2669SOL     OW19468   3.818   1.701   8.929  0.0733 -0.4874  0.2016
 2669SOL    HW119469   3.871   1.771   8.891  0.3409 -1.9799 -2.1165
 2669SOL    HW219470   3.779   1.746   9.004  0.4184 -0.7659  0.5498
 2670SOL     OW19471   3.765   0.673   7.004  0.2545 -0.7341 -0.1383
 2670SOL    HW119472   3.860   0.663   7.006  0.1641 -2.1773 -2.4982
 2670SOL    HW219473   3.751   0.684   6.909  0.6134  0.4574 -0.0439
 2671SOL     OW19474   2.200   3.197  11.233  0.7519  0.1559  0.5206
 2671SOL    HW119475   2.216   3.175  11.142 -0.9580  1.3555 -0.0615
 2671SOL    HW219476   2.261   3.271  11.231 -1.0409  1.5850 -1.8261
 2672SOL     OW19477   1.981   1.957   2.340 -0.6783 -0.1566 -0.3143
 2672SOL    HW119478   1.940   1.916   2.263  2.6369 -1.5687 -1.3089
 2672SOL    HW219479   1.914   1.931   2.404 -0.2975  1.6241  0.7867
 2673SOL     OW19480   3.808   4.179   9.170 -0.3395 -0.3078 -0.3489
 2673SOL    HW119481   3.808   4.147   9.260 -1.2057 -1.4432 -0.7552
 2673SOL    HW219482   3.740   4.118   9.141  0.0265 -0.2558 -1.3302
 2674SOL     OW19483   3.379   2.223   9.126 -0.1924  0.6989  0.3690
 2674SOL    HW119484   3.469   2.198   9.106 -0.4561  1.1521 -1.4128
 2674SOL    HW219485   3.386   2.318   9.115  1.2526  0.8870  2.9618
 2675SOL     OW19486   4.639   3.993   1.139  0.7101 -0.7239  0.0921
 2675SOL    HW119487   4.620   3.922   1.200 -0.7358 -1.4312 -1.1819
 2675SOL    HW219488   0.008   3.993   1.147  0.8334 -1.2063 -1.3705
 2676SOL     OW19489   1.933   3.100   9.073 -0.0351  0.3187 -0.3371
 2676SOL    HW119490   1.844   3.135   9.077 -0.2467 -0.1744 -0.6939
 2676SOL    HW219491   1.986   3.177   9.091  0.6428 -0.2221 -0.0272
 2677SOL     OW19492   1.653   2.212   5.399  0.2421 -0.4665 -0.4827
 2677SOL    HW119493   1.661   2.296   5.354  0.0763 -0.9365 -1.3923
 2677SOL    HW219494   1.718   2.170   5.343  0.7061  0.8349 -0.9109
 2678SOL     OW19495   3.640   0.031   5.186  0.1904 -0.5358 -0.2204
 2678SOL    HW119496   3.612   4.699   5.116  0.2404 -0.6044 -0.1837
 2678SOL    HW219497   3.603   0.119   5.173 -0.3217 -0.4915  1.6674
 2679SOL     OW19498   4.167   3.954  13.128  0.0126 -0.3775  0.1772
 2679SOL    HW119499   4.226   3.980  13.199  0.4392 -1.4469  0.2218
 2679SOL    HW219500   4.160   4.036  13.080 -0.2101  0.9967  2.5626
 2680SOL     OW19501   0.394   3.194   0.381  0.1971 -0.8797  0.0939
 2680SOL    HW119502   0.301   3.174   0.377 -0.3618  1.1784  2.7327
 2680SOL    HW219503   0.406   3.166   0.472 -0.2947  0.0716  0.4476
 2681SOL     OW19504   2.120   1.752  16.403 -0.2100  0.5117 -0.2896
 2681SOL    HW119505   2.098   1.776  16.493 -0.1893 -0.0524 -0.1344
 2681SOL    HW219506   2.207   1.792  16.397  0.9294 -2.0782 -0.8602
 2682SOL     OW19507   2.603   0.713   1.647  0.0782 -0.1013  0.2418
 2682SOL    HW119508   2.595   0.794   1.696 -2.8182  0.8723 -1.8324
 2682SOL    HW219509   2.630   0.740   1.559 -1.0893 -1.0158 -0.4052
 2683SOL     OW19510   3.267   2.760   6.677 -0.3518  0.2044 -1.1647
 2683SOL    HW119511   3.352   2.784   6.714 -0.6186 -1.3530  0.4283
 2683SOL    HW219512   3.208   2.745   6.750  0.8564 -1.3376 -0.5034
 2684SOL     OW19513   1.495   1.158   5.205 -0.3838 -0.4643  0.2621
 2684SOL    HW119514   1.455   1.239   5.238  0.3848  0.7879 -1.9006
 2684SOL    HW219515   1.456   1.098   5.268  1.7842 -1.3615  0.7535
 2685SOL     OW19516   4.143   4.610  12.006  0.4522  0.3065 -0.1394
 2685SOL    HW119517   4.109   4.531  11.963  0.2824  0.3513 -0.0871
 2685SOL    HW219518   4.233   4.605  11.974  0.9506  2.4472  0.9198
 2686SOL     OW19519   2.070   3.999  10.800  0.1677 -0.3524  0.2150
 2686SOL    HW119520   2.081   3.941  10.876 -3.1780 -2.2135 -0.7087
 2686SOL    HW219521   1.977   3.994  10.780  0.2066 -1.4030  0.2557
 2687SOL     OW19522   0.081   0.040   3.952  0.1904 -0.4550 -0.5147
 2687SOL    HW119523   0.103   4.686   3.906 -2.9640 -1.0314 -1.0365
 2687SOL    HW219524   0.118   0.021   4.038  1.2157 -0.6238 -0.9961
 2688SOL     OW19525   2.741   4.674   1.567 -0.4621  0.1708  0.1985
 2688SOL    HW119526   2.817   4.624   1.539 -2.6773 -2.4674 -1.0903
 2688SOL    HW219527   2.679   4.623   1.515 -1.3782  0.6391  0.8164
 2689SOL     OW19528   3.421   0.982   6.477  0.1921 -0.5316 -0.3920
 2689SOL    HW119529   3.368   1.059   6.498  0.2714 -0.7891  0.7692
 2689SOL    HW219530   3.507   1.019   6.499  0.3902 -0.4308 -1.3301
 2690SOL     OW19531   2.485   3.198   1.930  0.4127  0.6635 -0.6284
 2690SOL    HW119532   2.457   3.191   2.022  0.6157  0.4788 -0.5819
 2690SOL    HW219533   2.489   3.104   1.910 -1.6741  0.4924 -0.2793
 2691SOL     OW19534   0.112   0.533  12.560  0.3694  0.2373  0.2439
 2691SOL    HW119535   0.178   0.601  12.573  1.2500 -0.2004 -1.8882
 2691SOL    HW219536   0.083   0.546  12.469 -0.4652  1.5239  0.6866
 2692SOL     OW19537   2.566   2.318  15.076 -0.5287 -0.3225  1.1202
 2692SOL    HW119538   2.470   2.308  15.074 -0.6104  0.2667  2.5006
 2692SOL    HW219539   2.583   2.292  14.985 -0.8524  0.5173  0.8205
 2693SOL     OW19540   4.497   2.934   0.976  0.2147 -0.0512 -0.5403
 2693SOL    HW119541   4.529   2.890   0.897  1.3435  0.9222 -0.6306
 2693SOL    HW219542   4.563   2.977   1.030  0.8752 -2.1578  0.3243
 2694SOL     OW19543   3.691   1.548   3.636 -0.1747  0.5649 -0.5978
 2694SOL    HW119544   3.663   1.531   3.726 -0.4062  1.1906 -0.5576
 2694SOL    HW219545   3.656   1.636   3.624  2.7263  1.9639  1.3628
 2695SOL     OW19546   4.555   1.345   8.288 -0.1866 -0.0657 -0.3692
 2695SOL    HW119547   4.470   1.300   8.288 -0.9908  1.4553 -1.8557
 2695SOL    HW219548   4.581   1.336   8.196 -3.3031  0.6611 -1.3499
 2696SOL     OW19549   2.898   0.051  16.098  0.1034 -0.0307  0.1328
 2696SOL    HW119550   2.890   0.041  16.003 -0.3943 -2.1376  0.3962
 2696SOL    HW219551   2.836   4.722  16.145  0.4870 -0.6026 -0.0327
 2697SOL     OW19552   2.418   4.698   4.043  0.5310 -0.1895  0.0584
 2697SOL    HW119553   2.385   4.655   3.964  0.0139  0.2317  0.0449
 2697SOL    HW219554   2.350   0.034   4.070  0.4986 -0.1597 -0.0914
 2698SOL     OW19555   0.579   2.892   4.352  0.6642  0.1795 -0.2346
 2698SOL    HW119556   0.587   2.907   4.258  1.0041  0.4638 -0.1607
 2698SOL    HW219557   0.669   2.905   4.382  0.8157  1.0154 -1.0486
 2699SOL     OW19558   1.870   1.298   2.968 -0.4351  0.4414 -0.0510
 2699SOL    HW119559   1.962   1.282   2.986 -0.9163 -2.2107  0.0719
 2699SOL    HW219560   1.852   1.251   2.886  0.2492  0.1523 -0.0358
 2700SOL     OW19561   2.587   3.468  13.424  0.5060  0.0025 -0.3620
 2700SOL    HW119562   2.543   3.480  13.340 -0.5998 -1.2578  0.0466
 2700SOL    HW219563   2.609   3.556  13.454 -0.4417  0.2391 -0.3572
 2701SOL     OW19564   3.676   2.904   3.453  0.1225  0.3265 -0.1116
 2701SOL    HW119565   3.647   2.993   3.434 -1.2527  0.3665  2.1086
 2701SOL    HW219566   3.630   2.860   3.382 -0.4136  0.4494  0.1580
 2702SOL     OW19567   4.610   1.250   6.410  0.6554 -0.3113  0.4891
 2702SOL    HW119568   4.609   1.158   6.434  0.7600 -1.0195 -2.1589
 2702SOL    HW219569   4.531   1.244   6.356  0.4175  1.6426  0.6238
 2703SOL     OW19570   4.463   2.139   6.690 -0.7392 -0.0858 -0.4754
 2703SOL    HW119571   4.426   2.055   6.663  0.6397 -0.4512 -1.2300
 2703SOL    HW219572   4.441   2.200   6.620 -0.1161 -1.6057 -2.0001
 2704SOL     OW19573   3.523   3.291   6.987  0.2613 -0.3610 -0.4774
 2704SOL    HW119574   3.477   3.339   6.918 -2.1301 -1.1065  0.5909
 2704SOL    HW219575   3.508   3.345   7.065  1.9384 -1.9564  0.9426
 2705SOL     OW19576   3.183   2.247   4.149  0.0992  0.4047  0.0920
 2705SOL    HW119577   3.155   2.165   4.189  0.3559 -0.3258 -1.2615
 2705SOL    HW219578   3.252   2.292   4.198 -0.0089 -0.1208  0.7192
 2706SOL     OW19579   3.598   1.813   3.616  0.4150  0.5891  0.0726
 2706SOL    HW119580   3.511   1.819   3.657 -0.6285 -1.2947 -1.8751
 2706SOL    HW219581   3.588   1.876   3.544 -0.5138 -0.5933 -0.8342
 2707SOL     OW19582   3.373   2.775   5.862  0.2162 -0.1098  0.1666
 2707SOL    HW119583   3.452   2.737   5.824 -0.5412  1.4681 -2.9335
 2707SOL    HW219584   3.313   2.702   5.844 -1.5822  1.6860 -1.0978
 2708SOL     OW19585   0.356   3.237   3.440  0.1844  0.2589 -0.3625
 2708SOL    HW119586   0.261   3.247   3.438  0.1693  0.5181  2.2847
 2708SOL    HW219587   0.373   3.204   3.351  1.3598  0.4765 -0.2221
 2709SOL     OW19588   4.408   2.672  11.407  0.2899  0.4942  0.3707
 2709SOL    HW119589   4.433   2.636  11.492  0.1681 -0.2843  0.0826
 2709SOL    HW219590   4.434   2.763  11.419 -0.4631  0.6868  0.5731
 2710SOL     OW19591   4.080   1.103  17.584 -0.2022  0.0351  0.0650
 2710SOL    HW119592   4.096   1.089  17.678  1.7666 -1.3913 -0.4796
 2710SOL    HW219593   4.032   1.025  17.560  1.3894 -1.0733  0.4798
 2711SOL     OW19594   2.862   3.868   0.212  0.0808  0.0993 -0.2801
 2711SOL    HW119595   2.801   3.806   0.173 -0.4396  1.7125 -2.0184
 2711SOL    HW219596   2.948   3.832   0.193 -0.4481 -0.0877 -2.3550
 2712SOL     OW19597   3.807   3.963   0.923  0.0116 -0.3470  0.2685
 2712SOL    HW119598   3.775   4.016   0.996 -0.0589  1.0583 -0.7715
 2712SOL    HW219599   3.877   4.020   0.891  0.8133 -0.4757  1.7883
 2713SOL     OW19600   2.865   0.151   1.250  0.7772 -0.1833 -0.5683
 2713SOL    HW119601   2.806   0.078   1.233 -1.7527  1.6900  0.0586
 2713SOL    HW219602   2.913   0.149   1.167  0.7183  3.3403 -0.6782
 2714SOL     OW19603   1.282   0.059   7.870  0.1575 -0.2208 -0.4340
 2714SOL    HW119604   1.284   4.690   7.877  1.3218 -0.1587  0.1168
 2714SOL    HW219605   1.258   0.073   7.779  0.7013 -0.4067 -0.6048
 2715SOL     OW19606   1.876   0.542   8.901 -0.1959  0.9659 -0.0574
 2715SOL    HW119607   1.831   0.568   8.820  2.4769  1.5356 -1.3596
 2715SOL    HW219608   1.890   0.619   8.956 -0.0067  0.6174  0.3810
 2716SOL     OW19609   3.716   4.018   5.465 -0.0401 -0.0469  0.3182
 2716SOL    HW119610   3.789   4.043   5.522  0.3105 -0.6016  0.1035
 2716SOL    HW219611   3.662   4.096   5.455  0.5739  0.9048  4.2266
 2717SOL     OW19612   2.804   1.575   3.906  0.2092  0.0950 -0.2022
 2717SOL    HW119613   2.727   1.611   3.949 -0.2351 -0.6722 -0.3432
 2717SOL    HW219614   2.874   1.616   3.957 -1.0956  0.8802  0.9439
 2718SOL     OW19615   3.955   3.786   5.222  0.2141 -0.0332  0.0846
 2718SOL    HW119616   4.008   3.787   5.302 -0.7487  1.0497  0.7028
 2718SOL    HW219617   4.015   3.743   5.161 -0.0765 -1.1727  0.6039
 2719SOL     OW19618   2.888   2.173   2.629  0.1297  0.2635  0.0485
 2719SOL    HW119619   2.969   2.124   2.641  0.2685  0.0134 -1.8776
 2719SOL    HW219620   2.820   2.106   2.625 -1.4761  1.9072 -0.1830
 2720SOL     OW19621   3.987   3.767   7.613  0.1769 -0.1162  0.6817
 2720SOL    HW119622   4.008   3.858   7.593  1.4729 -0.5662 -0.0306
 2720SOL    HW219623   3.917   3.752   7.550  1.4517 -1.7272 -0.3675
 2721SOL     OW19624   3.833   0.910   5.123 -0.3463 -0.1303  0.8859
 2721SOL    HW119625   3.870   0.998   5.120 -0.1147 -0.2312  0.7893
 2721SOL    HW219626   3.919   0.868   5.129 -0.6833 -0.9998 -0.4335
 2722SOL     OW19627   1.475   1.382   4.216 -0.2083 -0.2526  0.8378
 2722SOL    HW119628   1.553   1.438   4.221 -0.4133 -0.1069  2.2948
 2722SOL    HW219629   1.475   1.392   4.121 -1.6193 -1.8911  0.6711
 2723SOL     OW19630   2.055   3.120   3.970 -0.2502 -0.3115  0.4996
 2723SOL    HW119631   2.053   3.138   3.876 -2.7850  1.2842  0.8695
 2723SOL    HW219632   2.108   3.041   3.962 -0.7443 -0.2439 -3.6530
 2724SOL     OW19633   2.661   4.362   1.719  0.2455 -0.5370 -0.0135
 2724SOL    HW119634   2.624   4.324   1.799  4.6563 -0.5228  2.0466
 2724SOL    HW219635   2.585   4.397   1.672  0.7942 -0.4166 -0.8015
 2725SOL     OW19636   0.877   1.790  14.228  0.4731  0.2087  0.3166
 2725SOL    HW119637   0.914   1.875  14.205  0.0215  0.5396  0.7993
 2725SOL    HW219638   0.891   1.788  14.323  0.5544  0.0118  0.3004
 2726SOL     OW19639   2.305   0.502   3.539  0.0700  0.4372 -0.0503
 2726SOL    HW119640   2.218   0.536   3.561 -0.5610 -0.2960 -1.4199
 2726SOL    HW219641   2.309   0.512   3.444  1.3320  0.8849  0.0486
 2727SOL     OW19642   3.164   3.756   6.217  0.0971  0.8625  0.1605
 2727SOL    HW119643   3.093   3.795   6.268 -1.8149 -1.1643 -1.0111
 2727SOL    HW219644   3.236   3.776   6.278  1.5031  2.5963 -2.0819
 2728SOL     OW19645   2.449   4.414  15.128 -0.7225 -0.1189  0.2691
 2728SOL    HW119646   2.520   4.456  15.177 -1.4895  3.0538 -1.3071
 2728SOL    HW219647   2.483   4.325  15.135  1.4647  0.8712  2.4812
 2729SOL     OW19648   1.599   1.635   3.120 -0.1705 -0.2387  0.1939
 2729SOL    HW119649   1.621   1.723   3.150  2.8405 -0.4783 -1.3675
 2729SOL    HW219650   1.626   1.580   3.193 -1.6263  1.0556  1.7366
 2730SOL     OW19651   2.994   0.860   3.404  0.4836  0.2820 -0.1742
 2730SOL    HW119652   3.012   0.837   3.496 -0.3004 -0.4913 -0.2156
 2730SOL    HW219653   3.072   0.829   3.359  1.1509  1.8030 -0.0737
 2731SOL     OW19654   0.603   0.994   2.359 -0.4592  0.1991  0.7165
 2731SOL    HW119655   0.650   1.024   2.281 -0.9838 -1.1866 -0.1321
 2731SOL    HW219656   0.554   1.073   2.383 -1.8290 -0.0197 -1.2998
 2732SOL     OW19657   2.099   1.545   8.693  1.0150  0.2549 -0.1834
 2732SOL    HW119658   2.159   1.616   8.713 -0.3304  1.1331  0.7182
 2732SOL    HW219659   2.131   1.502   8.614  1.7885  0.3612  0.0764
 2733SOL     OW19660   1.559   2.475   7.505 -0.0308  0.0316  0.7191
 2733SOL    HW119661   1.512   2.558   7.518 -0.5567  0.0385 -1.2077
 2733SOL    HW219662   1.587   2.493   7.416 -2.3925  1.6299  0.2910
 2734SOL     OW19663   2.246   3.066  17.424  0.2088 -0.4227  0.0246
 2734SOL    HW119664   2.233   3.157  17.452  2.1604  0.1664 -1.0277
 2734SOL    HW219665   2.192   3.016  17.486  1.2138  0.6036  1.7360
 2735SOL     OW19666   2.674   2.001   7.848  0.0268 -0.2628  0.5610
 2735SOL    HW119667   2.601   2.063   7.852  0.4166  0.3024 -1.1194
 2735SOL    HW219668   2.671   1.956   7.932 -0.6008 -1.2559  0.0107
 2736SOL     OW19669   0.611   0.836   6.427  0.2776 -0.4444  0.4096
 2736SOL    HW119670   0.573   0.894   6.492 -1.2646 -0.6446 -0.3114
 2736SOL    HW219671   0.543   0.821   6.361  1.4261  0.7927 -1.0622
 2737SOL     OW19672   4.168   3.801   5.761  0.0429 -0.4037 -0.1656
 2737SOL    HW119673   4.246   3.817   5.707 -0.0065  1.4279  0.3117
 2737SOL    HW219674   4.147   3.714   5.727  2.3084 -0.8600 -0.3978
 2738SOL     OW19675   1.733   0.858   0.860  0.3854 -0.0878 -0.0344
 2738SOL    HW119676   1.740   0.778   0.808  3.9810 -0.2452  0.6502
 2738SOL    HW219677   1.657   0.893   0.814  0.3473  0.4259  0.4173
 2739SOL     OW19678   2.858   0.500   4.189 -0.5684  0.1051 -0.2443
 2739SOL    HW119679   2.830   0.412   4.163  0.8264 -0.5010  0.3029
 2739SOL    HW219680   2.784   0.555   4.163 -1.0941 -1.2708 -1.6050
 2740SOL     OW19681   2.454   2.580   9.184 -0.1215 -0.1217 -0.0564
 2740SOL    HW119682   2.411   2.497   9.205 -1.1324  0.8804  1.8526
 2740SOL    HW219683   2.436   2.608   9.274  1.1705 -1.0287  0.5036
 2741SOL     OW19684   0.826   1.295  11.837 -0.0250 -0.0432  0.6677
 2741SOL    HW119685   0.792   1.370  11.885 -1.7787 -0.1750 -0.3790
 2741SOL    HW219686   0.915   1.297  11.873  0.5812 -1.0310 -0.7703
 2742SOL     OW19687   2.267   3.307   8.984  0.2917 -0.1631 -0.2068
 2742SOL    HW119688   2.250   3.276   9.073  1.0105 -3.3632 -1.1897
 2742SOL    HW219689   2.334   3.373   9.002  0.1288  0.0926 -0.5194
 2743SOL     OW19690   4.471   0.156  14.419  0.0460  0.0747 -0.0404
 2743SOL    HW119691   4.501   0.123  14.504 -0.3008 -1.5765 -0.5444
 2743SOL    HW219692   4.505   0.244  14.434  1.4270 -0.4713 -0.0199
 2744SOL     OW19693   3.299   4.102   6.298 -0.6845 -0.3494 -0.7012
 2744SOL    HW119694   3.265   4.068   6.381  0.4321  1.3823  0.4936
 2744SOL    HW219695   3.391   4.082   6.312 -0.4120  1.7113  0.5730
 2745SOL     OW19696   1.441   4.208   9.460  0.4196 -0.0730  0.2150
 2745SOL    HW119697   1.512   4.172   9.514  0.4508  0.5628  0.5998
 2745SOL    HW219698   1.457   4.301   9.477  2.4625 -0.4698  0.4219
 2746SOL     OW19699   1.831   3.723   1.103 -0.5643  0.0246  0.2763
 2746SOL    HW119700   1.908   3.718   1.046 -0.6964  1.8251 -0.0769
 2746SOL    HW219701   1.879   3.731   1.186 -2.1066  0.5310  1.1126
 2747SOL     OW19702   4.395   4.458   5.141 -0.4862  0.1866  0.4540
 2747SOL    HW119703   4.469   4.419   5.188  2.0882  3.0075 -1.2504
 2747SOL    HW219704   4.372   4.375   5.099  3.1082 -1.1746  1.2112
 2748SOL     OW19705   2.519   0.653   0.243 -0.4069 -0.1164  0.5355
 2748SOL    HW119706   2.566   0.603   0.176 -1.5515  0.8191 -0.9612
 2748SOL    HW219707   2.466   0.712   0.191 -1.1683  0.2260  1.6913
 2749SOL     OW19708   2.349   0.101  14.960 -0.4641  0.4538 -0.0299
 2749SOL    HW119709   2.323   0.052  15.038 -3.3004 -0.6456 -1.6594
 2749SOL    HW219710   2.443   0.085  14.959 -0.6016 -0.3109 -0.2726
 2750SOL     OW19711   3.229   4.631   6.570 -0.2923 -0.6723  0.5088
 2750SOL    HW119712   3.145   4.669   6.594  0.4137  0.2610  1.4835
 2750SOL    HW219713   3.222   4.547   6.616 -1.4960 -0.9573 -0.1959
 2751SOL     OW19714   1.762   0.696   8.316  0.0551  0.4302 -0.7647
 2751SOL    HW119715   1.692   0.760   8.304 -0.1804  0.2067 -0.5788
 2751SOL    HW219716   1.830   0.740   8.368  1.2984 -0.6239 -1.4775
 2752SOL     OW19717   1.776   4.372   6.821 -0.1785  0.4053  0.4412
 2752SOL    HW119718   1.857   4.423   6.812 -0.9666  1.8544  1.5948
 2752SOL    HW219719   1.721   4.393   6.745  0.4714  0.0756 -0.1241
 2753SOL     OW19720   4.313   2.829   6.713 -0.1842 -0.0755 -0.7388
 2753SOL    HW119721   4.399   2.854   6.681  0.3018 -1.0520 -0.1793
 2753SOL    HW219722   4.255   2.894   6.673  0.9992  1.4284  0.0062
 2754SOL     OW19723   0.117   0.437   5.109  0.3691 -0.2707  0.1046
 2754SOL    HW119724   0.182   0.446   5.039  0.5952  0.5240  0.4139
 2754SOL    HW219725   0.052   0.503   5.085  1.1451  0.7049  0.6580
 2755SOL     OW19726   0.094   4.512   9.080 -0.1273 -0.1913 -0.3778
 2755SOL    HW119727   0.103   4.476   9.168 -0.4990  3.4040  1.1321
 2755SOL    HW219728   0.139   4.447   9.025  0.3143  0.0251 -0.2747
 2756SOL     OW19729   2.069   4.143   3.556 -0.4189  0.5087  0.0865
 2756SOL    HW119730   1.974   4.156   3.555 -0.3644  0.9061  0.0446
 2756SOL    HW219731   2.087   4.126   3.648 -0.2033  1.2923  0.1919
 2757SOL     OW19732   0.677   3.003  10.290 -0.0578 -0.1032 -0.1368
 2757SOL    HW119733   0.615   2.948  10.337 -0.7902  2.3364  1.8074
 2757SOL    HW219734   0.670   2.968  10.201 -0.6402  1.5260 -0.7486
 2758SOL     OW19735   0.868   1.652   5.900  0.0527  0.3084 -0.1986
 2758SOL    HW119736   0.934   1.713   5.868 -0.6959  0.1851 -1.9426
 2758SOL    HW219737   0.788   1.702   5.891 -0.7149 -0.3507  2.7680
 2759SOL     OW19738   3.137   3.927   8.197  0.2668  0.0504  0.2667
 2759SOL    HW119739   3.224   3.955   8.225  0.4755 -1.2846  0.9839
 2759SOL    HW219740   3.153   3.833   8.208  0.2307  0.3216  2.5353
 2760SOL     OW19741   4.231   4.063   3.781 -0.2618  1.2000 -0.2108
 2760SOL    HW119742   4.212   4.072   3.688 -1.2884 -0.4300 -0.1568
 2760SOL    HW219743   4.309   4.007   3.786  0.1110  1.5346 -2.2198
 2761SOL     OW19744   1.538   4.128   3.433  0.2320 -0.4496 -0.0480
 2761SOL    HW119745   1.476   4.190   3.472  1.5662  1.2761 -0.6729
 2761SOL    HW219746   1.533   4.056   3.496  0.3006 -1.3632 -1.1018
 2762SOL     OW19747   2.034   3.267   5.759 -0.2247 -0.0188 -0.0268
 2762SOL    HW119748   1.983   3.301   5.685 -0.4537  0.6422  0.4315
 2762SOL    HW219749   1.989   3.188   5.789 -0.6648  0.8827  1.7307
 2763SOL     OW19750   1.525   2.060  16.562  0.3844  0.0556  0.8079
 2763SOL    HW119751   1.435   2.058  16.531  0.4939 -3.1112  0.6963
 2763SOL    HW219752   1.522   2.114  16.641  1.7911 -2.0133  2.2758
 2764SOL     OW19753   2.965   2.572   8.597  0.1676 -0.0124  0.1624
 2764SOL    HW119754   2.950   2.520   8.676 -0.3810  0.7026  0.5334
 2764SOL    HW219755   2.885   2.546   8.552  0.3893  0.8977 -0.7492
 2765SOL     OW19756   4.543   1.290  12.468  0.0716  0.1040 -0.3370
 2765SOL    HW119757   4.462   1.269  12.422  0.5032  0.1015 -1.1037
 2765SOL    HW219758   4.595   1.221  12.426  0.2427  0.1913 -0.2697
 2766SOL     OW19759   2.539   4.713   1.783  0.3253  0.0395  0.2775
 2766SOL    HW119760   2.617   4.668   1.751  1.9967  1.9349  1.6929
 2766SOL    HW219761   2.585   0.057   1.828  1.8310 -0.9250  0.2427
 2767SOL     OW19762   0.077   3.612   6.260 -0.2684 -0.3577  0.7613
 2767SOL    HW119763   0.101   3.683   6.320  1.6156 -0.5324  0.2222
 2767SOL    HW219764   0.022   3.564   6.322 -0.3489 -2.7797 -1.1863
 2768SOL     OW19765   2.127   3.593   7.581  0.5297 -0.1809 -0.9244
 2768SOL    HW119766   2.146   3.549   7.664 -0.1236 -0.9169 -1.1701
 2768SOL    HW219767   2.181   3.541   7.522 -2.1228 -0.8886 -2.7306
 2769SOL     OW19768   4.625   4.232   3.844  0.1952  0.5806  0.1440
 2769SOL    HW119769   4.617   4.205   3.753  0.2944  1.1477 -0.0350
 2769SOL    HW219770   4.699   4.181   3.878  1.0471  1.4766 -0.3564
 2770SOL     OW19771   1.905   2.950  10.176 -0.1595  0.0504 -0.3292
 2770SOL    HW119772   1.983   2.895  10.178 -1.2394 -1.5527 -2.1845
 2770SOL    HW219773   1.954   3.031  10.188  0.1170 -0.1382 -0.1820
 2771SOL     OW19774   1.590   3.325   3.658 -0.6618  0.2564  0.5684
 2771SOL    HW119775   1.504   3.324   3.701 -1.0804  1.4947 -0.2324
 2771SOL    HW219776   1.587   3.266   3.582 -0.8592 -0.4336  1.1095
 2772SOL     OW19777   1.596   1.192  17.532  0.5695  0.3646 -0.0059
 2772SOL    HW119778   1.568   1.173  17.443  1.1868 -0.3977 -0.0381
 2772SOL    HW219779   1.682   1.151  17.523  0.3855 -0.1165  0.4410
 2773SOL     OW19780   1.490   3.680   1.959 -0.4208  0.3161  0.1347
 2773SOL    HW119781   1.427   3.728   2.013 -0.1427 -0.7419  1.3819
 2773SOL    HW219782   1.482   3.590   1.988  1.8552  0.2717  0.6267
 2774SOL     OW19783   3.192   4.637  13.218  0.1858  0.0379  0.0075
 2774SOL    HW119784   3.231   4.696  13.283 -0.9519  2.1553 -1.2475
 2774SOL    HW219785   3.104   4.674  13.208  0.8993  1.5250 -0.8630
 2775SOL     OW19786   0.370   1.277  15.714  0.2065  0.2009  0.1321
 2775SOL    HW119787   0.410   1.358  15.746  0.0348 -0.0140  0.8884
 2775SOL    HW219788   0.450   1.243  15.673 -0.6985 -1.1883 -0.4832
 2776SOL     OW19789   2.588   2.174   3.624 -0.0759  0.3307 -0.3537
 2776SOL    HW119790   2.545   2.259   3.617 -0.4823  0.2608  1.2954
 2776SOL    HW219791   2.602   2.152   3.532  2.3215  0.3233  0.0117
 2777SOL     OW19792   0.217   0.899   9.626 -0.2832  0.1398  0.6257
 2777SOL    HW119793   0.247   0.874   9.713  1.4578  0.8607  0.2385
 2777SOL    HW219794   0.286   0.868   9.567 -1.6585 -2.7325  0.5400
 2778SOL     OW19795   0.517   3.947   1.511  0.4859 -0.3484 -0.0929
 2778SOL    HW119796   0.524   4.003   1.588  1.6744 -0.2674 -0.2580
 2778SOL    HW219797   0.611   3.941   1.493  0.3537  0.1972 -0.9884
 2779SOL     OW19798   0.654   1.131  11.692  0.3526 -0.6659 -0.0490
 2779SOL    HW119799   0.724   1.171  11.744  0.3990  0.7329 -1.1854
 2779SOL    HW219800   0.580   1.159  11.746  0.6936 -1.8202  1.0186
 2780SOL     OW19801   2.931   1.304   5.436 -0.2597 -0.4699  0.1808
 2780SOL    HW119802   2.987   1.359   5.491 -1.0913  0.7053 -0.1383
 2780SOL    HW219803   2.959   1.333   5.349  1.0777 -0.4065  0.6344
 2781SOL     OW19804   1.554   1.072  12.895  0.1659 -0.6088 -0.6263
 2781SOL    HW119805   1.585   1.045  12.981 -0.6880 -1.8413 -0.7091
 2781SOL    HW219806   1.636   1.074  12.847  1.8408  2.8684  2.3523
 2782SOL     OW19807   3.580   0.409  10.459  0.1125  0.2535  0.6720
 2782SOL    HW119808   3.582   0.472  10.388 -0.8704  0.4497  0.8198
 2782SOL    HW219809   3.645   0.343  10.435 -1.7524 -1.1514 -0.5425
 2783SOL     OW19810   1.832   2.533   8.406  0.4502 -0.0138  0.7701
 2783SOL    HW119811   1.915   2.581   8.405  0.2080  0.4617  3.2894
 2783SOL    HW219812   1.809   2.561   8.495  1.4197 -0.7828  1.2573
 2784SOL     OW19813   2.204   1.432   9.399 -0.3065  0.1928  0.1781
 2784SOL    HW119814   2.262   1.436   9.323  1.2658  0.2642  1.3928
 2784SOL    HW219815   2.244   1.490   9.464  0.2651 -0.2955  0.2557
 2785SOL     OW19816   4.703   1.459   7.047 -0.0506  0.3092  0.2026
 2785SOL    HW119817   4.702   1.427   6.956 -0.9940  0.2682  0.2254
 2785SOL    HW219818   4.614   1.433   7.073 -0.3652  1.4443  0.2801
 2786SOL     OW19819   1.788   0.970   3.654  0.5559  0.3507  0.3183
 2786SOL    HW119820   1.759   1.047   3.702 -1.6610  0.6719 -1.5477
 2786SOL    HW219821   1.832   1.016   3.582 -0.9963  1.1004 -0.1349
 2787SOL     OW19822   3.693   1.009  14.901  0.1094  0.6109 -0.8049
 2787SOL    HW119823   3.651   0.937  14.947  0.0395  0.2761 -1.3919
 2787SOL    HW219824   3.614   1.058  14.877 -0.4031  0.1900  0.0096
 2788SOL     OW19825   1.788   2.117   7.376  0.3856 -0.1653 -0.3963
 2788SOL    HW119826   1.741   2.040   7.409 -1.4529  0.7587 -0.8436
 2788SOL    HW219827   1.822   2.094   7.290  1.3124 -0.4283  0.0306
 2789SOL     OW19828   0.900   4.177   4.505  0.8232 -0.3666 -0.3826
 2789SOL    HW119829   0.954   4.168   4.584  1.3175  0.6964 -0.6055
 2789SOL    HW219830   0.933   4.250   4.454 -1.7396  0.1493 -1.3273
 2790SOL     OW19831   3.629   1.866   8.392  0.0237 -0.0274 -0.4307
 2790SOL    HW119832   3.617   1.772   8.376  0.2322 -0.1784  0.3100
 2790SOL    HW219833   3.601   1.893   8.304 -2.0793  0.2285  0.3145
 2791SOL     OW19834   1.268   2.159  11.831  0.4059  0.2539  0.7556
 2791SOL    HW119835   1.219   2.102  11.891 -1.0789 -0.7941 -1.4078
 2791SOL    HW219836   1.202   2.181  11.765  1.4689  0.0668 -0.3683
 2792SOL     OW19837   0.739   0.622   9.772  0.4442 -0.9073  0.1206
 2792SOL    HW119838   0.695   0.566   9.837 -0.0916 -0.7924 -0.1448
 2792SOL    HW219839   0.831   0.598   9.782  0.4733 -0.0678  1.7229
 2793SOL     OW19840   3.023   0.414   6.102  0.0199  0.2517  0.1024
 2793SOL    HW119841   3.100   0.433   6.048  0.2993 -1.5047 -0.1285
 2793SOL    HW219842   2.949   0.427   6.042 -1.7753  0.3279  2.3304
 2794SOL     OW19843   1.591   2.674   2.858  0.6856 -0.1430 -0.1166
 2794SOL    HW119844   1.555   2.608   2.917  0.1695  1.2903  1.1776
 2794SOL    HW219845   1.670   2.702   2.905  1.8900  0.9347 -2.7841
 2795SOL     OW19846   1.652   0.158   4.315  0.6874 -0.1786 -0.0314
 2795SOL    HW119847   1.670   0.229   4.376 -0.9853  2.1747 -2.2497
 2795SOL    HW219848   1.557   0.166   4.319  0.8025 -0.1571  2.2800
 2796SOL     OW19849   2.371   2.620   3.470 -0.6793 -0.4873  0.4763
 2796SOL    HW119850   2.341   2.532   3.495 -1.6763 -0.2821 -0.0003
 2796SOL    HW219851   2.418   2.610   3.388  1.4588 -0.7600  1.7169
 2797SOL     OW19852   3.881   4.021   1.313 -0.2374  0.4009 -0.3385
 2797SOL    HW119853   3.823   4.032   1.237  0.1922 -2.3155 -1.0575
 2797SOL    HW219854   3.855   4.098   1.364 -0.2524 -0.0047  0.2546
 2798SOL     OW19855   0.807   2.906  15.206  0.5296  0.6802 -0.2801
 2798SOL    HW119856   0.772   2.968  15.142  0.0806 -2.0669 -2.7233
 2798SOL    HW219857   0.722   2.881  15.241  2.1031 -1.5330  1.9698
 2799SOL     OW19858   2.768   2.536   8.145  0.2193 -0.3924  0.2732
 2799SOL    HW119859   2.853   2.568   8.176 -0.7408  0.3297  2.1747
 2799SOL    HW219860   2.724   2.619   8.129  0.1535  0.4896  4.8748
 2800SOL     OW19861   3.742   4.072   9.410 -0.2625  0.0831  0.1130
 2800SOL    HW119862   3.683   4.001   9.437  1.1743 -1.3554 -0.5700
 2800SOL    HW219863   3.814   4.051   9.469 -0.5002 -0.3587  0.2479
 2801SOL     OW19864   4.538   1.536   5.418  0.3461  0.3306 -0.2277
 2801SOL    HW119865   4.524   1.579   5.334 -2.6558  0.1567  0.1929
 2801SOL    HW219866   4.465   1.573   5.468  0.1641  0.9141 -0.9374
 2802SOL     OW19867   1.053   1.527   3.195  0.4734  0.1534  0.1395
 2802SOL    HW119868   1.108   1.605   3.201 -0.0911  0.5256  0.5183
 2802SOL    HW219869   1.126   1.466   3.198  0.4931  0.2777  2.1153
 2803SOL     OW19870   4.263   3.163   4.143 -0.4336 -0.2927  0.1729
 2803SOL    HW119871   4.185   3.117   4.109 -2.4609  3.2249  0.0910
 2803SOL    HW219872   4.230   3.251   4.125 -1.6811 -0.2217  2.8049
 2804SOL     OW19873   1.627   3.003  14.033  0.1934  0.2259 -0.3378
 2804SOL    HW119874   1.683   3.044  14.099  0.5171 -1.0766  0.1983
 2804SOL    HW219875   1.690   2.982  13.965 -0.3273  0.2005 -0.8123
 2805SOL     OW19876   3.855   3.763  13.431 -0.6038 -0.9503 -0.0674
 2805SOL    HW119877   3.937   3.812  13.421 -1.1078 -0.0064  0.4122
 2805SOL    HW219878   3.860   3.723  13.517 -1.0668 -0.0361  0.3765
 2806SOL     OW19879   0.023   3.068  13.336  0.3539 -0.1339 -0.3899
 2806SOL    HW119880   0.006   3.041  13.426 -0.6856  0.8885 -0.2706
 2806SOL    HW219881   0.091   3.004  13.318  0.2819  0.1672 -1.7372
 2807SOL     OW19882   0.095   0.747   3.695 -0.3845  0.0127 -0.7015
 2807SOL    HW119883   0.119   0.840   3.700 -2.0514  0.2318  3.4872
 2807SOL    HW219884   0.028   0.753   3.627 -0.5046 -2.5884 -0.8053
 2808SOL     OW19885   1.981   2.973   5.502  0.5350 -0.2888  0.2576
 2808SOL    HW119886   2.053   2.919   5.535  1.1772  1.1504  1.2340
 2808SOL    HW219887   1.924   2.908   5.461 -0.4500  0.3080  0.6572
 2809SOL     OW19888   2.114   0.144   6.502  0.0959  0.4817  0.6159
 2809SOL    HW119889   2.032   0.186   6.525 -0.3423 -0.0348 -0.0021
 2809SOL    HW219890   2.157   0.142   6.587 -2.3159  2.2749  1.8835
 2810SOL     OW19891   1.097   1.981   2.930  0.2099 -0.1678  0.8620
 2810SOL    HW119892   1.003   1.973   2.945  0.0079 -1.9836 -1.3629
 2810SOL    HW219893   1.099   2.058   2.873  2.0908  0.7614  2.1832
 2811SOL     OW19894   3.315   2.324   3.709 -0.5650 -0.3119  0.1109
 2811SOL    HW119895   3.265   2.257   3.757 -1.2291 -1.0163 -1.5489
 2811SOL    HW219896   3.269   2.402   3.741 -0.8360  0.1949 -1.5016
 2812SOL     OW19897   0.189   1.543  11.489 -0.2875  0.2829  0.5615
 2812SOL    HW119898   0.101   1.557  11.522 -0.6790 -2.4575  0.6449
 2812SOL    HW219899   0.221   1.631  11.510 -0.3942  1.0201 -2.3494
 2813SOL     OW19900   1.671   2.403   8.697 -0.1049  0.5626 -0.0261
 2813SOL    HW119901   1.678   2.476   8.759 -1.0887  1.0882 -0.5417
 2813SOL    HW219902   1.578   2.405   8.678  0.2029  1.1053 -1.4344
 2814SOL     OW19903   4.028   4.593  13.165 -0.0272  0.3643 -0.0900
 2814SOL    HW119904   4.097   4.532  13.193  2.0851  1.9828 -1.8002
 2814SOL    HW219905   4.063   4.675  13.201 -1.2675  1.5588 -1.6172
 2815SOL     OW19906   4.726   2.202   6.592 -0.1654 -0.1077 -0.7035
 2815SOL    HW119907   4.697   2.288   6.562 -1.8043 -0.7470 -0.9746
 2815SOL    HW219908   4.647   2.178   6.641  0.1191  0.9758  0.2881
 2816SOL     OW19909   2.824   2.047   6.242  0.0668 -0.0756  0.0555
 2816SOL    HW119910   2.732   2.059   6.219  0.1883 -1.7101 -1.3238
 2816SOL    HW219911   2.851   2.139   6.244 -0.7465  0.1202  1.4148
 2817SOL     OW19912   3.797   1.001   7.780  0.1244 -0.0197 -0.3413
 2817SOL    HW119913   3.819   0.908   7.774  1.0615  0.1701  0.1878
 2817SOL    HW219914   3.874   1.035   7.826  0.2447 -2.9853  1.6505
 2818SOL     OW19915   0.786   3.851   5.167  0.0173 -0.5911 -0.1996
 2818SOL    HW119916   0.779   3.927   5.109 -2.4382 -0.4059  0.3462
 2818SOL    HW219917   0.719   3.799   5.123  2.6135 -1.4090 -3.2020
 2819SOL     OW19918   2.035   2.702   3.867  0.1163 -0.3665 -0.5459
 2819SOL    HW119919   2.006   2.654   3.789 -2.1628  1.5074 -0.8479
 2819SOL    HW219920   2.023   2.637   3.937 -0.6207 -1.6813 -1.8968
 2820SOL     OW19921   3.545   1.532  15.437 -0.1650  0.6933 -0.1962
 2820SOL    HW119922   3.571   1.623  15.422  0.0979  0.7152  0.3746
 2820SOL    HW219923   3.554   1.541  15.532 -1.8951  0.0993  0.0067
 2821SOL     OW19924   0.990   4.520   3.138  0.3319  0.3298 -0.3102
 2821SOL    HW119925   1.025   4.431   3.135  0.6713  0.4772 -0.8623
 2821SOL    HW219926   0.926   4.515   3.066 -2.9421  0.7462  2.5460
 2822SOL     OW19927   1.311   0.388   2.546  0.1171 -0.0900 -0.2199
 2822SOL    HW119928   1.218   0.370   2.552  0.1191  0.1773  0.6372
 2822SOL    HW219929   1.331   0.352   2.633 -0.9819 -1.8748 -0.7113
 2823SOL     OW19930   2.555   1.458   6.164 -0.6904 -0.1976  0.0459
 2823SOL    HW119931   2.555   1.456   6.068 -2.7731  0.8946  0.0139
 2823SOL    HW219932   2.634   1.417   6.198 -0.6834  0.8380  1.2777
 2824SOL     OW19933   2.133   0.756   9.951 -0.9038 -0.6803 -0.3320
 2824SOL    HW119934   2.065   0.748   9.885 -0.8439 -0.9829 -0.3598
 2824SOL    HW219935   2.128   0.849   9.970 -0.7158 -0.6070 -0.6398
 2825SOL     OW19936   0.944   0.284   6.689 -0.1422  0.4589  0.0625
 2825SOL    HW119937   0.993   0.343   6.748 -2.1505  0.0376  2.1398
 2825SOL    HW219938   0.997   0.206   6.675  1.3731  1.3404  0.8399
 2826SOL     OW19939   4.693   1.137   2.467  0.0518 -0.2596  0.2137
 2826SOL    HW119940   4.657   1.216   2.506 -1.4697 -1.6353  1.6085
 2826SOL    HW219941   4.619   1.079   2.483 -0.3795  0.4324  0.7288
 2827SOL     OW19942   1.611   3.754   9.178 -0.0146 -0.2456 -0.2735
 2827SOL    HW119943   1.542   3.712   9.129 -0.5943  0.9979 -0.5240
 2827SOL    HW219944   1.677   3.684   9.174 -0.5763 -0.8123  0.5297
 2828SOL     OW19945   3.900   0.293   3.482 -0.6465  0.1183  0.3392
 2828SOL    HW119946   3.957   0.305   3.558 -1.0764 -1.0757  0.8378
 2828SOL    HW219947   3.886   0.199   3.495  1.4975 -0.7051 -3.3331
 2829SOL     OW19948   2.107   4.702   4.765 -0.1270 -0.0390  0.0954
 2829SOL    HW119949   2.062   0.042   4.816  1.3113 -0.1509  1.5215
 2829SOL    HW219950   2.040   4.639   4.739 -1.3211  1.1073  0.4091
 2830SOL     OW19951   0.146   1.521   0.152  0.1754  0.4541 -0.1953
 2830SOL    HW119952   0.224   1.538   0.205 -0.3028  0.3975  0.5190
 2830SOL    HW219953   0.095   1.600   0.167 -4.1471 -2.4776  0.4847
 2831SOL     OW19954   4.457   1.427  15.840  0.0049 -0.1770  0.4831
 2831SOL    HW119955   4.472   1.351  15.897 -2.4836 -0.7893  0.3140
 2831SOL    HW219956   4.535   1.421  15.784 -1.2544 -0.3350 -1.2306
 2832SOL     OW19957   1.563   0.669   5.763  0.3118  0.5070 -0.1993
 2832SOL    HW119958   1.590   0.609   5.694  1.3880  0.1863  0.5106
 2832SOL    HW219959   1.572   0.755   5.722  1.4901  0.0783 -0.8172
 2833SOL     OW19960   3.503   3.603   8.731 -0.3881 -0.3434  0.0952
 2833SOL    HW119961   3.425   3.612   8.785 -1.4955 -0.1141 -1.5595
 2833SOL    HW219962   3.464   3.564   8.653 -0.7180 -0.1213  0.1525
 2834SOL     OW19963   2.695   1.408   5.838  0.6282 -0.2646 -0.9651
 2834SOL    HW119964   2.625   1.356   5.878  2.4245 -0.3251  2.1604
 2834SOL    HW219965   2.705   1.376   5.749  2.4558  1.5113 -1.3973
 2835SOL     OW19966   1.312   3.260   3.233  0.3543  0.2513  0.6525
 2835SOL    HW119967   1.336   3.236   3.144  0.8033  0.9963  0.5759
 2835SOL    HW219968   1.328   3.176   3.276  4.7624 -0.3568 -2.2118
 2836SOL     OW19969   0.308   0.983   3.026 -0.8282  0.5652 -0.1198
 2836SOL    HW119970   0.224   1.029   3.023 -1.1485 -0.1081 -1.7515
 2836SOL    HW219971   0.273   0.895   3.011 -0.4648 -0.3148  4.1240
 2837SOL     OW19972   1.253   3.914  12.483  0.3827  0.2166 -0.7575
 2837SOL    HW119973   1.204   3.924  12.564 -0.4688 -0.9222 -1.1311
 2837SOL    HW219974   1.336   3.875  12.509  0.9731  0.0802 -2.8420
 2838SOL     OW19975   1.939   3.002   1.025  0.1774  0.2920 -0.1655
 2838SOL    HW119976   1.950   3.082   1.077  0.3560  0.0976  0.0975
 2838SOL    HW219977   2.027   2.966   1.022  1.2144  2.6040  3.0620
 2839SOL     OW19978   2.445   0.664   0.869 -0.2149 -1.0922 -0.4627
 2839SOL    HW119979   2.446   0.572   0.846 -0.6261 -1.6221  1.6074
 2839SOL    HW219980   2.540   0.667   0.870 -0.2751  0.3270  1.0868
 2840SOL     OW19981   2.403   2.565  13.046 -0.2642 -0.3000 -0.1279
 2840SOL    HW119982   2.444   2.498  12.991 -2.2261 -0.8624 -0.9241
 2840SOL    HW219983   2.473   2.570  13.110 -1.2692  2.3346  0.7406
 2841SOL     OW19984   3.812   2.140  17.363  0.2783 -0.3828 -0.3308
 2841SOL    HW119985   3.800   2.054  17.403  0.1558 -1.4809 -2.7860
 2841SOL    HW219986   3.820   2.194  17.442  2.2684  0.6735 -1.2396
 2842SOL     OW19987   0.136   2.633  17.649 -0.3837 -0.6340  0.0897
 2842SOL    HW119988   0.178   2.581  17.580 -0.1495  0.0279 -0.2622
 2842SOL    HW219989   0.099   2.560  17.699  0.6956  0.0011  1.7918
 2843SOL     OW19990   0.370   4.378   8.636 -0.0948 -0.3240 -0.0259
 2843SOL    HW119991   0.447   4.392   8.692  1.3958 -2.3527 -1.5619
 2843SOL    HW219992   0.357   4.285   8.656 -3.2104  0.2579  0.6340
 2844SOL     OW19993   2.435   3.787  11.681  0.2466  0.0548  0.2795
 2844SOL    HW119994   2.405   3.838  11.757  1.0315 -1.3819  1.5636
 2844SOL    HW219995   2.422   3.700  11.721  1.2241 -0.1348  0.1702
 2845SOL     OW19996   2.961   3.410   8.069 -0.6573  0.4167  0.1630
 2845SOL    HW119997   2.908   3.334   8.092  0.0104  0.1556  0.8311
 2845SOL    HW219998   3.002   3.425   8.154  0.7730 -1.8982 -0.1013
 2846SOL     OW19999   2.149   4.388   3.404 -0.2604 -0.2446 -0.1452
 2846SOL    HW120000   2.150   4.296   3.431  0.6508  0.1519  1.1625
 2846SOL    HW220001   2.226   4.399   3.349 -0.5880  0.8480 -0.3995
 2847SOL     OW20002   2.873   2.135  16.531 -0.3009 -0.2056 -0.5605
 2847SOL    HW120003   2.821   2.062  16.497 -2.3359  0.7702  0.4212
 2847SOL    HW220004   2.823   2.205  16.488 -2.9460 -1.7326  0.0399
 2848SOL     OW20005   4.696   2.329   0.327  0.3884  0.8067  0.0872
 2848SOL    HW120006   0.036   2.357   0.390 -0.5257  0.6290  1.1369
 2848SOL    HW220007   4.687   2.236   0.347 -2.8193  1.1283  0.1164
 2849SOL     OW20008   1.479   2.878   4.762  0.1744  0.0643  0.8343
 2849SOL    HW120009   1.474   2.902   4.854 -2.1750 -2.1463  1.3019
 2849SOL    HW220010   1.415   2.936   4.721 -0.7217  0.7976  3.3053
 2850SOL     OW20011   1.737   2.233  16.448 -0.2395 -0.8334  0.5872
 2850SOL    HW120012   1.738   2.183  16.367 -1.7074 -0.5349  0.3899
 2850SOL    HW220013   1.663   2.189  16.489 -1.3846 -0.7498 -1.3953
 2851SOL     OW20014   4.036   0.148   7.667  0.2792 -0.5894  0.3547
 2851SOL    HW120015   4.093   0.097   7.609  1.2826  0.7003  0.2010
 2851SOL    HW220016   4.043   0.097   7.747  1.0874 -0.1488  0.5692
 2852SOL     OW20017   2.488   4.319  13.334  0.3860 -0.3126 -0.1589
 2852SOL    HW120018   2.514   4.283  13.249 -1.5947  0.4311 -1.0638
 2852SOL    HW220019   2.542   4.272  13.398 -2.5020  0.0914  2.5954
 2853SOL     OW20020   4.153   3.751   2.415  0.1358 -0.3018  0.6285
 2853SOL    HW120021   4.110   3.834   2.399  1.4203  0.6842  2.2120
 2853SOL    HW220022   4.205   3.729   2.338  2.0314  0.6002  1.6542
 2854SOL     OW20023   2.926   2.042  13.312 -0.4895 -0.2483 -0.1235
 2854SOL    HW120024   2.923   1.966  13.255  1.1395 -0.0604 -0.4673
 2854SOL    HW220025   2.987   2.008  13.378 -0.5296 -1.3169 -0.6430
 2855SOL     OW20026   2.998   2.771   2.474 -0.2092 -0.1166 -0.0671
 2855SOL    HW120027   2.956   2.774   2.388 -0.0199  0.8471 -0.1232
 2855SOL    HW220028   3.083   2.737   2.445 -0.0822  2.1016 -2.2598
 2856SOL     OW20029   2.077   4.494  15.226 -0.0270  0.1037  0.3022
 2856SOL    HW120030   2.047   4.429  15.290  0.3718  0.8413  1.2395
 2856SOL    HW220031   2.039   4.572  15.266  1.5369  1.3285 -0.6150
 2857SOL     OW20032   1.035   0.946   3.253 -0.0156  0.3997 -0.2548
 2857SOL    HW120033   1.088   1.004   3.199 -1.1407  1.4131 -0.2691
 2857SOL    HW220034   1.084   0.864   3.257 -1.4287 -0.5138 -1.7646
 2858SOL     OW20035   2.908   1.544   0.605  0.8067 -0.1264 -0.3783
 2858SOL    HW120036   2.945   1.456   0.599 -0.9662 -0.7527 -2.1757
 2858SOL    HW220037   2.845   1.538   0.532  1.8132 -2.3637 -1.0594
 2859SOL     OW20038   2.559   4.530  11.084  0.2125 -0.1452 -0.1658
 2859SOL    HW120039   2.633   4.492  11.036 -0.8856  1.2100 -2.9183
 2859SOL    HW220040   2.607   4.604  11.122  2.1383 -2.3400  1.6863
 2860SOL     OW20041   1.130   1.920   4.173  0.3055  0.0146 -0.0646
 2860SOL    HW120042   1.068   1.973   4.224  0.8101 -0.4365  1.0134
 2860SOL    HW220043   1.211   1.921   4.224  0.6536  0.5378 -0.6229
 2861SOL     OW20044   2.328   4.717   5.118 -0.7990  0.0105 -0.1326
 2861SOL    HW120045   2.412   4.712   5.072 -1.1176  3.1795 -1.0195
 2861SOL    HW220046   2.319   4.635   5.167  0.5588 -1.4111 -2.2558
 2862SOL     OW20047   1.513   0.727   5.403 -0.2314 -0.0246 -0.0148
 2862SOL    HW120048   1.482   0.640   5.426  0.5175 -0.9191 -2.4131
 2862SOL    HW220049   1.608   0.714   5.402 -0.4431 -1.3157 -2.2905
 2863SOL     OW20050   1.922   1.828   5.820  0.2123  0.3020 -0.3238
 2863SOL    HW120051   2.005   1.871   5.797 -1.1333  0.8562 -4.0109
 2863SOL    HW220052   1.946   1.775   5.897 -1.5526 -2.1179 -1.4498
 2864SOL     OW20053   1.049   0.393   3.029  0.2954  0.0074 -0.3857
 2864SOL    HW120054   1.034   0.471   3.083 -0.5530  1.7610 -3.1568
 2864SOL    HW220055   1.022   0.423   2.942 -0.4211  0.9786  0.1773
 2865SOL     OW20056   2.409   1.619   7.043  0.4596 -0.3162  0.1760
 2865SOL    HW120057   2.332   1.651   7.090  0.5101  0.2179 -0.1129
 2865SOL    HW220058   2.468   1.693   7.057  2.4742 -1.6156 -1.5583
 2866SOL     OW20059   3.022   2.384   5.238 -0.2681  0.1040  0.7052
 2866SOL    HW120060   3.116   2.388   5.221 -0.2916 -0.6183  0.3737
 2866SOL    HW220061   2.990   2.426   5.159  0.5989 -1.9863 -0.7728
 2867SOL     OW20062   1.086   3.021  16.806  0.4865  0.2381  0.5002
 2867SOL    HW120063   1.083   3.050  16.715 -1.4160 -3.1888 -0.5096
 2867SOL    HW220064   1.099   3.106  16.848  1.0524  0.7330 -0.6692
 2868SOL     OW20065   4.161   3.465  14.518  0.4619  0.2996 -0.8170
 2868SOL    HW120066   4.066   3.471  14.507  0.4965  0.0632 -1.2302
 2868SOL    HW220067   4.180   3.390  14.462  1.9607 -1.1488  1.6707
 2869SOL     OW20068   4.286   0.401   7.912 -0.2371  0.0859  0.1960
 2869SOL    HW120069   4.223   0.448   7.967 -0.3444  0.2349 -0.0566
 2869SOL    HW220070   4.242   0.320   7.938  1.8162 -0.5805  1.5876
 2870SOL     OW20071   1.078   2.552   3.239  0.1285  0.4172  0.3209
 2870SOL    HW120072   1.124   2.607   3.176 -0.4793 -1.1043 -1.4248
 2870SOL    HW220073   1.079   2.464   3.203  1.8681  1.1682 -1.4453
 2871SOL     OW20074   4.418   4.348   9.000 -0.2574 -0.1557  0.1511
 2871SOL    HW120075   4.411   4.264   8.955  0.0067  0.5176 -1.1561
 2871SOL    HW220076   4.369   4.324   9.078 -1.2824 -3.5510 -1.5603
 2872SOL     OW20077   3.759   0.178  13.261  0.3216  0.4492 -0.4531
 2872SOL    HW120078   3.789   0.136  13.181  1.1209  1.9036 -0.9177
 2872SOL    HW220079   3.840   0.181  13.312  0.1073  0.4113 -0.1074
 2873SOL     OW20080   4.514   3.633   3.451 -0.0370 -0.0190 -0.3139
 2873SOL    HW120081   4.602   3.598   3.470 -0.6536 -1.6759 -0.5038
 2873SOL    HW220082   4.527   3.638   3.357 -0.7931 -0.1624 -0.4219
 2874SOL     OW20083   0.633   4.435  11.262 -0.8165  0.3050  0.0327
 2874SOL    HW120084   0.656   4.524  11.234 -0.7735 -0.4490 -2.3674
 2874SOL    HW220085   0.603   4.399  11.178 -0.4576 -2.4394  1.0770
 2875SOL     OW20086   2.539   0.377   3.626  0.5891  0.5691 -0.5614
 2875SOL    HW120087   2.450   0.405   3.608  0.4855 -0.2671 -1.3945
 2875SOL    HW220088   2.538   0.281   3.632 -0.2775  0.6547  0.4756
 2876SOL     OW20089   0.630   2.577   9.082 -0.4170 -0.4864 -0.6960
 2876SOL    HW120090   0.587   2.532   9.010  0.4855 -3.2232  0.4753
 2876SOL    HW220091   0.655   2.664   9.051 -0.1200 -0.4299 -0.3072
 2877SOL     OW20092   1.192   4.084  15.261  0.1357 -0.0865  0.6194
 2877SOL    HW120093   1.282   4.065  15.236 -0.1463 -0.2819 -0.2558
 2877SOL    HW220094   1.167   4.144  15.191 -1.2468 -1.1274  0.2169
 2878SOL     OW20095   0.693   3.687  12.317 -0.7134  0.7040 -0.3396
 2878SOL    HW120096   0.660   3.766  12.360 -2.3667 -1.0271  1.5978
 2878SOL    HW220097   0.660   3.626  12.384  1.4724  0.4205  0.4784
 2879SOL     OW20098   4.115   3.905  15.247  0.3061  0.4178 -0.0269
 2879SOL    HW120099   4.042   3.865  15.200  0.4497  0.5320 -0.3511
 2879SOL    HW220100   4.100   3.864  15.332  1.3793  0.8553  0.3780
 2880SOL     OW20101   1.688   0.739   3.740  0.1292  0.1783 -0.4570
 2880SOL    HW120102   1.750   0.802   3.703  0.9977  0.0013  0.7181
 2880SOL    HW220103   1.654   0.710   3.655 -1.3788 -3.3268  1.3565
 2881SOL     OW20104   2.950   0.596   5.282 -0.0829 -0.1441 -0.2404
 2881SOL    HW120105   3.029   0.573   5.232 -0.4274  0.8184 -1.2284
 2881SOL    HW220106   2.922   0.679   5.243 -1.9538 -2.0447 -2.9217
 2882SOL     OW20107   4.469   4.256   4.087  0.5821 -0.2637 -0.1235
 2882SOL    HW120108   4.521   4.242   4.008  1.9535 -0.4622  0.8176
 2882SOL    HW220109   4.537   4.250   4.154  0.1172 -2.5307  0.1377
 2883SOL     OW20110   0.793   0.305   8.395  0.3915 -0.2555 -0.1257
 2883SOL    HW120111   0.761   0.265   8.314  0.1570 -0.5157  0.0949
 2883SOL    HW220112   0.721   0.362   8.419 -0.0096 -2.2748  3.4005
 2884SOL     OW20113   2.914   2.273   4.834 -0.4428  0.1907 -0.1144
 2884SOL    HW120114   2.924   2.297   4.742 -2.5256 -0.4773 -0.5168
 2884SOL    HW220115   2.847   2.340   4.850  0.6706  0.4241  3.7555
 2885SOL     OW20116   3.403   4.376   0.793 -0.0005 -0.5955 -0.5715
 2885SOL    HW120117   3.355   4.340   0.719 -0.7413 -0.5393 -0.1162
 2885SOL    HW220118   3.448   4.297   0.823  2.1418  0.3510 -1.2687
 2886SOL     OW20119   4.099   0.033   6.369  0.1071  0.2914 -0.3798
 2886SOL    HW120120   4.136   4.671   6.371  0.3391  0.3838 -0.5586
 2886SOL    HW220121   4.037   0.022   6.297  1.5147 -0.2780 -1.5060
 2887SOL     OW20122   0.417   2.150   3.561  0.1384 -0.4369  0.0662
 2887SOL    HW120123   0.388   2.230   3.604  1.6844 -0.2517  0.7732
 2887SOL    HW220124   0.395   2.168   3.469 -0.2101 -3.4062 -0.4357
 2888SOL     OW20125   2.062   1.498   7.843  0.1119  0.0967  0.4878
 2888SOL    HW120126   2.125   1.428   7.859  0.0529 -0.3045 -1.0606
 2888SOL    HW220127   2.109   1.550   7.778 -1.7303  1.8203  0.5334
 2889SOL     OW20128   3.762   0.721   1.537 -0.1748  0.2098  0.1015
 2889SOL    HW120129   3.807   0.799   1.570 -1.5237  0.7327  0.7471
 2889SOL    HW220130   3.669   0.745   1.547 -0.2445 -0.5869  1.3795
 2890SOL     OW20131   2.610   0.706   7.715 -0.5004 -0.8640 -0.6708
 2890SOL    HW120132   2.680   0.762   7.748  0.5828 -1.9556 -1.1128
 2890SOL    HW220133   2.622   0.708   7.620  3.6186 -0.6009 -0.1342
 2891SOL     OW20134   4.609   2.576  10.811 -0.6611  0.5096  0.4242
 2891SOL    HW120135   4.651   2.514  10.751 -1.0552  1.3114 -0.6852
 2891SOL    HW220136   4.516   2.562  10.791 -0.0699 -0.6128 -1.5512
 2892SOL     OW20137   2.076   2.847  16.871 -0.2149 -0.5158 -0.5854
 2892SOL    HW120138   2.029   2.782  16.924 -0.6873 -1.5467 -2.2770
 2892SOL    HW220139   2.071   2.923  16.928  2.6997 -0.8921  0.1835
 2893SOL     OW20140   4.585   3.687  12.124 -0.2442  0.1126  0.4627
 2893SOL    HW120141   4.580   3.598  12.159  1.0315 -0.2481 -0.2592
 2893SOL    HW220142   4.617   3.732  12.203 -2.7157  0.8550  1.0265
 2894SOL     OW20143   1.397   2.365   0.003 -0.2412 -0.1509 -0.1233
 2894SOL    HW120144   1.489   2.351   0.025 -0.0197  0.3843 -0.7033
 2894SOL    HW220145   1.387   2.291  17.650 -1.1372 -1.5375  1.7490
 2895SOL     OW20146   1.972   3.384   6.516 -0.5797  0.2112 -0.4615
 2895SOL    HW120147   1.950   3.296   6.485 -0.1278 -0.6834  1.7332
 2895SOL    HW220148   1.922   3.386   6.598  0.1284  3.7859 -0.1361
 2896SOL     OW20149   0.833   0.032  14.836 -0.2870 -0.3375 -0.4685
 2896SOL    HW120150   0.747   0.070  14.819  0.1243  0.2803 -1.1470
 2896SOL    HW220151   0.841   0.074  14.922  1.7047 -0.5612 -0.5572
 2897SOL     OW20152   4.639   0.683   3.904  0.1308  0.5528  0.0120
 2897SOL    HW120153   4.697   0.688   3.828 -0.3304  2.0705 -0.2245
 2897SOL    HW220154   4.554   0.688   3.860 -0.0733  1.1541  0.4761
 2898SOL     OW20155   4.160   3.477   4.534  0.2887  0.1198  0.5158
 2898SOL    HW120156   4.083   3.493   4.590 -1.8294 -4.2107 -1.1913
 2898SOL    HW220157   4.130   3.405   4.479  2.5610  0.4136 -1.0753
 2899SOL     OW20158   1.921   2.743   6.156  0.3939  0.7057  0.5021
 2899SOL    HW120159   1.921   2.710   6.246 -2.0279 -1.4490 -0.2759
 2899SOL    HW220160   1.867   2.672   6.122  2.8658 -0.8113 -0.2388
 2900SOL     OW20161   2.384   3.179   1.295 -0.0221  0.3857 -0.0571
 2900SOL    HW120162   2.305   3.180   1.240  0.2610 -1.7321 -0.4886
 2900SOL    HW220163   2.434   3.119   1.240  1.1950  2.2278 -0.9886
 2901SOL     OW20164   1.829   2.892  15.608  0.3779  0.5478  0.3220
 2901SOL    HW120165   1.818   2.987  15.598  1.0493  0.4331 -1.5035
 2901SOL    HW220166   1.923   2.896  15.591  0.6115 -1.1285  1.2568
 2902SOL     OW20167   0.897   4.420  13.573  0.3211  0.0266  0.3957
 2902SOL    HW120168   0.961   4.348  13.574 -0.2169 -0.4466  0.7943
 2902SOL    HW220169   0.882   4.438  13.665 -2.5998  2.0501 -0.4845
 2903SOL     OW20170   4.346   2.007   7.027  0.2293  0.1160 -0.5846
 2903SOL    HW120171   4.306   1.957   6.955 -0.6622  1.0298 -0.7202
 2903SOL    HW220172   4.313   1.966   7.107 -0.5536 -1.6529 -1.7951
 2904SOL     OW20173   2.701   2.826  12.831 -0.1749 -0.0627 -0.4054
 2904SOL    HW120174   2.778   2.774  12.808  0.0616  0.1548 -0.1126
 2904SOL    HW220175   2.696   2.830  12.927  0.5334  1.9155 -0.4580
 2905SOL     OW20176   2.030   2.421   6.511 -0.0592  0.6968  0.4504
 2905SOL    HW120177   2.116   2.455   6.486 -0.1095 -0.0754 -0.7706
 2905SOL    HW220178   2.054   2.398   6.601  1.2366 -2.2317 -0.6781
 2906SOL     OW20179   2.550   0.360   2.023  0.0086  0.3547 -0.9427
 2906SOL    HW120180   2.459   0.388   2.018 -0.2782 -0.0576  1.9796
 2906SOL    HW220181   2.574   0.393   2.110  0.5176 -0.3676 -0.8087
 2907SOL     OW20182   4.353   4.523   6.361  0.0493  0.0948 -0.1788
 2907SOL    HW120183   4.371   4.430   6.348 -0.0427  0.1159 -0.4520
 2907SOL    HW220184   4.345   4.525   6.456  0.5940  3.3303 -0.2016
 2908SOL     OW20185   3.501   4.560   2.619 -0.4387  0.1233 -0.1421
 2908SOL    HW120186   3.573   4.620   2.599 -0.5844 -0.0837 -1.2903
 2908SOL    HW220187   3.447   4.575   2.542 -0.9467  0.1425  0.2144
 2909SOL     OW20188   0.473   0.879   2.590  1.0420  0.3314  0.3469
 2909SOL    HW120189   0.395   0.914   2.547  1.3180 -0.5731 -0.8745
 2909SOL    HW220190   0.532   0.893   2.516  1.6778  0.1013  0.8163
 2910SOL     OW20191   3.868   4.229  16.224 -0.1003  0.6160  0.0307
 2910SOL    HW120192   3.938   4.238  16.288  0.7918  0.4247 -0.9204
 2910SOL    HW220193   3.909   4.276  16.151  0.6124  0.6951  0.4815
 2911SOL     OW20194   1.094   4.642  16.558  0.3657  0.8836  0.1937
 2911SOL    HW120195   1.070   4.625  16.467  0.2990  0.2318  0.3306
 2911SOL    HW220196   1.018   4.605  16.603  0.1840  0.0806 -0.7719
 2912SOL     OW20197   1.276   2.503   2.543  0.0693 -0.2582 -0.1047
 2912SOL    HW120198   1.354   2.549   2.573  0.8439 -0.0608 -2.4363
 2912SOL    HW220199   1.295   2.480   2.452 -0.6693 -3.2313  0.4815
 2913SOL     OW20200   3.662   2.722   8.684  0.0854  0.0741 -0.4225
 2913SOL    HW120201   3.590   2.715   8.746  0.9258  0.4583  0.5989
 2913SOL    HW220202   3.737   2.696   8.737  1.1835  1.3967 -1.3162
 2914SOL     OW20203   0.375   2.357   1.466  0.0355  0.0702 -0.7062
 2914SOL    HW120204   0.462   2.395   1.478  0.0772  0.0417 -0.9203
 2914SOL    HW220205   0.335   2.361   1.552  1.5933 -0.7242  0.0509
 2915SOL     OW20206   1.821   3.321  10.059 -0.0711  0.2286 -0.4944
 2915SOL    HW120207   1.770   3.364  10.127  0.8100  2.0005 -0.9534
 2915SOL    HW220208   1.865   3.252  10.109  1.1724  0.0528 -1.8170
 2916SOL     OW20209   3.381   4.673   3.167 -0.2903  0.4346  0.4411
 2916SOL    HW120210   3.462   4.689   3.117 -0.4192  0.1230  0.1311
 2916SOL    HW220211   3.311   0.002   3.133  0.2012  0.0298 -1.2315
 2917SOL     OW20212   1.348   0.954   9.243 -0.3579  0.1467  0.3762
 2917SOL    HW120213   1.273   0.916   9.290 -1.0242  1.3083  0.2555
 2917SOL    HW220214   1.418   0.898   9.276  0.3388  1.9352  1.8920
 2918SOL     OW20215   2.417   2.425   1.669 -0.9566 -0.7477 -1.5977
 2918SOL    HW120216   2.450   2.473   1.593  0.6684 -0.1749 -0.5343
 2918SOL    HW220217   2.472   2.469   1.734 -0.6864 -3.3003 -0.0943
 2919SOL     OW20218   0.270   3.679  14.232  0.0452 -0.3221  0.8585
 2919SOL    HW120219   0.213   3.754  14.248  0.0519 -0.1902  0.2609
 2919SOL    HW220220   0.224   3.647  14.154  0.6545 -0.4295  0.5354
 2920SOL     OW20221   1.314   3.023   1.556 -0.5276  1.1001  0.0868
 2920SOL    HW120222   1.327   2.972   1.477 -1.8675  0.7738  0.0835
 2920SOL    HW220223   1.219   3.033   1.549 -0.4337  1.8433 -0.2007
 2921SOL     OW20224   2.397   0.737   9.863  0.0595 -0.1717  0.4434
 2921SOL    HW120225   2.306   0.743   9.892  0.5805  1.5699  1.6692
 2921SOL    HW220226   2.441   0.695   9.937 -0.6450  0.6715  1.3320
 2922SOL     OW20227   3.494   2.855   6.807 -0.3255 -0.4867  0.3126
 2922SOL    HW120228   3.554   2.929   6.797 -0.8928 -0.3777 -2.5828
 2922SOL    HW220229   3.510   2.831   6.898  0.1011  1.2684  0.7015
 2923SOL     OW20230   2.883   2.233   9.090 -0.1983  0.2271  0.0238
 2923SOL    HW120231   2.810   2.249   9.030  1.8748  1.3249 -2.2203
 2923SOL    HW220232   2.918   2.151   9.056  1.3692  1.6365 -1.8064
 2924SOL     OW20233   4.295   3.878  16.716  0.2945  0.1959 -0.4194
 2924SOL    HW120234   4.207   3.908  16.740  0.8904  0.5518  1.2998
 2924SOL    HW220235   4.285   3.787  16.743 -2.5916  0.9379  0.9216
 2925SOL     OW20236   3.746   2.953   5.318  0.8178 -0.0746  0.0662
 2925SOL    HW120237   3.814   2.955   5.250  2.5831  1.3557  1.8701
 2925SOL    HW220238   3.757   3.039   5.359  1.3127 -0.3606  0.5308
 2926SOL     OW20239   0.159   1.230   6.199 -1.1027  0.5512  0.0890
 2926SOL    HW120240   0.096   1.159   6.205  1.3989 -1.5696  0.8753
 2926SOL    HW220241   0.208   1.219   6.280 -0.5103  2.1396 -0.0591
 2927SOL     OW20242   0.272   4.269  13.242 -0.6695  0.3820  0.2021
 2927SOL    HW120243   0.180   4.250  13.262 -0.4196  0.2421  1.2227
 2927SOL    HW220244   0.317   4.316  13.312  1.6127 -1.6151  0.0866
 2928SOL     OW20245   3.816   4.541  16.751  0.0058 -0.5168  0.5456
 2928SOL    HW120246   3.902   4.575  16.775  0.3071 -1.2593  0.5476
 2928SOL    HW220247   3.798   4.498  16.835  0.2663 -0.0318  0.8502
 2929SOL     OW20248   3.576   0.427  13.240  0.0372 -0.6397 -0.0076
 2929SOL    HW120249   3.657   0.448  13.193 -0.8682 -0.0521 -1.3277
 2929SOL    HW220250   3.598   0.351  13.294 -1.0821 -0.8150  0.2051
 2930SOL     OW20251   4.296   4.418  16.747 -0.3769 -0.0634 -0.4769
 2930SOL    HW120252   4.368   4.459  16.699  1.6989 -1.9920  0.9547
 2930SOL    HW220253   4.300   4.325  16.723  1.2596 -0.4294  1.1718
 2931SOL     OW20254   2.913   2.616  17.359 -0.2149 -0.1856  0.1101
 2931SOL    HW120255   2.877   2.543  17.308 -1.0966 -0.7535  1.5575
 2931SOL    HW220256   2.982   2.574  17.410 -1.3535 -1.2775  0.7383
 2932SOL     OW20257   1.071   3.289   7.291  0.6878 -0.3825 -0.1705
 2932SOL    HW120258   1.067   3.237   7.371 -1.2445 -2.4550 -1.6205
 2932SOL    HW220259   1.113   3.364   7.334  0.1461  0.8704 -1.8326
 2933SOL     OW20260   2.994   1.792   8.617 -0.0942 -0.3140 -0.3676
 2933SOL    HW120261   3.065   1.747   8.662 -2.8292 -1.5962  2.6191
 2933SOL    HW220262   2.915   1.748   8.648 -0.5961  1.6869  1.1590
 2934SOL     OW20263   1.461   3.940   0.352 -0.0310  0.3222  0.0675
 2934SOL    HW120264   1.490   3.888   0.426 -1.8060 -0.8344 -0.0572
 2934SOL    HW220265   1.486   4.030   0.374  1.1183  0.0954 -0.3041
 2935SOL     OW20266   2.630   2.940  15.469 -0.4027  0.0532  0.5476
 2935SOL    HW120267   2.698   2.872  15.465 -0.0060  0.4539  0.3964
 2935SOL    HW220268   2.562   2.909  15.410  0.3871  3.3631 -2.1090
 2936SOL     OW20269   4.285   4.686   7.787 -0.7071  0.4686  0.0924
 2936SOL    HW120270   4.276   4.705   7.694 -0.3907  0.8608  0.1367
 2936SOL    HW220271   4.222   4.614   7.788 -0.7895  0.5651  1.6176
 2937SOL     OW20272   1.331   2.882   1.333 -0.0819 -0.4394  0.0890
 2937SOL    HW120273   1.384   2.803   1.347  0.2505 -0.7780 -3.1727
 2937SOL    HW220274   1.248   2.837   1.316 -0.4489  0.6993 -1.1194
 2938SOL     OW20275   0.514   4.067  12.738 -0.0112 -0.3637 -0.0143
 2938SOL    HW120276   0.558   4.095  12.657 -0.4323  2.4382  0.7573
 2938SOL    HW220277   0.557   3.983  12.756 -0.8606 -1.2185 -1.9542
 2939SOL     OW20278   1.271   1.439   5.519  0.1132  0.1501 -0.0461
 2939SOL    HW120279   1.305   1.364   5.567  0.2195 -0.1725 -0.6289
 2939SOL    HW220280   1.217   1.484   5.584  0.4571 -0.5408  0.7036
 2940SOL     OW20281   0.417   1.112   6.687  0.0480 -0.1608  0.1634
 2940SOL    HW120282   0.371   1.137   6.767 -1.5742  0.0689 -0.8575
 2940SOL    HW220283   0.498   1.101   6.737 -0.0328 -0.6001  0.1932
 2941SOL     OW20284   0.578   0.808   8.719 -0.4883 -0.0595 -0.1607
 2941SOL    HW120285   0.555   0.788   8.810 -0.5728  0.8597  0.0219
 2941SOL    HW220286   0.524   0.886   8.710 -0.9344 -0.3734 -0.2221
 2942SOL     OW20287   0.734   4.080   3.791  0.0002 -0.7389  0.1725
 2942SOL    HW120288   0.650   4.122   3.770  0.7548  0.9136  0.4726
 2942SOL    HW220289   0.751   4.024   3.715  0.9314  1.6461 -1.3735
 2943SOL     OW20290   4.413   2.842   3.649  0.5848 -0.4615  0.3205
 2943SOL    HW120291   4.461   2.842   3.731  2.7027  2.2952 -0.9179
 2943SOL    HW220292   4.468   2.805   3.580 -0.9462  1.3043 -1.8400
 2944SOL     OW20293   2.761   3.270   7.427  0.0380  0.3870  0.0277
 2944SOL    HW120294   2.823   3.275   7.500 -0.6321 -1.1239  0.7033
 2944SOL    HW220295   2.818   3.308   7.360 -0.0992 -1.7872 -1.3300
 2945SOL     OW20296   0.163   2.403  16.983  0.6119 -0.0669 -0.1945
 2945SOL    HW120297   0.190   2.441  17.067 -1.4055  0.4817  0.1995
 2945SOL    HW220298   0.247   2.388  16.940  2.3831  1.4126  2.7282
 2946SOL     OW20299   1.821   3.317   1.800 -0.2686  0.0845 -0.4695
 2946SOL    HW120300   1.730   3.321   1.771 -0.2541 -1.3576 -0.7096
 2946SOL    HW220301   1.862   3.231   1.789 -1.4136 -0.5794  0.5779
 2947SOL     OW20302   3.601   1.240   2.906  0.3383 -0.1749  0.7657
 2947SOL    HW120303   3.583   1.316   2.852 -0.0588 -2.7529 -2.7665
 2947SOL    HW220304   3.620   1.290   2.985  0.5374 -0.9375  1.2045
 2948SOL     OW20305   1.079   0.720  15.737  1.0669  0.5372  0.0888
 2948SOL    HW120306   1.130   0.642  15.713  1.6261  0.8796  0.1835
 2948SOL    HW220307   1.051   0.748  15.650  1.1488 -1.0467 -0.4606
 2949SOL     OW20308   4.508   0.201   6.897  0.0468 -0.2335  0.2457
 2949SOL    HW120309   4.466   0.189   6.812 -1.9535  2.0896  0.9148
 2949SOL    HW220310   4.466   0.281   6.927  2.1497  2.3910 -3.7779
 2950SOL     OW20311   1.381   1.452  15.669 -0.2149  0.3214 -0.7637
 2950SOL    HW120312   1.372   1.513  15.742  0.6917 -2.6863  1.8564
 2950SOL    HW220313   1.468   1.473  15.634  0.5140  1.0560  1.5081
 2951SOL     OW20314   2.600   2.986   5.973 -0.6599 -0.2872  0.8056
 2951SOL    HW120315   2.556   3.058   6.019 -2.5210 -1.4462  0.8440
 2951SOL    HW220316   2.679   3.024   5.936 -0.4512 -0.7624  0.7654
 2952SOL     OW20317   2.983   4.715   4.106  0.0252 -0.8689 -0.1762
 2952SOL    HW120318   3.040   4.640   4.125  0.0843 -1.0182 -0.9524
 2952SOL    HW220319   3.039   0.035   4.044  0.5981 -1.5443 -0.1647
 2953SOL     OW20320   2.374   0.778   1.474 -0.4026  0.0903  0.2603
 2953SOL    HW120321   2.407   0.700   1.519  0.4758  1.1727  1.4611
 2953SOL    HW220322   2.297   0.795   1.528  0.7948  0.3529  1.8756
 2954SOL     OW20323   4.525   0.276   7.902 -0.6829  0.6506  0.1939
 2954SOL    HW120324   4.442   0.325   7.905 -1.3912 -0.6256  1.3892
 2954SOL    HW220325   4.555   0.296   7.813  0.8761 -1.5433  0.2096
 2955SOL     OW20326   3.508   3.531   6.278 -0.5207 -0.8034 -0.0618
 2955SOL    HW120327   3.533   3.543   6.186  1.8166 -1.9733  0.4157
 2955SOL    HW220328   3.593   3.505   6.315  0.5624 -0.1138 -2.0920
 2956SOL     OW20329   0.932   3.457  14.834 -0.2910  0.0479  0.7177
 2956SOL    HW120330   0.949   3.388  14.898 -1.1152  0.0562  0.9471
 2956SOL    HW220331   0.864   3.503  14.882 -0.8726  0.4191 -0.4697
 2957SOL     OW20332   3.577   2.660   4.114  0.3535 -0.0185 -0.1602
 2957SOL    HW120333   3.537   2.606   4.047 -2.0796 -0.1197  1.3754
 2957SOL    HW220334   3.574   2.747   4.075  0.9113  0.4837  0.9218
 2958SOL     OW20335   4.001   2.147  11.917 -0.7145 -0.3430  0.1165
 2958SOL    HW120336   3.946   2.187  11.984 -1.5316  0.8482 -1.2620
 2958SOL    HW220337   3.970   2.206  11.849 -1.3506 -0.8414 -0.0212
 2959SOL     OW20338   2.924   4.657   8.944 -0.7380  0.4411  0.4014
 2959SOL    HW120339   2.887   0.018   8.934 -0.8113  0.4117  0.4182
 2959SOL    HW220340   3.008   4.662   8.897 -1.3439  1.6800 -0.5183
 2960SOL     OW20341   3.334   2.265   8.393  0.1746 -0.0547  0.3988
 2960SOL    HW120342   3.303   2.303   8.476  1.8662  0.5824  0.7429
 2960SOL    HW220343   3.354   2.180   8.432  0.2563 -0.3026 -0.1947
 2961SOL     OW20344   1.289   1.410   3.227  0.3907 -0.7589 -0.6313
 2961SOL    HW120345   1.349   1.426   3.154 -0.3477  0.1623 -1.0454
 2961SOL    HW220346   1.315   1.477   3.291  0.6184 -0.7519 -0.7323
 2962SOL     OW20347   4.587   1.701   3.837  0.5008 -0.2020 -0.0056
 2962SOL    HW120348   4.498   1.712   3.870  0.7041 -0.4364  0.6045
 2962SOL    HW220349   4.597   1.783   3.787 -0.8935  0.1815  0.3436
 2963SOL     OW20350   4.436   2.274   7.790 -0.1176 -0.2520 -0.2145
 2963SOL    HW120351   4.368   2.298   7.854 -0.9088  1.8722 -1.8210
 2963SOL    HW220352   4.513   2.249   7.841 -0.0958 -0.2895 -0.2657
 2964SOL     OW20353   1.992   0.956   6.876 -0.1382  0.0112  0.3132
 2964SOL    HW120354   1.957   0.867   6.866 -2.3431  1.1408 -1.9143
 2964SOL    HW220355   1.909   1.003   6.867 -0.3202 -0.2361  0.6953
 2965SOL     OW20356   2.653   2.643   4.350  0.1082  0.0165  0.6855
 2965SOL    HW120357   2.718   2.682   4.291 -0.5993  0.4798  0.2149
 2965SOL    HW220358   2.688   2.555   4.363  0.3566  0.1320  0.7980
 2966SOL     OW20359   0.679   0.062   5.408  0.4370 -0.0655 -0.5397
 2966SOL    HW120360   0.683   4.704   5.365 -2.3427  0.6012 -2.0957
 2966SOL    HW220361   0.631   0.110   5.340 -1.0823  0.2002  0.7045
 2967SOL     OW20362   4.681   1.170   2.863  0.0438 -0.4723  0.2587
 2967SOL    HW120363   4.619   1.142   2.796 -0.6552 -0.4646  0.9012
 2967SOL    HW220364   4.675   1.264   2.879  1.0917 -0.3738  0.1083
 2968SOL     OW20365   0.390   2.516   7.861 -0.3878  0.1945  0.0350
 2968SOL    HW120366   0.478   2.532   7.895 -1.4975  1.0759  2.5021
 2968SOL    HW220367   0.407   2.531   7.768  1.3391  0.1211  0.3546
 2969SOL     OW20368   4.100   2.095  17.514 -0.7543 -0.1303 -0.3584
 2969SOL    HW120369   4.095   2.007  17.552  0.9625 -0.7472 -1.5638
 2969SOL    HW220370   4.133   2.076  17.426  0.2802 -0.7434  0.1492
 2970SOL     OW20371   3.903   0.840   4.496 -0.8520 -0.6363  0.3574
 2970SOL    HW120372   3.906   0.811   4.586  2.6554  0.6628  0.6617
 2970SOL    HW220373   3.850   0.920   4.500  0.0383 -0.0248  0.1481
 2971SOL     OW20374   2.031   0.690  10.680  0.0460  0.4815  0.7654
 2971SOL    HW120375   2.076   0.622  10.730  1.1883  1.7538  1.4439
 2971SOL    HW220376   2.104   0.715  10.624 -0.6378 -2.0028 -1.2770
 2972SOL     OW20377   3.167   0.434  11.478  0.4162  0.5339 -0.4548
 2972SOL    HW120378   3.239   0.484  11.517 -0.5244  1.5393  0.0040
 2972SOL    HW220379   3.134   0.383  11.552  1.8885 -0.3342 -0.3935
 2973SOL     OW20380   0.846   4.198  16.079 -0.1880  0.2157  0.0036
 2973SOL    HW120381   0.924   4.147  16.100  0.2197  0.6558 -0.4323
 2973SOL    HW220382   0.882   4.285  16.059  0.3935 -0.4028 -1.6425
 2974SOL     OW20383   1.915   3.030  13.986  0.3897  0.1390  0.3264
 2974SOL    HW120384   1.897   2.999  14.074  1.8082  0.5179  0.7425
 2974SOL    HW220385   1.966   2.957  13.952  0.3470  0.1224  0.2968
 2975SOL     OW20386   2.321   0.529   9.735  0.3367  0.1209 -0.2263
 2975SOL    HW120387   2.346   0.617   9.763 -1.3709  0.7441 -0.6774
 2975SOL    HW220388   2.384   0.506   9.667  0.1350 -1.6265  0.1766
 2976SOL     OW20389   1.203   4.674   4.786 -0.7838  0.1284  0.2604
 2976SOL    HW120390   1.135   4.648   4.849 -2.5408 -0.4739 -1.9165
 2976SOL    HW220391   1.275   4.685   4.849 -0.7346  0.0712  0.2132
 2977SOL     OW20392   0.663   4.228   4.157 -0.3370  0.7871  0.4748
 2977SOL    HW120393   0.687   4.151   4.209 -0.3441  0.3173 -0.2145
 2977SOL    HW220394   0.720   4.224   4.081 -0.8729 -3.7637  0.2803
 2978SOL     OW20395   3.557   1.570   8.975 -0.0667  0.4718 -0.4867
 2978SOL    HW120396   3.565   1.665   8.972 -0.4578  0.4739 -1.8106
 2978SOL    HW220397   3.625   1.534   8.917  0.0224  1.6645 -1.1251
 2979SOL     OW20398   4.042   2.512   8.620  0.3121  0.5611  0.7714
 2979SOL    HW120399   4.039   2.572   8.545 -3.1861 -1.1848 -0.4637
 2979SOL    HW220400   4.066   2.570   8.692  0.5298  0.8965  0.4340
 2980SOL     OW20401   4.653   3.393   4.638  0.2026  0.3575 -0.0062
 2980SOL    HW120402   4.707   3.418   4.563 -0.8669  0.5265 -0.7251
 2980SOL    HW220403   4.566   3.419   4.607  0.9677  1.7806 -0.9749
 2981SOL     OW20404   2.064   0.642   6.189 -0.5446  0.0472  0.0534
 2981SOL    HW120405   2.108   0.600   6.116  0.9340 -0.1690  1.0651
 2981SOL    HW220406   2.016   0.574   6.237 -0.1341  0.4180  0.9943
 2982SOL     OW20407   2.632   1.781   4.377 -0.1403  0.0659 -0.0542
 2982SOL    HW120408   2.582   1.739   4.446  0.4989  1.2243  1.1106
 2982SOL    HW220409   2.568   1.805   4.310  0.1169 -0.3214 -0.4334
 2983SOL     OW20410   2.833   4.345   6.305  0.0303 -0.3271 -0.1408
 2983SOL    HW120411   2.785   4.423   6.276 -1.1594 -1.4203 -1.1259
 2983SOL    HW220412   2.887   4.326   6.229 -1.7979 -2.7536 -0.8413
 2984SOL     OW20413   3.591   4.553   3.825 -0.7637  0.2134 -0.9950
 2984SOL    HW120414   3.502   4.568   3.857 -0.0225  0.4711  0.9151
 2984SOL    HW220415   3.602   4.631   3.770 -0.8944  1.3292  0.5569
 2985SOL     OW20416   3.892   0.163   7.920 -0.2329  0.1567  0.1167
 2985SOL    HW120417   3.873   0.256   7.911  0.3548  0.3191  0.5836
 2985SOL    HW220418   3.855   0.121   7.842 -1.0778 -0.6114  0.9418
 2986SOL     OW20419   4.665   2.805  11.773  0.1750  0.4329  0.1451
 2986SOL    HW120420   4.677   2.711  11.784 -0.6569  0.3134  0.0156
 2986SOL    HW220421   0.026   2.834  11.800  1.2417 -1.2510 -1.5367
 2987SOL     OW20422   1.425   2.907   2.327  0.7534  0.2379  0.2534
 2987SOL    HW120423   1.344   2.857   2.335  0.2345  1.2641  1.4699
 2987SOL    HW220424   1.496   2.845   2.314  1.3899  1.1411 -0.5890
 2988SOL     OW20425   1.932   2.673   8.646  0.7395  0.3426  0.2953
 2988SOL    HW120426   1.996   2.664   8.576  0.1499 -0.5063 -0.1348
 2988SOL    HW220427   1.958   2.749   8.699  2.0589 -1.2990  2.0012
 2989SOL     OW20428   1.005   1.913   6.882  0.0181 -0.2893  0.1105
 2989SOL    HW120429   1.089   1.897   6.838 -0.3078 -0.3105 -0.4912
 2989SOL    HW220430   1.033   1.990   6.932 -0.7855  0.9972 -1.4289
 2990SOL     OW20431   4.448   1.652   5.198 -0.1224  0.5821  0.5764
 2990SOL    HW120432   4.437   1.673   5.106  0.0092  1.4341  0.7560
 2990SOL    HW220433   4.362   1.611   5.212  0.7903 -1.2107  0.9311
 2991SOL     OW20434   0.770   3.330  12.240  0.1018 -0.7711  0.4225
 2991SOL    HW120435   0.708   3.270  12.281 -0.0101 -0.8932  0.0812
 2991SOL    HW220436   0.845   3.325  12.298 -1.5386 -0.0872  2.6079
 2992SOL     OW20437   1.131   4.070  13.715 -0.5261  0.5602 -0.3723
 2992SOL    HW120438   1.052   4.097  13.760  0.1152  1.0518  0.4554
 2992SOL    HW220439   1.160   4.159  13.696  1.0839  0.4380  1.4806
 2993SOL     OW20440   1.231   0.817  10.923 -0.0843 -0.3638  0.3675
 2993SOL    HW120441   1.246   0.891  10.863 -3.5075 -0.1214 -0.1590
 2993SOL    HW220442   1.149   0.842  10.965 -0.3276 -1.3499  0.4652
 2994SOL     OW20443   2.087   3.476   0.062  0.1430 -0.5818  0.8817
 2994SOL    HW120444   2.103   3.507   0.151 -1.1960  2.0710  0.2081
 2994SOL    HW220445   1.992   3.472   0.051  0.0864 -0.0719  1.1984
 2995SOL     OW20446   2.812   4.688   7.716 -0.4963 -0.1864 -0.5923
 2995SOL    HW120447   2.811   4.592   7.719 -1.1799 -0.1661 -0.0054
 2995SOL    HW220448   2.904   4.713   7.712 -0.2045 -1.0793  0.5419
 2996SOL     OW20449   1.056   1.406  17.689  0.3968  1.2443 -0.2151
 2996SOL    HW120450   1.003   1.341  17.642  2.2226 -0.6667  0.3534
 2996SOL    HW220451   1.002   1.484  17.688 -1.8337 -0.3107 -1.6134
 2997SOL     OW20452   3.388   2.574   0.049 -0.5430 -0.0720 -0.1151
 2997SOL    HW120453   3.452   2.642   0.031 -1.0968  0.7059  0.8401
 2997SOL    HW220454   3.343   2.613   0.125  0.3275  3.2598 -1.3260
 2998SOL     OW20455   1.589   2.060   6.686  0.5328 -0.3317 -0.8194
 2998SOL    HW120456   1.579   2.147   6.648  1.9245 -0.2265 -0.9414
 2998SOL    HW220457   1.552   2.011   6.613 -0.6344 -0.3331 -0.2322
 2999SOL     OW20458   0.892   0.854   8.800 -0.0325 -0.0359 -0.1736
 2999SOL    HW120459   0.956   0.807   8.853 -1.0071 -1.9944 -0.7570
 2999SOL    HW220460   0.838   0.779   8.776 -0.6504  0.3146  0.0971
 3000SOL     OW20461   3.906   0.779  13.969  0.0897 -0.1762  0.2333
 3000SOL    HW120462   3.875   0.729  13.894 -1.6562  1.9037 -0.4574
 3000SOL    HW220463   3.843   0.783  14.041  0.0151 -0.7527  0.1941
 3001SOL     OW20464   3.363   3.217   5.745 -0.2780 -0.9873 -0.5762
 3001SOL    HW120465   3.378   3.187   5.656  0.6054 -1.8602 -0.1309
 3001SOL    HW220466   3.307   3.148   5.780 -2.4722  1.5491  0.8984
 3002SOL     OW20467   1.731   1.354   7.012  0.3551  0.0471 -0.3309
 3002SOL    HW120468   1.714   1.446   6.990  1.4254  0.1453 -0.7230
 3002SOL    HW220469   1.803   1.363   7.074  0.7832 -1.1140 -0.6717
 3003SOL     OW20470   2.737   1.525   6.961  0.1223 -0.2503  0.0261
 3003SOL    HW120471   2.761   1.438   6.929 -0.6733 -0.4885  0.1005
 3003SOL    HW220472   2.782   1.578   6.895 -0.8743  3.0046  1.9443
 3004SOL     OW20473   1.939   2.455   8.837  0.7350 -0.3893 -0.8737
 3004SOL    HW120474   1.918   2.509   8.761  0.0818  2.1778  1.1287
 3004SOL    HW220475   1.868   2.391   8.844  0.1863  0.3459  0.3760
 3005SOL     OW20476   2.236   1.426  13.389  0.6474 -0.5320  0.6037
 3005SOL    HW120477   2.256   1.412  13.481 -2.6430  1.3407  1.5835
 3005SOL    HW220478   2.219   1.519  13.402  3.0803 -0.1069  0.8628
 3006SOL     OW20479   0.941   2.404  16.016  0.4640  0.5058  0.1324
 3006SOL    HW120480   0.908   2.315  16.023  1.7074  0.0327  0.0357
 3006SOL    HW220481   0.909   2.448  16.095 -1.5615  0.5411 -0.7112
 3007SOL     OW20482   0.772   2.949   9.401 -1.0930 -0.3227  0.1737
 3007SOL    HW120483   0.726   2.884   9.455 -0.5380 -1.2715 -0.4918
 3007SOL    HW220484   0.856   2.904   9.401 -2.2161 -2.4393  0.2470
 3008SOL     OW20485   3.746   1.793   7.533  0.5528  0.5836  0.1285
 3008SOL    HW120486   3.711   1.849   7.602  0.7171  0.5973  0.2001
 3008SOL    HW220487   3.790   1.863   7.483  1.0668 -0.5853 -1.0592
 3009SOL     OW20488   3.440   0.010   8.521  0.5237 -0.0751  0.8548
 3009SOL    HW120489   3.360   0.002   8.469  0.7127  2.1498  0.2189
 3009SOL    HW220490   3.509   0.004   8.455 -0.3689 -0.9091 -0.0017
 3010SOL     OW20491   0.408   2.979   1.485 -0.0118 -0.3004  0.1020
 3010SOL    HW120492   0.393   3.061   1.532 -1.1863  0.3481 -1.4255
 3010SOL    HW220493   0.371   2.990   1.397 -2.0725  2.8582  1.3475
 3011SOL     OW20494   4.630   1.289   8.008 -0.2834  0.3840  0.2635
 3011SOL    HW120495   4.541   1.259   7.991  0.5005 -0.7994 -1.7049
 3011SOL    HW220496   4.659   1.338   7.931  0.0961  0.0215  0.1726
 3012SOL     OW20497   1.369   2.423   3.857  0.1398  0.4136 -0.3930
 3012SOL    HW120498   1.391   2.513   3.835 -0.4003  0.7555  0.4641
 3012SOL    HW220499   1.366   2.385   3.769  3.2098 -0.2464 -0.2122
 3013SOL     OW20500   1.801   1.403   5.180  0.0726 -0.4859  0.1567
 3013SOL    HW120501   1.819   1.435   5.268 -0.4497  0.0008  0.0867
 3013SOL    HW220502   1.796   1.308   5.191 -0.2988 -0.3117  1.4319
 3014SOL     OW20503   0.602   3.839   3.686  0.0880 -0.1648 -0.9437
 3014SOL    HW120504   0.603   3.890   3.767  0.5751 -0.9389 -0.4537
 3014SOL    HW220505   0.554   3.759   3.709 -0.5550  0.2614 -0.8255
 3015SOL     OW20506   4.470   0.298   7.629 -0.5889 -0.6498  0.0417
 3015SOL    HW120507   4.420   0.354   7.569 -0.4631  0.6315  1.1206
 3015SOL    HW220508   4.557   0.323   7.598 -2.5581  1.4690 -3.7795
 3016SOL     OW20509   0.313   2.690   1.514  0.6046 -0.1888 -0.0123
 3016SOL    HW120510   0.340   2.781   1.503  0.3590 -0.1775 -0.5426
 3016SOL    HW220511   0.387   2.646   1.471  1.5912  1.3718  0.1050
 3017SOL     OW20512   3.270   0.562  13.643 -0.0483 -0.8366  0.3468
 3017SOL    HW120513   3.266   0.523  13.556  3.1411 -1.7592  0.5957
 3017SOL    HW220514   3.284   0.484  13.696  1.0922 -1.4241 -0.8395
 3018SOL     OW20515   0.838   1.522  14.507 -0.1646  0.0645  0.4805
 3018SOL    HW120516   0.892   1.579  14.452 -1.0190 -0.2034 -0.6456
 3018SOL    HW220517   0.784   1.578  14.562 -1.0363 -0.5176  0.2246
 3019SOL     OW20518   3.864   1.937   0.752 -0.5144 -0.4699 -0.3666
 3019SOL    HW120519   3.775   1.909   0.771 -0.0870 -1.7512 -0.2811
 3019SOL    HW220520   3.863   2.022   0.796 -1.6236 -1.1348  0.8923
 3020SOL     OW20521   3.292   4.541   3.859 -0.1714 -0.0549  0.6004
 3020SOL    HW120522   3.217   4.497   3.900 -0.3848 -0.3076 -0.0666
 3020SOL    HW220523   3.283   4.623   3.907 -1.4269  0.6604 -0.8545
 3021SOL     OW20524   2.855   2.189   9.566  0.3156  0.4838  0.1257
 3021SOL    HW120525   2.818   2.205   9.479 -2.1294  0.0896  1.1031
 3021SOL    HW220526   2.777   2.148   9.603  0.0433 -0.5490 -1.5890
 3022SOL     OW20527   4.332   2.602   3.030 -0.3395  0.4438 -0.3583
 3022SOL    HW120528   4.351   2.638   2.943 -0.5930 -0.6389 -0.8743
 3022SOL    HW220529   4.291   2.676   3.074 -1.6623 -0.2402 -0.4331
 3023SOL     OW20530   2.019   0.420   9.347  0.1006 -0.2691 -0.6166
 3023SOL    HW120531   2.078   0.420   9.272 -0.3802  0.3716 -0.9890
 3023SOL    HW220532   2.080   0.384   9.411 -2.8542 -0.4530  2.1226
 3024SOL     OW20533   2.912   4.055   3.125 -0.1874  0.2984  0.2560
 3024SOL    HW120534   2.957   4.125   3.173 -0.0199  0.6342 -0.3771
 3024SOL    HW220535   2.863   4.010   3.194 -1.3444  0.4682 -0.4565
 3025SOL     OW20536   3.958   0.653   3.135  0.1570  0.1092  0.3960
 3025SOL    HW120537   4.016   0.684   3.066 -0.0576 -3.3356 -1.2999
 3025SOL    HW220538   3.942   0.734   3.184 -0.6343  0.5155 -0.5546
 3026SOL     OW20539   2.157   2.081   7.684  0.2357  0.1860  0.2885
 3026SOL    HW120540   2.108   2.140   7.741  1.6170 -0.0804  1.7700
 3026SOL    HW220541   2.225   2.144   7.659 -1.3001  0.4439 -3.2184
 3027SOL     OW20542   2.083   3.855   3.451  0.1208  0.5748 -0.6232
 3027SOL    HW120543   1.996   3.822   3.474 -1.2671  1.8589 -4.1569
 3027SOL    HW220544   2.080   3.944   3.488  1.7191  0.0610  0.8064
 3028SOL     OW20545   4.105   3.826   5.445 -0.0158 -0.5494  0.6434
 3028SOL    HW120546   4.055   3.881   5.505 -0.8638 -0.8709  0.2328
 3028SOL    HW220547   4.098   3.743   5.491  1.1986 -1.4016 -0.7001
 3029SOL     OW20548   3.930   2.885  14.876  0.1245 -0.0052  0.3190
 3029SOL    HW120549   3.942   2.797  14.910 -0.1264 -0.3406 -0.4710
 3029SOL    HW220550   4.020   2.890  14.842  0.5199  0.4209  1.4227
 3030SOL     OW20551   3.452   3.463   5.514 -0.3722  0.4529  0.3800
 3030SOL    HW120552   3.411   3.457   5.428  0.6060  1.3572 -0.1380
 3030SOL    HW220553   3.384   3.437   5.576 -0.6165 -0.8310 -0.4395
 3031SOL     OW20554   2.056   3.510  15.754 -0.1422 -0.2081  0.3748
 3031SOL    HW120555   2.086   3.482  15.840  1.6856  0.5243 -0.0183
 3031SOL    HW220556   2.137   3.553  15.725  0.4505 -0.9214  0.9682
 3032SOL     OW20557   2.310   2.524   6.423 -0.0943 -0.1307 -0.0867
 3032SOL    HW120558   2.362   2.532   6.503  2.3815 -0.5740 -1.6552
 3032SOL    HW220559   2.337   2.604   6.377  1.0822 -0.5685 -0.1371
 3033SOL     OW20560   3.697   3.076   4.984 -0.3129  0.3130 -0.2272
 3033SOL    HW120561   3.660   3.014   4.922  2.6923 -1.3592 -0.3336
 3033SOL    HW220562   3.790   3.061   4.998 -0.5111 -0.1249  0.6147
 3034SOL     OW20563   4.378   3.926   7.856  0.6366 -0.6935  0.3637
 3034SOL    HW120564   4.441   3.854   7.848  0.5029 -0.9827  1.9828
 3034SOL    HW220565   4.304   3.874   7.825  0.6457 -1.7567  2.1000
 3035SOL     OW20566   2.972   0.281  15.124 -0.2356 -0.1161  0.8519
 3035SOL    HW120567   3.064   0.299  15.104 -0.8534  0.2969 -1.6607
 3035SOL    HW220568   2.972   0.196  15.169  1.6976  0.4245  1.8463
 3036SOL     OW20569   4.688   3.793   9.122 -0.1166 -0.1044 -0.3967
 3036SOL    HW120570   4.634   3.715   9.109 -1.5638  0.8334 -0.0657
 3036SOL    HW220571   0.034   3.755   9.173 -0.1782 -1.0068 -0.9877
 3037SOL     OW20572   2.734   2.192  15.261  0.0442  0.2335  0.4489
 3037SOL    HW120573   2.685   2.248  15.201  2.1808 -0.0883 -1.5738
 3037SOL    HW220574   2.723   2.116  15.204  0.0195 -0.0859  0.8733
 3038SOL     OW20575   3.574   1.001   9.988 -0.1376 -0.4378  0.1812
 3038SOL    HW120576   3.636   1.013   9.916 -0.4054  1.4247  0.2763
 3038SOL    HW220577   3.493   1.041   9.957 -0.4048 -0.4337  0.8837
 3039SOL     OW20578   4.637   0.404  17.232 -0.6182  0.0044  0.1368
 3039SOL    HW120579   4.622   0.386  17.325  2.7248  1.1770  0.9078
 3039SOL    HW220580   4.547   0.388  17.203 -0.5136 -0.9171  0.3082
 3040SOL     OW20581   3.439   2.427   6.242 -0.0722 -0.5224 -0.1274
 3040SOL    HW120582   3.408   2.456   6.327 -1.5636  0.6704 -1.0784
 3040SOL    HW220583   3.383   2.475   6.180 -1.6094 -1.1983  0.7380
 3041SOL     OW20584   2.825   3.989   7.143 -0.2258  0.0386 -0.2435
 3041SOL    HW120585   2.900   3.932   7.125 -0.2498  0.7560 -2.6033
 3041SOL    HW220586   2.778   3.939   7.210  1.2926 -2.3592 -0.9730
 3042SOL     OW20587   2.899   2.825   8.971 -0.9343  0.0819  0.0028
 3042SOL    HW120588   2.865   2.784   9.050 -2.6115  2.4437  0.5369
 3042SOL    HW220589   2.981   2.776   8.965 -2.2500 -2.0716 -0.3187
 3043SOL     OW20590   0.963   3.976   8.113 -0.2672  0.1434 -0.3959
 3043SOL    HW120591   0.994   4.066   8.123 -1.2220  0.4609 -0.3173
 3043SOL    HW220592   0.913   3.974   8.195  0.3365 -0.3775 -0.0434
 3044SOL     OW20593   0.445   2.167   0.326  0.0736  0.4383  0.6823
 3044SOL    HW120594   0.372   2.180   0.265  0.7705  2.0242  0.1889
 3044SOL    HW220595   0.476   2.081   0.298  1.4985  0.4651  2.1903
 3045SOL     OW20596   2.424   2.470   6.006 -0.1072 -0.3641  0.2066
 3045SOL    HW120597   2.465   2.460   6.093 -0.5579 -0.4371  0.4109
 3045SOL    HW220598   2.470   2.546   5.970  0.1929 -1.5574 -1.8967
 3046SOL     OW20599   4.298   4.206   7.842 -0.0522  0.0443 -0.6451
 3046SOL    HW120600   4.360   4.248   7.783 -1.0545  1.1517 -0.9013
 3046SOL    HW220601   4.332   4.116   7.841 -0.6597 -0.1910 -0.8345
 3047SOL     OW20602   4.679   3.462   8.672  0.0246 -0.2258 -0.3000
 3047SOL    HW120603   4.628   3.396   8.719 -2.9239  3.7629  2.0765
 3047SOL    HW220604   4.688   3.532   8.736 -0.8398 -0.8761  0.5480
 3048SOL     OW20605   4.717   4.685   5.635  0.4776  0.2025  0.0760
 3048SOL    HW120606   4.622   4.690   5.634  0.4993  0.5462 -0.2025
 3048SOL    HW220607   0.009   0.008   5.555  1.0365  0.0894  0.1326
 3049SOL     OW20608   1.472   3.052   8.475  0.0931  0.2172  0.3161
 3049SOL    HW120609   1.383   3.063   8.508  0.3714 -2.7954  1.9966
 3049SOL    HW220610   1.454   3.077   8.384 -0.0889 -0.4093  0.1819
 3050SOL     OW20611   4.507   2.622   8.909  0.2297 -0.0617 -0.1217
 3050SOL    HW120612   4.531   2.586   8.995 -0.1081  2.2852  0.9538
 3050SOL    HW220613   4.414   2.600   8.914  0.1302  0.4061  0.0721
 3051SOL     OW20614   0.037   4.368  13.560 -0.3455  0.1327 -0.1849
 3051SOL    HW120615   0.078   4.285  13.582  0.9312  0.6073 -0.7349
 3051SOL    HW220616   0.106   4.428  13.588  1.1771 -1.9367  0.4868
 3052SOL     OW20617   2.777   4.558  13.159  0.2511 -0.3154  0.1381
 3052SOL    HW120618   2.740   4.513  13.083  0.0210 -0.3386  0.2646
 3052SOL    HW220619   2.700   4.566  13.214  1.2394 -0.6238  1.5499
 3053SOL     OW20620   4.349   0.097  14.181 -0.3060 -0.0112 -0.1254
 3053SOL    HW120621   4.417   0.103  14.114 -0.4097 -0.3568 -0.2663
 3053SOL    HW220622   4.379   0.133  14.264 -1.9206 -1.1732  0.9702
 3054SOL     OW20623   2.270   4.435  10.119  0.4062 -0.0909  0.3068
 3054SOL    HW120624   2.181   4.407  10.140  0.8984 -1.5523  0.5040
 3054SOL    HW220625   2.264   4.431  10.024 -1.7974 -0.0669  0.4469
 3055SOL     OW20626   0.815   4.096   7.698  0.3133  0.2662 -0.6035
 3055SOL    HW120627   0.882   4.126   7.760 -0.6530 -2.3511  1.7249
 3055SOL    HW220628   0.867   4.096   7.617 -2.5754  2.7325 -2.4296
 3056SOL     OW20629   2.574   2.009   1.987 -0.3452  0.0778 -0.0043
 3056SOL    HW120630   2.522   1.942   1.942  2.0724 -2.3070  0.8033
 3056SOL    HW220631   2.520   2.088   1.978 -0.7175 -0.4720 -2.6123
 3057SOL     OW20632   1.545   2.097   2.611 -0.3437 -0.1199 -0.1560
 3057SOL    HW120633   1.569   2.110   2.520 -1.3382 -1.6080 -0.6250
 3057SOL    HW220634   1.460   2.055   2.597 -0.2560 -0.2505 -0.2865
 3058SOL     OW20635   2.459   3.668   1.708 -0.4795  0.1320  0.4248
 3058SOL    HW120636   2.368   3.682   1.735 -0.3583 -0.6455  1.2165
 3058SOL    HW220637   2.466   3.573   1.718 -0.5983  0.0735 -0.0675
 3059SOL     OW20638   0.434   1.081   8.401  0.4704 -0.0229  0.0365
 3059SOL    HW120639   0.514   1.133   8.407  0.3842 -0.1487  2.2225
 3059SOL    HW220640   0.414   1.055   8.491 -1.5141  2.5814  0.3371
 3060SOL     OW20641   1.174   0.638  16.970 -0.2018  0.2248 -0.5069
 3060SOL    HW120642   1.123   0.687  17.035  1.2949  1.5139 -0.2967
 3060SOL    HW220643   1.117   0.567  16.940  0.6015 -0.9641  0.7795
 3061SOL     OW20644   1.921   2.252   7.560  0.4981  0.2462 -0.2694
 3061SOL    HW120645   1.862   2.222   7.491  1.5398  1.6976 -1.7731
 3061SOL    HW220646   2.005   2.266   7.517 -0.1887 -1.5015 -2.1903
 3062SOL     OW20647   1.497   2.193   8.199 -0.0282  0.1290 -0.1606
 3062SOL    HW120648   1.508   2.162   8.109 -1.0723 -1.6076  0.3194
 3062SOL    HW220649   1.570   2.255   8.204 -0.4398  0.5015  1.3381
 3063SOL     OW20650   4.542   3.028   3.225  0.0664  0.1049 -0.8168
 3063SOL    HW120651   4.576   3.116   3.211  0.2788 -0.0889 -1.5324
 3063SOL    HW220652   4.453   3.042   3.192 -0.0237  1.3180 -0.0379
 3064SOL     OW20653   3.240   0.475   9.754  0.2129 -0.2209 -0.2792
 3064SOL    HW120654   3.232   0.540   9.824 -2.3993  1.3810 -2.0767
 3064SOL    HW220655   3.249   0.537   9.683  0.5759 -2.0996 -1.8682
 3065SOL     OW20656   0.714   2.727   9.811 -0.1549  0.2738  0.3937
 3065SOL    HW120657   0.664   2.646   9.822  0.8275 -0.3519  0.2034
 3065SOL    HW220658   0.734   2.723   9.717 -2.7877 -0.3358 -0.1409
 3066SOL     OW20659   1.829   4.248  10.914  0.1095  0.0618  0.5089
 3066SOL    HW120660   1.917   4.284  10.921 -0.7101  2.2334 -0.2435
 3066SOL    HW220661   1.807   4.254  10.821  0.2692  1.0087  0.5354
 3067SOL     OW20662   2.172   3.129   2.606 -0.0202 -0.5061  0.4851
 3067SOL    HW120663   2.255   3.127   2.557 -0.6627 -0.2406 -0.6253
 3067SOL    HW220664   2.111   3.149   2.535  2.3538  1.4817 -1.0070
 3068SOL     OW20665   4.416   2.095   8.035  0.1193  0.0358  0.3610
 3068SOL    HW120666   4.342   2.046   7.999  0.7707 -0.4690 -0.2941
 3068SOL    HW220667   4.493   2.049   8.002 -0.0740  1.3682 -1.9458
 3069SOL     OW20668   2.502   3.764   3.840  0.0733 -0.0508 -0.0992
 3069SOL    HW120669   2.549   3.697   3.890  0.7065 -1.4323 -2.5637
 3069SOL    HW220670   2.502   3.838   3.900  1.5221  0.9342 -1.3166
 3070SOL     OW20671   2.904   3.872   5.887 -0.3295  0.1499 -0.3454
 3070SOL    HW120672   2.829   3.885   5.829  0.8746  0.4861 -1.8279
 3070SOL    HW220673   2.897   3.960   5.924  1.2436 -0.6588  1.9171
 3071SOL     OW20674   2.866   4.434   2.077  0.3106  0.6167 -0.5737
 3071SOL    HW120675   2.883   4.379   2.153  1.2832 -0.0687 -1.2804
 3071SOL    HW220676   2.947   4.419   2.028  0.2457  0.5289 -0.6532
 3072SOL     OW20677   3.114   4.081  15.879  0.3593  0.4691  0.3172
 3072SOL    HW120678   3.146   4.171  15.888  0.9228  0.0795  2.2623
 3072SOL    HW220679   3.022   4.108  15.880  0.9489  2.5118  0.8850
 3073SOL     OW20680   1.894   3.325   5.491 -0.4789 -0.5291  0.4328
 3073SOL    HW120681   1.862   3.344   5.403 -0.3578 -1.0562  0.2721
 3073SOL    HW220682   1.988   3.322   5.471 -1.0043 -1.2818 -1.8527
 3074SOL     OW20683   0.664   4.298   1.834  0.1944  0.0137 -0.6964
 3074SOL    HW120684   0.612   4.378   1.838 -2.7605 -1.8366 -1.6971
 3074SOL    HW220685   0.732   4.325   1.895 -1.1392  1.3206  0.2156
 3075SOL     OW20686   1.586   2.737   4.288  0.1674  0.7086  0.2713
 3075SOL    HW120687   1.537   2.818   4.298 -0.3226  0.2163  1.7930
 3075SOL    HW220688   1.557   2.716   4.200  0.3670 -1.2731  0.6817
 3076SOL     OW20689   2.105   2.905  10.450  0.6309 -0.1703 -0.4477
 3076SOL    HW120690   2.039   2.852  10.404  0.3860 -0.4022  0.1835
 3076SOL    HW220691   2.054   2.931  10.526  0.0242 -2.9202  0.0816
 3077SOL     OW20692   4.470   2.435   3.508  0.3069 -0.4726 -0.1371
 3077SOL    HW120693   4.444   2.437   3.415 -2.0024 -2.3519  0.4649
 3077SOL    HW220694   4.391   2.472   3.547  0.5296  1.2651 -1.2973
 3078SOL     OW20695   3.356   3.974   4.346 -0.2796  0.8128 -0.2298
 3078SOL    HW120696   3.412   3.927   4.285 -1.5542  0.1490 -0.8966
 3078SOL    HW220697   3.404   3.969   4.429  1.1063  0.1983 -1.0712
 3079SOL     OW20698   2.686   1.991   2.570 -0.2945 -0.1655 -0.1959
 3079SOL    HW120699   2.642   1.962   2.650 -0.1655  1.7233  0.5587
 3079SOL    HW220700   2.615   2.041   2.532  0.3529  2.0263  1.4551
 3080SOL     OW20701   4.560   0.074  14.659  0.8110  0.1699  0.8531
 3080SOL    HW120702   4.599   0.148  14.705  1.0861 -0.5298  1.7415
 3080SOL    HW220703   4.626   0.012  14.689  1.3771 -0.4447 -1.6584
 3081SOL     OW20704   2.849   3.740   8.461  0.3886 -0.3495 -0.1435
 3081SOL    HW120705   2.790   3.696   8.399 -1.1111 -2.0199  2.4410
 3081SOL    HW220706   2.785   3.804   8.492  0.0061 -0.0957 -1.4841
 3082SOL     OW20707   2.503   1.664   7.856  0.3223  0.3121 -0.2081
 3082SOL    HW120708   2.486   1.693   7.766 -1.1578  0.2742  0.0580
 3082SOL    HW220709   2.589   1.699   7.877 -0.1998  1.1915  0.4983
 3083SOL     OW20710   3.496   4.426   6.340 -0.1439  0.3258  0.0788
 3083SOL    HW120711   3.503   4.521   6.355  0.5731 -0.1456  2.6725
 3083SOL    HW220712   3.402   4.410   6.328  0.4097 -2.4803 -0.4125
 3084SOL     OW20713   0.781   3.310   8.641  0.4524  0.3101  0.3983
 3084SOL    HW120714   0.718   3.294   8.711 -2.0426  0.0332 -1.9172
 3084SOL    HW220715   0.863   3.316   8.691  1.7596  1.3354 -1.8715
 3085SOL     OW20716   1.128   2.447   9.101  0.4324  0.2262  0.3176
 3085SOL    HW120717   1.165   2.488   9.022  0.1595 -1.8299 -0.8779
 3085SOL    HW220718   1.137   2.523   9.158  2.1565  0.6177 -0.4732
 3086SOL     OW20719   2.352   2.767   5.097 -0.0467  0.2153 -0.1970
 3086SOL    HW120720   2.390   2.843   5.053  2.2109 -0.6157  0.3048
 3086SOL    HW220721   2.375   2.697   5.036  2.2036 -0.9783  2.0239
 3087SOL     OW20722   4.711   2.105   4.280 -0.0023 -0.5831  0.3483
 3087SOL    HW120723   4.669   2.130   4.197 -1.0902  0.2360  1.1464
 3087SOL    HW220724   0.051   2.173   4.285 -0.6578  0.2044 -1.4670
 3088SOL     OW20725   2.833   0.473   2.870 -0.5889  0.2878 -0.4838
 3088SOL    HW120726   2.888   0.451   2.794  1.5418  1.3680  0.7585
 3088SOL    HW220727   2.874   0.553   2.902 -0.8406  0.7653 -1.3456
 3089SOL     OW20728   2.217   2.636   3.110 -0.2823  0.2251  0.1227
 3089SOL    HW120729   2.177   2.551   3.089 -1.8404  0.7815  0.8008
 3089SOL    HW220730   2.160   2.651   3.185 -0.8782  1.3416 -0.5457
 3090SOL     OW20731   2.414   3.838   2.006  0.2510 -0.3572  0.0751
 3090SOL    HW120732   2.340   3.876   2.053  0.1483 -0.2240 -0.1964
 3090SOL    HW220733   2.409   3.894   1.929  0.2152 -2.9933 -1.8210
 3091SOL     OW20734   3.950   3.843   8.825 -0.3313 -0.3290  0.4059
 3091SOL    HW120735   3.985   3.921   8.868  0.6383 -0.4411 -0.1773
 3091SOL    HW220736   3.900   3.791   8.888  0.1930  0.2827  1.3373
 3092SOL     OW20737   3.997   1.630   2.162  0.3103 -0.0045 -0.1157
 3092SOL    HW120738   4.038   1.561   2.110  2.6204  1.0007  0.3985
 3092SOL    HW220739   4.049   1.700   2.123 -0.1455  1.4986  1.9652
 3093SOL     OW20740   0.182   4.672   6.908  0.1887  0.0491  0.0575
 3093SOL    HW120741   0.087   4.676   6.900  0.3922 -0.0279 -2.4682
 3093SOL    HW220742   0.188   4.681   7.003  3.2194 -0.1913 -0.1017
 3094SOL     OW20743   1.343   3.259   8.668 -0.2287 -0.4721  0.1935
 3094SOL    HW120744   1.334   3.230   8.759  1.6890 -0.2084  0.4634
 3094SOL    HW220745   1.260   3.303   8.651  1.5636  2.4634 -0.9475
 3095SOL     OW20746   0.315   3.140   5.508  0.2477 -0.2221  0.5207
 3095SOL    HW120747   0.347   3.220   5.467  0.7833 -0.4566  0.4867
 3095SOL    HW220748   0.251   3.178   5.569 -0.6618 -1.8905  0.6158
 3096SOL     OW20749   3.716   1.500   8.697  0.5547 -0.4306  0.1725
 3096SOL    HW120750   3.808   1.492   8.721  0.2025  0.1809  1.7353
 3096SOL    HW220751   3.719   1.437   8.625 -0.8718 -0.7640  0.3978
 3097SOL     OW20752   2.043   2.784   6.781  0.3982  0.1368 -0.1171
 3097SOL    HW120753   2.127   2.737   6.780  1.2422  1.6417 -0.3306
 3097SOL    HW220754   1.979   2.725   6.821 -0.0448  1.2684  0.8563
 3098SOL     OW20755   4.679   0.604   7.978 -0.7619 -0.2890  0.5825
 3098SOL    HW120756   4.684   0.628   7.886 -0.1259  0.9046  0.9300
 3098SOL    HW220757   4.618   0.672   8.007 -0.6405  0.8435 -1.8832
 3099SOL     OW20758   0.771   4.299   6.157 -0.0606 -0.2433  0.4707
 3099SOL    HW120759   0.714   4.367   6.122  1.1700  0.2561 -0.5319
 3099SOL    HW220760   0.729   4.217   6.130  1.1405 -0.3823 -0.9746
 3100SOL     OW20761   2.859   0.862   7.714 -0.2776  0.0930  0.4080
 3100SOL    HW120762   2.828   0.947   7.745 -0.2659  0.1518  0.2572
 3100SOL    HW220763   2.849   0.863   7.619  0.4669  2.5480  0.3510
 3101SOL     OW20764   3.656   2.209   7.376 -0.4385  0.1757  0.2032
 3101SOL    HW120765   3.633   2.238   7.464 -0.0999  1.9071 -0.2762
 3101SOL    HW220766   3.658   2.292   7.329  0.3114  0.6857  1.1283
 3102SOL     OW20767   0.434   0.989   5.702  0.1154  0.5953 -0.6588
 3102SOL    HW120768   0.362   0.989   5.766  3.7101  1.7091  3.4188
 3102SOL    HW220769   0.389   0.952   5.627 -2.4258  0.7320  0.7896
 3103SOL     OW20770   4.228   4.368   2.407  0.2756 -0.0919  0.1566
 3103SOL    HW120771   4.213   4.275   2.422  2.0299 -0.7213 -1.9832
 3103SOL    HW220772   4.296   4.382   2.473  1.2900  1.0591 -1.1100
 3104SOL     OW20773   3.657   1.254   4.368 -0.1237  0.3805 -0.3457
 3104SOL    HW120774   3.637   1.200   4.291 -1.2094  0.2206  0.0536
 3104SOL    HW220775   3.641   1.340   4.330  1.0089  1.6786  2.0875
 3105SOL     OW20776   2.941   0.239   7.879  0.5253 -0.5388  0.3941
 3105SOL    HW120777   3.027   0.280   7.885  0.1184  0.3939 -0.1587
 3105SOL    HW220778   2.885   0.316   7.888  1.1532 -0.2580  1.7983
 3106SOL     OW20779   4.369   2.593   1.138 -0.0472 -0.3409  0.0614
 3106SOL    HW120780   4.333   2.564   1.054 -0.8630  2.4261 -0.5526
 3106SOL    HW220781   4.330   2.680   1.142  0.5604  0.0226 -1.6357
 3107SOL     OW20782   2.258   0.803  10.265 -0.1241 -0.2787  0.3731
 3107SOL    HW120783   2.289   0.888  10.233 -1.4015 -0.4365 -1.2797
 3107SOL    HW220784   2.245   0.744  10.191  0.2540  0.4147 -0.2444
 3108SOL     OW20785   0.251   0.855   5.539  0.2034 -0.2938 -0.1482
 3108SOL    HW120786   0.264   0.804   5.459 -0.9347  0.5235 -0.8621
 3108SOL    HW220787   0.165   0.892   5.517  1.5988  2.4887 -0.9368
 3109SOL     OW20788   1.893   0.100   9.135 -0.3643 -0.1837  0.2158
 3109SOL    HW120789   1.840   0.020   9.134 -0.6993  0.0373 -0.9548
 3109SOL    HW220790   1.860   0.160   9.067 -2.8349  0.0696  1.6260
 3110SOL     OW20791   1.705   2.498   5.553 -0.5567  0.5936 -0.1370
 3110SOL    HW120792   1.765   2.498   5.479 -0.7502 -1.5860 -0.2885
 3110SOL    HW220793   1.705   2.589   5.584  0.2545  0.0201  1.5414
 3111SOL     OW20794   1.798   4.598   6.364 -0.1960  0.0119  0.8326
 3111SOL    HW120795   1.872   4.543   6.338 -0.0845  0.7060 -0.3233
 3111SOL    HW220796   1.737   4.560   6.300 -0.1814  0.6374  0.4488
 3112SOL     OW20797   3.742   3.998   8.360 -0.1182  0.2995  0.3332
 3112SOL    HW120798   3.800   3.978   8.434  1.0188  1.9980 -0.0839
 3112SOL    HW220799   3.662   4.016   8.409 -1.2076 -0.6515 -1.0889
 3113SOL     OW20800   2.996   1.484   4.697 -0.1541 -0.2914  0.1378
 3113SOL    HW120801   2.986   1.417   4.629 -2.0012 -0.1085  0.2323
 3113SOL    HW220802   2.909   1.521   4.709  0.6867  1.7352 -0.0809
 3114SOL     OW20803   4.122   1.172   6.799  0.2383 -0.0354 -0.5607
 3114SOL    HW120804   4.175   1.249   6.818 -1.9504  0.9719  1.4892
 3114SOL    HW220805   4.190   1.112   6.767  1.5566  1.1824 -0.0373
 3115SOL     OW20806   2.543   2.855   2.140  0.2592 -0.0542 -0.1352
 3115SOL    HW120807   2.601   2.910   2.192  0.5554 -0.5601  0.0610
 3115SOL    HW220808   2.559   2.893   2.053  0.6408 -1.0899 -0.5141
 3116SOL     OW20809   3.832   0.725   7.754  0.1085  0.1811  0.2421
 3116SOL    HW120810   3.755   0.670   7.740 -0.8411  1.1697  1.5608
 3116SOL    HW220811   3.889   0.686   7.687 -1.8651 -1.0011 -0.7281
 3117SOL     OW20812   0.731   2.248   6.455  0.1619 -0.2752  0.3769
 3117SOL    HW120813   0.740   2.218   6.545  1.6423 -0.2074  0.2507
 3117SOL    HW220814   0.717   2.162   6.415 -0.7716  0.4022 -0.7655
 3118SOL     OW20815   3.088   3.093   8.197 -0.0020 -0.2326  0.5449
 3118SOL    HW120816   3.084   3.014   8.252  0.2413  0.0805  1.0152
 3118SOL    HW220817   2.999   3.124   8.184 -0.4494 -0.8736  2.0535
 3119SOL     OW20818   4.395   2.316   1.507 -0.0031  0.2918  0.4784
 3119SOL    HW120819   4.430   2.258   1.573 -0.1205 -0.6893 -0.3193
 3119SOL    HW220820   4.468   2.371   1.478  1.2419 -1.3796  0.5006
 3120SOL     OW20821   2.392   1.321   1.385  0.1960  0.1134 -0.3333
 3120SOL    HW120822   2.380   1.319   1.480 -0.0366 -0.1770 -0.3676
 3120SOL    HW220823   2.461   1.256   1.394 -0.2712 -0.3778 -0.2606
 3121SOL     OW20824   1.071   1.055   5.037 -0.0253 -0.3121 -0.0088
 3121SOL    HW120825   0.992   1.081   4.990  1.4289  0.2431 -2.1976
 3121SOL    HW220826   1.088   1.128   5.096 -1.7670 -0.2716  0.4242
 3122SOL     OW20827   3.971   2.431   3.203  0.1095 -0.5580  0.3428
 3122SOL    HW120828   3.957   2.344   3.164 -2.3491 -0.4832  1.0228
 3122SOL    HW220829   3.978   2.475   3.118  0.9200  0.2283  0.8174
 3123SOL     OW20830   0.798   3.450   8.959 -0.2604 -0.2590 -0.0752
 3123SOL    HW120831   0.723   3.396   8.984 -1.4800  0.5963 -1.9019
 3123SOL    HW220832   0.818   3.500   9.038 -0.2975 -0.6102  0.1573
 3124SOL     OW20833   1.917   3.890  16.255 -0.6968  0.2565  0.5433
 3124SOL    HW120834   1.953   3.852  16.335  0.0800 -2.3419 -1.0470
 3124SOL    HW220835   1.942   3.831  16.185  0.4646  1.5815 -0.1710
 3125SOL     OW20836   0.949   3.629  14.621  0.6410 -0.4929 -0.0735
 3125SOL    HW120837   0.954   3.577  14.702  0.9676  2.6350  1.9021
 3125SOL    HW220838   0.877   3.588  14.573  1.1327 -0.0454 -1.1939
 3126SOL     OW20839   4.618   2.030   1.747  0.9165 -0.7351 -0.3640
 3126SOL    HW120840   4.643   2.114   1.708 -0.1868 -1.1082 -1.8746
 3126SOL    HW220841   4.640   1.968   1.678  0.3061 -0.3168 -0.9371
 3127SOL     OW20842   0.814   0.786  12.403  0.1620  0.0287  0.2572
 3127SOL    HW120843   0.763   0.837  12.341 -0.0825  0.7887  1.0777
 3127SOL    HW220844   0.845   0.716  12.346  2.6316  0.6262  0.8627
 3128SOL     OW20845   3.829   3.189   4.356  0.1495  0.0524 -0.5473
 3128SOL    HW120846   3.770   3.249   4.311 -0.1922  1.1458  1.3595
 3128SOL    HW220847   3.774   3.169   4.432 -0.4547 -1.2252 -1.3191
 3129SOL     OW20848   1.338   2.368   7.120  0.0766  0.2845 -0.2102
 3129SOL    HW120849   1.292   2.333   7.196 -0.2219  1.8901  0.3323
 3129SOL    HW220850   1.346   2.461   7.139  1.1972  0.2007 -0.2553
 3130SOL     OW20851   4.089   0.057  17.235 -0.0837  0.3754  0.0338
 3130SOL    HW120852   4.179   0.023  17.235 -0.0031  0.5581 -1.7948
 3130SOL    HW220853   4.064   0.001  17.161  1.1369 -1.0373  0.6831
 3131SOL     OW20854   2.231   2.564  10.541  0.5724  0.2869  0.6832
 3131SOL    HW120855   2.269   2.623  10.606  0.5532  0.7253  0.2950
 3131SOL    HW220856   2.254   2.614  10.463 -1.4238 -1.4240 -0.9923
 3132SOL     OW20857   2.730   4.669  11.256  0.2074  0.1507 -0.4524
 3132SOL    HW120858   2.732   4.672  11.351 -0.1892  1.6391 -0.4868
 3132SOL    HW220859   2.770   0.024  11.225  2.6377 -0.0395  2.2393
 3133SOL     OW20860   3.322   3.223   8.393 -1.1811 -0.4829  0.4945
 3133SOL    HW120861   3.340   3.183   8.478  1.8110  1.2932  0.6983
 3133SOL    HW220862   3.310   3.143   8.342  0.8133  0.2354 -1.0944
 3134SOL     OW20863   0.892   0.176  10.901 -0.0341  0.4104  0.2467
 3134SOL    HW120864   0.873   0.229  10.823 -0.5353 -0.9555 -0.5506
 3134SOL    HW220865   0.896   0.246  10.967 -0.1618 -0.1049  0.7975
 3135SOL     OW20866   2.254   0.282  10.795 -0.2684  0.1331  0.2109
 3135SOL    HW120867   2.344   0.292  10.764 -0.9636  3.5647 -0.7154
 3135SOL    HW220868   2.218   0.251  10.712 -0.5317  0.4329  0.2103
 3136SOL     OW20869   3.044   2.469  15.466 -0.3970  0.4839 -0.1726
 3136SOL    HW120870   3.112   2.447  15.401 -1.4294 -1.6105 -0.5341
 3136SOL    HW220871   2.989   2.528  15.414  0.9458  0.3720 -1.7503
 3137SOL     OW20872   4.295   0.771   4.981  0.2154  0.5423 -0.1271
 3137SOL    HW120873   4.346   0.822   4.919  0.9838  0.6002  0.5535
 3137SOL    HW220874   4.305   0.830   5.056  0.9633  0.7111 -0.3587
 3138SOL     OW20875   2.804   2.885   8.726  0.0855  0.1379 -0.7310
 3138SOL    HW120876   2.816   2.845   8.812  0.5476 -1.3219 -1.4657
 3138SOL    HW220877   2.894   2.886   8.693  0.2374 -0.8066 -0.3487
 3139SOL     OW20878   1.623   1.572   8.718 -0.1009 -0.3242 -0.0414
 3139SOL    HW120879   1.612   1.517   8.796 -0.2293 -0.9015 -0.4629
 3139SOL    HW220880   1.558   1.537   8.658 -0.3831  0.4615 -0.1838
 3140SOL     OW20881   3.361   0.423   8.309  0.4229  0.1950  0.1204
 3140SOL    HW120882   3.317   0.487   8.254 -1.2491 -0.1106  1.1029
 3140SOL    HW220883   3.348   0.464   8.395  2.9364  1.1098  0.0437
 3141SOL     OW20884   2.239   0.579   7.116  0.0031 -0.3051  0.0393
 3141SOL    HW120885   2.204   0.649   7.171 -0.1189  0.5064 -1.0692
 3141SOL    HW220886   2.271   0.511   7.176  2.4450 -0.9391 -1.9464
 3142SOL     OW20887   3.204   2.434   9.356 -0.1968 -0.2293 -0.1982
 3142SOL    HW120888   3.279   2.439   9.415 -1.2011  2.1714  0.9075
 3142SOL    HW220889   3.188   2.344   9.383 -0.3892 -0.0344  0.3498
 3143SOL     OW20890   1.842   2.237   7.954 -0.2494 -0.5173  0.6118
 3143SOL    HW120891   1.780   2.205   7.889 -0.5618  0.6965  0.3014
 3143SOL    HW220892   1.925   2.199   7.926 -0.0038 -0.6669  1.5579
 3144SOL     OW20893   2.033   2.894   7.274  0.2587 -0.2964 -0.0441
 3144SOL    HW120894   1.938   2.889   7.260  0.1066  0.5449  0.6570
 3144SOL    HW220895   2.058   2.958   7.207 -1.6025 -0.9023 -1.3138
 3145SOL     OW20896   0.681   2.291   8.056 -0.2465 -0.0703  0.2986
 3145SOL    HW120897   0.659   2.383   8.064  1.7347  0.2943  1.3462
 3145SOL    HW220898   0.741   2.272   8.128  0.7603 -2.0847 -1.0478
 3146SOL     OW20899   0.114   4.064  11.806 -0.3297  0.1160  0.5492
 3146SOL    HW120900   0.068   3.982  11.792 -1.6209  0.8815  0.3083
 3146SOL    HW220901   0.165   4.033  11.881  1.5040 -0.8182 -1.0823
 3147SOL     OW20902   3.054   4.527   5.364  0.3724 -0.1770 -0.3331
 3147SOL    HW120903   3.033   4.564   5.450  0.2764 -0.2953 -0.3053
 3147SOL    HW220904   3.094   4.607   5.330  0.1012  0.1034  0.0051
 3148SOL     OW20905   0.785   2.764   4.895  0.3211 -0.1815  0.1346
 3148SOL    HW120906   0.861   2.713   4.866 -0.7509 -1.4115 -0.5426
 3148SOL    HW220907   0.787   2.833   4.829  2.0573 -0.7835 -0.4346
 3149SOL     OW20908   1.223   1.770   3.267  0.0490 -0.1425  0.3071
 3149SOL    HW120909   1.252   1.823   3.341 -0.4940  0.0949  0.3527
 3149SOL    HW220910   1.263   1.823   3.198  0.7641 -0.2627  0.6362
 3150SOL     OW20911   4.343   3.418  16.205  0.4356  0.1320 -0.2085
 3150SOL    HW120912   4.322   3.325  16.215 -0.2886  0.3216  0.0594
 3150SOL    HW220913   4.273   3.464  16.251 -0.3995 -0.0548 -1.2874
 3151SOL     OW20914   4.075   3.298   4.351  0.0050  0.6368  0.6626
 3151SOL    HW120915   4.074   3.340   4.265 -1.8518  1.4551  1.0767
 3151SOL    HW220916   3.988   3.259   4.345 -0.3912  1.4064  1.3725
 3152SOL     OW20917   1.398   3.004  17.343  0.3505 -0.8845 -0.8091
 3152SOL    HW120918   1.418   2.988  17.435 -0.0892 -0.7394 -0.6915
 3152SOL    HW220919   1.450   2.942  17.292  0.5388 -1.4072  0.0250
 3153SOL     OW20920   2.824   3.595   3.851  0.6476  0.3962 -0.1589
 3153SOL    HW120921   2.857   3.626   3.935 -1.3540 -0.1135  0.8345
 3153SOL    HW220922   2.729   3.600   3.863  0.4334 -1.3539 -1.0978
 3154SOL     OW20923   2.221   0.608   4.788  0.6422 -0.0684 -0.1413
 3154SOL    HW120924   2.252   0.518   4.772  2.8679  0.6677  0.0482
 3154SOL    HW220925   2.127   0.601   4.772  0.7541  0.5545 -1.0185
 3155SOL     OW20926   3.842   4.226   4.996 -0.6992  0.0308 -0.5037
 3155SOL    HW120927   3.778   4.159   4.972  0.3143 -0.9861 -0.3396
 3155SOL    HW220928   3.854   4.199   5.087 -1.3072 -0.5533 -0.5958
 3156SOL     OW20929   2.661   4.308   2.916 -0.5333 -0.3932 -0.3965
 3156SOL    HW120930   2.744   4.319   2.962 -1.5092  1.7001  0.8419
 3156SOL    HW220931   2.697   4.246   2.853 -2.4331 -1.7206 -0.1748
 3157SOL     OW20932   0.522   0.741   8.406 -0.6565 -0.0839 -0.3444
 3157SOL    HW120933   0.455   0.767   8.468  1.6783 -0.4857  2.3550
 3157SOL    HW220934   0.589   0.810   8.408 -0.1326 -0.7338  3.1597
 3158SOL     OW20935   0.127   3.184   2.657  0.5898 -0.6848 -0.0800
 3158SOL    HW120936   0.047   3.174   2.709 -1.6646  0.1828 -3.3659
 3158SOL    HW220937   0.179   3.238   2.717 -2.4252  2.6888 -0.5001
 3159SOL     OW20938   0.523   1.356   7.698 -0.1790  0.3232 -0.2809
 3159SOL    HW120939   0.560   1.290   7.756  1.3199  1.0678 -0.3914
 3159SOL    HW220940   0.459   1.392   7.761  1.9115  1.8463  0.9715
 3160SOL     OW20941   3.195   4.294   1.564 -0.1339 -0.0811 -0.3829
 3160SOL    HW120942   3.218   4.251   1.646  0.8257  0.2375 -0.4879
 3160SOL    HW220943   3.105   4.308   1.593  0.0385 -0.9893  0.6191
 3161SOL     OW20944   1.791   0.251   4.064  0.3248 -0.0478  0.3406
 3161SOL    HW120945   1.759   0.205   4.142  0.7353 -0.7262  0.1072
 3161SOL    HW220946   1.733   0.325   4.045 -1.9057 -2.6447 -3.0216
 3162SOL     OW20947   3.248   1.976   9.204  0.1650 -0.3062 -1.2127
 3162SOL    HW120948   3.160   2.002   9.232  0.0914 -0.5066 -1.2587
 3162SOL    HW220949   3.282   2.054   9.161  0.4663 -0.8282 -1.9109
 3163SOL     OW20950   4.424   1.993  12.724 -0.3162  0.4927  0.4909
 3163SOL    HW120951   4.411   2.022  12.633  1.6245  0.7978  0.3200
 3163SOL    HW220952   4.482   1.918  12.710  0.4506  1.0912  0.4484
 3164SOL     OW20953   4.215   2.776   8.765 -0.3643  0.7139  0.5273
 3164SOL    HW120954   4.142   2.833   8.740 -0.5933 -0.1596 -0.7961
 3164SOL    HW220955   4.275   2.841   8.801 -0.4144  0.9716  0.1306
 3165SOL     OW20956   0.891   0.390   7.976  0.6743 -0.2928 -0.6655
 3165SOL    HW120957   0.826   0.320   7.967 -0.2303  0.4328  0.1637
 3165SOL    HW220958   0.964   0.333   7.997  1.9008  1.3080 -0.6002
 3166SOL     OW20959   2.982   0.250   0.013  0.8070  0.5878  0.6315
 3166SOL    HW120960   2.996   0.330   0.063 -2.4016  0.9603  0.9313
 3166SOL    HW220961   2.887   0.248   0.026  0.5812 -2.0434 -1.5341
 3167SOL     OW20962   4.525   2.583   6.398  0.0836 -0.1991 -0.3792
 3167SOL    HW120963   4.560   2.556   6.483 -0.3960 -0.2919 -0.2104
 3167SOL    HW220964   4.608   2.584   6.350 -1.1053  0.6970 -2.4461
 3168SOL     OW20965   1.780   1.229   6.052  0.2939 -0.1750  0.0222
 3168SOL    HW120966   1.713   1.189   5.996  0.7391  0.1352 -0.7274
 3168SOL    HW220967   1.753   1.202   6.139  0.3380 -0.6714 -0.1181
 3169SOL     OW20968   2.810   0.330  16.815 -0.3301 -0.3318  0.2096
 3169SOL    HW120969   2.751   0.396  16.779 -1.1377 -2.1282 -1.7243
 3169SOL    HW220970   2.880   0.316  16.752 -1.5040 -1.5117 -0.8182
 3170SOL     OW20971   0.058   4.203   7.963  0.6370 -0.3370  0.2187
 3170SOL    HW120972   0.084   4.273   7.902  0.0030 -0.4060 -0.1370
 3170SOL    HW220973   0.051   4.255   8.043 -0.8220  1.7994 -1.2972
 3171SOL     OW20974   2.053   1.879   9.895 -0.3788 -0.4773  0.3878
 3171SOL    HW120975   2.057   1.813   9.826  0.6122  2.2274 -2.1564
 3171SOL    HW220976   2.135   1.860   9.941  0.1040  0.2310 -0.1690
 3172SOL     OW20977   2.253   2.126   3.881 -0.1478 -0.7080 -0.0577
 3172SOL    HW120978   2.159   2.123   3.896  0.1633 -0.2526  1.9402
 3172SOL    HW220979   2.294   2.083   3.956  2.3947 -0.5838 -1.3736
 3173SOL     OW20980   3.853   4.243   7.894  0.3314  0.0224  0.2023
 3173SOL    HW120981   3.812   4.219   7.977 -0.0199 -2.8661 -0.8035
 3173SOL    HW220982   3.923   4.177   7.894  0.4720  0.1719  2.9859
 3174SOL     OW20983   4.035   0.823   0.655  0.3229 -0.4782  0.1033
 3174SOL    HW120984   4.028   0.755   0.723  1.6793  0.6373  1.3383
 3174SOL    HW220985   4.114   0.789   0.614 -1.9269 -1.1395 -3.7301
 3175SOL     OW20986   1.590   0.034  12.573  0.6715  0.0335  0.0331
 3175SOL    HW120987   1.597   4.667  12.554  0.2682  0.0939 -0.4268
 3175SOL    HW220988   1.576   0.027  12.667  0.9312  0.8318  0.1331
 3176SOL     OW20989   3.563   4.124  13.509  0.0326 -0.4704 -0.7809
 3176SOL    HW120990   3.477   4.082  13.510  0.2253 -0.8470 -0.1775
 3176SOL    HW220991   3.582   4.111  13.416  0.3260 -0.4977 -0.7156
 3177SOL     OW20992   2.259   3.867   5.124  0.1638  0.2512  0.1774
 3177SOL    HW120993   2.205   3.897   5.197 -0.2419 -2.6444  1.0705
 3177SOL    HW220994   2.328   3.822   5.174 -0.4359  0.1083  0.8836
 3178SOL     OW20995   3.047   0.323  11.696  0.5835  0.2161 -0.3257
 3178SOL    HW120996   3.100   0.275  11.760  2.1091  0.0862 -1.7004
 3178SOL    HW220997   2.986   0.369  11.754  0.2278  1.4117 -1.6345
 3179SOL     OW20998   2.117   3.747   5.984 -0.4868 -0.2935  0.0165
 3179SOL    HW120999   2.136   3.659   5.951 -1.7589 -0.7006  0.3933
 3179SOL    HW221000   2.198   3.771   6.029 -1.1996  0.3028  0.9656
 3180SOL     OW21001   1.897   1.673   7.567  0.5068  0.2318  0.5952
 3180SOL    HW121002   1.951   1.738   7.522  0.1888 -0.0610 -0.2082
 3180SOL    HW221003   1.815   1.723   7.563  0.6494  0.4413  0.2713
 3181SOL     OW21004   0.849   1.808  16.461 -0.0080 -0.4823  0.2720
 3181SOL    HW121005   0.854   1.795  16.556 -0.8452 -1.6719  0.1542
 3181SOL    HW221006   0.936   1.831  16.430 -0.8320  1.1392 -0.8498
 3182SOL     OW21007   1.771   4.440   4.901  0.4046  0.7374  0.1498
 3182SOL    HW121008   1.863   4.447   4.928  0.6333 -0.5820 -0.2865
 3182SOL    HW221009   1.742   4.392   4.978  0.3793  2.4089  1.1886
 3183SOL     OW21010   3.089   1.515  11.040 -0.1823 -0.0034  0.2907
 3183SOL    HW121011   3.056   1.565  10.966 -2.1326  1.7064  2.3218
 3183SOL    HW221012   3.183   1.534  11.029 -0.2582  0.2074  0.0073
 3184SOL     OW21013   0.639   2.489   1.983 -0.1190  0.3321  0.0971
 3184SOL    HW121014   0.622   2.435   1.906 -1.2748  2.5663 -1.1975
 3184SOL    HW221015   0.562   2.473   2.038 -1.3857 -0.0120 -1.7769
 3185SOL     OW21016   3.970   2.722   8.452 -0.5005 -0.1924 -0.3104
 3185SOL    HW121017   3.879   2.748   8.437 -0.4135 -0.3436 -1.1351
 3185SOL    HW221018   4.010   2.809   8.453  1.9633 -1.3167 -1.2913
 3186SOL     OW21019   1.121   1.232   6.440 -0.1078  0.0461  0.2621
 3186SOL    HW121020   1.161   1.205   6.522  0.8744  1.7360  0.3248
 3186SOL    HW221021   1.140   1.156   6.384 -1.4644  0.0314 -0.1699
 3187SOL     OW21022   2.957   3.492   9.050  0.6079  0.2753  0.0196
 3187SOL    HW121023   2.915   3.535   9.124 -1.0317  2.0738 -1.9406
 3187SOL    HW221024   2.894   3.429   9.015  0.2179  0.1622  0.9308
 3188SOL     OW21025   1.634   0.526   5.177 -0.0937 -0.2254 -0.0152
 3188SOL    HW121026   1.618   0.588   5.248  0.2066 -0.5920  0.3695
 3188SOL    HW221027   1.726   0.552   5.166 -0.3427  1.3629  1.6869
 3189SOL     OW21028   3.303   0.853  12.165 -0.4797 -0.9524  0.3789
 3189SOL    HW121029   3.392   0.848  12.200 -0.1088  0.7161 -0.3350
 3189SOL    HW221030   3.317   0.912  12.091 -0.6465 -3.2240 -1.4766
 3190SOL     OW21031   4.286   3.086   3.119  0.3412 -0.0724  0.1836
 3190SOL    HW121032   4.234   3.136   3.182 -1.2303 -2.0092  0.3898
 3190SOL    HW221033   4.264   3.136   3.040 -2.1081 -1.9530 -0.2995
 3191SOL     OW21034   2.645   2.058   9.666 -0.1927  0.4415  0.1488
 3191SOL    HW121035   2.618   2.079   9.755 -1.3255  1.1866 -0.3721
 3191SOL    HW221036   2.565   2.083   9.619 -1.0216 -2.4613 -0.0334
 3192SOL     OW21037   1.333   3.148   8.261  0.0983  0.2724  0.0306
 3192SOL    HW121038   1.396   3.217   8.243 -1.5643  2.1156  1.3417
 3192SOL    HW221039   1.295   3.153   8.173  2.3553 -1.6262 -1.0519
 3193SOL     OW21040   4.256   2.525   6.233  0.5836  0.8126  0.4515
 3193SOL    HW121041   4.260   2.478   6.150  2.5141 -3.5476  2.9887
 3193SOL    HW221042   4.324   2.485   6.288  2.0278  1.5726 -0.7858
 3194SOL     OW21043   1.732   4.617   4.298 -0.2779 -0.1540 -0.6611
 3194SOL    HW121044   1.666   4.607   4.366  1.2144 -0.9371  0.6871
 3194SOL    HW221045   1.716   4.707   4.268  0.5955 -0.2646 -1.4764
 3195SOL     OW21046   1.886   1.744   3.919  0.2295 -0.5108  0.2102
 3195SOL    HW121047   1.980   1.749   3.937  0.7301 -1.6646 -2.1703
 3195SOL    HW221048   1.852   1.805   3.984 -0.0443  1.1064 -1.4653
 3196SOL     OW21049   1.997   3.007   8.288 -0.1974  0.0087  0.1522
 3196SOL    HW121050   1.953   3.084   8.324 -2.3798 -1.7780  1.3236
 3196SOL    HW221051   2.090   3.024   8.303  0.0135 -0.1666 -0.9381
 3197SOL     OW21052   4.284   4.713  13.738  0.0221 -0.6415  0.4825
 3197SOL    HW121053   4.337   4.634  13.725  0.9750  0.6257 -3.0530
 3197SOL    HW221054   4.208   4.677  13.785  0.0686  0.6606  1.5415
 3198SOL     OW21055   2.130   0.999   4.497 -0.8151 -0.3234 -0.2691
 3198SOL    HW121056   2.130   1.042   4.411  1.0361  1.3364  0.5534
 3198SOL    HW221057   2.224   1.004   4.517 -1.4166 -0.2182  2.4483
 3199SOL     OW21058   1.798   4.453   3.091 -1.0959  0.2538  0.2414
 3199SOL    HW121059   1.738   4.416   3.026 -0.4365  0.0427 -0.2417
 3199SOL    HW221060   1.855   4.378   3.106  1.0287  2.0479  1.1674
 3200SOL     OW21061   3.873   0.424   7.883  0.2833 -0.5599  0.1468
 3200SOL    HW121062   3.866   0.437   7.788  0.7168 -1.5317 -0.0173
 3200SOL    HW221063   3.865   0.513   7.918  1.3828 -0.2305 -0.4398
 3201SOL     OW21064   0.149   2.486   5.472 -0.1269 -0.3033  0.0148
 3201SOL    HW121065   0.218   2.544   5.505 -0.5701 -0.0313  0.4658
 3201SOL    HW221066   0.194   2.449   5.396 -1.5788  1.4399 -1.7183
 3202SOL     OW21067   3.583   4.038   7.493  0.4347  0.2318 -0.7938
 3202SOL    HW121068   3.607   3.955   7.533 -1.0547 -0.1544 -0.6888
 3202SOL    HW221069   3.536   4.084   7.563 -0.0557  0.8591 -1.5360
 3203SOL     OW21070   4.092   2.294  11.264 -0.1084  0.2372 -0.7294
 3203SOL    HW121071   4.079   2.224  11.327  3.5059 -0.4039 -0.7048
 3203SOL    HW221072   4.071   2.372  11.316  1.6122 -0.4717  1.0269
 3204SOL     OW21073   1.439   2.046   7.413 -0.4228  0.1954 -0.2166
 3204SOL    HW121074   1.402   1.989   7.345 -0.8028  0.5088 -0.2707
 3204SOL    HW221075   1.413   2.134   7.387  1.7239  0.7572 -0.5181
 3205SOL     OW21076   3.795   0.255   3.074  0.5184  0.6412 -0.1143
 3205SOL    HW121077   3.883   0.264   3.110  0.1273  1.9263  0.5100
 3205SOL    HW221078   3.818   0.230   2.985 -0.2218 -0.6433  0.0567
 3206SOL     OW21079   3.459   1.433  16.768  0.6161  0.3452  0.1165
 3206SOL    HW121080   3.435   1.507  16.712  0.7039 -0.5211 -1.0680
 3206SOL    HW221081   3.378   1.382  16.777  0.1883  0.5041 -2.9004
 3207SOL     OW21082   3.974   0.979   3.731  0.2215  0.0947  0.2198
 3207SOL    HW121083   4.063   0.984   3.765  0.3058 -0.5755  0.1007
 3207SOL    HW221084   3.916   0.996   3.805 -1.7331 -0.0669 -1.2579
 3208SOL     OW21085   2.544   3.347   3.953  0.2617  0.0239 -0.1148
 3208SOL    HW121086   2.511   3.275   4.007  3.1821 -1.2079  0.0435
 3208SOL    HW221087   2.461   3.377   3.916  0.1712  0.1691  0.2101
 3209SOL     OW21088   4.159   3.521  13.282 -0.4726  0.0787 -0.2019
 3209SOL    HW121089   4.208   3.441  13.301 -1.2197 -0.2859  0.1597
 3209SOL    HW221090   4.077   3.495  13.324 -2.1840  0.2744 -3.4735
 3210SOL     OW21091   0.093   2.044   2.961 -0.5295  0.0353  0.2778
 3210SOL    HW121092   0.184   2.075   2.963 -0.7245  0.5016  1.4990
 3210SOL    HW221093   0.046   2.119   2.996  0.5340  1.1969 -0.7847
 3211SOL     OW21094   1.079   3.009   2.746 -0.6340 -0.0618  0.7380
 3211SOL    HW121095   1.174   2.994   2.750 -0.5219  0.0891 -1.2026
 3211SOL    HW221096   1.075   3.016   2.650 -1.6049  1.9857  0.9191
 3212SOL     OW21097   0.575   1.531   3.888  0.5889 -0.8109 -1.2272
 3212SOL    HW121098   0.584   1.532   3.793  0.9889 -2.8812 -1.2089
 3212SOL    HW221099   0.481   1.525   3.902  0.6624 -0.4164 -0.5882
 3213SOL     OW21100   4.317   4.601   0.566 -0.3732  0.3524 -0.2028
 3213SOL    HW121101   4.294   4.684   0.524 -1.0562  0.1955 -0.1532
 3213SOL    HW221102   4.388   4.578   0.507  0.1001  2.2101 -0.3549
 3214SOL     OW21103   1.243   3.143   6.261 -0.1138  0.8074  0.2219
 3214SOL    HW121104   1.217   3.233   6.281 -1.6539  0.0771  1.4553
 3214SOL    HW221105   1.194   3.120   6.182  1.7393  0.2681 -0.7657
 3215SOL     OW21106   3.856   2.967  10.970 -0.5374  0.0291 -0.5955
 3215SOL    HW121107   3.892   2.890  10.926 -0.9101 -1.0427  0.9581
 3215SOL    HW221108   3.935   3.020  10.968 -1.9200  2.0296 -2.8251
 3216SOL     OW21109   1.411   2.569   8.628  0.3106 -0.5975 -0.1205
 3216SOL    HW121110   1.407   2.543   8.536  0.2312 -1.5216  0.1400
 3216SOL    HW221111   1.487   2.626   8.616 -0.8431  1.1553  1.0388
 3217SOL     OW21112   2.229   0.124   4.516 -0.2294 -0.2905  0.4278
 3217SOL    HW121113   2.257   0.061   4.582  0.9489  0.6517  0.8365
 3217SOL    HW221114   2.142   0.092   4.495  0.3649 -0.7673 -1.3048
 3218SOL     OW21115   3.455   0.548   7.470  0.2101  0.2080 -0.3042
 3218SOL    HW121116   3.455   0.644   7.473 -0.9626  0.1473  1.5200
 3218SOL    HW221117   3.523   0.529   7.535 -0.0576 -0.7131 -0.2948
 3219SOL     OW21118   2.912   2.170   0.702  0.0503  0.0169  0.3664
 3219SOL    HW121119   2.934   2.080   0.680  3.2402  0.7540  0.5752
 3219SOL    HW221120   2.817   2.172   0.691 -0.0175 -2.8627  0.4382
 3220SOL     OW21121   4.280   3.215   0.783 -0.0581 -0.3036  0.2198
 3220SOL    HW121122   4.284   3.266   0.864 -0.7440 -0.2724  0.2369
 3220SOL    HW221123   4.196   3.241   0.745  0.4646 -2.0984 -2.1746
 3221SOL     OW21124   4.466   2.547  11.658  0.4858 -0.1175 -0.3047
 3221SOL    HW121125   4.480   2.454  11.638  0.3348 -0.1854 -0.0947
 3221SOL    HW221126   4.559   2.564  11.671  0.6939 -2.0245  0.6732
 3222SOL     OW21127   3.332   2.105   6.596 -0.1027  0.2340  0.7543
 3222SOL    HW121128   3.346   2.019   6.636 -0.9517  0.0464  0.6570
 3222SOL    HW221129   3.305   2.149   6.677 -1.2534  0.3792  0.2872
 3223SOL     OW21130   0.618   3.209  14.550  0.2230 -0.5827 -0.3338
 3223SOL    HW121131   0.694   3.152  14.546  1.5744  1.3704 -2.3351
 3223SOL    HW221132   0.634   3.256  14.632 -2.2318 -0.2564 -0.0350
 3224SOL     OW21133   0.533   0.012  13.072 -0.1935 -0.0493 -0.1750
 3224SOL    HW121134   0.602   0.052  13.125 -1.5451  0.6390  1.0944
 3224SOL    HW221135   0.502   0.087  13.021  0.1656 -0.2021 -0.6100
 3225SOL     OW21136   0.379   2.943   0.878 -0.3714  0.3367  0.5399
 3225SOL    HW121137   0.356   2.982   0.962 -4.2510  3.1413 -1.8370
 3225SOL    HW221138   0.310   2.877   0.872  0.8096 -0.8295 -0.4512
 3226SOL     OW21139   2.547   3.421  10.338  0.0195  0.0114 -0.3767
 3226SOL    HW121140   2.536   3.494  10.399  1.7947  0.7895 -1.0145
 3226SOL    HW221141   2.640   3.422  10.319  0.5647 -2.1107  2.1776
 3227SOL     OW21142   4.228   1.413   5.152 -0.0854 -0.5447  0.6805
 3227SOL    HW121143   4.206   1.466   5.075  0.9448 -1.6883 -0.4031
 3227SOL    HW221144   4.232   1.329   5.107 -2.0733 -1.8936  3.0440
 3228SOL     OW21145   2.115   0.568  16.774 -0.0380  0.1431  0.3724
 3228SOL    HW121146   2.172   0.531  16.707  2.0702  3.4549  0.3174
 3228SOL    HW221147   2.143   0.508  16.844  3.2964  2.6821  1.2123
 3229SOL     OW21148   1.206   1.919   0.404 -0.0056 -0.0786 -0.3129
 3229SOL    HW121149   1.123   1.919   0.355  0.6298  1.5299 -1.4125
 3229SOL    HW221150   1.264   1.962   0.340  0.7357 -1.2003 -0.3797
 3230SOL     OW21151   3.842   3.419   6.068  0.1662  0.4470 -0.2668
 3230SOL    HW121152   3.831   3.458   5.981 -1.6986 -2.6056 -1.4423
 3230SOL    HW221153   3.783   3.482   6.109 -1.3260 -1.3408  0.3130
 3231SOL     OW21154   0.782   3.074  15.518 -0.6825  0.2809  0.1512
 3231SOL    HW121155   0.807   2.982  15.507  3.0592  1.2466  0.5556
 3231SOL    HW221156   0.727   3.088  15.440 -0.5529  1.8318  0.3472
 3232SOL     OW21157   3.104   2.960  11.243  0.1875  0.1430  0.0844
 3232SOL    HW121158   3.028   3.004  11.282  0.2286  2.0422 -1.9606
 3232SOL    HW221159   3.146   3.044  11.223 -0.7906  0.4083 -0.8172
 3233SOL     OW21160   1.303   0.951   8.748  0.3643 -0.0658 -1.0342
 3233SOL    HW121161   1.263   0.865   8.756  3.4360 -1.6233 -2.4143
 3233SOL    HW221162   1.362   0.930   8.675  0.7682  0.7803 -0.9504
 3234SOL     OW21163   0.726   1.887   0.061  0.3854 -0.1889  0.7516
 3234SOL    HW121164   0.704   1.836   0.139 -0.2484  2.0625  2.0615
 3234SOL    HW221165   0.639   1.895   0.022  0.5344 -0.9674  0.2613
 3235SOL     OW21166   1.675   1.452   6.238  0.4423 -0.4771  0.5315
 3235SOL    HW121167   1.649   1.541   6.216 -2.2957 -1.8233 -1.7297
 3235SOL    HW221168   1.699   1.416   6.152 -1.7080  0.7579 -0.6080
 3236SOL     OW21169   4.009   2.265  16.917 -0.3012 -0.2828  0.1136
 3236SOL    HW121170   3.996   2.189  16.860 -2.5948  0.7543 -0.7591
 3236SOL    HW221171   3.967   2.330  16.861  0.4282  0.4020  0.3703
 3237SOL     OW21172   2.761   4.639  11.899  0.2966 -0.3024  0.1901
 3237SOL    HW121173   2.712   4.640  11.981  0.8729  0.3573  0.5272
 3237SOL    HW221174   2.817   4.716  11.907  0.3349 -0.1266 -2.0222
 3238SOL     OW21175   0.192   0.871   6.475 -0.3177 -0.2026 -0.5944
 3238SOL    HW121176   0.225   0.793   6.430 -2.7492 -2.5074  1.5618
 3238SOL    HW221177   0.153   0.843   6.558 -1.9126  0.4330 -1.1261
 3239SOL     OW21178   0.528   1.632   6.962  0.1776 -0.2782  0.3083
 3239SOL    HW121179   0.512   1.597   6.874  1.1711  0.4415 -0.1561
 3239SOL    HW221180   0.457   1.692   6.984  0.7878  0.4315  0.3221
 3240SOL     OW21181   4.362   1.705   7.287 -0.0821 -0.4220 -0.7149
 3240SOL    HW121182   4.390   1.757   7.363  3.3416 -2.9920 -0.1789
 3240SOL    HW221183   4.390   1.615   7.304 -1.0785 -0.1840  2.2707
 3241SOL     OW21184   2.255   0.304  13.094  0.2435 -0.2646 -0.1362
 3241SOL    HW121185   2.169   0.263  13.083 -1.5206  2.8998  1.5271
 3241SOL    HW221186   2.299   0.234  13.141  1.6589  1.2010  0.7180
 3242SOL     OW21187   0.846   0.186   8.632  0.2836  0.7914 -0.2644
 3242SOL    HW121188   0.862   0.094   8.611 -1.2013  0.2144  1.1599
 3242SOL    HW221189   0.835   0.216   8.541 -1.7146  2.7612  0.6284
 3243SOL     OW21190   2.890   1.434   7.277 -0.0440  0.1052  0.2294
 3243SOL    HW121191   2.910   1.502   7.212 -1.5588  0.0177 -0.3366
 3243SOL    HW221192   2.911   1.490   7.352  2.0022 -1.2147  0.6482
 3244SOL     OW21193   0.326   0.021   9.923  0.3694  0.0732  0.1386
 3244SOL    HW121194   0.404   0.028   9.867  0.1674  1.5763  0.0457
 3244SOL    HW221195   0.279   4.679   9.875 -1.0782  0.4299  1.0634
 3245SOL     OW21196   4.187   4.526   4.878 -0.1073 -0.0627 -0.1593
 3245SOL    HW121197   4.267   4.572   4.900 -0.8203  1.0465  0.1265
 3245SOL    HW221198   4.211   4.494   4.791  1.1481 -2.3076  1.0184
 3246SOL     OW21199   3.648   3.597   1.422 -0.0646 -0.6307  0.1641
 3246SOL    HW121200   3.681   3.534   1.485  0.9634 -0.7088 -0.4427
 3246SOL    HW221201   3.718   3.660   1.404  0.0568 -0.6648  0.5257
 3247SOL     OW21202   3.175   2.543  10.050 -0.4593  0.0237 -0.6766
 3247SOL    HW121203   3.133   2.592   9.979 -1.2691  1.1571  0.5985
 3247SOL    HW221204   3.102   2.534  10.111 -1.0653 -1.9979 -1.7126
 3248SOL     OW21205   3.194   0.335   0.604  0.1254 -0.0281  0.0547
 3248SOL    HW121206   3.274   0.386   0.601  1.1942 -1.5767  1.7356
 3248SOL    HW221207   3.233   0.249   0.588  1.1974  0.9515 -2.4146
 3249SOL     OW21208   2.592   0.204  11.613  0.2175 -0.1610  0.3090
 3249SOL    HW121209   2.561   0.293  11.601 -0.9431 -0.5898  0.0849
 3249SOL    HW221210   2.515   0.165  11.656  0.5077 -2.7935 -1.5236
 3250SOL     OW21211   2.834   4.133  10.790 -0.1174 -0.3006  1.0234
 3250SOL    HW121212   2.756   4.093  10.752  0.7076 -0.1542 -0.8101
 3250SOL    HW221213   2.854   4.199  10.724 -0.2456 -1.8266 -0.5506
 3251SOL     OW21214   1.316   1.721   3.541 -0.3169 -0.5345 -0.3242
 3251SOL    HW121215   1.359   1.645   3.503 -3.0212 -2.9960  1.4886
 3251SOL    HW221216   1.362   1.794   3.500  1.3484 -0.8101  1.0373
 3252SOL     OW21217   2.724   2.444   8.577 -0.5034 -0.1113  0.4214
 3252SOL    HW121218   2.750   2.365   8.530  0.0722  0.9957 -1.1035
 3252SOL    HW221219   2.675   2.407   8.650 -0.1152 -0.6957  0.3848
 3253SOL     OW21220   4.036   2.120   1.922 -0.1654 -0.1534 -0.2761
 3253SOL    HW121221   4.096   2.125   1.848 -2.6252  0.7096 -2.2108
 3253SOL    HW221222   3.960   2.169   1.891 -0.8116 -0.1292  1.3549
 3254SOL     OW21223   1.707   1.481  13.600 -0.1225  0.4727 -0.4954
 3254SOL    HW121224   1.791   1.505  13.638 -0.3807  1.4713 -0.5491
 3254SOL    HW221225   1.677   1.571  13.586  0.7774  0.9068  0.3500
 3255SOL     OW21226   2.535   3.710   4.701 -0.0209  0.5991  0.5065
 3255SOL    HW121227   2.471   3.740   4.765 -1.0698 -2.1257  0.7243
 3255SOL    HW221228   2.504   3.622   4.680 -1.7077  1.5530 -0.9971
 3256SOL     OW21229   4.144   1.926   8.217 -0.3690  0.0635  0.5368
 3256SOL    HW121230   4.089   1.851   8.193  0.8334  0.3070 -2.8919
 3256SOL    HW221231   4.081   1.994   8.192  0.3733  0.2499 -0.7890
 3257SOL     OW21232   1.153   2.701   7.424 -0.6449 -0.0272 -0.2125
 3257SOL    HW121233   1.065   2.717   7.390 -0.6826  0.7959  0.2812
 3257SOL    HW221234   1.158   2.624   7.367 -2.5017 -1.6350  1.7968
 3258SOL     OW21235   1.229   3.011  17.120 -0.0094  0.3221  0.0196
 3258SOL    HW121236   1.142   2.981  17.146  0.1443  0.5100  0.7509
 3258SOL    HW221237   1.283   2.959  17.180 -0.7040 -0.8530 -0.3809
 3259SOL     OW21238   0.297   0.311   7.915  0.4952  0.7365 -0.5154
 3259SOL    HW121239   0.215   0.344   7.950  1.0345 -0.2569  1.6584
 3259SOL    HW221240   0.283   0.221   7.945 -0.9690  1.6224  1.4674
 3260SOL     OW21241   2.582   0.950  13.530  0.6532 -0.3223 -0.7276
 3260SOL    HW121242   2.518   1.016  13.556  1.6665  0.1861  0.4438
 3260SOL    HW221243   2.525   0.881  13.493 -1.5149 -1.4755  4.6858
 3261SOL     OW21244   0.726   0.310  12.194 -0.3060 -0.3296  0.2942
 3261SOL    HW121245   0.766   0.266  12.269 -0.0360 -1.1776 -0.3514
 3261SOL    HW221246   0.666   0.248  12.152 -1.8714  1.5274 -0.2368
 3262SOL     OW21247   2.575   3.202   2.974  0.0910 -0.1311  0.2663
 3262SOL    HW121248   2.490   3.239   2.951  0.8252 -0.0506 -2.2860
 3262SOL    HW221249   2.624   3.265   2.921  0.1830 -0.8611 -0.5018
 3263SOL     OW21250   0.118   0.012  13.510 -0.1047 -0.1263  0.1635
 3263SOL    HW121251   0.128   0.075  13.582  0.6543 -0.5139  0.3974
 3263SOL    HW221252   0.060   4.686  13.566  0.6994  0.3475  1.4394
 3264SOL     OW21253   0.206   0.947   7.378  0.1893  0.4221 -0.4730
 3264SOL    HW121254   0.124   0.974   7.336 -0.2929 -1.2728 -0.6133
 3264SOL    HW221255   0.180   0.855   7.386  1.7548  0.0720  0.6895
 3265SOL     OW21256   2.266   4.535  10.702 -0.0376  0.3741 -0.1196
 3265SOL    HW121257   2.220   4.604  10.751 -1.3950  0.6321 -1.7435
 3265SOL    HW221258   2.338   4.586  10.665  1.4757 -0.1812  2.0468
 3266SOL     OW21259   0.584   2.251   6.143  0.0627 -0.0098 -0.1797
 3266SOL    HW121260   0.541   2.179   6.191  2.5124 -1.6066 -0.3937
 3266SOL    HW221261   0.516   2.316   6.123 -0.8159 -0.7308  0.4606
 3267SOL     OW21262   0.030   2.265   8.721  0.4831 -0.4351  0.5625
 3267SOL    HW121263   4.665   2.283   8.744  1.7327  2.1157  3.5407
 3267SOL    HW221264   0.041   2.176   8.755  0.0353 -1.1175 -1.1227
 3268SOL     OW21265   0.038   2.393   3.379  0.6242  0.3146  0.3818
 3268SOL    HW121266   0.117   2.431   3.341 -1.7679  2.9237 -1.9851
 3268SOL    HW221267   4.706   2.469   3.379  1.8834  1.2740  0.1034
 3269SOL     OW21268   4.473   4.081   2.392 -0.5582  0.5409  0.1695
 3269SOL    HW121269   4.567   4.064   2.382 -0.9053 -1.8569  0.9677
 3269SOL    HW221270   4.442   4.103   2.304 -0.8901 -0.9975 -0.1077
 3270SOL     OW21271   3.586   2.731   7.065 -0.6146 -0.4110  0.6169
 3270SOL    HW121272   3.662   2.783   7.041 -2.2702 -0.2366 -4.2141
 3270SOL    HW221273   3.623   2.643   7.061  0.4045 -0.0763  2.6551
 3271SOL     OW21274   4.233   1.421  12.624  0.5538  0.1586 -0.5841
 3271SOL    HW121275   4.249   1.371  12.544  0.7889 -0.9165  0.1312
 3271SOL    HW221276   4.141   1.444  12.612  0.6221  0.9504  0.4216
 3272SOL     OW21277   1.296   0.082  16.610 -0.1007 -0.0420 -0.8244
 3272SOL    HW121278   1.329   0.059  16.523 -2.4695  0.1420 -1.7827
 3272SOL    HW221279   1.218   0.026  16.610  0.6036 -1.0442 -1.6860
 3273SOL     OW21280   2.028   4.624   0.028 -0.0089 -1.0857 -0.1242
 3273SOL    HW121281   2.077   4.575  17.668  0.1979  1.2137 -1.6794
 3273SOL    HW221282   2.063   4.592   0.111  1.1231 -0.9938 -0.5620
 3274SOL     OW21283   2.685   4.535   4.311 -0.0041 -0.4857 -0.5534
 3274SOL    HW121284   2.666   4.533   4.218  0.3868  0.6198 -0.6513
 3274SOL    HW221285   2.601   4.566   4.345  1.3005  1.2544  1.0509
 3275SOL     OW21286   0.248   2.637  12.450  0.4872  0.1058  0.1615
 3275SOL    HW121287   0.329   2.686  12.437  2.5671 -3.3219 -0.0683
 3275SOL    HW221288   0.247   2.588  12.367  0.3485 -0.2079  0.3453
 3276SOL     OW21289   2.493   1.370   3.094  0.2000 -0.3143 -0.2230
 3276SOL    HW121290   2.449   1.349   3.011  0.6530 -2.7624  0.1380
 3276SOL    HW221291   2.538   1.287   3.112  0.9203 -0.1848 -1.4287
 3277SOL     OW21292   0.947   3.477  16.612 -0.3716  0.0862  0.2125
 3277SOL    HW121293   1.043   3.478  16.603 -0.5466 -0.6071 -1.9159
 3277SOL    HW221294   0.931   3.544  16.545  1.1433  0.1803 -0.0536
 3278SOL     OW21295   4.289   1.450  13.606 -0.0713 -0.3610  0.1107
 3278SOL    HW121296   4.373   1.476  13.570  0.4185 -1.2947  0.5834
 3278SOL    HW221297   4.293   1.358  13.577  1.8204 -0.1900 -0.1603
 3279SOL     OW21298   4.164   2.947  11.088 -0.4214 -0.0447  0.5612
 3279SOL    HW121299   4.125   3.000  11.157 -0.1796  0.0791  0.6048
 3279SOL    HW221300   4.255   2.969  11.108 -0.6632 -0.1471  1.7918
 3280SOL     OW21301   4.300   1.213   1.782 -0.5061  0.0770 -0.3003
 3280SOL    HW121302   4.312   1.249   1.869 -0.0205  3.0100 -1.5777
 3280SOL    HW221303   4.222   1.160   1.801 -0.9650  0.8113 -0.1416
 3281SOL     OW21304   2.088   2.159   8.137 -0.2982  0.4877 -0.5055
 3281SOL    HW121305   2.042   2.093   8.188  0.2832  1.0011  0.6894
 3281SOL    HW221306   2.146   2.114   8.076 -0.3344 -2.7409  1.8925
 3282SOL     OW21307   3.138   1.693   4.756 -0.1847  0.0266 -0.1984
 3282SOL    HW121308   3.137   1.768   4.695  0.2633 -1.3361 -1.8862
 3282SOL    HW221309   3.089   1.625   4.710  1.3094 -0.7811 -0.5781
 3283SOL     OW21310   0.531   1.418   6.399  0.1193  0.5142 -0.3888
 3283SOL    HW121311   0.530   1.398   6.306  2.0443  1.5803 -0.6179
 3283SOL    HW221312   0.533   1.338   6.452  1.7560  2.1356  1.9798
 3284SOL     OW21313   1.634   1.343   3.395  0.2440  0.2825  0.1891
 3284SOL    HW121314   1.716   1.330   3.348 -1.4333 -1.4567 -2.2094
 3284SOL    HW221315   1.582   1.263   3.394 -2.7541  2.2561 -1.5366
 3285SOL     OW21316   1.200   4.504   5.338 -0.6607 -0.6525 -0.4045
 3285SOL    HW121317   1.285   4.480   5.375 -0.0216  0.8158 -0.8922
 3285SOL    HW221318   1.179   4.588   5.380 -1.7479 -1.2462  0.2250
 3286SOL     OW21319   4.715   0.527  13.525 -0.0995 -0.2085  0.1733
 3286SOL    HW121320   4.695   0.434  13.538  0.6083 -0.4482 -0.4599
 3286SOL    HW221321   0.003   0.520  13.430 -1.8590 -0.6836 -0.0496
 3287SOL     OW21322   3.440   1.964  10.078  0.0874 -0.3182  0.4320
 3287SOL    HW121323   3.510   1.915  10.121 -1.8667 -0.0288  3.8931
 3287SOL    HW221324   3.472   2.053  10.066  0.4036 -0.5395 -0.4131
 3288SOL     OW21325   1.971   1.679   6.631  0.2706  0.3105  0.3731
 3288SOL    HW121326   2.006   1.600   6.673  0.4006  1.3309  2.1614
 3288SOL    HW221327   1.924   1.640   6.557  1.4636 -0.2810 -0.0930
 3289SOL     OW21328   1.844   1.441   3.225 -0.2613  0.1156 -0.0118
 3289SOL    HW121329   1.898   1.516   3.199 -0.1246  0.9866  2.7645
 3289SOL    HW221330   1.863   1.375   3.159  0.2498 -0.3743  0.6239
 3290SOL     OW21331   2.719   4.677  16.723 -0.6270 -0.0796  0.2863
 3290SOL    HW121332   2.800   4.633  16.747  1.4587  2.3281 -2.2949
 3290SOL    HW221333   2.715   0.011  16.797  0.2026  0.1577  0.1403
 3291SOL     OW21334   1.763   3.646   2.985  0.0247  0.2647 -0.8471
 3291SOL    HW121335   1.826   3.589   3.027  0.8987  2.5309  0.8749
 3291SOL    HW221336   1.808   3.723   2.953  0.4989  0.1436 -0.4576
 3292SOL     OW21337   3.517   3.166  11.585  0.6470  0.4235  0.1255
 3292SOL    HW121338   3.588   3.132  11.531  0.4991  0.3382 -0.0145
 3292SOL    HW221339   3.564   3.177  11.668  0.9082 -0.1729  0.0506
 3293SOL     OW21340   3.502   2.266  12.023  0.3261  0.4127 -0.0672
 3293SOL    HW121341   3.419   2.263  12.071  0.5155 -1.4256  0.1304
 3293SOL    HW221342   3.467   2.260  11.935 -1.9955 -2.1287  1.0322
 3294SOL     OW21343   3.397   2.801   7.497  0.1232 -0.4728  0.2658
 3294SOL    HW121344   3.370   2.709   7.504  0.3776 -0.6361 -0.9978
 3294SOL    HW221345   3.344   2.836   7.569  0.6365 -0.7634  0.7820
 3295SOL     OW21346   0.960   1.966   0.303  0.0346  0.2429 -0.5776
 3295SOL    HW121347   0.918   1.898   0.356  2.1644  0.1947  1.0537
 3295SOL    HW221348   0.910   1.945   0.224  0.4784  0.1761 -0.8399
 3296SOL     OW21349   2.560   2.996   8.776 -0.6066 -0.4314  0.7036
 3296SOL    HW121350   2.565   2.992   8.871  1.1454 -0.7626  0.6032
 3296SOL    HW221351   2.638   2.950   8.745  2.1186  2.3744  3.4177
 3297SOL     OW21352   0.513   0.216   9.042  0.2843 -0.2314 -0.4175
 3297SOL    HW121353   0.522   0.120   9.043  0.0715 -0.2166  3.3423
 3297SOL    HW221354   0.604   0.237   9.020  0.5523 -0.7559  0.1915
 3298SOL     OW21355   1.662   2.699   3.898 -0.2670  0.9515  0.3953
 3298SOL    HW121356   1.590   2.758   3.876 -0.5376  0.7954  0.8788
 3298SOL    HW221357   1.735   2.756   3.924 -0.4672  1.3921 -0.0049
 3299SOL     OW21358   1.339   0.043   5.671 -0.3257 -0.4256  0.1467
 3299SOL    HW121359   1.410   0.035   5.735  0.0066  4.1712  0.3575
 3299SOL    HW221360   1.267   0.080   5.722 -2.0488 -2.9835 -0.4251
 3300SOL     OW21361   0.056   1.469   3.384  0.0168  0.0151  0.5774
 3300SOL    HW121362   0.009   1.419   3.452 -0.6608 -0.0634  0.0487
 3300SOL    HW221363   0.002   1.545   3.364  0.1257  0.3386  1.5004
 3301SOL     OW21364   3.397   3.652   0.537 -0.0596  0.1082  0.0371
 3301SOL    HW121365   3.473   3.642   0.594  0.8119  2.1254 -0.7724
 3301SOL    HW221366   3.446   3.685   0.462  0.3464  2.3994  1.3188
 3302SOL     OW21367   3.966   0.272   5.268 -0.2589  0.2159 -0.0035
 3302SOL    HW121368   3.959   0.197   5.327 -0.4571  1.4402  1.5125
 3302SOL    HW221369   4.059   0.294   5.280 -1.1116  3.5537  0.3925
 3303SOL     OW21370   1.373   2.917   4.214 -0.3441 -0.0206  0.7397
 3303SOL    HW121371   1.321   2.959   4.145  2.0260  1.8485  0.0564
 3303SOL    HW221372   1.384   2.986   4.280 -0.7388  0.8267 -0.0837
 3304SOL     OW21373   2.629   4.042   3.775 -0.3072 -0.2506  0.5382
 3304SOL    HW121374   2.581   4.125   3.767 -3.0177 -1.7924  0.8583
 3304SOL    HW221375   2.665   4.047   3.864  0.7751  0.2619  0.0611
 3305SOL     OW21376   3.947   1.877  11.914  0.2105 -0.3060 -0.1274
 3305SOL    HW121377   3.956   1.972  11.908 -2.2276 -0.1421 -0.8989
 3305SOL    HW221378   3.917   1.872  12.005  1.7524  0.6983  0.4281
 3306SOL     OW21379   3.490   3.730   2.691  0.1199  0.3429 -0.0918
 3306SOL    HW121380   3.571   3.780   2.704  0.9548 -1.6091  2.1844
 3306SOL    HW221381   3.507   3.650   2.741  0.0777  0.4912  0.1623
 3307SOL     OW21382   3.773   3.790   3.462 -0.0435 -0.0125  0.4030
 3307SOL    HW121383   3.713   3.865   3.467 -1.9718 -1.6217  1.2253
 3307SOL    HW221384   3.845   3.816   3.519  1.3224 -1.6942 -0.5442
 3308SOL     OW21385   4.326   4.674  14.647 -0.0329 -0.5683  0.2209
 3308SOL    HW121386   4.318   4.647  14.556 -0.3860 -0.2039  0.1465
 3308SOL    HW221387   4.405   0.003  14.641 -0.8716  0.5302 -0.5707
 3309SOL     OW21388   1.234   3.365   5.807 -0.3706  0.8436  0.1580
 3309SOL    HW121389   1.224   3.384   5.714  1.5278  1.3657  0.0534
 3309SOL    HW221390   1.142   3.355   5.831 -0.0994 -0.0563  0.8233
 3310SOL     OW21391   3.788   4.170   8.156  0.0001 -0.5139 -0.2603
 3310SOL    HW121392   3.871   4.215   8.174 -0.2977  0.3150 -1.0052
 3310SOL    HW221393   3.787   4.102   8.223  0.4918  0.5519  0.8334
 3311SOL     OW21394   0.894   2.426   7.400  0.1862  0.3671  0.0464
 3311SOL    HW121395   0.814   2.447   7.448  0.8857 -2.0111  2.2510
 3311SOL    HW221396   0.896   2.330   7.400 -0.4369  0.3530  0.7881
 3312SOL     OW21397   1.048   0.545   2.154 -0.0648 -0.1512 -0.4660
 3312SOL    HW121398   1.098   0.558   2.234  1.0406  0.6137 -1.2610
 3312SOL    HW221399   1.100   0.478   2.110  0.7022  1.5128 -2.1389
 3313SOL     OW21400   4.688   0.189  11.849 -0.0704 -0.0260 -0.0836
 3313SOL    HW121401   4.655   0.278  11.864  1.9260  0.8245 -0.6613
 3313SOL    HW221402   4.617   0.132  11.878 -0.3664 -0.4758 -1.6890
 3314SOL     OW21403   2.592   3.245   0.161 -0.4981  0.4733 -0.2568
 3314SOL    HW121404   2.535   3.319   0.142  1.6015  2.1907  0.1246
 3314SOL    HW221405   2.536   3.178   0.122 -1.3447  0.9777  0.0919
 3315SOL     OW21406   3.775   3.810   1.726 -0.5142  0.0036  0.0230
 3315SOL    HW121407   3.716   3.736   1.712 -2.5034  1.2684  1.5911
 3315SOL    HW221408   3.707   3.869   1.761 -0.7364 -1.0213  1.2876
 3316SOL     OW21409   0.439   3.935   2.787 -0.7989 -0.2507  0.2121
 3316SOL    HW121410   0.508   3.903   2.729  0.7917 -0.1140  2.0230
 3316SOL    HW221411   0.364   3.885   2.754  2.2149 -2.7256 -2.8800
 3317SOL     OW21412   3.797   2.625   3.919  0.0719 -0.5518  0.1054
 3317SOL    HW121413   3.737   2.635   3.992  0.7446 -0.5666  0.6606
 3317SOL    HW221414   3.858   2.555   3.940 -0.1742 -0.8334 -0.1218
 3318SOL     OW21415   3.025   2.898   3.344 -0.6115 -0.2593 -0.3214
 3318SOL    HW121416   2.998   2.909   3.436 -2.2342 -0.2605 -0.7973
 3318SOL    HW221417   2.963   2.955   3.299 -2.6050 -1.9058  0.3261
 3319SOL     OW21418   3.694   0.358   6.796  0.1118  0.6587 -0.0356
 3319SOL    HW121419   3.672   0.265   6.794  1.5345  0.2657  2.1245
 3319SOL    HW221420   3.606   0.395   6.797 -0.2112 -0.1385  0.6935
 3320SOL     OW21421   2.002   1.350   4.492  0.3492 -0.0945 -0.3506
 3320SOL    HW121422   1.913   1.358   4.457 -0.0782  0.1888  0.7915
 3320SOL    HW221423   1.971   1.326   4.580 -0.7293 -0.7354 -0.9076
 3321SOL     OW21424   4.453   3.662   5.414  0.1177  0.2409  0.1387
 3321SOL    HW121425   4.443   3.706   5.499 -4.4785  3.1186 -1.8930
 3321SOL    HW221426   4.530   3.606   5.428  0.0934  0.7040  2.1415
 3322SOL     OW21427   3.456   3.135   7.325 -0.2325 -0.6984  0.6253
 3322SOL    HW121428   3.525   3.071   7.345  2.4668  1.6100 -1.2250
 3322SOL    HW221429   3.430   3.131   7.233  0.9763  0.7863  0.2147
 3323SOL     OW21430   2.882   4.298   2.306  0.3328 -0.2075 -0.3760
 3323SOL    HW121431   2.876   4.385   2.344  1.6894 -0.5732  0.7069
 3323SOL    HW221432   2.915   4.246   2.379  0.9158  3.9435  2.3215
 3324SOL     OW21433   3.334   2.780  11.067  0.1634 -0.4141  0.0099
 3324SOL    HW121434   3.405   2.792  11.130 -0.5252  2.6738  0.2033
 3324SOL    HW221435   3.312   2.866  11.032 -0.8594 -0.8787 -0.4864
 3325SOL     OW21436   2.284   1.807   3.573 -0.5016 -0.3183 -0.0179
 3325SOL    HW121437   2.302   1.861   3.496 -0.7891  0.9872  0.8274
 3325SOL    HW221438   2.372   1.771   3.582 -0.3299  0.1009 -0.0311
 3326SOL     OW21439   2.028   2.613   5.172  0.1815  0.2862 -0.2641
 3326SOL    HW121440   2.086   2.593   5.099 -1.7009  0.0557 -1.7180
 3326SOL    HW221441   2.098   2.618   5.237  1.2728  1.0881 -1.5176
 3327SOL     OW21442   3.403   2.285  16.840  0.4787 -0.0167  0.5678
 3327SOL    HW121443   3.431   2.317  16.926 -0.1929 -1.3324  1.2690
 3327SOL    HW221444   3.390   2.370  16.797  1.3771  0.3155  0.9532
 3328SOL     OW21445   3.563   1.533   3.879  0.0899 -0.1886  0.0133
 3328SOL    HW121446   3.591   1.598   3.944 -0.8491  0.4061 -0.1856
 3328SOL    HW221447   3.482   1.499   3.917 -1.1687  1.4204 -1.2769
 3329SOL     OW21448   1.098   4.707  12.742  0.1312 -0.0146  0.0788
 3329SOL    HW121449   1.125   4.682  12.830 -1.6799  1.1293  0.9587
 3329SOL    HW221450   1.160   4.659  12.688  0.2570  1.2207 -0.8697
 3330SOL     OW21451   4.415   0.674   6.226 -0.1309 -0.8570 -0.1764
 3330SOL    HW121452   4.453   0.696   6.312 -1.2830 -1.0277  0.3695
 3330SOL    HW221453   4.434   0.580   6.220  3.6721  0.0639 -2.4001
 3331SOL     OW21454   2.856   4.113  16.995 -0.1689 -0.4830 -0.1287
 3331SOL    HW121455   2.914   4.121  17.070 -1.3769 -0.6656  0.8249
 3331SOL    HW221456   2.787   4.060  17.035 -0.2965  0.2522  0.6098
 3332SOL     OW21457   1.282   0.548   3.362 -0.8342  0.3005  0.1521
 3332SOL    HW121458   1.354   0.512   3.310 -0.1841 -0.3124  1.4707
 3332SOL    HW221459   1.290   0.642   3.348  3.1797 -0.0100  0.3604
 3333SOL     OW21460   4.332   0.533   6.517 -0.0455  0.2834  0.1593
 3333SOL    HW121461   4.276   0.470   6.473 -2.6063  0.7582  2.7699
 3333SOL    HW221462   4.418   0.493   6.530  0.7634  1.8892 -0.2417
 3334SOL     OW21463   3.814   1.078   9.850 -0.1166 -0.3044  0.1556
 3334SOL    HW121464   3.799   1.058   9.758 -1.0006  1.0296  0.0159
 3334SOL    HW221465   3.839   1.168   9.829 -1.3630 -0.0556 -0.2914
 3335SOL     OW21466   3.064   4.178  15.388 -0.5964  0.4221 -0.7398
 3335SOL    HW121467   3.072   4.091  15.349 -0.7061  0.2400 -0.3485
 3335SOL    HW221468   3.036   4.156  15.477 -0.7808 -2.5647 -1.5522
 3336SOL     OW21469   0.257   0.902  12.316 -0.2957 -0.2297 -0.2157
 3336SOL    HW121470   0.166   0.875  12.311 -1.1323  2.7714 -1.2105
 3336SOL    HW221471   0.283   0.920  12.226 -0.4600 -1.0393 -0.4257
 3337SOL     OW21472   4.644   3.022   6.407 -0.3056  0.0305  0.1208
 3337SOL    HW121473   4.677   3.078   6.337  0.1751  0.4812  0.7011
 3337SOL    HW221474   4.585   2.971   6.352  2.4218 -1.3543 -1.5060
 3338SOL     OW21475   1.815   3.479  16.081 -0.1272 -0.0618 -0.0065
 3338SOL    HW121476   1.789   3.498  15.991 -2.0487  1.8343  0.9426
 3338SOL    HW221477   1.885   3.416  16.063  0.3913  0.5476 -0.1133
 3339SOL     OW21478   1.499   3.036  12.104  0.5477  0.4590 -0.2593
 3339SOL    HW121479   1.556   2.960  12.100 -0.3790 -0.1523 -1.9951
 3339SOL    HW221480   1.424   3.011  12.051  1.9148 -0.1040 -1.9010
 3340SOL     OW21481   3.072   3.262   2.573  0.0965 -0.3767  0.2498
 3340SOL    HW121482   3.046   3.171   2.586  0.6903 -0.6203 -0.2699
 3340SOL    HW221483   3.167   3.261   2.566  0.0843  0.1636 -0.0344
 3341SOL     OW21484   1.489   2.646   2.032  0.0284 -0.4730  0.4510
 3341SOL    HW121485   1.485   2.590   2.109 -1.9758  1.4969  1.7903
 3341SOL    HW221486   1.575   2.615   2.006 -1.3030 -2.8071 -1.2415
 3342SOL     OW21487   1.445   0.426   3.658  0.4551 -0.2246 -0.4728
 3342SOL    HW121488   1.488   0.432   3.743 -0.2485 -1.0866 -0.0506
 3342SOL    HW221489   1.450   0.519   3.639  0.1489 -0.6826 -2.8331
 3343SOL     OW21490   4.573   0.613   7.399  0.3290  0.0594 -0.0452
 3343SOL    HW121491   4.491   0.585   7.440  0.7389  0.0354  0.7486
 3343SOL    HW221492   4.546   0.622   7.308  3.9543 -1.1839 -1.2652
 3344SOL     OW21493   0.633   3.438  15.560  0.6848  0.1697 -0.2045
 3344SOL    HW121494   0.578   3.483  15.624  0.5570  0.5569 -0.5944
 3344SOL    HW221495   0.614   3.476  15.475  1.4166  2.8611  0.8518
 3345SOL     OW21496   3.271   1.374   5.212 -0.4402 -0.2299 -0.0636
 3345SOL    HW121497   3.278   1.345   5.121 -0.8203  4.5006 -1.6264
 3345SOL    HW221498   3.187   1.419   5.202  0.1686  0.8124 -0.6075
 3346SOL     OW21499   0.210   3.493   0.219  0.2017  0.0452 -0.5239
 3346SOL    HW121500   0.247   3.410   0.189 -3.2136 -0.6810 -2.7788
 3346SOL    HW221501   0.117   3.469   0.220 -0.0707  1.0556 -1.8388
 3347SOL     OW21502   1.871   3.720   4.275 -0.5552  0.1951  0.5554
 3347SOL    HW121503   1.809   3.774   4.225 -0.5799 -0.8808 -0.5728
 3347SOL    HW221504   1.881   3.770   4.355  0.0317  0.3820  0.3630
 3348SOL     OW21505   3.796   3.361   1.210 -0.1071 -0.1808  0.2896
 3348SOL    HW121506   3.806   3.272   1.177 -0.8403  0.4334 -1.5554
 3348SOL    HW221507   3.701   3.359   1.217 -0.2881  1.0703 -1.9818
 3349SOL     OW21508   1.371   2.892   8.774 -0.1675  0.0728 -0.0173
 3349SOL    HW121509   1.302   2.925   8.716  0.2001  0.1034 -0.4448
 3349SOL    HW221510   1.431   2.848   8.713 -2.0862 -0.9706 -1.1533
 3350SOL     OW21511   2.965   4.476   3.783  0.4262  0.0751 -0.0759
 3350SOL    HW121512   2.947   4.522   3.701  2.3953 -0.5555 -0.8706
 3350SOL    HW221513   2.999   4.389   3.761  0.1481  0.0340 -0.3310
 3351SOL     OW21514   4.116   0.351   6.410 -0.4146 -0.0198 -0.6280
 3351SOL    HW121515   4.118   0.256   6.397  0.7349  0.4028 -3.4072
 3351SOL    HW221516   4.025   0.357   6.441 -0.7444  0.4606 -1.6939
 3352SOL     OW21517   4.596   1.799  12.704  0.4295  0.4456 -0.5694
 3352SOL    HW121518   4.689   1.822  12.709  0.2009  1.3393 -0.5210
 3352SOL    HW221519   4.590   1.742  12.627 -0.9492  1.2789 -1.0738
 3353SOL     OW21520   4.721   3.000   4.398  0.4318  0.2543  0.1699
 3353SOL    HW121521   4.710   2.905   4.403  1.2770  0.1365 -0.2263
 3353SOL    HW221522   4.672   3.022   4.477 -2.5047  1.0434 -1.8535
 3354SOL     OW21523   1.380   1.525   1.550 -0.5652 -0.8362  1.2153
 3354SOL    HW121524   1.374   1.458   1.618 -2.9249 -0.8656  0.9686
 3354SOL    HW221525   1.299   1.520   1.500 -0.3356 -0.1113  0.7668
 3355SOL     OW21526   4.310   3.434   5.491  0.1606 -1.4821 -0.3870
 3355SOL    HW121527   4.316   3.391   5.406  2.5164 -2.3627  0.2276
 3355SOL    HW221528   4.345   3.518   5.461 -3.3885  0.5434  1.1646
 3356SOL     OW21529   2.447   4.670   4.376 -0.2707 -0.4797  0.7091
 3356SOL    HW121530   2.432   4.678   4.470 -1.0163 -1.5389  0.6821
 3356SOL    HW221531   2.362   4.632   4.351  0.0105 -0.1339 -0.7679
 3357SOL     OW21532   4.437   1.490   7.787 -0.2386  0.1262 -0.0920
 3357SOL    HW121533   4.391   1.481   7.704 -2.6241 -0.3654  1.2680
 3357SOL    HW221534   4.518   1.533   7.762 -0.4256  0.3019 -0.3968
 3358SOL     OW21535   2.213   2.095   4.661  0.6029 -0.1641  0.0906
 3358SOL    HW121536   2.276   2.085   4.732  1.7765 -1.9120 -1.2045
 3358SOL    HW221537   2.198   2.188   4.678  0.2172 -0.2440  0.1976
 3359SOL     OW21538   1.520   3.603   6.361 -0.1176 -0.8670 -0.0406
 3359SOL    HW121539   1.501   3.691   6.330 -1.8151 -0.4770  2.1319
 3359SOL    HW221540   1.473   3.602   6.444 -1.6326  0.5062 -0.9122
 3360SOL     OW21541   1.067   2.635   0.145  0.0622  0.2829 -0.2152
 3360SOL    HW121542   1.055   2.640   0.240 -1.4419 -0.7749 -0.3444
 3360SOL    HW221543   1.093   2.544   0.130  0.4978  0.4310 -0.3640
 3361SOL     OW21544   4.342   1.146   9.050 -0.0950  0.4539  0.4936
 3361SOL    HW121545   4.292   1.184   8.978 -0.6890  1.0397  1.2153
 3361SOL    HW221546   4.302   1.059   9.050 -0.2020  0.5059  1.3103
 3362SOL     OW21547   1.013   1.531  14.169 -0.1461  0.3115 -0.0427
 3362SOL    HW121548   0.951   1.459  14.182  0.5417 -0.3058 -0.1239
 3362SOL    HW221549   0.955   1.587  14.118 -1.4259 -2.9510 -2.2245
 3363SOL     OW21550   2.847   2.611   1.143  0.2449  0.6578 -0.4768
 3363SOL    HW121551   2.812   2.531   1.105 -1.2687  1.0122  0.1908
 3363SOL    HW221552   2.835   2.663   1.064  0.3303  0.6191 -0.5164
 3364SOL     OW21553   2.926   1.768   9.554 -0.5117 -0.0255  0.5096
 3364SOL    HW121554   2.969   1.847   9.587  1.2704 -0.6190 -0.3973
 3364SOL    HW221555   3.000   1.708   9.564  0.3422  1.0972  0.8875
 3365SOL     OW21556   0.584   3.290  12.668 -0.6479  0.7255  0.3009
 3365SOL    HW121557   0.649   3.357  12.646  2.0741 -1.5637  1.3861
 3365SOL    HW221558   0.619   3.251  12.748  0.3456  1.9645  0.4685
 3366SOL     OW21559   2.855   4.030   2.854  0.1509 -0.4389 -0.5863
 3366SOL    HW121560   2.874   4.037   2.948 -0.8990 -0.0374 -0.4027
 3366SOL    HW221561   2.940   3.996   2.828  0.2246 -1.1368  0.5650
 3367SOL     OW21562   0.649   2.903   1.560  0.7449  0.0240 -0.0650
 3367SOL    HW121563   0.667   2.991   1.594  2.8733 -0.4070 -0.0494
 3367SOL    HW221564   0.555   2.911   1.546  0.4638  1.9628  2.7759
 3368SOL     OW21565   3.715   1.607   5.905 -0.0690 -0.2815  0.0249
 3368SOL    HW121566   3.748   1.574   5.821 -1.5088  1.4849 -1.2267
 3368SOL    HW221567   3.674   1.689   5.879  0.6269 -0.3574 -1.3198
 3369SOL     OW21568   1.605   3.565   5.123 -0.2654  0.0217  0.0884
 3369SOL    HW121569   1.544   3.597   5.189 -1.8574  1.2776 -1.9592
 3369SOL    HW221570   1.578   3.611   5.043 -0.4848 -0.3287 -0.0367
 3370SOL     OW21571   1.145   0.010   2.443 -0.2849  0.0174 -0.7141
 3370SOL    HW121572   1.183   4.662   2.395 -1.2871  0.6763 -2.5298
 3370SOL    HW221573   1.082   0.050   2.383 -0.4349  0.2744 -0.3848
 3371SOL     OW21574   0.725   4.079  17.229  0.0481 -0.6864 -0.2901
 3371SOL    HW121575   0.684   4.135  17.295 -0.2289 -1.3689  0.1158
 3371SOL    HW221576   0.659   4.011  17.217  0.2274 -0.9502  0.2268
 3372SOL     OW21577   1.764   1.553   8.454 -0.0958 -1.0170 -0.2001
 3372SOL    HW121578   1.738   1.556   8.546  1.7693  1.1584  0.2507
 3372SOL    HW221579   1.679   1.562   8.410  0.8656 -1.6335 -2.2165
 3373SOL     OW21580   3.839   3.820  16.012  0.5044  0.3311  0.0189
 3373SOL    HW121581   3.807   3.839  15.924  0.8275 -1.0211 -0.3887
 3373SOL    HW221582   3.778   3.874  16.062 -0.6292 -0.2508 -0.7587
 3374SOL     OW21583   1.320   2.250   7.872  0.3910  0.0224  0.0364
 3374SOL    HW121584   1.385   2.186   7.902 -0.8483 -0.4775  1.6631
 3374SOL    HW221585   1.376   2.302   7.814  0.1804 -0.6884 -0.8095
 3375SOL     OW21586   1.315   1.354   3.777 -0.1614 -0.3446 -0.3890
 3375SOL    HW121587   1.360   1.422   3.827 -2.2316 -2.2000  3.9391
 3375SOL    HW221588   1.331   1.280   3.836 -0.4706  0.7581  1.0811
 3376SOL     OW21589   4.692   1.269   1.914  0.4143 -0.7058  0.2229
 3376SOL    HW121590   0.060   1.267   1.899  0.1111  1.0902 -1.9895
 3376SOL    HW221591   4.672   1.349   1.964  0.2073  0.9122 -2.4196
 3377SOL     OW21592   1.852   1.457   5.922  0.2324  0.2475  0.1413
 3377SOL    HW121593   1.943   1.484   5.919  0.3973 -0.1891  1.5386
 3377SOL    HW221594   1.866   1.377   5.972  0.6417 -0.7295 -1.5354
 3378SOL     OW21595   1.472   1.371   1.752 -0.6032  0.5420 -0.1645
 3378SOL    HW121596   1.503   1.364   1.842 -0.7996 -2.3229 -0.3174
 3378SOL    HW221597   1.460   1.277   1.736 -0.8394  0.6834 -0.8551
 3379SOL     OW21598   4.692   1.657   8.067 -0.3638  0.0794  0.1125
 3379SOL    HW121599   4.610   1.626   8.106 -1.8364  0.1368 -2.9067
 3379SOL    HW221600   0.033   1.618   8.123  0.3335 -2.1089 -2.1805
 3380SOL     OW21601   2.646   2.361   5.483  0.3228  0.1154 -0.2506
 3380SOL    HW121602   2.638   2.433   5.546  0.6432  1.5773 -1.8779
 3380SOL    HW221603   2.676   2.290   5.540 -0.4029  0.9682  1.1907
 3381SOL     OW21604   3.314   1.782   7.657 -0.1255  0.0712 -0.3806
 3381SOL    HW121605   3.340   1.700   7.699  0.1704 -0.4876 -1.6382
 3381SOL    HW221606   3.254   1.813   7.725  2.5454  0.8706  1.5926
 3382SOL     OW21607   2.275   0.704   7.945 -0.0650  0.1253  0.3613
 3382SOL    HW121608   2.290   0.691   7.851  0.2730 -0.9007  0.5537
 3382SOL    HW221609   2.309   0.792   7.960 -2.0151  0.8462  0.4923
 3383SOL     OW21610   2.534   3.568   5.451 -0.3105  0.1269  0.6346
 3383SOL    HW121611   2.615   3.612   5.478 -0.2600 -0.7994  2.0309
 3383SOL    HW221612   2.533   3.503   5.521  0.8697  1.0953  1.5587
 3384SOL     OW21613   2.694   3.188  14.779  0.4050  0.0623 -0.0383
 3384SOL    HW121614   2.774   3.240  14.781 -1.1440  2.4377  0.1506
 3384SOL    HW221615   2.688   3.163  14.687 -1.3697  2.7564 -0.6740
 3385SOL     OW21616   3.375   4.005   0.158  0.0472 -0.2288  0.2142
 3385SOL    HW121617   3.409   3.969   0.077  1.2707 -2.6785  1.8039
 3385SOL    HW221618   3.425   4.086   0.161  1.2360 -0.8962 -1.9936
 3386SOL     OW21619   0.334   4.566   8.059 -0.2877 -0.0412 -0.4443
 3386SOL    HW121620   0.358   4.507   8.131 -0.8188 -0.1187 -0.3305
 3386SOL    HW221621   0.418   4.601   8.030  0.0079 -2.4434 -2.4540
 3387SOL     OW21622   1.023   4.469   7.888 -0.3178  0.1360 -0.5105
 3387SOL    HW121623   1.056   4.504   7.806 -2.7708  0.1512 -1.4857
 3387SOL    HW221624   1.014   4.376   7.870 -0.4034  0.5964 -2.7941
 3388SOL     OW21625   1.016   1.461   5.379 -0.0362 -0.2183 -1.2390
 3388SOL    HW121626   1.044   1.519   5.308  2.9988  1.7206  1.5309
 3388SOL    HW221627   1.086   1.476   5.442 -1.2851  0.1068  0.0764
 3389SOL     OW21628   1.832   1.098  17.416 -0.5293  0.0501  0.3250
 3389SOL    HW121629   1.882   1.019  17.434 -1.5392 -0.8804 -0.9403
 3389SOL    HW221630   1.776   1.074  17.342 -1.1884  1.0192  0.5075
 3390SOL     OW21631   0.906   1.792  14.490  0.2197  0.4598 -0.0940
 3390SOL    HW121632   0.859   1.810  14.572  0.2562 -1.9610  0.4643
 3390SOL    HW221633   0.996   1.788  14.522 -0.4472 -0.6555  1.6464
 3391SOL     OW21634   0.586   3.020   3.317 -0.8728 -0.4113  0.7641
 3391SOL    HW121635   0.502   3.018   3.273 -0.0616  1.5790 -0.8235
 3391SOL    HW221636   0.612   2.928   3.307  1.7986  0.3680  0.5511
 3392SOL     OW21637   2.011   2.436   5.659 -0.2416 -0.1376  0.4754
 3392SOL    HW121638   2.073   2.384   5.711 -1.3600  1.3091  3.2240
 3392SOL    HW221639   2.010   2.403   5.569 -2.8075 -0.0197  0.4799
 3393SOL     OW21640   0.022   4.019  11.537  0.0240 -0.0692  0.3418
 3393SOL    HW121641   0.118   4.017  11.546 -0.2535 -2.3644  2.5818
 3393SOL    HW221642   4.726   3.938  11.583 -1.4997 -0.9100 -1.8693
 3394SOL     OW21643   3.936   2.365   2.211 -0.0164  0.1881  0.5582
 3394SOL    HW121644   3.966   2.275   2.224  0.7676  0.1315 -1.7203
 3394SOL    HW221645   3.910   2.361   2.119  0.0346 -0.0676  0.5563
 3395SOL     OW21646   0.818   2.505   4.264 -0.0429  0.6873 -0.7778
 3395SOL    HW121647   0.892   2.475   4.316 -0.8374 -0.2081 -0.1456
 3395SOL    HW221648   0.870   2.566   4.212 -1.1601  1.7873 -0.5975
 3396SOL     OW21649   0.877   2.196   5.781  0.3603  0.3958 -0.4314
 3396SOL    HW121650   0.906   2.213   5.691 -0.3092 -0.2704 -0.7743
 3396SOL    HW221651   0.842   2.281   5.808 -0.2040  0.2151 -0.5893
 3397SOL     OW21652   0.520   2.440   6.352 -0.3833  0.0897  0.3307
 3397SOL    HW121653   0.570   2.362   6.376  1.5120  0.4927 -2.3607
 3397SOL    HW221654   0.591   2.500   6.330 -1.3763  1.6785  1.4913
 3398SOL     OW21655   2.320   4.138  12.289 -0.2079  0.3007 -0.7770
 3398SOL    HW121656   2.251   4.112  12.229 -0.3717 -2.2240  0.5157
 3398SOL    HW221657   2.361   4.202  12.231 -0.3644 -0.5521 -1.8086
 3399SOL     OW21658   3.328   2.320   5.498  0.2128 -0.3933 -0.1366
 3399SOL    HW121659   3.265   2.312   5.569  2.6503 -1.4805  1.9131
 3399SOL    HW221660   3.376   2.401   5.515 -0.7013  0.1709 -0.2739
 3400SOL     OW21661   3.028   3.752   7.864  0.4376 -0.0207  0.3572
 3400SOL    HW121662   3.005   3.778   7.775  1.9471  0.5205  0.1209
 3400SOL    HW221663   3.119   3.779   7.877  0.7167 -1.1454  0.8168
 3401SOL     OW21664   0.941   4.050  14.518 -0.0354 -0.2224  0.1601
 3401SOL    HW121665   0.858   4.081  14.555 -0.3434 -2.3802  1.3067
 3401SOL    HW221666   0.980   4.135  14.501  1.5576 -1.0817 -0.4817
 3402SOL     OW21667   2.012   4.331   9.514 -0.6060 -0.0381  0.2604
 3402SOL    HW121668   2.001   4.324   9.419  2.6958  1.5092 -0.2586
 3402SOL    HW221669   2.068   4.409   9.520 -2.0911  1.1975 -1.9527
 3403SOL     OW21670   4.349   0.499   7.483 -0.1701  0.1818 -0.5212
 3403SOL    HW121671   4.286   0.463   7.421  0.6428 -0.2695 -1.0756
 3403SOL    HW221672   4.294   0.567   7.522 -0.3084 -0.7416  0.9066
 3404SOL     OW21673   0.831   2.438   2.186  0.8826  0.5812  0.1301
 3404SOL    HW121674   0.780   2.468   2.111 -0.0045 -2.3928 -0.4584
 3404SOL    HW221675   0.813   2.516   2.239 -2.5602 -0.0537 -0.1014
 3405SOL     OW21676   4.064   1.870   3.374 -0.2172  0.5658  0.1643
 3405SOL    HW121677   4.104   1.957   3.364 -0.1033  0.5665  0.5957
 3405SOL    HW221678   3.974   1.887   3.399 -0.6272 -1.0308 -0.2391
 3406SOL     OW21679   1.348   1.121   7.508  0.3882  0.3631 -0.0809
 3406SOL    HW121680   1.392   1.192   7.554  0.6807 -0.5340  1.0303
 3406SOL    HW221681   1.300   1.072   7.574  0.5919  0.8508  0.4267
 3407SOL     OW21682   0.129   3.991  16.293 -0.4865 -0.2657 -0.0105
 3407SOL    HW121683   0.060   4.041  16.248 -0.5427 -0.8351 -0.5686
 3407SOL    HW221684   0.134   4.040  16.375 -0.5580  0.3271 -0.3594
 3408SOL     OW21685   4.575   1.251   1.669  0.0858  0.3088  0.1390
 3408SOL    HW121686   4.610   1.235   1.756  0.7248  1.7439  0.1521
 3408SOL    HW221687   4.482   1.245   1.691 -0.0829 -1.4553 -1.0345
 3409SOL     OW21688   2.697   1.324   5.585 -0.0407  0.2927 -0.2045
 3409SOL    HW121689   2.775   1.326   5.529  1.7018  0.3855  2.2617
 3409SOL    HW221690   2.649   1.252   5.544  0.8205  0.6435 -1.8678
 3410SOL     OW21691   0.342   3.686  15.925  0.1602 -0.3436  0.0738
 3410SOL    HW121692   0.343   3.733  16.009 -2.5312 -0.5852  0.2336
 3410SOL    HW221693   0.263   3.723  15.886 -1.1595 -3.6381 -0.3680
 3411SOL     OW21694   2.658   3.880   8.572  0.2432  0.3535 -0.4287
 3411SOL    HW121695   2.579   3.828   8.584  1.4425 -1.5067 -0.6196
 3411SOL    HW221696   2.658   3.944   8.643 -1.8394  0.7168 -0.7599
 3412SOL     OW21697   0.735   1.873   4.818 -0.5414  0.0562  0.1273
 3412SOL    HW121698   0.663   1.910   4.869 -0.8715 -0.1520 -0.1866
 3412SOL    HW221699   0.807   1.935   4.827 -1.3542  0.8356  1.2145
 3413SOL     OW21700   2.179   0.129  16.580  0.5119  0.0019  0.1652
 3413SOL    HW121701   2.231   0.056  16.614  1.7024  0.8117  0.0984
 3413SOL    HW221702   2.160   0.100  16.491  0.4577 -2.9968  1.1463
 3414SOL     OW21703   0.537   3.084  14.322  0.7197  0.3083 -0.0316
 3414SOL    HW121704   0.615   3.095  14.269  2.2129  0.7677  2.2651
 3414SOL    HW221705   0.562   3.103  14.413  2.1507  1.3475 -0.6559
 3415SOL     OW21706   1.116   4.630   7.287  0.0182 -0.7385  0.1317
 3415SOL    HW121707   1.116   4.573   7.364  0.0118 -0.3719  0.4014
 3415SOL    HW221708   1.120   4.567   7.215  0.7240 -3.6955  2.7580
 3416SOL     OW21709   1.291   4.367  16.448 -0.1937 -0.2786  0.3539
 3416SOL    HW121710   1.365   4.318  16.484 -1.1422 -1.8658  0.1269
 3416SOL    HW221711   1.275   4.432  16.516  0.3968 -0.2680  0.4848
 3417SOL     OW21712   4.644   0.992   0.329 -0.1859  0.2191  0.1879
 3417SOL    HW121713   4.697   0.920   0.364 -0.6343 -1.0523 -1.6895
 3417SOL    HW221714   4.718   1.052   0.331 -0.4781  0.4893  2.5815
 3418SOL     OW21715   0.335   0.576   5.355  0.1609  0.7771  0.3495
 3418SOL    HW121716   0.279   0.631   5.300  0.9304 -1.0222 -2.1850
 3418SOL    HW221717   0.420   0.588   5.313  0.3806  1.0740  0.8691
 3419SOL     OW21718   2.075   0.353   1.524 -0.2341 -0.1895 -0.0160
 3419SOL    HW121719   2.067   0.418   1.594 -2.3194  0.0400 -0.4642
 3419SOL    HW221720   2.099   0.280   1.582  0.6934  1.2498  1.4144
 3420SOL     OW21721   0.650   4.523   3.993  0.3112 -0.5442 -0.1678
 3420SOL    HW121722   0.633   4.564   4.079 -0.2759  1.5513 -1.2719
 3420SOL    HW221723   0.627   4.597   3.937  0.8758 -1.1585 -1.2083
 3421SOL     OW21724   0.907   3.773   7.099  0.3005  0.0339 -0.1875
 3421SOL    HW121725   0.942   3.775   7.010  0.9983  1.0306  0.1015
 3421SOL    HW221726   0.852   3.851   7.088  0.7955  0.3155 -0.6981
 3422SOL     OW21727   2.505   2.617  12.141 -0.4574 -0.4802  0.5524
 3422SOL    HW121728   2.537   2.575  12.221  0.5147  2.0057  1.4637
 3422SOL    HW221729   2.410   2.622  12.157 -0.3064  2.0482  0.7471
 3423SOL     OW21730   3.396   1.754  16.880 -0.6877  0.2200  0.1689
 3423SOL    HW121731   3.419   1.719  16.794 -1.0227  1.8305 -0.5575
 3423SOL    HW221732   3.374   1.843  16.856  1.7795  1.1366  1.2881
 3424SOL     OW21733   3.168   2.996   3.629 -0.2709  0.2378 -0.2674
 3424SOL    HW121734   3.187   3.089   3.635 -1.7105  0.4856  0.3057
 3424SOL    HW221735   3.181   2.980   3.535  1.2656  2.5007 -0.4454
 3425SOL     OW21736   0.910   2.835  12.103  0.0144  0.0501  0.4563
 3425SOL    HW121737   0.845   2.826  12.172 -1.6570 -0.9086 -1.2157
 3425SOL    HW221738   0.901   2.927  12.078  0.6568 -0.0739 -0.2602
 3426SOL     OW21739   3.440   0.150   2.296  0.5751 -0.5458  0.2914
 3426SOL    HW121740   3.431   0.193   2.211 -1.9366 -0.9390  0.3494
 3426SOL    HW221741   3.463   0.223   2.353  2.6405 -0.2550 -0.8872
 3427SOL     OW21742   3.713   2.065  12.021  0.0078 -0.5031  0.1858
 3427SOL    HW121743   3.642   2.128  12.007  0.4510 -0.2249 -0.8116
 3427SOL    HW221744   3.738   2.058  11.929  2.1850  0.4578  0.7092
 3428SOL     OW21745   3.821   3.881  13.177 -0.1532  0.8016  0.0782
 3428SOL    HW121746   3.834   3.860  13.270 -1.8786 -0.2356  0.0890
 3428SOL    HW221747   3.827   3.976  13.180  0.4658  0.7931 -0.9830
 3429SOL     OW21748   1.762   2.514   3.396  0.1574 -0.3103  0.2507
 3429SOL    HW121749   1.695   2.552   3.339  0.1352  0.3347  0.7135
 3429SOL    HW221750   1.736   2.559   3.476 -0.2452  0.9467 -0.5935
 3430SOL     OW21751   3.813   3.051  14.492  0.2405 -0.3466 -0.2549
 3430SOL    HW121752   3.870   3.022  14.421  2.1119 -0.6723  1.3950
 3430SOL    HW221753   3.854   3.134  14.517  1.4655 -0.7800 -0.8406
 3431SOL     OW21754   0.288   4.494   1.871 -0.4746  0.0229 -0.4602
 3431SOL    HW121755   0.273   4.522   1.962  1.0618 -0.4086 -0.0821
 3431SOL    HW221756   0.321   4.405   1.872  1.2423  0.6663 -0.4076
 3432SOL     OW21757   2.151   0.403  11.950 -1.1061 -0.6868  0.5523
 3432SOL    HW121758   2.063   0.387  11.918 -0.8526 -1.4742  0.2448
 3432SOL    HW221759   2.141   0.347  12.027  1.1424  0.1275  1.4386
 3433SOL     OW21760   4.630   1.758  13.066 -0.5378 -0.3733 -0.4420
 3433SOL    HW121761   4.559   1.773  13.003 -1.8347 -3.7537  0.1710
 3433SOL    HW221762   4.577   1.711  13.130 -0.8232  1.7889  0.8824
 3434SOL     OW21763   4.703   4.286   2.551 -0.0032 -0.8204  0.5349
 3434SOL    HW121764   0.036   4.212   2.549  0.0251 -0.7386 -1.9047
 3434SOL    HW221765   4.665   4.249   2.631 -2.0317  0.1252  0.0056
 3435SOL     OW21766   4.623   3.382   6.398  0.0841 -0.1300  0.3976
 3435SOL    HW121767   4.535   3.403   6.430  0.0582 -2.3039  1.7753
 3435SOL    HW221768   4.662   3.369   6.484  1.3410 -0.0808 -0.1620
 3436SOL     OW21769   2.496   3.460   6.411 -0.5152  0.2594 -0.5815
 3436SOL    HW121770   2.554   3.423   6.477 -1.7420  0.3259  0.5254
 3436SOL    HW221771   2.428   3.394   6.401  0.0005 -0.5174  1.0892
 3437SOL     OW21772   1.602   1.562   0.958  0.2835  0.1423 -0.2050
 3437SOL    HW121773   1.512   1.534   0.941  0.2819 -1.0982  1.7860
 3437SOL    HW221774   1.655   1.486   0.931  0.6165  0.6633 -0.9982
 3438SOL     OW21775   1.325   4.010   8.345  0.2106  0.0545 -0.3735
 3438SOL    HW121776   1.273   4.027   8.267 -1.1534 -0.2382  0.4739
 3438SOL    HW221777   1.414   3.994   8.315  0.4567  0.3149  0.2096
 3439SOL     OW21778   4.440   2.712  17.404 -0.5307  0.0324  0.7584
 3439SOL    HW121779   4.445   2.640  17.467  1.1918  0.8415  1.5756
 3439SOL    HW221780   4.367   2.689  17.347 -0.7596  1.7374  0.3604
 3440SOL     OW21781   2.503   3.332   8.790 -0.1001  0.4507 -0.5491
 3440SOL    HW121782   2.427   3.346   8.845  0.1219 -0.1214 -0.1002
 3440SOL    HW221783   2.578   3.327   8.849 -1.6555 -0.7636  1.3158
 3441SOL     OW21784   2.444   2.463   7.887  0.3744  0.3390 -0.3109
 3441SOL    HW121785   2.504   2.538   7.882 -0.4637  0.9671 -1.0261
 3441SOL    HW221786   2.364   2.507   7.859 -0.2254  0.5999  1.8565
 3442SOL     OW21787   0.137   2.854   2.295 -0.1494 -0.2052  0.3526
 3442SOL    HW121788   0.068   2.897   2.245 -1.7435 -1.5573  1.4072
 3442SOL    HW221789   0.092   2.782   2.337 -1.1753  0.7379  0.8624
 3443SOL     OW21790   1.481   3.844  14.286  0.3895 -0.0604  0.3107
 3443SOL    HW121791   1.558   3.817  14.235  0.2610 -2.6274  1.4635
 3443SOL    HW221792   1.461   3.768  14.341  0.2176  0.6293  1.1861
 3444SOL     OW21793   1.311   4.130   8.726 -0.0072  0.8097 -0.2352
 3444SOL    HW121794   1.362   4.210   8.713  0.4234  0.7885  1.3255
 3444SOL    HW221795   1.380   4.077   8.765  0.3859  1.2116 -0.3752
 3445SOL     OW21796   2.915   0.339   2.264  0.2376  0.0652 -0.2929
 3445SOL    HW121797   2.907   0.247   2.240  1.6211 -0.2729  0.4927
 3445SOL    HW221798   2.955   0.373   2.184 -0.4920  0.8483 -0.3201
 3446SOL     OW21799   1.625   3.169  16.344  0.0106  0.6442  0.3073
 3446SOL    HW121800   1.655   3.173  16.254  0.2799 -1.4405  0.2915
 3446SOL    HW221801   1.696   3.128  16.393 -0.1159 -0.3371 -0.3285
 3447SOL     OW21802   1.390   1.166   6.313 -0.4134  0.5253  0.4562
 3447SOL    HW121803   1.376   1.108   6.238  0.2531  0.7344  0.1750
 3447SOL    HW221804   1.441   1.239   6.279  0.1343 -0.3023 -0.5028
 3448SOL     OW21805   1.306   2.468  15.650 -0.2898 -0.2979 -0.2390
 3448SOL    HW121806   1.314   2.443  15.742  1.4816 -2.4985 -1.0166
 3448SOL    HW221807   1.217   2.438  15.633 -0.3619  0.8327 -1.8486
 3449SOL     OW21808   4.618   2.735   5.148 -0.3375  0.4357  0.1661
 3449SOL    HW121809   4.621   2.666   5.214 -0.8447  0.4872  0.2423
 3449SOL    HW221810   4.689   2.792   5.176  0.0913 -1.3077  2.6553
 3450SOL     OW21811   2.929   4.569   4.427 -0.6588 -0.3070 -0.3546
 3450SOL    HW121812   2.841   4.565   4.389 -0.2537 -0.4842 -1.2747
 3450SOL    HW221813   2.981   4.553   4.349  0.4539 -2.1460  0.7694
 3451SOL     OW21814   3.860   3.587  16.893 -0.5350  0.2163  0.7165
 3451SOL    HW121815   3.838   3.556  16.980  1.1320  0.3255  1.1656
 3451SOL    HW221816   3.946   3.546  16.883 -0.5397  0.2052  0.7230
 3452SOL     OW21817   1.787   4.626  14.708 -0.2974 -0.4226  0.0917
 3452SOL    HW121818   1.806   4.686  14.635  2.2520 -0.7444  0.4962
 3452SOL    HW221819   1.857   4.645  14.771  0.6430  1.4779 -1.5227
 3453SOL     OW21820   0.590   3.180   3.580 -0.3009  0.7281 -0.3714
 3453SOL    HW121821   0.615   3.090   3.559  2.6317  0.9696  2.0364
 3453SOL    HW221822   0.512   3.174   3.526 -0.3480 -1.9498 -0.0181
 3454SOL     OW21823   3.395   1.302  10.932  0.1642  0.1826 -0.2618
 3454SOL    HW121824   3.378   1.394  10.953 -1.3765 -0.5044  1.5628
 3454SOL    HW221825   3.371   1.282  11.023  0.2571 -0.6323 -0.4121
 3455SOL     OW21826   1.126   0.781   5.020  0.1429 -0.0040 -0.1520
 3455SOL    HW121827   1.038   0.755   4.991  1.2858 -1.7711 -2.1523
 3455SOL    HW221828   1.126   0.876   5.026 -1.2943  0.0236 -0.6600
 3456SOL     OW21829   4.304   3.870  14.753 -0.4579 -0.1447 -0.5247
 3456SOL    HW121830   4.319   3.930  14.680  2.0407  2.9299  2.4817
 3456SOL    HW221831   4.383   3.891  14.803 -1.6759  0.0324  1.3219
 3457SOL     OW21832   0.931   4.130   8.917 -0.6453  0.2087 -0.3880
 3457SOL    HW121833   1.001   4.161   8.974 -0.2550  1.2579 -1.4395
 3457SOL    HW221834   0.968   4.042   8.910  1.7160  1.1783 -0.0077
 3458SOL     OW21835   3.589   1.055   0.498 -0.0173 -0.1733 -0.2337
 3458SOL    HW121836   3.652   0.984   0.514  0.0398 -0.4682 -1.8163
 3458SOL    HW221837   3.596   1.063   0.403 -0.8301  2.8867 -0.0318
 3459SOL     OW21838   0.705   2.803   0.208 -0.5396  0.0490  0.1210
 3459SOL    HW121839   0.753   2.885   0.220  1.2098 -0.8190 -0.9872
 3459SOL    HW221840   0.640   2.807   0.278 -1.8753  0.6655 -1.1620
 3460SOL     OW21841   2.149   3.506   6.294 -0.3661 -0.1912 -0.3765
 3460SOL    HW121842   2.068   3.477   6.254 -0.4344  0.1031 -0.4562
 3460SOL    HW221843   2.114   3.499   6.382  1.0810 -1.7702  0.0629
 3461SOL     OW21844   4.390   0.326  13.115 -0.0085  0.1012  0.0873
 3461SOL    HW121845   4.393   0.333  13.211 -3.1206  0.4922  0.1660
 3461SOL    HW221846   4.393   0.419  13.094  0.7046  0.0375 -0.0638
 3462SOL     OW21847   2.343   3.696  16.440  0.6548  0.0297 -0.0962
 3462SOL    HW121848   2.424   3.745  16.426  1.8566 -2.4762 -1.9945
 3462SOL    HW221849   2.298   3.717  16.358 -1.2032  1.2538  1.2296
 3463SOL     OW21850   3.224   2.631   5.477 -0.2564  0.3017 -0.6053
 3463SOL    HW121851   3.172   2.709   5.496 -0.8587  0.3221 -2.3659
 3463SOL    HW221852   3.303   2.668   5.438 -1.0430  0.4126 -2.0918
 3464SOL     OW21853   3.883   0.096   2.184 -0.2920  0.0687  0.0402
 3464SOL    HW121854   3.921   0.085   2.271 -2.7753 -1.4939  0.9277
 3464SOL    HW221855   3.860   0.005   2.165 -0.2903 -0.1291  0.9841
 3465SOL     OW21856   3.944   2.346   1.758 -0.0204 -0.4738 -0.3165
 3465SOL    HW121857   4.036   2.373   1.768  0.3416 -1.3107 -1.2898
 3465SOL    HW221858   3.926   2.375   1.668 -0.1289 -1.3163 -0.5653
 3466SOL     OW21859   2.499   3.474   5.703 -0.5967  0.2078  0.4852
 3466SOL    HW121860   2.405   3.459   5.692 -0.9222  1.7230  1.2280
 3466SOL    HW221861   2.505   3.531   5.779 -1.1921 -1.4724  1.7871
 3467SOL     OW21862   1.667   1.954   6.038  0.0248 -0.0064 -0.7632
 3467SOL    HW121863   1.622   2.039   6.042  0.0544 -0.0784  1.0133
 3467SOL    HW221864   1.626   1.915   5.961 -1.4174 -0.4194  0.2021
 3468SOL     OW21865   2.115   3.410   1.919  0.2263 -0.0224  0.4627
 3468SOL    HW121866   2.130   3.343   1.852 -2.1299 -1.1549  1.0583
 3468SOL    HW221867   2.079   3.480   1.865 -0.6994 -2.3620 -1.9466
 3469SOL     OW21868   0.602   3.210   7.473 -0.4243  0.0867  0.4702
 3469SOL    HW121869   0.602   3.290   7.420 -1.3322  0.2577  0.7260
 3469SOL    HW221870   0.605   3.150   7.399  0.2244  0.9990 -0.2453
 3470SOL     OW21871   3.792   3.349   2.884 -0.2592 -0.3877 -0.2816
 3470SOL    HW121872   3.837   3.314   2.807  2.5333 -1.3316  1.7799
 3470SOL    HW221873   3.760   3.265   2.916 -2.7735  1.0451  1.0316
 3471SOL     OW21874   3.095   2.434  17.496  0.2220  0.4665 -0.3357
 3471SOL    HW121875   3.172   2.481  17.463  0.5390  0.1813  0.0023
 3471SOL    HW221876   3.116   2.406  17.585 -0.2912  1.2384  0.0250
 3472SOL     OW21877   1.802   0.298   3.767  0.3444 -0.5156 -0.2598
 3472SOL    HW121878   1.733   0.355   3.799  3.1317  1.6705  1.8898
 3472SOL    HW221879   1.871   0.300   3.834  0.7187 -1.5238 -0.6052
 3473SOL     OW21880   2.126   0.743   9.251 -0.6550 -0.2379 -0.7992
 3473SOL    HW121881   2.203   0.792   9.280 -1.3356 -0.4019  1.2389
 3473SOL    HW221882   2.166   0.658   9.236 -0.1611  0.1456 -1.6834
 3474SOL     OW21883   1.581   3.159   1.896 -0.0182 -0.1057 -0.0586
 3474SOL    HW121884   1.543   3.122   1.975 -0.8149 -1.4238 -1.0648
 3474SOL    HW221885   1.595   3.080   1.843 -0.2911 -0.3250  0.1979
 3475SOL     OW21886   3.481   1.868   4.755 -0.4335  0.3306  0.3114
 3475SOL    HW121887   3.454   1.914   4.835  1.6914  0.3543  1.0319
 3475SOL    HW221888   3.540   1.803   4.795 -1.3253 -0.3040  0.5896
 3476SOL     OW21889   3.992   1.836  13.657 -0.4620  0.1852  0.4996
 3476SOL    HW121890   3.941   1.842  13.738  0.9290  1.0568  1.3130
 3476SOL    HW221891   4.031   1.923  13.661  0.4692 -0.1829 -0.8387
 3477SOL     OW21892   3.641   0.166   7.115  0.7427 -0.2216  0.2139
 3477SOL    HW121893   3.570   0.166   7.052 -0.0407 -0.5402  1.0907
 3477SOL    HW221894   3.648   0.072   7.132  1.0841 -0.6265 -2.1644
 3478SOL     OW21895   3.870   2.949   4.565  0.2873 -0.4942  0.9094
 3478SOL    HW121896   3.808   3.021   4.579  0.4679 -0.4849  1.6515
 3478SOL    HW221897   3.853   2.924   4.474 -0.7595 -1.4338  1.3638
 3479SOL     OW21898   1.091   4.441  14.220 -0.1173  0.4118 -0.1229
 3479SOL    HW121899   1.180   4.426  14.189 -1.1015 -1.2003 -2.1945
 3479SOL    HW221900   1.100   4.536  14.221  1.7937  0.2317 -0.7825
 3480SOL     OW21901   3.065   0.562  15.952  0.2648 -0.1640  0.4324
 3480SOL    HW121902   3.075   0.599  16.040 -1.3278 -1.5132  1.2063
 3480SOL    HW221903   3.091   0.633  15.894  0.4010 -1.0084 -0.5262
 3481SOL     OW21904   1.349   2.307   2.995 -0.0792  0.4450  0.0504
 3481SOL    HW121905   1.385   2.234   3.046  2.5110  0.3682 -1.8767
 3481SOL    HW221906   1.260   2.317   3.028  0.5103 -1.9588  2.4252
 3482SOL     OW21907   1.128   2.309   3.141  0.2450  0.4002  0.3482
 3482SOL    HW121908   1.070   2.269   3.076 -1.1070  0.8759  1.2698
 3482SOL    HW221909   1.114   2.254   3.218 -1.9282  1.9877  1.1015
 3483SOL     OW21910   0.212   0.825   9.898  1.0595 -0.0506 -0.2373
 3483SOL    HW121911   0.142   0.872   9.943  0.8135  0.2899 -0.9679
 3483SOL    HW221912   0.182   0.734   9.898  1.6615 -0.2581  0.8039
 3484SOL     OW21913   3.950   4.710   9.112 -0.3508  0.1723  0.3674
 3484SOL    HW121914   4.000   0.065   9.103  0.6007 -0.6781 -1.9941
 3484SOL    HW221915   3.907   4.697   9.028 -1.1327  2.2248  0.4504
 3485SOL     OW21916   0.328   4.241   1.918  0.2992  0.1573  0.0456
 3485SOL    HW121917   0.398   4.201   1.970 -1.1347 -1.8601  0.4649
 3485SOL    HW221918   0.290   4.164   1.875 -3.6357  1.4536  1.2071
 3486SOL     OW21919   0.418   1.616   8.066  0.0918 -0.1212 -0.4212
 3486SOL    HW121920   0.497   1.654   8.105  0.7809 -1.1937 -0.8041
 3486SOL    HW221921   0.440   1.526   8.090  1.4159 -0.0030 -1.1658
 3487SOL     OW21922   4.523   1.696   8.663 -0.0768  0.3054  0.4224
 3487SOL    HW121923   4.543   1.776   8.614  0.0662 -0.5284 -0.8879
 3487SOL    HW221924   4.566   1.635   8.602 -1.1547 -0.9467  0.9302
 3488SOL     OW21925   2.716   3.727   4.308  0.1252  0.0422 -0.4073
 3488SOL    HW121926   2.789   3.691   4.259  1.2403  1.7324  0.0329
 3488SOL    HW221927   2.693   3.805   4.258  1.8284  1.1404  0.5313
 3489SOL     OW21928   0.780   3.100   3.904  0.2685  0.1993  0.2470
 3489SOL    HW121929   0.708   3.040   3.925  0.1586  1.2551  2.7849
 3489SOL    HW221930   0.837   3.047   3.849  0.7046 -2.2093  3.0727
 3490SOL     OW21931   4.142   1.362   7.321  0.0665 -0.2211 -0.2649
 3490SOL    HW121932   4.081   1.351   7.393 -1.3631  0.2667 -1.4015
 3490SOL    HW221933   4.084   1.368   7.245 -1.2721 -1.5602  0.6608
 3491SOL     OW21934   0.037   3.121  11.484 -0.1150 -0.0100 -0.5732
 3491SOL    HW121935   4.702   3.048  11.485  2.0231 -1.7897 -0.3449
 3491SOL    HW221936   0.122   3.077  11.489  0.6195  1.3929 -0.5721
 3492SOL     OW21937   4.065   3.448   0.430 -0.5219 -0.1388 -0.1199
 3492SOL    HW121938   3.995   3.452   0.495  0.8124  1.3394  1.2244
 3492SOL    HW221939   4.091   3.356   0.427  1.2206  0.3084  1.4536
 3493SOL     OW21940   2.428   4.309  12.108  0.4431  0.0366  0.1932
 3493SOL    HW121941   2.494   4.248  12.076 -2.0186 -2.1629 -0.7389
 3493SOL    HW221942   2.404   4.347  12.024  3.3207 -1.0566 -1.1190
 3494SOL     OW21943   0.825   4.159  12.850  0.2890  0.8233 -0.6902
 3494SOL    HW121944   0.862   4.247  12.839 -0.1641  1.1415  0.2870
 3494SOL    HW221945   0.750   4.173  12.908  1.1623  1.5239  0.2650
 3495SOL     OW21946   2.087   2.037  12.791  0.1298 -0.6970  0.3927
 3495SOL    HW121947   2.151   2.102  12.821  0.4142 -0.9023  0.2400
 3495SOL    HW221948   2.006   2.065  12.833 -1.8221 -2.8648 -1.9373
 3496SOL     OW21949   4.104   2.142   4.585 -0.2968 -0.5055 -0.0363
 3496SOL    HW121950   4.010   2.136   4.568 -0.4452  0.5695  0.3733
 3496SOL    HW221951   4.105   2.136   4.681 -1.5301  0.4721  0.0337
 3497SOL     OW21952   4.459   2.795   9.272  0.3483 -0.4414 -0.4263
 3497SOL    HW121953   4.459   2.705   9.241  1.1320 -0.4742 -0.3454
 3497SOL    HW221954   4.405   2.792   9.351  0.9067 -1.3918 -0.0773
 3498SOL     OW21955   0.906   2.426  14.903  0.8904  0.5503 -0.3268
 3498SOL    HW121956   0.816   2.403  14.926  0.7320  0.8516 -0.6582
 3498SOL    HW221957   0.893   2.501  14.845  3.2899  0.2175 -1.2833
 3499SOL     OW21958   2.136   3.458   1.017 -0.0401 -0.3587  0.0698
 3499SOL    HW121959   2.154   3.454   0.923  3.3193 -0.9665  0.7045
 3499SOL    HW221960   2.226   3.436   1.042  0.5093  1.5934 -0.2529
 3500SOL     OW21961   2.826   3.346   2.505  0.3786 -0.8946 -0.2367
 3500SOL    HW121962   2.905   3.319   2.552 -1.0345 -1.4517  1.7937
 3500SOL    HW221963   2.786   3.259   2.504  0.5902 -0.9901 -0.6811
 3501SOL     OW21964   2.022   2.542   4.096 -0.3292  0.0418  0.0034
 3501SOL    HW121965   2.048   2.475   4.159 -2.1749 -0.1538  0.5405
 3501SOL    HW221966   2.090   2.609   4.111 -3.1897  2.9556 -0.0238
 3502SOL     OW21967   0.912   0.734   7.024  0.2210 -0.4538 -0.1095
 3502SOL    HW121968   0.916   0.722   7.119 -1.5664  1.2150  0.1707
 3502SOL    HW221969   0.977   0.804   7.016 -0.8344  0.6270  0.6048
 3503SOL     OW21970   3.495   0.710   8.287  0.9987  0.4943 -0.4123
 3503SOL    HW121971   3.447   0.657   8.349  2.4118 -0.6645 -0.3168
 3503SOL    HW221972   3.554   0.762   8.342 -0.9276  0.4768  1.6702
 3504SOL     OW21973   2.263   3.912   7.685  0.3849  0.7869  0.3999
 3504SOL    HW121974   2.286   3.826   7.720 -0.2461 -0.4741 -2.3193
 3504SOL    HW221975   2.168   3.911   7.693  0.1276 -0.9832 -2.9308
 3505SOL     OW21976   0.034   2.144   0.544 -0.1515 -0.1485  0.1416
 3505SOL    HW121977   0.081   2.226   0.555 -1.4413  0.7893 -1.3868
 3505SOL    HW221978   0.101   2.076   0.552  0.2342  0.3511  1.1865
 3506SOL     OW21979   3.558   1.941   8.146 -0.4435  0.0093  0.7204
 3506SOL    HW121980   3.514   1.874   8.095  0.8285 -0.4712  0.2541
 3506SOL    HW221981   3.532   2.017   8.094  0.1046 -0.5276 -0.3306
 3507SOL     OW21982   2.648   3.876   6.784 -0.0724 -0.3061  0.0191
 3507SOL    HW121983   2.572   3.919   6.745 -1.2899 -0.9849  1.6500
 3507SOL    HW221984   2.612   3.787   6.782  2.3832 -1.2977  0.2762
 3508SOL     OW21985   2.850   0.270   3.826  0.2088 -0.3365 -0.0000
 3508SOL    HW121986   2.773   0.216   3.815  0.4916 -0.9932  1.3607
 3508SOL    HW221987   2.835   0.301   3.915 -0.2793 -0.3344 -0.0843
 3509SOL     OW21988   2.804   4.262   7.531  0.5545  0.0451 -0.2974
 3509SOL    HW121989   2.791   4.308   7.614 -2.0198  0.9268 -1.1653
 3509SOL    HW221990   2.864   4.324   7.489 -0.3285  0.2162 -1.3101
 3510SOL     OW21991   1.222   1.640   2.924  0.1422 -0.1648 -0.1125
 3510SOL    HW121992   1.260   1.706   2.983 -0.1548 -0.7312  0.7106
 3510SOL    HW221993   1.283   1.566   2.931  0.2840  0.0274  0.7301
 3511SOL     OW21994   1.753   4.352   5.155 -0.2381 -0.1830  0.0418
 3511SOL    HW121995   1.736   4.417   5.223  1.6503 -1.2336  1.5127
 3511SOL    HW221996   1.696   4.277   5.174  1.0992 -1.2796 -0.2377
 3512SOL     OW21997   1.037   3.291   8.053  0.1343  0.5181 -0.1837
 3512SOL    HW121998   0.961   3.295   7.995  0.2971 -0.7839 -0.4961
 3512SOL    HW221999   0.990   3.331   8.126  0.4927 -0.2819  0.4790
 3513SOL     OW22000   4.308   3.440   0.236 -0.7300 -0.7443  0.7547
 3513SOL    HW122001   4.236   3.379   0.252 -0.4222 -1.2575  0.2229
 3513SOL    HW222002   4.340   3.449   0.325  3.1887 -0.8323 -0.6384
 3514SOL     OW22003   4.249   1.767   5.789 -0.8312 -0.3137  0.0611
 3514SOL    HW122004   4.332   1.781   5.833 -0.7553  0.6720 -0.4074
 3514SOL    HW222005   4.194   1.774   5.867  0.4271 -1.4282  1.0485
 3515SOL     OW22006   2.195   1.218   6.584  0.0871  0.0092  0.3303
 3515SOL    HW122007   2.123   1.195   6.526  1.2954  1.5122 -1.7308
 3515SOL    HW222008   2.267   1.204   6.523 -0.7230 -2.1293 -0.1109
 3516SOL     OW22009   3.864   4.631   4.593  0.1271  0.0209  0.1101
 3516SOL    HW122010   3.806   4.584   4.534 -1.8490  1.2989  1.0372
 3516SOL    HW222011   3.902   4.562   4.648 -2.3407 -1.3288  0.1215
 3517SOL     OW22012   0.171   0.181   3.374  0.0724  0.4744  0.0934
 3517SOL    HW122013   0.137   0.253   3.319 -1.4225  1.2831  2.0565
 3517SOL    HW222014   0.227   0.227   3.437  0.3573 -0.0466  0.2147
 3518SOL     OW22015   4.356   1.449  11.777 -0.1230  0.2614 -0.1293
 3518SOL    HW122016   4.365   1.382  11.845  0.2192 -0.2552 -0.6769
 3518SOL    HW222017   4.304   1.520  11.814 -0.0574  1.5560 -2.4925
 3519SOL     OW22018   3.119   1.774  16.519 -0.5025 -0.3934  0.3363
 3519SOL    HW122019   3.097   1.860  16.482  0.0702 -0.5455 -0.3597
 3519SOL    HW222020   3.100   1.717  16.444  0.1736 -0.7086  0.3963
 3520SOL     OW22021   1.220   2.423   0.538 -0.0826 -0.1182 -0.2487
 3520SOL    HW122022   1.312   2.407   0.517  0.6003  0.7934  2.0368
 3520SOL    HW222023   1.177   2.386   0.461 -0.7529  1.8217 -0.8052
 3521SOL     OW22024   0.496   0.534   6.572 -0.1579  0.6080 -0.5036
 3521SOL    HW122025   0.430   0.471   6.541  0.3900  0.0190 -0.4747
 3521SOL    HW222026   0.508   0.497   6.659  0.5846  3.4438  0.5987
 3522SOL     OW22027   4.270   4.477  13.206 -0.8944  0.4050 -0.6433
 3522SOL    HW122028   4.349   4.435  13.172 -1.2282 -0.1265 -0.7638
 3522SOL    HW222029   4.308   4.544  13.262 -1.2020  0.3696 -0.3945
 3523SOL     OW22030   3.994   2.221   8.870 -0.0506  0.0329  0.0260
 3523SOL    HW122031   3.962   2.242   8.782  0.0991  0.4146  0.0644
 3523SOL    HW222032   3.950   2.282   8.929 -0.0557 -1.3485  1.4406
 3524SOL     OW22033   0.200   3.266   7.527 -0.0792  0.6178  0.0853
 3524SOL    HW122034   0.246   3.183   7.544 -2.0369 -0.4331  0.2809
 3524SOL    HW222035   0.185   3.300   7.614  0.2008 -1.1714  0.8430
 3525SOL     OW22036   3.552   0.221   9.051  0.4645  0.0306  0.4489
 3525SOL    HW122037   3.539   0.127   9.037  0.3557  0.4023 -1.8899
 3525SOL    HW222038   3.464   0.259   9.040  0.5746  0.3460  0.6587
 3526SOL     OW22039   1.591   0.478   6.577 -0.4183 -0.0822  0.3538
 3526SOL    HW122040   1.561   0.562   6.611  1.1503  0.8161 -0.4687
 3526SOL    HW222041   1.555   0.416   6.641  0.3305 -0.5018  0.3666
 3527SOL     OW22042   4.216   2.778   6.304  0.1134 -0.1387  0.7093
 3527SOL    HW122043   4.264   2.696   6.296  0.6317  0.2378 -0.0847
 3527SOL    HW222044   4.168   2.785   6.222 -1.0017 -3.6836  1.0667
 3528SOL     OW22045   4.494   4.335   7.705  0.2476 -0.3854  0.4750
 3528SOL    HW122046   4.541   4.396   7.762 -1.4001  0.4233  0.9927
 3528SOL    HW222047   4.484   4.394   7.631  0.8463 -0.7473  0.1089
 3529SOL     OW22048   2.026   4.678   7.805 -0.5650  0.0881  0.0787
 3529SOL    HW122049   1.964   4.721   7.746 -0.4479  0.7938  0.4706
 3529SOL    HW222050   2.086   0.027   7.806 -0.0512 -0.2909 -1.9603
 3530SOL     OW22051   0.078   0.154   8.958 -1.1402  0.5954  0.0204
 3530SOL    HW122052   4.713   0.182   8.947 -1.4580 -0.4870 -0.0808
 3530SOL    HW222053   0.081   0.121   9.047  0.6164  0.9791  0.1094
 3531SOL     OW22054   4.713   0.727   1.638 -0.0582 -0.0371 -0.4776
 3531SOL    HW122055   4.651   0.777   1.691 -0.5335  1.8356 -2.8051
 3531SOL    HW222056   0.021   0.661   1.698 -0.4055  1.6807  1.5955
 3532SOL     OW22057   0.911   3.533   8.208  0.2420 -0.3150 -0.1034
 3532SOL    HW122058   0.983   3.595   8.196 -0.5149  0.7332  0.7067
 3532SOL    HW222059   0.837   3.587   8.236 -0.2988 -0.8295 -0.5756
 3533SOL     OW22060   4.696   0.091   5.121  0.0595  0.0081 -0.2233
 3533SOL    HW122061   4.687   0.182   5.091  0.3638 -0.1346 -0.7505
 3533SOL    HW222062   0.066   0.091   5.125  0.0698 -0.3313 -0.5259
 3534SOL     OW22063   4.230   3.151   4.511  0.2966 -0.2005  0.5034
 3534SOL    HW122064   4.167   3.203   4.461  0.2725 -0.9044 -0.1974
 3534SOL    HW222065   4.304   3.167   4.452  0.4107 -1.2669  0.3587
 3535SOL     OW22066   3.616   3.009   8.612 -0.3796 -0.1598  0.3056
 3535SOL    HW122067   3.605   3.004   8.517  0.8976 -2.4719  0.2994
 3535SOL    HW222068   3.707   2.980   8.616 -0.7575 -1.2104  1.5361
 3536SOL     OW22069   2.911   4.000   1.212 -0.0708 -0.2967  0.0831
 3536SOL    HW122070   2.852   3.997   1.287 -0.1895  0.0455  0.0024
 3536SOL    HW222071   2.988   3.966   1.258  1.0324  1.8902 -0.1359
 3537SOL     OW22072   4.636   0.286  12.285 -0.3428  0.2242  0.5907
 3537SOL    HW122073   4.601   0.291  12.374 -0.5690 -1.9984  0.6243
 3537SOL    HW222074   4.688   0.206  12.284  0.2381  0.5932  0.7040
 3538SOL     OW22075   4.105   0.275   4.105 -0.6520  0.8085 -0.0845
 3538SOL    HW122076   4.065   0.331   4.171  0.6600  1.2219  0.3520
 3538SOL    HW222077   4.034   0.238   4.053  2.1809 -2.4946 -1.5860
 3539SOL     OW22078   4.384   1.745  11.730 -0.4228 -0.0005 -0.4576
 3539SOL    HW122079   4.450   1.802  11.690  0.9935 -1.9286 -0.9032
 3539SOL    HW222080   4.350   1.703  11.651  2.5219  1.4926 -2.5110
 3540SOL     OW22081   4.129   2.625   6.748  0.0374  0.1136  0.4964
 3540SOL    HW122082   4.193   2.554   6.760 -0.2522 -0.3385 -0.6504
 3540SOL    HW222083   4.191   2.693   6.724  0.0366 -0.1333 -0.2065
 3541SOL     OW22084   1.607   3.389   6.605  0.4593  0.8566  0.2275
 3541SOL    HW122085   1.624   3.415   6.695  0.6315  1.1000  0.1271
 3541SOL    HW222086   1.654   3.459   6.559 -0.3629  1.1811 -0.1244
 3542SOL     OW22087   3.447   1.601   1.926 -0.1113  0.2209  0.6723
 3542SOL    HW122088   3.431   1.658   1.850 -0.5345  1.0636  1.3911
 3542SOL    HW222089   3.535   1.567   1.910 -0.4806 -0.4219  0.0088
 3543SOL     OW22090   3.411   0.908   1.868 -0.7057  0.2337 -0.1732
 3543SOL    HW122091   3.386   0.845   1.936 -2.1837 -0.8477 -1.7333
 3543SOL    HW222092   3.481   0.948   1.920 -1.2671 -0.9846  1.5311
 3544SOL     OW22093   0.108   2.572   9.143  0.5749  0.1842 -0.1675
 3544SOL    HW122094   0.164   2.552   9.068  1.8463  0.2235  0.7777
 3544SOL    HW222095   0.027   2.533   9.109  1.5017 -1.5378 -0.4423
 3545SOL     OW22096   0.186   2.148  17.462  0.1530  0.0635 -0.5000
 3545SOL    HW122097   0.092   2.136  17.454  0.7172 -3.9657 -1.2391
 3545SOL    HW222098   0.224   2.060  17.455  0.2029 -0.2755  3.9845
 3546SOL     OW22099   3.082   2.699   6.902  0.0568  0.5764  0.6012
 3546SOL    HW122100   3.103   2.641   6.975 -1.7807 -1.7945 -0.7456
 3546SOL    HW222101   3.002   2.658   6.868  0.5087 -2.1184  2.8045
 3547SOL     OW22102   2.028   3.207  10.216 -0.5578 -0.3377 -1.4385
 3547SOL    HW122103   2.117   3.182  10.190 -0.6876 -0.3055 -1.9090
 3547SOL    HW222104   2.020   3.255  10.299  0.1580  0.9161 -2.0859
 3548SOL     OW22105   3.916   2.345   4.845  0.6959  0.1794 -0.0071
 3548SOL    HW122106   3.954   2.272   4.894  1.0254  0.6154  0.3818
 3548SOL    HW222107   3.965   2.416   4.886  1.6534 -1.2819  1.4029
 3549SOL     OW22108   2.738   3.593   4.991  0.4122  0.1774  0.2347
 3549SOL    HW122109   2.773   3.519   5.041 -1.0169 -0.1214  0.7983
 3549SOL    HW222110   2.659   3.615   5.041 -0.8176  0.4242 -1.8361
 3550SOL     OW22111   3.456   0.857   5.197  0.7690 -0.5041 -0.0338
 3550SOL    HW122112   3.537   0.808   5.188  1.8998  1.1322  1.1821
 3550SOL    HW222113   3.495   0.944   5.207  0.2853 -0.5072  1.7915
 3551SOL     OW22114   3.897   3.707   4.377 -0.0915  0.0753  0.2154
 3551SOL    HW122115   3.985   3.674   4.394 -0.4395 -0.7294  0.4227
 3551SOL    HW222116   3.850   3.665   4.449  0.4756 -2.2108 -0.7500
 3552SOL     OW22117   2.067   4.154  10.460 -0.0760  0.3667 -0.3525
 3552SOL    HW122118   2.152   4.183  10.428 -0.4650  3.4539  1.3925
 3552SOL    HW222119   2.067   4.219  10.531  0.5957  0.4188 -0.3998
 3553SOL     OW22120   1.538   2.642   5.257  0.2401 -0.5339  0.6003
 3553SOL    HW122121   1.518   2.718   5.202  0.3692  1.6249  3.5572
 3553SOL    HW222122   1.585   2.588   5.193  0.0626 -1.4373  1.2457
 3554SOL     OW22123   3.146   3.533   2.343 -0.1996 -0.2354  0.1951
 3554SOL    HW122124   3.207   3.540   2.269 -1.6952  0.8860 -0.9557
 3554SOL    HW222125   3.209   3.557   2.411 -0.1458  1.5352 -0.4589
 3555SOL     OW22126   1.531   1.720  12.743  0.5323  0.0931 -0.2989
 3555SOL    HW122127   1.459   1.743  12.685  0.0033  0.3191  0.4464
 3555SOL    HW222128   1.497   1.732  12.832  1.4724 -1.7739  0.2976
 3556SOL     OW22129   1.735   2.627   1.091  0.1368 -0.5083  0.6332
 3556SOL    HW122130   1.711   2.537   1.111  1.6073 -0.8397  0.8614
 3556SOL    HW222131   1.739   2.657   1.182 -2.7568 -1.3753  1.0489
 3557SOL     OW22132   0.492   2.718  15.807  0.6985  0.0985 -0.1825
 3557SOL    HW122133   0.472   2.625  15.795  2.6950 -0.2939 -0.3563
 3557SOL    HW222134   0.414   2.755  15.766  0.1646 -0.2094  0.5565
 3558SOL     OW22135   3.276   4.066   4.800  0.0008 -0.1249 -0.1226
 3558SOL    HW122136   3.309   4.046   4.887 -0.2901  0.8192  0.2083
 3558SOL    HW222137   3.237   4.152   4.819 -0.4984 -0.9896  2.7491
 3559SOL     OW22138   2.545   1.067  13.839  0.3806 -0.1526 -0.4453
 3559SOL    HW122139   2.486   1.090  13.767 -0.5668  1.3278  0.7966
 3559SOL    HW222140   2.553   1.153  13.880  1.0173 -0.0770 -0.7316
 3560SOL     OW22141   4.608   1.867  11.575 -0.0282 -1.0320  0.3724
 3560SOL    HW122142   4.681   1.874  11.513  0.6864 -0.0950  1.3116
 3560SOL    HW222143   4.546   1.932  11.543  1.0650 -0.1533  0.0230
 3561SOL     OW22144   2.678   3.359   2.192  0.7435 -0.0764  0.1190
 3561SOL    HW122145   2.654   3.387   2.280 -0.0082 -1.8266  0.4502
 3561SOL    HW222146   2.620   3.284   2.183 -0.0961  0.6684 -0.5805
 3562SOL     OW22147   3.576   4.723   1.019  0.2001  0.2682  0.0462
 3562SOL    HW122148   3.622   0.071   1.059 -1.6562  0.4421  1.8561
 3562SOL    HW222149   3.644   4.657   1.026  1.0886  1.2644  0.7872
 3563SOL     OW22150   2.218   2.848   7.453  0.0415 -0.2286  0.4844
 3563SOL    HW122151   2.159   2.879   7.384  1.1922  0.6980 -0.0623
 3563SOL    HW222152   2.147   2.815   7.508  0.0116 -3.2982 -1.3717
 3564SOL     OW22153   0.198   0.043   4.232  0.3556 -0.0723  0.1217
 3564SOL    HW122154   0.120   0.099   4.230 -0.5983 -1.3840  0.9351
 3564SOL    HW222155   0.266   0.098   4.192  0.0990  2.0935  2.6652
 3565SOL     OW22156   1.153   2.332   8.659  0.5610 -0.1331  0.4148
 3565SOL    HW122157   1.063   2.348   8.628  0.2547 -0.7727  0.9627
 3565SOL    HW222158   1.205   2.398   8.615 -1.4134  0.3300 -1.2394
 3566SOL     OW22159   4.655   4.551  13.156  0.2131 -0.2636 -0.0176
 3566SOL    HW122160   4.703   4.472  13.132  1.4566  0.3528  0.4476
 3566SOL    HW222161   4.612   4.529  13.239  1.7172 -1.5806  0.4070
 3567SOL     OW22162   0.960   1.181   8.480  0.7298 -0.6029 -0.1120
 3567SOL    HW122163   0.953   1.133   8.563 -0.3442 -0.7448 -0.2851
 3567SOL    HW222164   1.018   1.115   8.441  1.2021 -1.7022  2.4077
 3568SOL     OW22165   0.414   3.628   2.542  0.3530  0.1172  0.0618
 3568SOL    HW122166   0.430   3.620   2.448 -1.1892  1.3152 -0.3011
 3568SOL    HW222167   0.473   3.561   2.577 -0.3215 -0.5227 -0.0128
 3569SOL     OW22168   0.895   3.367   6.260  0.1901 -0.2636 -0.0433
 3569SOL    HW122169   0.966   3.377   6.323 -1.0392 -0.6972  1.4069
 3569SOL    HW222170   0.847   3.447   6.281  0.0388 -0.8398  1.8166
 3570SOL     OW22171   1.971   3.844   7.702  0.4803 -0.1006 -0.1693
 3570SOL    HW122172   2.008   3.763   7.668 -2.6995 -2.2785  1.4762
 3570SOL    HW222173   1.905   3.819   7.768 -0.5729  0.5612 -0.9821
 3571SOL     OW22174   0.166   2.207   1.996  0.2182 -0.0047 -0.1275
 3571SOL    HW122175   0.255   2.185   2.021  0.4483  1.6601  0.4708
 3571SOL    HW222176   0.120   2.189   2.078 -0.7537 -0.7733 -0.8293
 3572SOL     OW22177   1.296   4.534   6.426 -0.0170  0.2586  0.2303
 3572SOL    HW122178   1.205   4.557   6.444  0.0809 -0.8086  2.0199
 3572SOL    HW222179   1.328   4.622   6.404  2.0350  0.1812  2.8899
 3573SOL     OW22180   3.963   1.770   2.441  0.9463  0.4972  0.0666
 3573SOL    HW122181   4.020   1.738   2.512 -0.3252  1.5908  1.5904
 3573SOL    HW222182   3.981   1.707   2.371  1.7499 -0.0657  0.7699
 3574SOL     OW22183   0.495   4.049   8.112 -0.0979  0.2090 -0.0803
 3574SOL    HW122184   0.515   3.999   8.032 -1.4910  1.6073 -1.3203
 3574SOL    HW222185   0.409   4.079   8.083  0.0042  0.5781  0.0064
 3575SOL     OW22186   1.587   1.040  10.974 -0.1424 -0.4233 -0.5685
 3575SOL    HW122187   1.578   1.105  11.044  0.7127 -0.3158 -0.5562
 3575SOL    HW222188   1.664   1.068  10.925 -0.2366 -1.8477 -1.5172
 3576SOL     OW22189   4.225   0.115  13.219  0.3235  0.0099  0.1610
 3576SOL    HW122190   4.304   0.062  13.231  1.2214  0.7380 -2.4099
 3576SOL    HW222191   4.260   0.202  13.200  0.2756  0.0832  0.4120
 3577SOL     OW22192   0.595   2.960   9.637 -0.1737 -0.1911 -0.7226
 3577SOL    HW122193   0.510   2.946   9.678 -1.2192  0.8915 -2.5099
 3577SOL    HW222194   0.636   2.956   9.723  1.2706 -1.0055 -1.4658
 3578SOL     OW22195   2.324   3.524   2.712 -0.1774  0.3424  0.0603
 3578SOL    HW122196   2.331   3.618   2.695 -0.5512  0.6201  1.3889
 3578SOL    HW222197   2.273   3.497   2.636  2.4832 -0.4537 -1.4023
 3579SOL     OW22198   4.699   4.220   8.940 -0.2224  0.6157  0.4934
 3579SOL    HW122199   0.066   4.241   8.932 -0.6881  0.5881 -4.8708
 3579SOL    HW222200   4.659   4.307   8.947 -0.4677  0.6178 -0.8444
 3580SOL     OW22201   2.483   1.485   4.065  0.3074 -0.8170 -0.1900
 3580SOL    HW122202   2.496   1.402   4.110  1.1220 -0.3862  0.3677
 3580SOL    HW222203   2.392   1.469   4.038  0.0110  0.2382  0.1652
 3581SOL     OW22204   4.660   2.964   9.172 -0.8054 -0.1539 -0.1105
 3581SOL    HW122205   4.706   2.996   9.251 -0.9945  0.4501 -0.2415
 3581SOL    HW222206   4.616   2.892   9.218 -0.2875  0.3634  1.2121
 3582SOL     OW22207   2.206   2.554   7.800  0.3023  0.3491 -0.2977
 3582SOL    HW122208   2.226   2.646   7.783  1.0345 -0.0623 -1.5991
 3582SOL    HW222209   2.119   2.560   7.839  0.1071 -1.4316 -0.4862
 3583SOL     OW22210   3.160   4.314   3.490  0.2123 -0.5586 -0.4960
 3583SOL    HW122211   3.094   4.292   3.556  0.3365  0.5736  0.0113
 3583SOL    HW222212   3.207   4.395   3.512 -1.1263  0.8682 -2.8948
 3584SOL     OW22213   1.167   2.504   2.808  0.0641 -0.7320 -0.3573
 3584SOL    HW122214   1.135   2.414   2.811  1.5664 -1.1631  2.2566
 3584SOL    HW222215   1.208   2.505   2.721  0.4591  1.6486 -0.1225
 3585SOL     OW22216   0.124   1.661   4.337 -0.3578 -0.3246 -0.1239
 3585SOL    HW122217   0.214   1.654   4.304 -0.8823  1.0145 -1.7968
 3585SOL    HW222218   0.092   1.727   4.277  2.4334  0.4842 -0.7235
 3586SOL     OW22219   4.500   2.913  17.024 -0.3514 -0.0643 -0.3723
 3586SOL    HW122220   4.535   2.913  17.113 -0.0283 -2.3629 -0.4969
 3586SOL    HW222221   4.489   2.818  17.015  0.4233 -0.0503 -1.3475
 3587SOL     OW22222   2.821   1.959   4.539  0.9202  0.6707  0.4376
 3587SOL    HW122223   2.911   1.942   4.511  0.2918  0.3692 -1.4356
 3587SOL    HW222224   2.772   1.891   4.491 -2.1786  1.9044  1.8274
 3588SOL     OW22225   1.410   4.558   5.487  0.6168 -0.4570 -0.3986
 3588SOL    HW122226   1.429   4.502   5.562 -0.4722  0.7461  0.7631
 3588SOL    HW222227   1.379   4.641   5.524  2.0401 -0.1719  0.1232
 3589SOL     OW22228   1.158   3.926   3.837 -0.4065 -0.2597  0.3876
 3589SOL    HW122229   1.075   3.938   3.883  0.3182 -0.6377  1.8044
 3589SOL    HW222230   1.233   3.947   3.893  0.9065  0.7880 -1.7848
 3590SOL     OW22231   2.982   2.754   1.514  0.0773 -0.1618  0.1772
 3590SOL    HW122232   3.056   2.701   1.543  2.0600  2.0926 -0.8350
 3590SOL    HW222233   3.035   2.817   1.467 -0.0262  1.0609  1.6995
 3591SOL     OW22234   2.804   3.481   1.972  0.1395 -0.7359  0.2642
 3591SOL    HW122235   2.760   3.435   2.044 -1.3261  0.3860  0.0886
 3591SOL    HW222236   2.740   3.551   1.959  1.3100  0.3325  0.2490
 3592SOL     OW22237   4.587   3.446   7.876  0.0577 -0.5894  0.2868
 3592SOL    HW122238   4.646   3.392   7.823  1.4995  2.4246 -1.2032
 3592SOL    HW222239   4.554   3.381   7.938 -0.3644 -0.2487  0.4131
 3593SOL     OW22240   4.350   0.928   3.298  0.5512  0.2817 -0.1441
 3593SOL    HW122241   4.286   0.864   3.331 -0.9840  1.8290 -0.1697
 3593SOL    HW222242   4.425   0.897   3.349  0.9276  1.8990  0.2692
 3594SOL     OW22243   1.000   2.656   4.791  0.9086  0.3721  0.2406
 3594SOL    HW122244   1.081   2.671   4.839  1.9861 -0.5947 -1.2877
 3594SOL    HW222245   1.027   2.583   4.736  1.6093 -0.9668  2.3306
 3595SOL     OW22246   0.991   1.459   5.094  0.2718 -0.1546 -0.4042
 3595SOL    HW122247   0.951   1.527   5.039  0.5762 -0.2435 -0.7427
 3595SOL    HW222248   0.918   1.405   5.121  0.0255 -0.0670 -0.8923
 3596SOL     OW22249   3.211   2.689   4.769 -0.2645  0.3546 -0.1366
 3596SOL    HW122250   3.205   2.672   4.675  4.0800 -0.1893 -0.3405
 3596SOL    HW222251   3.120   2.718   4.778 -0.5926 -0.8199  0.2742
 3597SOL     OW22252   2.253   2.833  17.174 -0.2079 -0.0720 -0.8134
 3597SOL    HW122253   2.263   2.904  17.238  0.4685  0.6989 -1.7672
 3597SOL    HW222254   2.179   2.864  17.121  0.5084  2.7024 -0.2354
 3598SOL     OW22255   0.985   3.097   7.484 -0.5362 -0.6473  0.0173
 3598SOL    HW122256   0.992   3.023   7.544 -2.4130  1.3469  2.6703
 3598SOL    HW222257   0.963   3.169   7.542 -0.8434 -0.9934  0.3350
 3599SOL     OW22258   1.860   2.320   3.799 -0.1167  0.0046  0.7003
 3599SOL    HW122259   1.894   2.240   3.840 -2.0396  0.3257  2.9675
 3599SOL    HW222260   1.861   2.381   3.873 -2.0442 -1.3501  1.8771
 3600SOL     OW22261   0.722   1.719   6.663  1.1093 -0.4720  0.1690
 3600SOL    HW122262   0.733   1.657   6.735 -0.0610 -2.0773 -1.0398
 3600SOL    HW222263   0.771   1.677   6.593  0.0415  1.6675 -1.8626
 3601SOL     OW22264   2.299   0.038  10.861 -0.6907  0.4283 -0.2344
 3601SOL    HW122265   2.272   0.129  10.848  0.0471  0.7250  0.3125
 3601SOL    HW222266   2.382   0.037  10.813  0.0939  1.7572  1.1024
 3602SOL     OW22267   0.082   4.135  14.673  0.3150  0.6475 -0.3933
 3602SOL    HW122268   4.723   4.143  14.632 -0.0114  0.7021  0.2916
 3602SOL    HW222269   0.117   4.048  14.653 -1.0529 -0.4400  1.9322
 3603SOL     OW22270   1.864   1.642  16.245  0.3062  0.3469  0.1118
 3603SOL    HW122271   1.944   1.631  16.297 -0.2523 -2.6417  0.3827
 3603SOL    HW222272   1.835   1.725  16.282 -0.4057  0.3342 -0.4086
 3604SOL     OW22273   1.343   4.490   0.663 -0.2692  0.7206  1.0784
 3604SOL    HW122274   1.339   4.398   0.637  2.5028  0.9907 -0.3838
 3604SOL    HW222275   1.407   4.483   0.734 -0.7426 -0.6050  1.3755
 3605SOL     OW22276   1.118   4.074   8.545  0.0273 -0.1962  0.1516
 3605SOL    HW122277   1.172   4.075   8.624  3.7055  0.1108 -2.3756
 3605SOL    HW222278   1.184   4.053   8.480  1.0060  0.2620  1.0011
 3606SOL     OW22279   0.766   4.326   2.229 -0.1786  0.0983  0.5537
 3606SOL    HW122280   0.826   4.307   2.156  0.5236  2.9503  0.4036
 3606SOL    HW222281   0.690   4.365   2.187 -0.2779  1.3644  1.9029
 3607SOL     OW22282   3.125   2.533   3.769 -0.3825  0.3021 -0.2137
 3607SOL    HW122283   3.152   2.624   3.779 -0.9421  0.2515  1.7654
 3607SOL    HW222284   3.043   2.545   3.722  0.1012  0.9616 -0.8878
 3608SOL     OW22285   1.324   0.859   4.274  0.1109  0.2511  0.1899
 3608SOL    HW122286   1.250   0.893   4.325 -0.4260 -0.0569 -0.3796
 3608SOL    HW222287   1.360   0.791   4.330 -1.6221 -0.6367  0.2228
 3609SOL     OW22288   4.273   1.925  13.229 -0.1708  0.5670  0.0674
 3609SOL    HW122289   4.269   1.947  13.323 -2.8422 -0.2718  0.1276
 3609SOL    HW222290   4.275   2.011  13.186 -1.3039  1.1465  1.1636
 3610SOL     OW22291   4.296   2.281  10.602 -0.3367  0.2749  0.0601
 3610SOL    HW122292   4.326   2.360  10.557  1.5792  0.6926  2.0803
 3610SOL    HW222293   4.346   2.222  10.545  0.9031  0.4207  1.0194
 3611SOL     OW22294   0.864   3.390  17.389 -0.4394 -0.6608 -0.3368
 3611SOL    HW122295   0.885   3.395  17.483  1.9451 -0.7112 -0.8681
 3611SOL    HW222296   0.816   3.472  17.381  0.0429 -0.4925 -1.4082
 3612SOL     OW22297   4.241   3.940   5.983 -0.2142 -0.5359 -0.2378
 3612SOL    HW122298   4.310   3.983   5.932 -0.7241  1.5560  0.8454
 3612SOL    HW222299   4.209   3.885   5.912  0.3516 -2.8032  1.2593
 3613SOL     OW22300   2.545   3.166  12.914 -0.0239  0.4963  0.0400
 3613SOL    HW122301   2.614   3.147  12.850 -1.0745  1.7054 -1.4198
 3613SOL    HW222302   2.599   3.194  12.988 -0.8341  0.6629  0.5640
 3614SOL     OW22303   4.309   1.538  13.860  0.4445 -0.5091  0.3956
 3614SOL    HW122304   4.295   1.494  13.776 -1.2225  1.7793 -0.5508
 3614SOL    HW222305   4.224   1.578  13.877  0.3339  1.6606 -5.0943
 3615SOL     OW22306   3.755   2.279   6.290  0.5181  0.1879  0.0259
 3615SOL    HW122307   3.676   2.226   6.305  1.6161 -1.3387  0.4033
 3615SOL    HW222308   3.754   2.329   6.372 -1.3706 -0.1548  0.2210
 3616SOL     OW22309   0.719   1.455  12.706  0.6000 -0.0174  0.0191
 3616SOL    HW122310   0.775   1.462  12.628  0.6536  2.6967  0.3062
 3616SOL    HW222311   0.697   1.547  12.723 -0.9470 -0.1673 -1.1396
 3617SOL     OW22312   1.429   3.255   4.653  0.0588 -0.1175  0.5885
 3617SOL    HW122313   1.416   3.178   4.598 -2.4433  1.1102 -0.5658
 3617SOL    HW222314   1.389   3.211   4.728 -0.0343 -2.3070 -0.7494
 3618SOL     OW22315   0.515   0.957   3.226 -0.6309 -0.1705  0.1752
 3618SOL    HW122316   0.440   0.919   3.182 -1.2965  2.3772 -0.8855
 3618SOL    HW222317   0.596   0.927   3.185  0.3319  1.9546  0.4915
 3619SOL     OW22318   3.313   3.853   5.422  0.4503  0.5752 -0.6805
 3619SOL    HW122319   3.227   3.869   5.381  0.6844 -1.2129 -1.8680
 3619SOL    HW222320   3.348   3.942   5.432  1.1888  0.2772 -0.6355
 3620SOL     OW22321   1.339   2.756   8.034  0.2235  0.4741 -0.1039
 3620SOL    HW122322   1.387   2.677   8.008 -2.4606 -0.5646 -1.8716
 3620SOL    HW222323   1.401   2.802   8.091 -1.3907  0.2142  1.8735
 3621SOL     OW22324   2.066   3.086   6.297  0.0648 -0.3902  0.2321
 3621SOL    HW122325   1.981   3.079   6.342  0.4912 -3.3737  0.5738
 3621SOL    HW222326   2.110   3.004   6.315 -0.2836 -0.2237  1.9008
 3622SOL     OW22327   2.735   3.580   7.918 -0.9290  0.3057  0.4209
 3622SOL    HW122328   2.727   3.495   7.875 -1.5656  0.0554  1.0501
 3622SOL    HW222329   2.831   3.590   7.915 -0.9432  0.4797  0.5259
 3623SOL     OW22330   0.423   2.352   2.088  0.3301 -0.6415 -0.1521
 3623SOL    HW122331   0.439   2.263   2.058 -0.2710 -0.9922  0.5410
 3623SOL    HW222332   0.428   2.340   2.183 -0.8722 -0.8248 -0.1033
 3624SOL     OW22333   1.985   4.197   4.556  0.3609  0.2728  0.6146
 3624SOL    HW122334   2.041   4.261   4.513  0.4011  0.3063  0.7178
 3624SOL    HW222335   1.900   4.229   4.525 -0.1225 -2.1965 -0.5990
 3625SOL     OW22336   2.883   2.299   6.277  0.5984  0.2398 -0.3355
 3625SOL    HW122337   2.954   2.332   6.221 -0.2961  1.3893 -0.7881
 3625SOL    HW222338   2.914   2.347   6.354  0.7643 -1.5644  0.7464
 3626SOL     OW22339   0.157   1.158   7.926  0.3260 -0.3992  0.2246
 3626SOL    HW122340   0.068   1.188   7.942  0.4683  0.7391 -1.0151
 3626SOL    HW222341   0.163   1.078   7.978  0.9404  0.6272  1.7312
 3627SOL     OW22342   0.437   4.140   6.176 -0.3172 -0.1618 -0.0228
 3627SOL    HW122343   0.519   4.109   6.138  1.1315  2.3605  0.9935
 3627SOL    HW222344   0.383   4.159   6.100  0.8635  1.2725 -0.5140
 3628SOL     OW22345   4.382   3.255   6.858 -0.5957 -0.2453  0.8521
 3628SOL    HW122346   4.444   3.254   6.785  1.0116 -0.6291  2.2111
 3628SOL    HW222347   4.400   3.166   6.889  3.5271  0.4466  0.4028
 3629SOL     OW22348   0.381   3.789   0.754  0.4775 -0.3906 -0.1885
 3629SOL    HW122349   0.312   3.791   0.687  0.7242  1.9787 -0.3774
 3629SOL    HW222350   0.371   3.870   0.803 -1.5568  0.4951 -2.0766
 3630SOL     OW22351   4.377   2.534   6.712  0.3721 -0.2060  0.4982
 3630SOL    HW122352   4.454   2.482   6.734  0.0422 -0.2074  1.6883
 3630SOL    HW222353   4.414   2.618   6.687 -0.3313  0.1258  0.5872
 3631SOL     OW22354   1.242   1.089   3.864 -0.8993  0.2690 -0.2946
 3631SOL    HW122355   1.154   1.101   3.829 -0.9437 -2.0325 -0.9338
 3631SOL    HW222356   1.225   1.077   3.957 -3.4956  0.3105 -0.7695
 3632SOL     OW22357   0.813   3.670   3.872 -0.4557  0.4828 -0.1995
 3632SOL    HW122358   0.775   3.746   3.916 -0.5546  2.1462 -3.1594
 3632SOL    HW222359   0.737   3.612   3.862 -0.6445  0.4982  1.1601
 3633SOL     OW22360   0.445   0.396  13.157  0.5170 -0.2765 -0.0506
 3633SOL    HW122361   0.519   0.455  13.140  1.6674 -1.4489  0.9461
 3633SOL    HW222362   0.406   0.394  13.069  1.1146  1.2120 -0.3586
 3634SOL     OW22363   1.060   2.858   7.639  0.5638 -0.1776 -0.2239
 3634SOL    HW122364   1.118   2.869   7.714  1.4152  1.4751 -1.1136
 3634SOL    HW222365   1.113   2.803   7.581  0.3317 -0.0447 -0.5660
 3635SOL     OW22366   1.808   0.766   1.450  0.1858  0.2710 -0.2491
 3635SOL    HW122367   1.779   0.857   1.449  0.5351  0.3899  1.3974
 3635SOL    HW222368   1.870   0.781   1.378  2.0922 -0.7614  1.1730
 3636SOL     OW22369   0.046   3.722  16.815  0.1400  0.1354 -0.0728
 3636SOL    HW122370   0.129   3.692  16.852 -0.3698 -2.8906 -1.3798
 3636SOL    HW222371   0.068   3.736  16.723 -0.7945  0.9402 -0.1748
 3637SOL     OW22372   2.605   0.730   2.140 -0.4133 -0.1569  0.0872
 3637SOL    HW122373   2.687   0.738   2.189 -0.3724  0.3878 -0.0669
 3637SOL    HW222374   2.552   0.674   2.196 -0.9096 -0.3599 -0.5863
 3638SOL     OW22375   0.387   4.669  13.916 -0.7480 -0.1990 -0.1912
 3638SOL    HW122376   0.482   4.669  13.903 -0.8810 -2.0536 -1.2031
 3638SOL    HW222377   0.359   0.023  13.871  0.8583  0.3891 -0.1588
 3639SOL     OW22378   1.358   2.886   2.861  0.2691 -0.4998 -0.4665
 3639SOL    HW122379   1.360   2.845   2.774 -0.4605 -0.4919 -0.4874
 3639SOL    HW222380   1.369   2.807   2.913  0.3892 -0.1838 -0.0114
 3640SOL     OW22381   1.756   0.421   3.078 -0.1880 -0.5906 -0.4325
 3640SOL    HW122382   1.846   0.454   3.083 -0.6770  1.0082 -1.8588
 3640SOL    HW222383   1.752   0.367   2.999 -0.1371  0.3085 -1.0579
 3641SOL     OW22384   2.968   0.484   4.912  0.2361 -0.1894  0.1926
 3641SOL    HW122385   2.913   0.560   4.892 -0.5844 -0.7491  0.3081
 3641SOL    HW222386   3.023   0.534   4.974 -0.6077 -0.0903  0.8678
 3642SOL     OW22387   2.188   4.211   6.789 -0.4404 -0.4450 -0.1331
 3642SOL    HW122388   2.283   4.197   6.793 -0.1052  1.7580 -0.4853
 3642SOL    HW222389   2.180   4.261   6.870 -1.5317 -0.9174  0.0465
 3643SOL     OW22390   3.676   2.233   5.692  0.3460  0.2539 -0.1383
 3643SOL    HW122391   3.741   2.301   5.708 -0.6465  1.1815 -0.0003
 3643SOL    HW222392   3.730   2.156   5.674  0.5212  0.6626 -1.3251
 3644SOL     OW22393   1.651   1.236   3.750 -0.8558  0.0685 -0.3545
 3644SOL    HW122394   1.708   1.310   3.727 -2.2346  1.6116  1.1969
 3644SOL    HW222395   1.584   1.232   3.681 -0.8415  3.4945 -0.5852
 3645SOL     OW22396   4.328   3.301   5.955 -0.0946 -0.2825 -0.3455
 3645SOL    HW122397   4.313   3.255   5.873 -1.8825  1.6771 -1.1285
 3645SOL    HW222398   4.249   3.352   5.969  0.0776 -0.5400  1.5728
 3646SOL     OW22399   2.012   2.677   8.186  0.5754 -0.0468  0.2195
 3646SOL    HW122400   2.003   2.637   8.100 -1.6103 -0.9467  0.8598
 3646SOL    HW222401   2.063   2.607   8.227  0.8028  0.4265  0.7467
 3647SOL     OW22402   4.686   1.246   4.428  0.4160  0.1403 -0.4607
 3647SOL    HW122403   4.721   1.311   4.490  0.2729 -0.6972  0.4975
 3647SOL    HW222404   4.720   1.165   4.467 -0.8343 -1.3623 -2.5457
 3648SOL     OW22405   2.708   3.775   7.330 -0.2167  0.5505 -0.3503
 3648SOL    HW122406   2.732   3.727   7.251  0.5517 -0.5841  0.5826
 3648SOL    HW222407   2.613   3.775   7.313 -0.4242 -1.3110  0.7802
 3649SOL     OW22408   1.988   0.702  12.006  0.0673  0.2865 -0.2429
 3649SOL    HW122409   1.988   0.779  11.949 -2.9851  1.6777  1.6921
 3649SOL    HW222410   1.918   0.651  11.965  0.7414  0.5506 -1.7256
 3650SOL     OW22411   0.121   0.655  13.038 -0.0893  0.3364  0.0147
 3650SOL    HW122412   0.066   0.693  12.970 -0.2134  3.1333  1.6836
 3650SOL    HW222413   0.157   0.582  12.988 -0.8778 -0.2239  0.2710
 3651SOL     OW22414   3.962   0.784  15.857 -0.2104 -0.2978 -0.2446
 3651SOL    HW122415   3.982   0.692  15.838  0.6992 -0.3400  0.9003
 3651SOL    HW222416   3.873   0.775  15.892  0.2065 -1.2440  0.5570
 3652SOL     OW22417   1.061   1.582  15.651 -0.1651  0.4984  0.5262
 3652SOL    HW122418   1.082   1.503  15.601 -1.9601  0.5845 -0.3577
 3652SOL    HW222419   1.146   1.601  15.691  0.4794  0.4948 -0.8549
 3653SOL     OW22420   3.000   3.060  15.151  0.1436 -0.5717 -0.1397
 3653SOL    HW122421   2.934   3.123  15.123  0.5133 -0.5592 -0.9914
 3653SOL    HW222422   3.046   3.064  15.067  0.1989  0.6257 -0.0535
 3654SOL     OW22423   2.848   3.726   3.593  1.0563 -0.0196  0.2170
 3654SOL    HW122424   2.763   3.769   3.586  0.6560 -0.4460  2.6755
 3654SOL    HW222425   2.851   3.682   3.677  1.4454 -1.0635 -0.3441
 3655SOL     OW22426   1.320   0.725   6.499  0.0293  0.3891 -0.1906
 3655SOL    HW122427   1.388   0.726   6.567 -1.0909 -0.4587  0.9351
 3655SOL    HW222428   1.290   0.634   6.503 -0.8669  0.6070 -1.9077
 3656SOL     OW22429   1.487   3.908   7.619 -0.0218  0.2738 -0.2119
 3656SOL    HW122430   1.579   3.931   7.613  0.2769 -0.9009 -0.1155
 3656SOL    HW222431   1.499   3.813   7.612 -1.7568  0.0883 -0.7354
 3657SOL     OW22432   3.014   3.743   5.038  0.0407 -0.1207 -0.5228
 3657SOL    HW122433   3.100   3.703   5.023  0.1186 -0.7342  1.6377
 3657SOL    HW222434   2.957   3.671   5.062  0.2552 -0.1783 -0.1848
 3658SOL     OW22435   2.330   3.957  11.862 -0.1398  0.5511  0.7034
 3658SOL    HW122436   2.374   4.023  11.915  0.7763  1.6747 -1.4676
 3658SOL    HW222437   2.321   3.993  11.774 -1.2813 -0.3592  0.4431
 3659SOL     OW22438   1.634   2.694  16.340 -0.7088  0.6421 -0.1884
 3659SOL    HW122439   1.682   2.613  16.351 -2.0247 -0.4919 -2.6863
 3659SOL    HW222440   1.645   2.722  16.431  0.6203  1.4408 -0.5924
 3660SOL     OW22441   3.026   4.095  11.173 -0.4759 -0.6414  0.1583
 3660SOL    HW122442   2.959   4.164  11.177  1.9136  1.6288  0.5215
 3660SOL    HW222443   3.024   4.063  11.263  0.1159  0.5125  0.5797
 3661SOL     OW22444   4.492   1.333  15.404 -0.0915  0.0305  0.5876
 3661SOL    HW122445   4.487   1.237  15.405 -2.0406  0.1030 -2.7683
 3661SOL    HW222446   4.422   1.347  15.468  0.6841 -0.5185  1.5622
 3662SOL     OW22447   0.607   2.926  15.912  0.8302  0.1020 -0.5321
 3662SOL    HW122448   0.579   2.835  15.900 -2.2320  1.0474 -0.5332
 3662SOL    HW222449   0.590   2.962  15.825 -0.9059 -0.5974 -0.4960
 3663SOL     OW22450   3.755   3.919   7.862  0.2955  0.4066  0.5230
 3663SOL    HW122451   3.795   3.865   7.930  0.1488 -1.3363 -0.7542
 3663SOL    HW222452   3.828   3.979   7.848  0.8629 -0.5080 -0.5320
 3664SOL     OW22453   4.671   3.865  11.035  0.0466  0.4408  0.4427
 3664SOL    HW122454   0.018   3.913  11.074 -0.0951  0.6729  0.4257
 3664SOL    HW222455   4.599   3.895  11.091 -0.7012 -2.6672  1.1713
 3665SOL     OW22456   1.255   0.806   3.979  0.0628 -0.0474  0.0944
 3665SOL    HW122457   1.191   0.864   4.021 -0.5136 -0.8364  0.2978
 3665SOL    HW222458   1.336   0.848   4.008 -0.0955  0.8010 -0.6664
 3666SOL     OW22459   0.800   2.813   7.754 -0.1363  0.2185  0.1148
 3666SOL    HW122460   0.813   2.723   7.724 -0.1407  0.5110 -0.7534
 3666SOL    HW222461   0.878   2.856   7.719 -0.0813 -0.3813 -0.4987
 3667SOL     OW22462   3.076   2.670   3.212  0.6642  0.0012  0.3698
 3667SOL    HW122463   3.012   2.661   3.141  1.5489  2.3316 -0.7271
 3667SOL    HW222464   3.050   2.753   3.252 -1.0115 -0.9142  1.2023
 3668SOL     OW22465   1.770   4.723   6.603  0.6409 -0.5595  0.2215
 3668SOL    HW122466   1.750   0.090   6.595  1.7236 -0.3897 -0.5670
 3668SOL    HW222467   1.772   4.692   6.512  1.1780  0.2651 -0.0577
 3669SOL     OW22468   4.280   0.150   0.409 -0.2552 -0.3166  0.7724
 3669SOL    HW122469   4.227   0.072   0.391 -1.4669  0.4885  0.8470
 3669SOL    HW222470   4.210   0.215   0.399  1.9393  2.1564  1.6163
 3670SOL     OW22471   4.440   0.381  10.423  0.4785 -0.0370  0.6339
 3670SOL    HW122472   4.437   0.375  10.328  0.6505  0.2931  0.6068
 3670SOL    HW222473   4.427   0.475  10.438 -1.3831 -0.1517 -0.2572
 3671SOL     OW22474   0.437   3.750   8.174 -0.3538  0.0659  0.9226
 3671SOL    HW122475   0.450   3.840   8.203  0.5834  0.9484 -2.2780
 3671SOL    HW222476   0.344   3.736   8.189 -0.8069  2.3240  0.1651
 3672SOL     OW22477   4.235   0.108   1.757 -0.1256 -1.0329 -0.1903
 3672SOL    HW122478   4.184   0.176   1.801  1.1859 -1.1201  1.4798
 3672SOL    HW222479   4.195   0.116   1.671 -1.5376  3.4515  0.8880
 3673SOL     OW22480   3.731   1.027   7.233 -0.1709  0.1972 -0.3582
 3673SOL    HW122481   3.753   0.943   7.273 -0.2386  0.3830  0.0631
 3673SOL    HW222482   3.652   1.059   7.277  1.9654  2.4899  1.8045
 3674SOL     OW22483   0.975   3.790   8.447  0.1172 -0.3214  0.3979
 3674SOL    HW122484   0.926   3.757   8.522 -1.7719 -1.1806 -1.2217
 3674SOL    HW222485   0.927   3.867   8.415 -1.0745 -1.1555  0.1820
 3675SOL     OW22486   1.360   3.147   0.511  0.1010 -0.4989 -0.0528
 3675SOL    HW122487   1.449   3.116   0.494  0.4204  0.6605 -0.5215
 3675SOL    HW222488   1.356   3.129   0.605  0.9487  0.0551  0.0926
 3676SOL     OW22489   1.810   0.314   8.035  0.6668  0.1635  0.3357
 3676SOL    HW122490   1.827   0.406   8.054 -0.5402  0.3765  0.3973
 3676SOL    HW222491   1.857   0.279   8.110  0.1276  0.9664  1.0516
 3677SOL     OW22492   0.298   2.414   2.638  0.6876  0.1439 -0.4573
 3677SOL    HW122493   0.296   2.318   2.631  0.0788  0.1635 -0.4806
 3677SOL    HW222494   0.354   2.419   2.716 -1.9927  1.2820  1.3723
 3678SOL     OW22495   3.317   3.572   2.567  0.2123 -0.0689 -0.5132
 3678SOL    HW122496   3.365   3.495   2.597 -1.0595 -0.2766  1.0094
 3678SOL    HW222497   3.371   3.643   2.604 -0.1110 -0.3562  0.5145
 3679SOL     OW22498   4.436   3.558   5.884  0.6619 -0.4866 -0.3105
 3679SOL    HW122499   4.424   3.617   5.959  1.5206  0.5378 -0.9821
 3679SOL    HW222500   4.390   3.477   5.906 -0.2673  0.0131 -0.4043
 3680SOL     OW22501   1.127   0.755   3.066 -0.4372  0.5689 -0.4003
 3680SOL    HW122502   1.200   0.738   3.007  1.7547  2.4487  1.7564
 3680SOL    HW222503   1.054   0.776   3.008 -0.1168  0.8076 -0.7187
 3681SOL     OW22504   0.357   3.010   2.373 -0.2422  0.3667  0.2798
 3681SOL    HW122505   0.320   3.097   2.389  0.4449  0.8268 -0.6319
 3681SOL    HW222506   0.279   2.967   2.339 -0.7927 -0.2161  2.3288
 3682SOL     OW22507   4.606   1.993   6.182 -0.1451  0.0637 -0.0290
 3682SOL    HW122508   4.546   2.067   6.183  2.0650  1.8621 -0.1456
 3682SOL    HW222509   4.587   1.950   6.266  2.0255  3.0460  1.9705
 3683SOL     OW22510   4.069   3.239   2.992  0.0275 -0.1194  0.0911
 3683SOL    HW122511   4.064   3.164   2.933  1.6946 -1.1927  1.2999
 3683SOL    HW222512   3.974   3.251   3.000  0.0280 -2.1947  3.3805
 3684SOL     OW22513   2.504   1.230   5.911 -0.1859 -0.1928 -0.3317
 3684SOL    HW122514   2.523   1.173   5.837 -1.1189  1.7478 -2.0799
 3684SOL    HW222515   2.485   1.175   5.986  0.2349  1.5422  1.0474
 3685SOL     OW22516   3.059   3.581   7.213 -0.1727 -0.2283 -0.2350
 3685SOL    HW122517   3.132   3.583   7.275 -0.2291  2.5893 -0.2722
 3685SOL    HW222518   3.091   3.654   7.159 -0.4328  0.8206  1.0440
 3686SOL     OW22519   2.438   2.253   1.922 -0.0600 -0.0010 -0.1054
 3686SOL    HW122520   2.356   2.241   1.874  0.0396 -0.1547 -0.2365
 3686SOL    HW222521   2.410   2.302   1.999  1.5401  0.4942  0.1646
 3687SOL     OW22522   4.248   1.609   3.746 -0.4325 -0.2020 -0.2387
 3687SOL    HW122523   4.302   1.563   3.681  0.1314 -0.9631  0.7799
 3687SOL    HW222524   4.238   1.688   3.692  2.7898 -0.4389 -1.2171
 3688SOL     OW22525   1.311   1.136   6.698  0.0302 -0.1409  0.2793
 3688SOL    HW122526   1.249   1.201   6.732  0.4822  1.7048 -2.3963
 3688SOL    HW222527   1.394   1.179   6.722  0.2409 -0.9105  0.9112
 3689SOL     OW22528   0.028   3.468   8.164 -0.2470 -0.6560  0.0622
 3689SOL    HW122529   0.124   3.464   8.157 -0.2458 -0.6993  0.1018
 3689SOL    HW222530   4.725   3.378   8.177  2.5922 -1.6941 -0.7046
 3690SOL     OW22531   1.846   2.000  12.920 -0.4795  0.1872  0.3041
 3690SOL    HW122532   1.789   1.925  12.937  1.4831 -1.5105 -0.6432
 3690SOL    HW222533   1.838   2.042  13.006 -1.1263 -1.5654  1.0994
 3691SOL     OW22534   1.090   2.450   4.636  0.1893 -0.4782  0.8153
 3691SOL    HW122535   1.178   2.428   4.605  0.6709  0.6534  1.3467
 3691SOL    HW222536   1.033   2.398   4.580 -0.8592  1.5296 -0.0026
 3692SOL     OW22537   3.442   3.177  11.978 -0.2715  0.0342 -0.4709
 3692SOL    HW122538   3.367   3.211  11.929  0.0450  1.1371 -0.1929
 3692SOL    HW222539   3.402   3.108  12.030 -0.5607  1.3528  1.0587
 3693SOL     OW22540   4.248   2.885   4.566 -0.2123  0.1435  0.5022
 3693SOL    HW122541   4.172   2.859   4.617  0.4449  0.2419  1.5272
 3693SOL    HW222542   4.227   2.975   4.542  3.3345  0.5790 -0.9917
 3694SOL     OW22543   2.297   3.441  16.336 -0.1428 -0.1180 -0.5736
 3694SOL    HW122544   2.211   3.423  16.374 -1.3666  0.3506 -3.1261
 3694SOL    HW222545   2.315   3.536  16.334 -4.1096  0.6331  0.8305
 3695SOL     OW22546   1.537   4.197   4.774 -0.0965  0.0089 -0.3002
 3695SOL    HW122547   1.448   4.197   4.810 -0.3584  0.4538 -0.9634
 3695SOL    HW222548   1.582   4.147   4.843 -0.1498 -0.9670 -0.9679
 3696SOL     OW22549   3.773   1.449   3.386 -0.0580  0.9526 -0.5651
 3696SOL    HW122550   3.752   1.501   3.464  1.3857  2.2724 -1.0387
 3696SOL    HW222551   3.708   1.485   3.327 -2.2779 -3.0670 -0.5320
 3697SOL     OW22552   0.852   4.174  15.531  0.0675 -0.5550  0.0577
 3697SOL    HW122553   0.798   4.252  15.546 -1.6389 -1.8018  0.3878
 3697SOL    HW222554   0.810   4.149  15.448 -3.1847  0.0433  1.5258
 3698SOL     OW22555   2.232   3.516   8.558  0.2262  0.1115 -0.4727
 3698SOL    HW122556   2.212   3.467   8.638  1.7895 -0.8682 -0.6811
 3698SOL    HW222557   2.232   3.453   8.487  0.6120  0.1624 -0.5148
 3699SOL     OW22558   3.249   0.591   7.730  0.0035 -0.4007 -0.3543
 3699SOL    HW122559   3.305   0.541   7.671  0.1768  0.4473 -0.9088
 3699SOL    HW222560   3.170   0.593   7.676 -0.6670  1.7133  0.7086
 3700SOL     OW22561   2.709   0.736   5.141 -1.0111 -0.0737  0.4261
 3700SOL    HW122562   2.775   0.792   5.100 -0.3003 -1.6869 -0.6388
 3700SOL    HW222563   2.663   0.804   5.190 -0.3004  0.1248  0.8124
 3701SOL     OW22564   0.773   2.811  12.333  0.4434 -0.1163  0.6307
 3701SOL    HW122565   0.777   2.722  12.369 -1.0400 -0.4694 -0.0636
 3701SOL    HW222566   0.772   2.872  12.407 -1.1619 -1.5953  1.8190
 3702SOL     OW22567   2.564   4.177   7.988  0.0094  0.2338 -0.0971
 3702SOL    HW122568   2.650   4.136   7.980 -0.1097  0.0171 -0.2566
 3702SOL    HW222569   2.534   4.150   8.074 -0.8221  1.5360  0.0312
 3703SOL     OW22570   1.092   4.673   5.082 -0.2970  0.6410 -0.2851
 3703SOL    HW122571   1.181   4.637   5.074  0.3021  1.5982  2.1900
 3703SOL    HW222572   1.109   0.037   5.110 -1.5851  0.5709  0.6740
 3704SOL     OW22573   3.996   2.830   3.826  0.0417  0.1619  0.1636
 3704SOL    HW122574   3.936   2.820   3.752  0.0493 -1.6574  0.4001
 3704SOL    HW222575   3.946   2.797   3.900  1.4913 -2.3922  0.0161
 3705SOL     OW22576   0.564   3.381   0.404  0.4554  0.1314  0.3508
 3705SOL    HW122577   0.497   3.313   0.398  0.1506  0.3882  0.8342
 3705SOL    HW222578   0.566   3.421   0.317  0.2301 -1.8598 -0.5900
 3706SOL     OW22579   0.040   2.178   8.158  0.0242  0.3526 -0.0205
 3706SOL    HW122580   4.715   2.241   8.209 -1.1054 -0.5433 -0.0530
 3706SOL    HW222581   0.118   2.232   8.147  0.1500  0.3393  0.7626
 3707SOL     OW22582   2.059   2.360   5.398  0.5160 -0.4009  0.5606
 3707SOL    HW122583   2.066   2.453   5.374  0.7724 -0.5230  0.1790
 3707SOL    HW222584   2.109   2.304   5.339  0.2412 -0.1666  0.1032
 3708SOL     OW22585   1.931   0.557   4.165 -0.2766 -0.1497  0.3681
 3708SOL    HW122586   1.993   0.622   4.197 -0.6851  1.2976 -1.8230
 3708SOL    HW222587   1.886   0.548   4.250 -1.5068  4.3322  0.1580
 3709SOL     OW22588   1.631   2.882  15.824  0.3386  0.8217 -0.2626
 3709SOL    HW122589   1.570   2.809  15.812  2.3144 -1.0730  1.2078
 3709SOL    HW222590   1.650   2.892  15.731 -0.1312  0.6317 -0.3789
 3710SOL     OW22591   4.556   0.675   9.966 -0.1151 -0.3169 -0.3651
 3710SOL    HW122592   4.596   0.751  10.010  0.4419 -0.2745 -0.9443
 3710SOL    HW222593   4.582   0.682   9.874  1.5572 -1.3279  0.0263
 3711SOL     OW22594   0.721   2.128   3.213 -0.0414 -0.0533  0.1467
 3711SOL    HW122595   0.768   2.186   3.274  1.2640 -1.9875  0.9597
 3711SOL    HW222596   0.747   2.042   3.246  0.3825 -0.1258 -0.3773
 3712SOL     OW22597   1.371   1.311   8.967 -0.2217  0.3593  0.4257
 3712SOL    HW122598   1.419   1.229   8.978 -0.5802  0.2873  1.4726
 3712SOL    HW222599   1.440   1.369   9.000  0.0801  0.9255 -1.2474
 3713SOL     OW22600   2.692   4.231  16.664 -0.0568  0.1447  0.0945
 3713SOL    HW122601   2.644   4.187  16.594 -0.7230  0.0502  0.6112
 3713SOL    HW222602   2.671   4.322  16.643 -1.9416  0.0939  1.6959
 3714SOL     OW22603   0.255   4.677   6.639  0.2119 -0.1170  0.2985
 3714SOL    HW122604   0.306   4.596   6.632 -1.2492 -1.1527  1.6090
 3714SOL    HW222605   0.228   4.680   6.731  0.2383 -0.0991  0.3058
 3715SOL     OW22606   2.341   3.773  17.703  0.3039  0.4020  0.3049
 3715SOL    HW122607   2.399   3.806   0.065 -0.9911  0.0883  1.5479
 3715SOL    HW222608   2.378   3.695  17.663 -1.2889  1.0091 -2.4099
 3716SOL     OW22609   2.284   4.106   6.103  0.1684  0.2795 -0.6764
 3716SOL    HW122610   2.353   4.116   6.037  0.3257 -0.2914 -0.5976
 3716SOL    HW222611   2.294   4.015   6.130 -0.7021  0.1167 -0.8972
 3717SOL     OW22612   3.401   3.238   2.864 -0.4068  0.1204 -0.0734
 3717SOL    HW122613   3.446   3.177   2.922 -1.6196 -0.1767  0.5521
 3717SOL    HW222614   3.336   3.274   2.925 -0.0078 -1.3569  1.2132
 3718SOL     OW22615   3.130   4.397  15.641 -0.6359 -0.5284 -0.9301
 3718SOL    HW122616   3.208   4.406  15.696 -0.0301  0.0847 -1.8977
 3718SOL    HW222617   3.086   4.321  15.678 -1.7459  0.9956  0.8918
 3719SOL     OW22618   1.242   3.761   8.455 -0.6076  0.0372  0.3970
 3719SOL    HW122619   1.147   3.774   8.455 -0.6242 -0.0825  0.5488
 3719SOL    HW222620   1.255   3.846   8.413  0.3157 -1.1164 -1.6004
 3720SOL     OW22621   4.450   0.472  12.207  0.5845 -0.1097 -0.7820
 3720SOL    HW122622   4.514   0.404  12.229 -0.1023  0.1525  2.0054
 3720SOL    HW222623   4.483   0.498  12.121  1.1025 -2.4134 -1.2850
 3721SOL     OW22624   2.108   2.400  13.005  0.5860  0.0154 -0.3921
 3721SOL    HW122625   2.176   2.467  12.994  0.0877  0.9060  1.8692
 3721SOL    HW222626   2.153   2.326  12.965 -0.4730 -0.8510  0.0388
 3722SOL     OW22627   1.043   3.709  11.988 -0.6784  0.1649 -0.3596
 3722SOL    HW122628   1.049   3.765  12.065 -1.1444 -0.5553  0.2021
 3722SOL    HW222629   0.973   3.649  12.011 -1.2000  0.8818 -0.0845
 3723SOL     OW22630   2.652   1.204   5.170  0.7642  0.2089 -0.1304
 3723SOL    HW122631   2.714   1.272   5.141  0.1756  0.5213 -0.6558
 3723SOL    HW222632   2.572   1.254   5.155  0.4239 -0.1304  0.5543
 3724SOL     OW22633   0.007   2.324  10.353  0.2729 -0.2826 -0.0185
 3724SOL    HW122634   4.717   2.333  10.259 -3.5661  3.1715  0.9528
 3724SOL    HW222635   0.092   2.282  10.342  0.3002  0.5306 -3.0235
 3725SOL     OW22636   3.459   0.909   2.976 -0.2793 -0.6835  0.0578
 3725SOL    HW122637   3.396   0.899   2.904 -2.1621  1.2332  1.4241
 3725SOL    HW222638   3.471   0.818   3.004  1.8790 -0.4071 -0.0180
 3726SOL     OW22639   1.667   2.675  15.543 -0.2342 -0.1507 -0.1587
 3726SOL    HW122640   1.733   2.609  15.563 -0.9773 -1.1825 -1.0373
 3726SOL    HW222641   1.723   2.751  15.553  0.8394 -0.7711 -1.4535
 3727SOL     OW22642   3.457   2.341  10.696  0.8379 -0.2438 -0.2766
 3727SOL    HW122643   3.420   2.257  10.667 -1.2439  0.0116  1.6635
 3727SOL    HW222644   3.467   2.384  10.611  0.1967  2.0953  0.8289
 3728SOL     OW22645   3.773   3.893   4.840  0.2968 -0.0874 -0.3625
 3728SOL    HW122646   3.762   3.898   4.746  1.8644 -0.0598 -0.5477
 3728SOL    HW222647   3.845   3.954   4.856 -1.1226  2.0514 -2.2336
 3729SOL     OW22648   1.974   4.114   6.622  0.5832 -0.2600  0.5988
 3729SOL    HW122649   2.004   4.032   6.583 -1.0358 -0.9427  0.7965
 3729SOL    HW222650   2.044   4.130   6.685  2.6385 -1.3514 -1.3896
 3730SOL     OW22651   2.387   1.302  10.057  0.3323 -0.5751  0.4195
 3730SOL    HW122652   2.472   1.267  10.085  0.3432 -0.8223  0.0717
 3730SOL    HW222653   2.330   1.275  10.130  0.3942  0.6993  0.9318
 3731SOL     OW22654   1.602   0.454   7.418  0.4446  0.1648  0.0513
 3731SOL    HW122655   1.576   0.367   7.448 -0.1607 -0.0307 -1.0184
 3731SOL    HW222656   1.581   0.516   7.488  0.8235  0.4524 -0.0909
 3732SOL     OW22657   3.713   1.678   4.576  0.1030 -0.3626  0.1707
 3732SOL    HW122658   3.707   1.672   4.671 -2.6482 -0.2373  0.0238
 3732SOL    HW222659   3.756   1.594   4.560  1.2083 -0.0159  1.3386
 3733SOL     OW22660   4.108   0.759  17.243  0.4276 -0.5926 -0.1111
 3733SOL    HW122661   4.126   0.853  17.236 -1.0955 -0.2231  0.8997
 3733SOL    HW222662   4.019   0.750  17.210  0.4231  0.2205 -0.3217
 3734SOL     OW22663   0.962   2.641  15.088 -0.3136 -0.4535  0.2737
 3734SOL    HW122664   0.970   2.555  15.047  1.4087 -0.3061  0.2674
 3734SOL    HW222665   0.910   2.611  15.162  0.5240 -0.3953  0.8888
 3735SOL     OW22666   3.386   3.417   6.508 -0.5511 -0.4215 -0.1085
 3735SOL    HW122667   3.419   3.336   6.468 -1.3567 -0.9569  0.3070
 3735SOL    HW222668   3.395   3.477   6.434  1.9596 -0.3976  0.2166
 3736SOL     OW22669   2.640   1.431   9.044  0.3292 -0.1982  0.1109
 3736SOL    HW122670   2.547   1.413   9.033 -0.7989  3.0041  4.7735
 3736SOL    HW222671   2.662   1.391   9.128 -2.1647 -0.8436  0.4394
 3737SOL     OW22672   1.067   0.876   6.618  0.5400 -0.3613 -0.3947
 3737SOL    HW122673   1.034   0.955   6.660  1.0123 -0.2185 -0.2954
 3737SOL    HW222674   1.162   0.870   6.625  0.6422  0.7044 -0.8389
 3738SOL     OW22675   3.404   4.508   8.304  0.3764  0.1493 -0.1466
 3738SOL    HW122676   3.482   4.462   8.336 -0.5610 -0.4855  1.2356
 3738SOL    HW222677   3.439   4.559   8.232 -1.2173 -1.3906 -1.9941
 3739SOL     OW22678   3.430   1.332  16.441 -0.2791 -0.2570  0.1490
 3739SOL    HW122679   3.467   1.267  16.501  0.9051 -0.3789 -0.7093
 3739SOL    HW222680   3.352   1.286  16.410 -0.2025 -0.8716  0.8646
 3740SOL     OW22681   3.752   2.075  16.766 -0.0591  0.0060  0.3728
 3740SOL    HW122682   3.695   2.012  16.810 -0.3492  0.5286  0.7487
 3740SOL    HW222683   3.755   2.149  16.826 -0.7277 -1.6473  2.4346
 3741SOL     OW22684   0.507   4.346   9.279  0.4853 -0.2148 -0.3173
 3741SOL    HW122685   0.537   4.346   9.370 -1.4102  0.3671  0.3156
 3741SOL    HW222686   0.497   4.440   9.266 -0.5436 -0.7022 -3.1419
 3742SOL     OW22687   4.210   1.633   8.824 -0.6372  0.0951  0.4074
 3742SOL    HW122688   4.256   1.569   8.770 -0.3681  2.3326 -2.0326
 3742SOL    HW222689   4.281   1.672   8.875 -0.6371  0.6056  0.0230
 3743SOL     OW22690   0.818   3.990   8.679  0.3299  0.2302 -0.5965
 3743SOL    HW122691   0.870   4.032   8.611  0.1084 -1.5771 -1.8881
 3743SOL    HW222692   0.865   4.015   8.759 -2.1185 -0.4332  1.0396
 3744SOL     OW22693   0.068   0.184  13.298 -0.5530 -0.2712  0.5008
 3744SOL    HW122694   0.102   0.106  13.342  1.8551 -0.3907 -1.5374
 3744SOL    HW222695   4.714   0.196  13.348 -0.5311  0.2270  0.4076
 3745SOL     OW22696   1.497   0.594  16.335  0.1795 -0.0974 -0.3981
 3745SOL    HW122697   1.592   0.589  16.327  0.2277  0.8859 -0.3802
 3745SOL    HW222698   1.474   0.502  16.321  1.0810 -0.2053 -1.1476
 3746SOL     OW22699   3.527   1.981   5.591  0.3121  0.0679 -0.7025
 3746SOL    HW122700   3.517   2.052   5.655 -0.3799 -1.0674  0.4582
 3746SOL    HW222701   3.498   2.024   5.511  1.9077  0.3463 -1.1323
 3747SOL     OW22702   3.718   3.958   4.057  0.2431  0.3746  0.3174
 3747SOL    HW122703   3.772   4.008   3.996 -0.1473  1.0143  0.4959
 3747SOL    HW222704   3.633   3.989   4.024 -1.3468 -2.2565  1.9103
 3748SOL     OW22705   1.114   1.431   6.250 -0.0907  0.5234 -0.0162
 3748SOL    HW122706   1.030   1.409   6.211  0.8587 -0.0134 -1.7893
 3748SOL    HW222707   1.110   1.384   6.333 -2.9543  0.5112 -0.1797
 3749SOL     OW22708   1.944   3.452   3.073  0.2212 -0.3609  0.3864
 3749SOL    HW122709   1.849   3.442   3.082  0.1136  1.2873  1.1337
 3749SOL    HW222710   1.954   3.433   2.980 -0.0464 -1.3804  0.5614
 3750SOL     OW22711   2.811   3.268  15.101 -0.0181  0.2241  0.3846
 3750SOL    HW122712   2.728   3.244  15.058 -0.0118 -1.7857  1.4925
 3750SOL    HW222713   2.802   3.253  15.195 -0.7062 -0.5289  0.1993
 3751SOL     OW22714   0.052   0.301  14.532 -0.1613  0.0296 -0.1205
 3751SOL    HW122715   0.100   0.347  14.463 -0.7372  1.0571  0.1695
 3751SOL    HW222716   0.126   0.261  14.577 -0.2987 -0.7239 -0.5686
 3752SOL     OW22717   0.792   3.715   5.874  0.0273 -0.0514  0.2200
 3752SOL    HW122718   0.837   3.769   5.809 -1.0530  0.9173  0.2736
 3752SOL    HW222719   0.704   3.720   5.837  0.1426 -0.0375 -0.0502
 3753SOL     OW22720   4.083   1.240   4.507 -0.6326  0.9524 -0.6722
 3753SOL    HW122721   4.098   1.146   4.513  1.7482  1.4275  0.9709
 3753SOL    HW222722   4.175   1.256   4.487 -0.2485  1.1649  1.2696
 3754SOL     OW22723   0.530   3.429   1.844  0.1407 -0.6207  0.2304
 3754SOL    HW122724   0.535   3.382   1.927 -0.9486 -0.5141  0.3608
 3754SOL    HW222725   0.511   3.515   1.883  1.1499 -0.2052 -0.1931
 3755SOL     OW22726   3.118   2.807  17.528  0.4599  0.0978  0.0769
 3755SOL    HW122727   3.154   2.843  17.609  0.0223  1.4374 -0.3251
 3755SOL    HW222728   3.197   2.814  17.475  1.1530  3.9199  1.6686
 3756SOL     OW22729   1.669   2.039   2.952 -0.0417  0.1843 -0.0241
 3756SOL    HW122730   1.591   1.993   2.921  1.5014 -2.2591 -0.2938
 3756SOL    HW222731   1.727   2.028   2.876  0.1093  0.8236  0.0029
 3757SOL     OW22732   1.606   3.090   0.302 -0.5701 -0.5295  0.1930
 3757SOL    HW122733   1.583   3.175   0.265 -0.0438  0.7777  2.8521
 3757SOL    HW222734   1.597   3.031   0.227  0.2897 -0.0078 -0.3320
 3758SOL     OW22735   4.432   2.325  10.035 -0.5071 -0.1748 -0.6527
 3758SOL    HW122736   4.522   2.299  10.056 -0.5618 -1.5236 -2.1030
 3758SOL    HW222737   4.443   2.400   9.977 -0.3130  1.3835  1.3597
 3759SOL     OW22738   4.055   0.322   3.710  0.2975  0.4204  0.6130
 3759SOL    HW122739   4.114   0.366   3.771  1.2062  2.6820 -1.9422
 3759SOL    HW222740   3.993   0.306   3.781  0.7846  1.0363  1.1805
 3760SOL     OW22741   3.444   0.486   1.885  0.1477  0.3909  0.9020
 3760SOL    HW122742   3.490   0.473   1.802  0.4225  0.8746  0.9785
 3760SOL    HW222743   3.477   0.570   1.918  1.1952  0.1823  0.3802
 3761SOL     OW22744   4.687   1.921   4.942  1.1955  0.3014  0.2945
 3761SOL    HW122745   4.726   1.998   4.900 -0.4160  1.1277  0.3304
 3761SOL    HW222746   4.693   1.952   5.032 -3.8557 -0.1786  0.7600
 3762SOL     OW22747   0.733   2.636  10.664  0.0046  0.4601  0.3067
 3762SOL    HW122748   0.731   2.630  10.760  0.3932  0.3967  0.3087
 3762SOL    HW222749   0.725   2.732  10.658 -1.4994  0.2608 -1.0240
 3763SOL     OW22750   2.411   1.561   6.768  0.0915 -0.0813 -0.3048
 3763SOL    HW122751   2.433   1.585   6.858 -0.5835 -3.7683  0.8390
 3763SOL    HW222752   2.333   1.508   6.784  0.7209 -0.3254  1.9711
 3764SOL     OW22753   0.361   0.805   4.829 -0.6591  0.5601  0.4862
 3764SOL    HW122754   0.368   0.719   4.787 -0.4609  1.1263 -0.6408
 3764SOL    HW222755   0.270   0.826   4.811 -1.5282 -2.0114  1.8835
 3765SOL     OW22756   4.297   3.910  10.293 -0.3455 -0.1461 -0.0658
 3765SOL    HW122757   4.373   3.964  10.316 -1.2315  0.6228  1.0353
 3765SOL    HW222758   4.309   3.906  10.198 -1.2211  3.4016 -0.3093
 3766SOL     OW22759   0.463   1.233  13.400  0.4232 -0.1141  0.5634
 3766SOL    HW122760   0.409   1.267  13.470 -0.0609  0.2515  0.0147
 3766SOL    HW222761   0.549   1.270  13.419 -0.0583  0.7263  1.0963
 3767SOL     OW22762   1.993   0.008   4.499  0.1069  0.1345 -0.0580
 3767SOL    HW122763   1.913   0.059   4.516  0.6626  1.2308 -0.6856
 3767SOL    HW222764   1.970   4.649   4.534 -0.7650  0.1223 -0.6379
 3768SOL     OW22765   1.452   1.610   0.232 -0.1912 -0.3084  0.0835
 3768SOL    HW122766   1.427   1.690   0.278  1.2312  0.3844 -0.3759
 3768SOL    HW222767   1.387   1.589   0.165  1.2405  1.2918 -1.7820
 3769SOL     OW22768   3.153   1.900   9.469 -0.7534 -0.0575  0.5635
 3769SOL    HW122769   3.198   1.966   9.523  1.9561 -2.8870  1.8059
 3769SOL    HW222770   3.094   1.955   9.418  1.2862  2.0554  0.4271
 3770SOL     OW22771   0.027   3.427  12.655 -0.0476 -0.1236  0.2531
 3770SOL    HW122772   0.004   3.518  12.672  0.5033  0.5718 -2.7140
 3770SOL    HW222773   0.121   3.434  12.641  0.2462  0.3062  2.5014
 3771SOL     OW22774   0.280   4.177  12.845  0.1575 -0.2933 -0.2913
 3771SOL    HW122775   0.353   4.133  12.801 -0.1258 -0.3651 -0.6890
 3771SOL    HW222776   0.221   4.107  12.871  0.2179  0.6290  2.2414
 3772SOL     OW22777   0.955   1.604   2.935 -0.0497  0.3873  0.1535
 3772SOL    HW122778   0.926   1.608   2.843  1.5796 -2.6738 -0.5054
 3772SOL    HW222779   1.049   1.618   2.930  0.0124  0.0087  0.2652
 3773SOL     OW22780   3.114   1.697  16.797 -0.2297 -0.1200 -0.4050
 3773SOL    HW122781   3.110   1.727  16.706  0.9104 -0.4287 -0.5663
 3773SOL    HW222782   3.202   1.715  16.832 -1.4442  0.8547  2.1075
 3774SOL     OW22783   2.045   4.547   6.583 -0.1917 -0.5024  0.2664
 3774SOL    HW122784   1.976   4.601   6.545  0.6497 -0.4303 -1.1497
 3774SOL    HW222785   2.043   4.573   6.675  1.6139  0.4936  0.0121
 3775SOL     OW22786   2.691   3.797   5.303 -0.2091 -0.5623 -0.3806
 3775SOL    HW122787   2.638   3.730   5.260 -0.8114 -0.4948  0.2510
 3775SOL    HW222788   2.753   3.837   5.243 -1.6420  0.7761 -0.9684
 3776SOL     OW22789   4.198   1.119   3.498 -0.3704 -0.1462  0.6587
 3776SOL    HW122790   4.186   1.043   3.555  0.7410 -1.3789 -0.7441
 3776SOL    HW222791   4.108   1.135   3.469 -0.1007 -0.7521 -0.5313
 3777SOL     OW22792   3.660   0.842   2.557  0.5775  0.1105  0.4262
 3777SOL    HW122793   3.750   0.828   2.589  0.7533 -1.3085 -0.6868
 3777SOL    HW222794   3.624   0.890   2.631  0.9995 -0.0490  0.7396
 3778SOL     OW22795   4.573   3.977   7.322  0.5089 -0.8498  0.1741
 3778SOL    HW122796   4.591   4.031   7.398 -0.1080 -0.6037  0.1480
 3778SOL    HW222797   4.501   3.920   7.349  0.2200 -0.6101 -0.0906
 3779SOL     OW22798   3.578   2.066  14.762 -0.3400  0.4118  0.3319
 3779SOL    HW122799   3.576   2.037  14.853 -4.7580  0.9502  0.4034
 3779SOL    HW222800   3.622   2.151  14.764  0.3562  0.0820 -0.9242
 3780SOL     OW22801   2.841   1.729   7.202 -1.0699 -0.6840 -0.4903
 3780SOL    HW122802   2.918   1.728   7.145  0.3551  0.8033  1.3875
 3780SOL    HW222803   2.874   1.790   7.269 -1.9090  0.3308 -1.0135
 3781SOL     OW22804   0.204   2.268   7.234  0.2584  0.1999  0.3835
 3781SOL    HW122805   0.244   2.185   7.209 -2.6846 -1.5388  1.4250
 3781SOL    HW222806   0.196   2.326   7.159  1.3672  1.6921  1.4192
 3782SOL     OW22807   3.928   0.242   2.816 -0.0353 -0.2960  0.1354
 3782SOL    HW122808   3.929   0.337   2.826 -1.2340 -0.4104  1.3795
 3782SOL    HW222809   4.014   0.228   2.776 -0.5618 -1.0264 -0.7271
 3783SOL     OW22810   3.671   3.630   6.066 -0.3696  0.0015 -0.0400
 3783SOL    HW122811   3.700   3.605   5.978  0.7498  2.1049 -0.2549
 3783SOL    HW222812   3.594   3.682   6.044 -0.9122  0.7443  3.6340
 3784SOL     OW22813   3.574   2.035   2.677  0.6464  0.7030 -0.2068
 3784SOL    HW122814   3.663   2.027   2.713  0.7832 -1.3891 -1.0122
 3784SOL    HW222815   3.597   2.032   2.584  0.7477 -1.1718 -0.1348
 3785SOL     OW22816   2.857   4.220   8.977 -0.1396 -0.0424  0.2095
 3785SOL    HW122817   2.835   4.297   8.924 -1.6833 -0.1889  0.6506
 3785SOL    HW222818   2.911   4.265   9.041  0.3707  0.5959 -0.6729
 3786SOL     OW22819   2.450   4.697   3.091  0.0908  0.1861 -0.5174
 3786SOL    HW122820   2.402   0.006   3.165 -0.8899  1.7990 -1.9388
 3786SOL    HW222821   2.510   4.642   3.142 -2.7533 -1.9994  0.4429
 3787SOL     OW22822   3.908   3.941   8.563  0.1829 -0.0311 -0.6180
 3787SOL    HW122823   3.952   4.025   8.576 -0.4545 -0.1102  2.1011
 3787SOL    HW222824   3.913   3.899   8.649 -1.3479 -0.1518 -0.5872
 3788SOL     OW22825   4.649   4.495   7.891 -0.4666  0.3362  0.2061
 3788SOL    HW122826   0.013   4.499   7.860 -0.3984 -0.5207  0.3001
 3788SOL    HW222827   4.643   4.587   7.915  2.5417  0.4422  0.6035
 3789SOL     OW22828   2.938   0.380   2.563 -0.2029  0.2828  0.2063
 3789SOL    HW122829   2.911   0.386   2.471  1.5104  1.6783 -0.1950
 3789SOL    HW222830   2.910   0.292   2.590  1.1902 -0.1178  0.3290
 3790SOL     OW22831   3.615   1.374   4.772 -0.5552 -0.0465 -0.1584
 3790SOL    HW122832   3.702   1.407   4.750  0.4894 -1.0330  2.5661
 3790SOL    HW222833   3.571   1.398   4.690 -0.2106  1.5428  0.1142
 3791SOL     OW22834   3.386   2.131   3.172  0.1185  0.0103 -0.0192
 3791SOL    HW122835   3.450   2.201   3.184 -2.8901  2.2633  2.9962
 3791SOL    HW222836   3.325   2.186   3.123  0.6522  2.1856  1.7379
 3792SOL     OW22837   1.692   2.643   8.857  0.0242 -0.2659 -0.5735
 3792SOL    HW122838   1.697   2.712   8.791  0.4239  0.4114  0.1647
 3792SOL    HW222839   1.748   2.681   8.925 -0.1056 -1.5628  0.2716
 3793SOL     OW22840   4.418   0.445   6.953 -0.6019  0.4803  0.2285
 3793SOL    HW122841   4.367   0.455   6.873  2.2789  2.8653 -1.3077
 3793SOL    HW222842   4.368   0.495   7.018 -2.0362  0.3241 -0.7630
 3794SOL     OW22843   4.100   1.490   1.968  0.4301  0.2495  0.1865
 3794SOL    HW122844   4.029   1.461   1.911  1.3611 -0.7217 -0.4746
 3794SOL    HW222845   4.163   1.519   1.902 -0.0675 -0.0863 -0.4336
 3795SOL     OW22846   2.709   3.193   6.893  0.2534  0.2178  0.2016
 3795SOL    HW122847   2.798   3.222   6.871  0.0122 -0.5017 -1.6814
 3795SOL    HW222848   2.662   3.273   6.916 -0.9367 -0.7381  1.1454
 3796SOL     OW22849   1.492   4.374   7.564 -0.6483 -0.2047 -0.4971
 3796SOL    HW122850   1.579   4.391   7.530 -0.1645  0.0097  0.8553
 3796SOL    HW222851   1.520   4.336   7.647  1.1919  0.3128 -0.8953
 3797SOL     OW22852   4.126   4.680  14.235 -0.2751 -0.0414 -0.1296
 3797SOL    HW122853   4.198   0.016  14.224 -1.1340  1.3091  1.7738
 3797SOL    HW222854   4.108   4.653  14.145  0.7365  0.1987 -0.4000
 3798SOL     OW22855   0.103   4.321   6.149 -0.2438 -0.1615 -0.5355
 3798SOL    HW122856   0.015   4.331   6.112  0.5309  2.2471 -1.6818
 3798SOL    HW222857   0.088   4.375   6.226 -2.5108 -1.2156 -0.2137
 3799SOL     OW22858   4.343   0.694   2.895 -0.2998 -0.5182  0.4621
 3799SOL    HW122859   4.374   0.658   2.977 -0.4606  0.1179  0.7999
 3799SOL    HW222860   4.411   0.662   2.835  0.1757 -1.6719  1.6277
 3800SOL     OW22861   4.470   3.625   8.211  0.2503  0.1326  0.1550
 3800SOL    HW122862   4.541   3.567   8.184  0.4681  1.4434 -2.0955
 3800SOL    HW222863   4.458   3.602   8.303  0.8009 -0.4431  0.0819
 3801SOL     OW22864   0.889   4.144  15.819 -0.3447  0.3429 -0.3425
 3801SOL    HW122865   0.888   4.227  15.866 -2.7721 -0.9114  1.8491
 3801SOL    HW222866   0.874   4.182  15.732  2.7223  0.4652 -0.7951
 3802SOL     OW22867   3.405   3.162  14.103  0.3080  0.3524 -0.0306
 3802SOL    HW122868   3.447   3.127  14.182  1.3035  0.6972 -0.4062
 3802SOL    HW222869   3.397   3.082  14.050 -0.6910  2.6941 -3.3616
 3803SOL     OW22870   4.283   1.399   8.699  0.7163 -0.0590 -0.2378
 3803SOL    HW122871   4.210   1.385   8.639  2.3009 -1.7115 -1.7932
 3803SOL    HW222872   4.354   1.347   8.661 -0.5022 -0.4265 -2.0216
 3804SOL     OW22873   4.114   3.831  13.429 -0.4998 -0.8693  0.7786
 3804SOL    HW122874   4.119   3.801  13.520  1.7340  0.7738  1.1930
 3804SOL    HW222875   4.206   3.840  13.405 -1.3411  2.4985 -1.1749
 3805SOL     OW22876   2.942   2.464   9.238 -0.5067  0.0034 -0.0965
 3805SOL    HW122877   2.940   2.394   9.173  2.3320  0.9077 -1.1597
 3805SOL    HW222878   3.031   2.446   9.270 -0.6296  1.1321  0.8671
 3806SOL     OW22879   1.999   3.645   6.552 -0.3090 -0.3999  0.5855
 3806SOL    HW122880   1.984   3.558   6.515 -0.6198 -1.0019  2.1415
 3806SOL    HW222881   1.932   3.659   6.620 -0.3278 -2.1552  0.9305
 3807SOL     OW22882   3.271   2.980  10.452  0.3045  0.0266 -0.1477
 3807SOL    HW122883   3.212   3.033  10.399  1.6397  0.9912 -0.6706
 3807SOL    HW222884   3.240   2.891  10.431 -2.4570  0.9195  0.1627
 3808SOL     OW22885   3.356   1.931   2.240  0.2965 -0.6220 -0.2083
 3808SOL    HW122886   3.393   1.842   2.240  1.6396 -0.0662 -0.4347
 3808SOL    HW222887   3.320   1.933   2.152 -0.3622 -0.1074  0.0789
 3809SOL     OW22888   0.177   1.780  15.204  0.0515  0.2286 -0.5507
 3809SOL    HW122889   0.135   1.840  15.142  0.8133  1.2307 -0.0955
 3809SOL    HW222890   0.169   1.700  15.152  0.2630  0.3226 -0.7293
 3810SOL     OW22891   4.610   4.190   3.057  0.1829 -0.1322 -0.6846
 3810SOL    HW122892   4.577   4.274   3.088 -2.7779 -0.5279 -2.7115
 3810SOL    HW222893   4.535   4.138   3.086  0.8433 -1.6254 -1.6430
 3811SOL     OW22894   2.208   1.505  16.371 -0.5014 -0.4724  0.1221
 3811SOL    HW122895   2.179   1.595  16.383  0.7270 -0.1867  1.0495
 3811SOL    HW222896   2.183   1.461  16.453 -0.7188  0.1239  0.3749
 3812SOL     OW22897   3.177   0.471   1.827  0.2555  0.5901 -0.1351
 3812SOL    HW122898   3.205   0.436   1.743  1.1400  0.5141  0.1972
 3812SOL    HW222899   3.259   0.509   1.860  0.8312 -0.1425 -0.7462
 3813SOL     OW22900   1.987   0.086  14.630  0.4125 -0.7541 -0.1081
 3813SOL    HW122901   1.986   0.136  14.549 -3.0506 -1.2468 -0.3553
 3813SOL    HW222902   2.079   0.083  14.655  0.0050 -0.3737  1.4797
 3814SOL     OW22903   0.018   4.008  13.274 -0.2227 -0.1093  0.5894
 3814SOL    HW122904   4.671   3.948  13.259 -1.1619  1.7037 -2.1518
 3814SOL    HW222905   0.080   3.966  13.214 -0.0360 -0.9495  1.3759
 3815SOL     OW22906   4.661   3.031   7.169  0.0853  0.1394 -0.0134
 3815SOL    HW122907   0.006   3.049   7.108 -0.6794 -0.2049 -0.9873
 3815SOL    HW222908   4.663   3.107   7.228 -0.4048 -0.2165  0.4661
 3816SOL     OW22909   1.755   4.075   3.718 -0.0197  0.2622  0.1956
 3816SOL    HW122910   1.662   4.083   3.734 -0.3098  0.8043 -1.7371
 3816SOL    HW222911   1.774   4.157   3.672  0.6497  0.7152  1.2763
 3817SOL     OW22912   3.044   1.984   7.572 -0.3328 -0.3008 -0.0755
 3817SOL    HW122913   3.121   1.936   7.603  0.1870  0.2698 -0.4990
 3817SOL    HW222914   3.019   2.046   7.640 -0.8702  0.0720 -0.6081
 3818SOL     OW22915   1.282   0.534   7.593  0.2794 -0.4659  0.0908
 3818SOL    HW122916   1.193   0.567   7.603  0.2263 -1.1903  1.8979
 3818SOL    HW222917   1.263   0.461   7.534 -1.5018 -1.4132  1.8291
 3819SOL     OW22918   2.780   0.917  13.701 -0.3146  0.7144  0.3000
 3819SOL    HW122919   2.713   0.893  13.637  0.8001 -0.2505 -0.5226
 3819SOL    HW222920   2.749   1.001  13.735 -0.2004 -0.0386  2.2812
 3820SOL     OW22921   1.155   4.242  15.507 -0.2723 -0.4757 -0.3842
 3820SOL    HW122922   1.159   4.198  15.422  2.8477 -0.7805 -0.0960
 3820SOL    HW222923   1.061   4.240  15.519 -0.3450  1.6557 -0.6041
 3821SOL     OW22924   2.438   0.994  10.150  0.0245  0.6957  0.4358
 3821SOL    HW122925   2.503   1.065  10.148  0.1200  0.6200  0.7755
 3821SOL    HW222926   2.492   0.920  10.177 -1.4084 -0.2199  0.7889
 3822SOL     OW22927   0.863   0.682   2.566  0.4798 -0.7676 -0.0120
 3822SOL    HW122928   0.823   0.640   2.490  1.3276  0.9631 -1.4320
 3822SOL    HW222929   0.818   0.653   2.645 -2.0748 -0.3088 -1.2914
 3823SOL     OW22930   1.641   2.491   9.369  0.4206  0.2818 -0.2869
 3823SOL    HW122931   1.689   2.569   9.342 -0.5846  0.7185 -0.8049
 3823SOL    HW222932   1.708   2.433   9.405  1.5988  1.6133 -0.3232
 3824SOL     OW22933   1.534   2.415   7.779 -0.2256  0.1752  0.0461
 3824SOL    HW122934   1.554   2.456   7.694 -0.3416 -1.6682 -0.8667
 3824SOL    HW222935   1.596   2.342   7.780  1.5185  1.6330 -0.6945
 3825SOL     OW22936   0.880   2.119   0.019 -0.1793 -0.3912  0.0484
 3825SOL    HW122937   0.854   2.201   0.062 -1.2883 -1.3699  1.2479
 3825SOL    HW222938   0.800   2.067   0.015 -0.1672 -0.5871  2.5089
 3826SOL     OW22939   0.980   4.602   4.466 -0.3565  0.2625 -0.1599
 3826SOL    HW122940   0.896   4.640   4.491 -0.1949 -0.1691  1.0257
 3826SOL    HW222941   0.950   4.524   4.420  0.3621  0.7945 -1.5336
 3827SOL     OW22942   3.849   3.361   5.150  0.2067 -0.1075  0.4626
 3827SOL    HW122943   3.837   3.442   5.200 -3.1169 -0.8587  0.9053
 3827SOL    HW222944   3.797   3.377   5.071  1.4911 -2.4714 -0.8450
 3828SOL     OW22945   2.021   0.756   3.532  0.1385  0.5659 -0.5754
 3828SOL    HW122946   2.098   0.759   3.475  1.2058 -1.0436  0.7890
 3828SOL    HW222947   1.958   0.800   3.476  0.2959 -1.3349 -2.2377
 3829SOL     OW22948   0.335   3.211   8.625 -1.0709 -0.3972  0.4593
 3829SOL    HW122949   0.252   3.177   8.659 -1.0477 -0.7518  0.1574
 3829SOL    HW222950   0.361   3.147   8.559 -0.6805  1.0283 -0.7556
 3830SOL     OW22951   2.188   2.530  16.177 -0.2608  0.1314  0.1704
 3830SOL    HW122952   2.188   2.436  16.195  0.6483  0.1773  0.4398
 3830SOL    HW222953   2.228   2.562  16.258  2.3572 -0.9950 -0.6843
 3831SOL     OW22954   1.200   4.350   7.525 -0.6207 -0.1958 -0.2495
 3831SOL    HW122955   1.217   4.256   7.533  0.2267  0.1882  2.5975
 3831SOL    HW222956   1.267   4.378   7.587  0.8279 -1.8491 -1.0741
 3832SOL     OW22957   0.169   2.899   2.985  0.6597 -0.3009 -0.5939
 3832SOL    HW122958   0.083   2.879   3.021  0.5313  1.8325  0.2461
 3832SOL    HW222959   0.186   2.817   2.938  0.5615 -0.2761 -0.6731
 3833SOL     OW22960   3.206   2.843   9.277  0.5826  0.2802 -0.3981
 3833SOL    HW122961   3.286   2.791   9.272  1.3346  1.3703  0.2620
 3833SOL    HW222962   3.180   2.833   9.186  0.2769 -2.2693 -0.0330
 3834SOL     OW22963   0.585   1.671   2.771 -0.3617 -0.1107 -0.0950
 3834SOL    HW122964   0.649   1.599   2.773 -0.8175 -0.5365 -0.9262
 3834SOL    HW222965   0.586   1.697   2.679  2.2771 -1.8794 -0.5630
 3835SOL     OW22966   4.152   4.136   7.253 -0.3346  0.3955 -0.3905
 3835SOL    HW122967   4.168   4.162   7.344  0.1827  2.6675 -1.1156
 3835SOL    HW222968   4.096   4.059   7.265 -1.8004  1.3362 -1.1942
 3836SOL     OW22969   3.680   4.227   6.459  0.3551  0.8175  0.7427
 3836SOL    HW122970   3.624   4.291   6.416  2.5010  0.7992 -2.1037
 3836SOL    HW222971   3.761   4.246   6.410  0.8939 -0.3531  1.1865
 3837SOL     OW22972   2.697   0.856   1.889  0.3433 -0.5960  0.3926
 3837SOL    HW122973   2.655   0.836   1.973 -2.8901 -0.7315 -1.2628
 3837SOL    HW222974   2.785   0.826   1.911  1.2022 -0.2647 -2.5519
 3838SOL     OW22975   4.540   4.461  14.477  0.0491  0.3798 -0.3785
 3838SOL    HW122976   4.448   4.487  14.478 -1.0539 -3.5449 -0.9477
 3838SOL    HW222977   4.563   4.508  14.397 -0.4708  0.0226 -0.7387
 3839SOL     OW22978   2.348   3.839   8.020 -0.2661  0.0545 -0.3371
 3839SOL    HW122979   2.407   3.785   7.968  0.8627  0.6494  0.3096
 3839SOL    HW222980   2.342   3.913   7.959  1.1667  1.2547  0.9660
 3840SOL     OW22981   4.506   4.248   5.628 -0.4027  0.2037 -0.1500
 3840SOL    HW122982   4.555   4.198   5.563 -1.0518  1.0606 -1.2939
 3840SOL    HW222983   4.474   4.321   5.576  0.5325  0.9403  0.3279
 3841SOL     OW22984   3.104   3.217  13.316 -0.0167  0.1057  0.0302
 3841SOL    HW122985   3.112   3.125  13.343 -0.3919  0.1741  0.3723
 3841SOL    HW222986   3.090   3.204  13.222 -0.4657 -1.1482  0.2717
 3842SOL     OW22987   3.527   0.472  16.992  0.0171  0.1518  0.1485
 3842SOL    HW122988   3.539   0.525  16.913 -0.0757 -0.9973 -0.6407
 3842SOL    HW222989   3.531   0.384  16.955 -1.4003  0.9555 -1.9052
 3843SOL     OW22990   2.432   1.142   6.973  0.4289  0.3514 -0.3964
 3843SOL    HW122991   2.469   1.099   6.896 -3.6669 -1.3480 -1.4143
 3843SOL    HW222992   2.337   1.138   6.960  0.1675  0.6148  1.4006
 3844SOL     OW22993   2.303   3.383  13.532  0.1642 -0.0932  0.7128
 3844SOL    HW122994   2.240   3.324  13.491 -1.2820  3.0487 -1.5764
 3844SOL    HW222995   2.386   3.358  13.491  0.1285 -1.3621  1.4236
 3845SOL     OW22996   4.011   2.857   7.691  0.0752  0.0301  0.1290
 3845SOL    HW122997   4.027   2.812   7.608  0.8924  2.0861 -0.8254
 3845SOL    HW222998   4.078   2.816   7.746 -0.9108 -2.4496 -0.4778
 3846SOL     OW22999   3.296   0.339  10.887  0.5313 -0.4633  0.3623
 3846SOL    HW123000   3.277   0.276  10.818 -0.8348  0.6297 -0.2550
 3846SOL    HW223001   3.385   0.312  10.913  1.1528  0.1915 -1.1005
 3847SOL     OW23002   2.096   2.914   3.339 -0.2365 -0.5809  0.0215
 3847SOL    HW123003   2.140   2.890   3.420  0.3468  1.3071  0.2708
 3847SOL    HW223004   2.004   2.896   3.359 -0.4433 -1.2870 -1.5169
 3848SOL     OW23005   3.174   2.415   8.872  0.8595 -0.5235 -0.0284
 3848SOL    HW123006   3.079   2.427   8.869  0.6553 -1.5473  2.2582
 3848SOL    HW223007   3.200   2.447   8.958  1.7591 -0.7462 -0.2243
 3849SOL     OW23008   3.616   3.295   2.546  0.6921 -0.2895 -0.2492
 3849SOL    HW123009   3.659   3.231   2.602  0.5191 -0.2407 -0.0610
 3849SOL    HW223010   3.699   3.324   2.509 -0.6461  2.5960 -1.0130
 3850SOL     OW23011   3.284   0.836  13.691  0.1765 -0.3470 -0.0159
 3850SOL    HW123012   3.317   0.746  13.691 -0.4324 -0.5708 -0.7976
 3850SOL    HW223013   3.196   0.821  13.654 -0.0440  0.0296  0.3499
 3851SOL     OW23014   2.332   1.933   6.061 -0.2889  0.1770  0.3247
 3851SOL    HW123015   2.384   1.953   6.139  4.0753  0.4757 -2.6758
 3851SOL    HW223016   2.334   2.008   6.002  0.9357  0.0619  0.2283
 3852SOL     OW23017   2.699   1.420   3.464  0.6488  0.0117 -0.0803
 3852SOL    HW123018   2.649   1.497   3.492 -0.0690 -0.7302  0.6727
 3852SOL    HW223019   2.693   1.443   3.371  2.9880 -0.5292 -0.3713
 3853SOL     OW23020   0.441   1.068   2.078 -0.5495 -0.1703  0.1188
 3853SOL    HW123021   0.485   0.984   2.064  1.6345  1.1139 -0.8395
 3853SOL    HW223022   0.518   1.123   2.063 -0.7715  0.6674  1.9762
 3854SOL     OW23023   2.984   0.684   3.638 -0.0462  0.5600 -0.0390
 3854SOL    HW123024   2.929   0.695   3.715 -0.7652  0.3158 -0.5171
 3854SOL    HW223025   3.068   0.718   3.669  1.4179 -4.1430  1.1942
 3855SOL     OW23026   1.518   3.339   4.987 -0.5052 -0.1092  0.2955
 3855SOL    HW123027   1.562   3.393   4.921 -3.7634  0.9973 -0.9863
 3855SOL    HW223028   1.515   3.391   5.067 -0.9831 -0.7565  0.6900
 3856SOL     OW23029   0.819   3.274   2.592 -0.2506  0.4752  0.1790
 3856SOL    HW123030   0.861   3.294   2.508 -0.9937  1.2439 -0.0059
 3856SOL    HW223031   0.763   3.198   2.572  0.3915  0.5835 -2.0955
 3857SOL     OW23032   0.090   1.207   7.515  0.5339  0.3508  0.7243
 3857SOL    HW123033   0.043   1.289   7.527  0.4103  0.3619  0.1323
 3857SOL    HW223034   0.016   1.147   7.519  1.9602 -1.5649 -1.4362
 3858SOL     OW23035   0.010   0.331   5.646  0.0894  0.1419  0.6420
 3858SOL    HW123036   0.060   0.309   5.567 -1.1587 -3.2992  0.8181
 3858SOL    HW223037   0.072   0.325   5.719  0.9789  0.3568 -0.0865
 3859SOL     OW23038   2.549   4.266   4.083 -0.0719  0.6355 -0.0954
 3859SOL    HW123039   2.542   4.362   4.081 -1.1580  0.5059 -2.6457
 3859SOL    HW223040   2.461   4.245   4.051 -0.0671  0.8481 -0.2475
 3860SOL     OW23041   2.489   1.015   4.036 -0.5065 -0.0916 -0.1040
 3860SOL    HW123042   2.404   1.042   4.002 -0.0912 -1.1140 -1.9488
 3860SOL    HW223043   2.539   1.052   3.964 -1.8437 -0.2511 -1.1018
 3861SOL     OW23044   2.861   2.411   4.303 -0.2780 -0.3027 -0.5859
 3861SOL    HW123045   2.931   2.464   4.342 -0.8077  0.5316 -0.7670
 3861SOL    HW223046   2.884   2.401   4.210 -1.1181  0.4530 -0.8804
 3862SOL     OW23047   1.517   3.392   7.535  0.6305  0.0004 -0.2743
 3862SOL    HW123048   1.544   3.480   7.562 -0.0496  0.1742 -0.1693
 3862SOL    HW223049   1.452   3.373   7.602 -0.1455 -1.5316 -1.4612
 3863SOL     OW23050   1.439   2.253  12.986  0.5993 -0.0644  0.0736
 3863SOL    HW123051   1.359   2.265  12.935  1.3167 -0.2242 -1.1169
 3863SOL    HW223052   1.495   2.232  12.910  0.2115 -0.8866  0.0120
 3864SOL     OW23053   1.744   0.791   2.696  0.4309  0.4146 -0.7656
 3864SOL    HW123054   1.707   0.703   2.689 -1.2722  1.0445  0.3317
 3864SOL    HW223055   1.773   0.796   2.605  0.8362 -0.4589 -0.6893
 3865SOL     OW23056   2.734   1.668   2.439  0.4743 -0.7622 -0.1854
 3865SOL    HW123057   2.741   1.764   2.438  0.9847 -0.7954  0.0967
 3865SOL    HW223058   2.649   1.655   2.482 -0.1405 -0.4004 -1.2891
 3866SOL     OW23059   1.455   2.291   8.854 -0.1005 -1.0754 -0.0983
 3866SOL    HW123060   1.418   2.240   8.927  0.1527  0.6175  1.2194
 3866SOL    HW223061   1.472   2.374   8.899  1.3631 -0.9702 -0.8480
 3867SOL     OW23062   0.619   2.513   3.030 -0.4895  0.4983  0.2971
 3867SOL    HW123063   0.563   2.484   3.102  0.8427 -0.7689  0.8086
 3867SOL    HW223064   0.666   2.589   3.064 -0.3725  1.4933 -2.0815
 3868SOL     OW23065   4.260   1.839   4.434 -0.0384  0.3550 -0.2163
 3868SOL    HW123066   4.266   1.934   4.429  0.5439  0.3237 -0.0764
 3868SOL    HW223067   4.174   1.828   4.392 -1.6276 -0.5164  3.3198
 3869SOL     OW23068   1.030   3.559   7.788 -0.1644  0.3952 -0.1384
 3869SOL    HW123069   1.018   3.641   7.837 -2.2449 -0.4843  0.8300
 3869SOL    HW223070   0.946   3.561   7.743 -0.8762 -3.4513  0.9648
 3870SOL     OW23071   3.997   2.602   2.346  0.1755  0.1482  0.7845
 3870SOL    HW123072   4.042   2.637   2.270 -1.0584  0.2655  0.1098
 3870SOL    HW223073   3.969   2.516   2.314 -0.0028  0.2311  0.7186
 3871SOL     OW23074   4.701   1.581  11.902  0.1397  0.5658 -0.4509
 3871SOL    HW123075   0.025   1.621  11.972  1.0693 -1.2049 -0.0926
 3871SOL    HW223076   4.615   1.571  11.943  0.9180  0.5709  1.1532
 3872SOL     OW23077   3.892   2.916   8.243  0.6354 -0.0241 -0.4038
 3872SOL    HW123078   3.816   2.871   8.280  0.5004  0.6977  0.2157
 3872SOL    HW223079   3.886   2.876   8.156  1.9714  0.3128 -0.6529
 3873SOL     OW23080   0.848   3.178  11.992  0.0416 -0.7402 -0.4858
 3873SOL    HW123081   0.795   3.249  12.027 -0.4735 -0.1625 -2.4220
 3873SOL    HW223082   0.933   3.191  12.035  0.5042  0.8001 -1.8625
 3874SOL     OW23083   3.255   1.059  16.595 -0.3899 -0.2179  0.0104
 3874SOL    HW123084   3.195   1.107  16.538 -1.3363 -0.9982  0.3681
 3874SOL    HW223085   3.318   1.125  16.623 -1.8026  1.3109 -0.4061
 3875SOL     OW23086   1.528   2.837   6.023  0.1883  0.6276  0.1377
 3875SOL    HW123087   1.464   2.844   6.094  0.6508  0.3443  0.5800
 3875SOL    HW223088   1.591   2.892   6.069  1.3234 -1.1043  0.6595
 3876SOL     OW23089   1.653   2.483   6.282  0.4241 -0.5180 -0.0333
 3876SOL    HW123090   1.671   2.576   6.298  0.7807 -1.0552  2.6741
 3876SOL    HW223091   1.578   2.482   6.223 -0.3414 -0.7168  0.9321
 3877SOL     OW23092   2.534   1.577  13.100  0.5767  0.4148 -0.0065
 3877SOL    HW123093   2.617   1.537  13.127 -1.3737 -0.9989  3.8261
 3877SOL    HW223094   2.537   1.551  13.007  0.2178  0.4345 -0.0222
 3878SOL     OW23095   2.125   3.566  14.379  0.2792 -0.3115 -0.4153
 3878SOL    HW123096   2.173   3.522  14.449  0.6438  0.5257 -0.1378
 3878SOL    HW223097   2.199   3.595  14.325  1.9472 -2.6360  0.5912
 3879SOL     OW23098   0.635   3.294   5.288 -0.0839  0.5413  0.1086
 3879SOL    HW123099   0.571   3.277   5.218 -0.7366  2.8545  0.1391
 3879SOL    HW223100   0.575   3.324   5.356 -3.5628 -1.6424 -2.0011
 3880SOL     OW23101   0.350   1.772   7.846 -0.1114  0.0796  0.1435
 3880SOL    HW123102   0.259   1.798   7.864 -0.3966  0.1202 -1.3526
 3880SOL    HW223103   0.364   1.711   7.918  0.1614  0.0134  0.0340
 3881SOL     OW23104   2.519   1.358   4.483  0.1846 -0.3208 -0.2811
 3881SOL    HW123105   2.570   1.312   4.550  0.6570  1.0700  0.3230
 3881SOL    HW223106   2.450   1.393   4.540 -0.6962 -3.5274  0.6197
 3882SOL     OW23107   4.122   3.111   7.505  0.1176  0.0968 -0.1427
 3882SOL    HW123108   4.028   3.117   7.522 -0.4454 -0.5059 -2.9809
 3882SOL    HW223109   4.147   3.189   7.555  0.7543 -0.6971  0.7678
 3883SOL     OW23110   2.287   3.090   5.472  0.0865  0.3899 -0.1837
 3883SOL    HW123111   2.299   3.027   5.543  0.7932 -2.6358 -3.0065
 3883SOL    HW223112   2.240   3.031   5.413 -0.0899  0.0698  0.2766
 3884SOL     OW23113   1.202   1.324   5.038 -0.4844 -0.7749 -0.7630
 3884SOL    HW123114   1.257   1.341   5.115 -2.8039 -1.0274  0.9305
 3884SOL    HW223115   1.121   1.363   5.070  0.4807  0.9589 -0.4626
 3885SOL     OW23116   2.353   4.049   2.240 -0.1087  0.0377 -0.4496
 3885SOL    HW123117   2.288   4.080   2.304  0.1307 -1.6667  0.6133
 3885SOL    HW223118   2.289   4.007   2.182 -1.3430 -2.0685  2.4537
 3886SOL     OW23119   1.103   0.055   0.992 -0.3840 -0.2015 -0.2784
 3886SOL    HW123120   1.086   0.076   0.900  1.0669 -1.4119 -0.8300
 3886SOL    HW223121   1.161   4.705   0.985 -0.2138  0.0006 -1.0891
 3887SOL     OW23122   1.732   4.652   0.021  0.0244  0.3689 -0.2298
 3887SOL    HW123123   1.819   4.653   0.061 -0.5896 -2.4963  1.1717
 3887SOL    HW223124   1.675   4.621   0.092  1.5890 -1.5350  0.2081
 3888SOL     OW23125   3.545   2.102   8.911  0.3983  0.2141 -0.0832
 3888SOL    HW123126   3.596   2.061   8.841 -1.1531  0.6455 -1.4787
 3888SOL    HW223127   3.555   2.192   8.880  0.4769 -0.4652 -2.0491
 3889SOL     OW23128   2.206   3.254   9.244  0.3485 -0.2511  0.5382
 3889SOL    HW123129   2.250   3.308   9.309 -0.8492  1.8592 -0.4238
 3889SOL    HW223130   2.114   3.278   9.250  0.1116 -0.5167 -1.7603
 3890SOL     OW23131   3.063   1.529   8.068  0.4299 -0.0853 -0.0402
 3890SOL    HW123132   3.009   1.451   8.056 -1.5104  1.3954 -0.8610
 3890SOL    HW223133   3.048   1.567   7.982 -2.2369  2.2989  1.4818
 3891SOL     OW23134   0.452   3.672   7.029  0.0933  0.5370  0.2839
 3891SOL    HW123135   0.510   3.667   7.105 -0.3757  1.1369  0.6813
 3891SOL    HW223136   0.422   3.761   7.050 -0.0711  0.4475  0.4212
 3892SOL     OW23137   0.595   3.784   6.607  0.0406 -0.4176 -0.0945
 3892SOL    HW123138   0.541   3.727   6.553 -1.7700  1.5813 -0.4106
 3892SOL    HW223139   0.632   3.718   6.665  0.1677  0.0064  0.3112
 3893SOL     OW23140   2.219   1.660   7.686 -0.2692  0.4390  0.2398
 3893SOL    HW123141   2.219   1.733   7.748  0.9860  0.8040 -0.1801
 3893SOL    HW223142   2.308   1.668   7.651 -0.9231  0.1823 -1.4673
 3894SOL     OW23143   0.844   1.098   4.612 -0.4029 -0.3273  0.1892
 3894SOL    HW123144   0.888   1.030   4.664  0.1803 -0.7403 -0.8373
 3894SOL    HW223145   0.902   1.173   4.624 -0.8678  0.2675 -1.2928
 3895SOL     OW23146   2.986   2.655   8.252  0.0879  0.0001 -0.5294
 3895SOL    HW123147   3.024   2.740   8.276 -0.6201  0.3802 -0.7608
 3895SOL    HW223148   2.980   2.613   8.338 -1.1765  0.5394 -0.3614
 3896SOL     OW23149   3.139   1.630  11.823  0.1548  0.2427  0.0014
 3896SOL    HW123150   3.112   1.548  11.865 -0.2044 -0.7260 -2.1138
 3896SOL    HW223151   3.186   1.589  11.751 -0.4052 -2.2470  1.0342
 3897SOL     OW23152   3.025   1.073   1.749  0.1542 -0.5309 -0.2139
 3897SOL    HW123153   3.051   0.983   1.767 -0.5652 -1.1195 -2.1368
 3897SOL    HW223154   3.098   1.123   1.787 -0.1876  0.3581 -0.7212
 3898SOL     OW23155   1.777   0.766  12.735  0.3278 -0.3938  0.3078
 3898SOL    HW123156   1.840   0.789  12.667 -0.8547  1.1675 -0.2801
 3898SOL    HW223157   1.780   0.850  12.781 -1.2013  0.6655 -1.4822
 3899SOL     OW23158   3.724   1.873   9.828 -0.4002 -0.0630  0.2141
 3899SOL    HW123159   3.700   1.954   9.784  2.1036  0.6617  0.1776
 3899SOL    HW223160   3.774   1.834   9.756  1.8319 -1.1506  2.3741
 3900SOL     OW23161   1.964   0.433   1.105 -0.3482  0.1154 -0.3396
 3900SOL    HW123162   1.942   0.341   1.095  0.0038  0.0401 -0.4055
 3900SOL    HW223163   1.914   0.450   1.185  0.4858 -0.8780  0.3955
 3901SOL     OW23164   2.870   0.641   1.164 -0.1891 -0.3499  0.3125
 3901SOL    HW123165   2.812   0.564   1.162 -0.4288 -0.2236  3.3313
 3901SOL    HW223166   2.951   0.607   1.201  0.0957  1.7515  1.5754
 3902SOL     OW23167   1.432   1.901  16.857 -0.2044 -0.3220  0.1441
 3902SOL    HW123168   1.465   1.829  16.804  1.2812  0.3831  0.1158
 3902SOL    HW223169   1.486   1.975  16.830  0.8429 -0.8885  0.6776
 3903SOL     OW23170   0.365   2.200   7.995  0.7006  0.9134  0.8248
 3903SOL    HW123171   0.459   2.220   7.997  0.6430  1.0695  1.9134
 3903SOL    HW223172   0.355   2.152   8.077  0.9375  1.8490  1.4022
 3904SOL     OW23173   4.538   0.650   5.942  0.4550 -0.4714 -0.2936
 3904SOL    HW123174   4.494   0.684   6.019  1.7861  0.1340  0.2039
 3904SOL    HW223175   4.467   0.605   5.895 -0.1762  1.2853 -1.0262
 3905SOL     OW23176   3.347   0.196   1.407  0.7988  0.1654  0.3906
 3905SOL    HW123177   3.362   0.282   1.368  1.5555  1.4523  3.5032
 3905SOL    HW223178   3.424   0.188   1.464  0.1534 -2.0391  0.9411
 3906SOL     OW23179   3.108   1.683   9.222  0.1523 -0.4635  0.1365
 3906SOL    HW123180   3.153   1.744   9.281  0.0077 -0.8821  0.6785
 3906SOL    HW223181   3.164   1.606   9.224  1.6204  0.5729 -0.8653
 3907SOL     OW23182   1.482   1.533   7.398  0.1291  0.0360  0.1445
 3907SOL    HW123183   1.548   1.602   7.393 -0.7433  0.7075 -2.2064
 3907SOL    HW223184   1.412   1.564   7.340  0.3289  2.9956  1.4745
 3908SOL     OW23185   0.714   4.073   5.672 -0.6447 -0.0480 -0.5561
 3908SOL    HW123186   0.645   4.139   5.678 -0.8987 -0.2839 -0.8915
 3908SOL    HW223187   0.695   4.052   5.581 -1.2661 -3.2254  0.2930
 3909SOL     OW23188   3.968   1.161   5.115 -0.2714  0.0146 -0.4262
 3909SOL    HW123189   4.060   1.150   5.088 -0.1377  0.7748 -0.2741
 3909SOL    HW223190   3.947   1.244   5.074  1.6418  0.8564  0.3126
 3910SOL     OW23191   2.806   1.401  11.560 -0.0642  0.3103 -0.0043
 3910SOL    HW123192   2.795   1.459  11.635  0.9106 -0.7289  0.9411
 3910SOL    HW223193   2.873   1.341  11.592 -0.6733  1.4766  3.4258
 3911SOL     OW23194   2.297   0.367   6.568  0.0870  0.5774 -0.3194
 3911SOL    HW123195   2.369   0.421   6.537  0.7172  0.8094  1.5107
 3911SOL    HW223196   2.273   0.325   6.486 -0.3243 -0.0892  0.1336
 3912SOL     OW23197   1.738   0.269  17.622  0.3627 -0.1138  0.3241
 3912SOL    HW123198   1.675   0.205  17.657  2.4422 -3.0353 -1.2947
 3912SOL    HW223199   1.727   0.325  17.699  2.1412 -2.4278  2.2569
 3913SOL     OW23200   2.832   4.626   5.900 -0.2053  0.3971  0.2050
 3913SOL    HW123201   2.819   4.595   5.810 -1.1136 -0.5693  0.6639
 3913SOL    HW223202   2.892   4.557   5.927 -0.7299 -0.6405 -1.2620
 3914SOL     OW23203   0.936   3.702   5.382  0.8803  0.1151 -0.7414
 3914SOL    HW123204   0.891   3.743   5.308 -1.8059 -0.0560  0.7783
 3914SOL    HW223205   1.017   3.673   5.340  1.9046  1.5892  0.2224
 3915SOL     OW23206   1.851   0.824   8.556  0.3406  0.4279 -0.5408
 3915SOL    HW123207   1.796   0.898   8.532  1.0089  1.2566  0.4579
 3915SOL    HW223208   1.916   0.859   8.617  0.4243 -0.5672 -0.0561
 3916SOL     OW23209   0.942   1.032   3.496  0.1577  0.1106  0.1157
 3916SOL    HW123210   0.986   1.021   3.412 -0.3373 -2.5924  0.2262
 3916SOL    HW223211   0.860   1.069   3.465 -0.2764 -0.2598  0.8184
 3917SOL     OW23212   0.775   0.102   5.850  0.3229  0.3201  0.0076
 3917SOL    HW123213   0.738   0.189   5.834 -0.8508 -0.6348 -2.4790
 3917SOL    HW223214   0.856   0.120   5.898 -0.4006  0.7437  1.0647
 3918SOL     OW23215   2.321   4.585   9.087 -0.2113  0.1506 -0.5234
 3918SOL    HW123216   2.341   4.513   9.147 -1.2246 -1.3982 -2.0405
 3918SOL    HW223217   2.259   4.550   9.024 -1.7593  0.5882  0.7785
 3919SOL     OW23218   0.723   0.363   5.826  0.5261 -0.1330  0.7924
 3919SOL    HW123219   0.761   0.442   5.863  0.3995  0.3934 -0.1833
 3919SOL    HW223220   0.658   0.393   5.762  3.0647  0.6121 -1.3997
 3920SOL     OW23221   1.059   2.215  11.647 -0.0115 -0.3148  0.2187
 3920SOL    HW123222   1.044   2.270  11.724 -0.3661  0.5752 -0.4881
 3920SOL    HW223223   0.971   2.210  11.610  0.8620 -0.6009 -1.8017
 3921SOL     OW23224   3.446   1.315  17.520 -0.1320 -0.5170 -0.5621
 3921SOL    HW123225   3.412   1.342  17.434 -2.0408 -1.2348 -0.0196
 3921SOL    HW223226   3.418   1.224  17.528 -0.8330 -0.2427  0.1108
 3922SOL     OW23227   3.892   4.663   0.534 -0.3121 -0.1724 -0.0859
 3922SOL    HW123228   3.894   4.717   0.613  1.1589 -0.0758 -0.1882
 3922SOL    HW223229   3.872   0.008   0.473  0.2767 -1.4153 -1.7498
 3923SOL     OW23230   0.618   3.759  11.123  0.6894 -0.1675 -0.2095
 3923SOL    HW123231   0.523   3.752  11.129  0.4865  1.0276 -2.1924
 3923SOL    HW223232   0.628   3.682  11.067  4.0159  1.6706 -2.1069
 3924SOL     OW23233   4.649   3.871  15.372 -0.0878 -0.7485 -0.2092
 3924SOL    HW123234   4.583   3.841  15.434 -0.5372 -0.7861 -0.7123
 3924SOL    HW223235   4.677   3.956  15.407  1.3734 -0.9261 -0.9436
 3925SOL     OW23236   1.582   3.572   7.967 -0.4252 -0.1874  0.3838
 3925SOL    HW123237   1.664   3.534   7.932  1.1677  2.9277  0.7555
 3925SOL    HW223238   1.577   3.519   8.046  0.5789 -1.0204 -0.1012
 3926SOL     OW23239   0.504   0.966  16.907 -0.2349 -0.7161  0.3395
 3926SOL    HW123240   0.556   1.042  16.934  0.6401 -1.5822  1.1034
 3926SOL    HW223241   0.520   0.910  16.983  0.2064 -2.8033 -1.2905
 3927SOL     OW23242   3.661   4.510   3.513 -0.8233 -0.0835  0.2591
 3927SOL    HW123243   3.577   4.548   3.486 -0.0742  0.3548 -1.4328
 3927SOL    HW223244   3.627   4.429   3.552 -0.7188 -0.1695  0.1692
 3928SOL     OW23245   1.417   2.910   1.964  0.3718 -0.1142  0.1563
 3928SOL    HW123246   1.439   2.909   1.871 -0.7776 -1.2903 -0.0918
 3928SOL    HW223247   1.452   2.827   1.995 -0.9155  0.0105  1.9068
 3929SOL     OW23248   0.092   3.618   7.818 -0.0701 -0.0570  0.4554
 3929SOL    HW123249   0.172   3.619   7.870  0.7450 -1.0389 -0.7851
 3929SOL    HW223250   0.055   3.537   7.854  0.6222 -0.4066  0.3624
 3930SOL     OW23251   3.266   1.608  16.198  0.2922  0.3476 -0.7280
 3930SOL    HW123252   3.178   1.593  16.233  0.7531  0.3240  0.4222
 3930SOL    HW223253   3.259   1.591  16.104 -2.1090  0.1626 -0.5216
 3931SOL     OW23254   0.297   0.216  12.672  0.2670 -0.8902 -0.4132
 3931SOL    HW123255   0.333   0.149  12.729  0.0328 -1.9138 -1.4626
 3931SOL    HW223256   0.374   0.251  12.627  1.0398 -0.8002  0.9874
 3932SOL     OW23257   4.431   1.371   7.156  0.0465  0.2194  0.2096
 3932SOL    HW123258   4.475   1.400   7.236 -0.8350 -2.8215  1.8054
 3932SOL    HW223259   4.449   1.277   7.157 -0.1458  0.1600 -1.4141
 3933SOL     OW23260   3.659   2.933  16.529 -0.4386 -0.3900  0.1629
 3933SOL    HW123261   3.735   2.875  16.534  1.0729  1.5348 -0.3336
 3933SOL    HW223262   3.680   2.972  16.444 -0.3374  1.0293  0.8327
 3934SOL     OW23263   3.942   0.619   5.349 -0.6720  0.7441  0.0556
 3934SOL    HW123264   3.927   0.547   5.288  1.6345  1.5711 -1.4789
 3934SOL    HW223265   4.034   0.632   5.328 -0.3368 -0.8520  0.5824
 3935SOL     OW23266   0.118   3.022  17.192 -0.4511  0.3180 -0.4673
 3935SOL    HW123267   0.098   3.115  17.190 -0.0166  0.3756 -1.8658
 3935SOL    HW223268   0.032   2.984  17.211 -1.0499  2.1666  0.5628
 3936SOL     OW23269   0.653   2.932   0.493 -0.0379 -0.0080  0.1204
 3936SOL    HW123270   0.704   3.013   0.498  0.4513 -0.2196 -1.6393
 3936SOL    HW223271   0.701   2.864   0.541  0.6635  1.1455  1.0637
 3937SOL     OW23272   1.364   2.144  17.551 -0.4232 -0.2159  0.1950
 3937SOL    HW123273   1.270   2.157  17.539 -0.0227  1.1817 -1.4686
 3937SOL    HW223274   1.384   2.139  17.457 -1.5510 -1.2647  0.0013
 3938SOL     OW23275   4.012   3.813   3.594 -0.6489  0.4215  0.1076
 3938SOL    HW123276   4.096   3.770   3.577  0.3407  2.9666 -1.3576
 3938SOL    HW223277   4.040   3.902   3.617 -0.5448  0.2319  0.7411
 3939SOL     OW23278   0.993   1.902  17.292  0.1115 -0.4998 -0.7312
 3939SOL    HW123279   1.039   1.844  17.232  0.1967 -0.2548 -0.9001
 3939SOL    HW223280   1.008   1.983  17.243 -0.0558  0.8641  1.4451
 3940SOL     OW23281   2.197   1.443   3.979 -0.0563  0.2522  0.4704
 3940SOL    HW123282   2.148   1.407   4.053 -0.9865 -1.1888 -0.8385
 3940SOL    HW223283   2.174   1.385   3.906  1.8676 -1.3857  1.1695
 3941SOL     OW23284   3.429   4.081   8.752  0.4573  0.3568  0.1898
 3941SOL    HW123285   3.404   4.083   8.845  1.7832  1.3608  0.5305
 3941SOL    HW223286   3.472   3.996   8.745 -1.6220 -0.7997  1.3235
 3942SOL     OW23287   0.674   4.605   2.666  0.2251  0.7159 -0.2158
 3942SOL    HW123288   0.581   4.598   2.686  0.4009 -0.7712  0.1255
 3942SOL    HW223289   0.713   4.664   2.731 -2.6653  0.3803  1.8033
 3943SOL     OW23290   1.640   4.373  13.499 -0.2682  0.2338  0.5086
 3943SOL    HW123291   1.689   4.324  13.565  1.3909  1.2937  0.0594
 3943SOL    HW223292   1.580   4.304  13.469 -0.0866 -0.7150  2.3408
 3944SOL     OW23293   3.051   4.510  12.925  0.6002  0.0509 -0.4079
 3944SOL    HW123294   3.131   4.489  12.973 -0.1106 -0.5051  0.5280
 3944SOL    HW223295   2.995   4.541  12.997 -1.0863 -5.7470  0.7826
 3945SOL     OW23296   1.681   4.657   3.207  0.1316 -0.2034 -0.1703
 3945SOL    HW123297   1.713   4.581   3.160  2.5130  1.4260 -1.1665
 3945SOL    HW223298   1.673   4.692   3.118 -2.2915 -2.2982 -0.7915
 3946SOL     OW23299   3.841   4.626   6.636  0.5984 -0.1662  0.3851
 3946SOL    HW123300   3.799   4.540   6.628 -0.0210 -0.0519  2.2802
 3946SOL    HW223301   3.763   4.681   6.641 -0.7471 -2.1318  1.3822
 3947SOL     OW23302   1.297   3.278   7.992 -0.5679 -0.1858 -0.6335
 3947SOL    HW123303   1.305   3.292   7.897 -0.1488  0.0058 -0.5693
 3947SOL    HW223304   1.204   3.290   8.007 -0.4389 -0.0091  0.0147
 3948SOL     OW23305   2.130   1.172   3.531 -0.1371 -0.0575  0.0211
 3948SOL    HW123306   2.095   1.253   3.494  2.4215  1.2118  0.4438
 3948SOL    HW223307   2.147   1.125   3.449 -0.1873 -1.0466  0.5706
 3949SOL     OW23308   0.482   2.752  14.461  0.6347  0.2096  0.0150
 3949SOL    HW123309   0.467   2.804  14.382  1.8819 -0.6227 -0.7685
 3949SOL    HW223310   0.405   2.778  14.512  2.3343  1.8462  1.7642
 3950SOL     OW23311   3.811   1.228  11.431 -0.8573 -0.3718  0.5158
 3950SOL    HW123312   3.783   1.152  11.380 -0.0826 -0.4631  0.2227
 3950SOL    HW223313   3.781   1.296  11.371 -1.6644  0.0969  1.4464
 3951SOL     OW23314   2.291   3.275  10.419  0.3256 -0.0263  0.0173
 3951SOL    HW123315   2.381   3.243  10.424  0.4846  0.4494  0.2178
 3951SOL    HW223316   2.233   3.201  10.434  2.8494 -2.1068 -0.4023
 3952SOL     OW23317   3.128   2.339   8.049 -0.7343 -0.0478 -0.0870
 3952SOL    HW123318   3.044   2.342   8.094 -0.3539  1.2939  0.5231
 3952SOL    HW223319   3.098   2.300   7.967 -1.8064 -1.5689  1.0232
 3953SOL     OW23320   3.244   0.303  15.081  0.4851  0.7085  0.2533
 3953SOL    HW123321   3.293   0.223  15.098 -0.2879  0.3274  0.6739
 3953SOL    HW223322   3.241   0.298  14.985 -1.3833 -0.1228  0.3723
 3954SOL     OW23323   0.745   2.995   9.136  0.1903 -0.0003  0.0073
 3954SOL    HW123324   0.687   3.072   9.130 -0.9300 -0.8543 -0.1878
 3954SOL    HW223325   0.759   2.982   9.230 -2.8327 -1.1009  0.3190
 3955SOL     OW23326   1.389   4.548   9.361 -0.0285 -0.8723  0.2595
 3955SOL    HW123327   1.465   4.509   9.318  0.8138 -0.5395  1.4231
 3955SOL    HW223328   1.424   4.632   9.390  2.1930 -1.5522 -0.4521
 3956SOL     OW23329   1.407   3.533   4.655 -0.3492 -0.0252 -0.6482
 3956SOL    HW123330   1.400   3.439   4.637  1.2729 -0.7189  2.2151
 3956SOL    HW223331   1.341   3.565   4.594  0.7857  1.3818 -1.1520
 3957SOL     OW23332   2.422   4.089   9.058  0.8104 -0.7683  0.0256
 3957SOL    HW123333   2.507   4.058   9.088  1.1041  2.0686  2.1115
 3957SOL    HW223334   2.418   4.027   8.985  0.1862 -1.1019  0.3397
 3958SOL     OW23335   0.547   2.645  11.789  0.3878  0.0030 -0.2975
 3958SOL    HW123336   0.452   2.643  11.784  0.4771 -1.5399 -1.1697
 3958SOL    HW223337   0.559   2.671  11.698  1.3121 -0.3758 -0.2816
 3959SOL     OW23338   2.556   3.066  12.017  0.4777  0.5402  0.4092
 3959SOL    HW123339   2.466   3.041  12.039  0.3437 -0.0316 -0.7795
 3959SOL    HW223340   2.603   3.051  12.099  1.0571  0.8751  0.1335
 3960SOL     OW23341   3.560   0.833  12.262  0.2131  0.3568  0.1964
 3960SOL    HW123342   3.641   0.782  12.267  0.5419  0.8864  0.3304
 3960SOL    HW223343   3.584   0.893  12.333  0.6058  1.9404 -1.2648
 3961SOL     OW23344   0.191   0.540   2.981 -0.6895  0.3293 -0.1662
 3961SOL    HW123345   0.099   0.515   2.977 -0.8899  0.8939  0.7682
 3961SOL    HW223346   0.235   0.467   2.938 -0.4506 -0.6282  1.7106
 3962SOL     OW23347   0.064   1.275  17.097 -0.2136  0.0925  0.0731
 3962SOL    HW123348   0.023   1.191  17.120 -0.9292  0.3151 -0.3951
 3962SOL    HW223349   0.104   1.256  17.013  0.4754 -1.1231  0.6680
 3963SOL     OW23350   2.213   2.820   7.850  0.3722 -0.2497 -0.5595
 3963SOL    HW123351   2.154   2.889   7.821  1.5656  1.0274  0.0752
 3963SOL    HW223352   2.214   2.829   7.945  1.1299  0.9250 -0.6789
 3964SOL     OW23353   2.687   4.255   5.523 -0.0985  0.0468  0.3841
 3964SOL    HW123354   2.672   4.161   5.512 -2.2556  0.4959 -0.5128
 3964SOL    HW223355   2.619   4.291   5.466 -0.6093  0.8300  1.4837
 3965SOL     OW23356   1.627   3.679   7.631 -0.1819  0.8669  0.5098
 3965SOL    HW123357   1.662   3.699   7.718 -3.0483  1.6353  1.5022
 3965SOL    HW223358   1.708   3.648   7.592 -0.7694 -1.0284  0.8045
 3966SOL     OW23359   2.242   0.952   5.178  0.5447 -0.5465  0.4743
 3966SOL    HW123360   2.258   0.902   5.097  0.0338  0.6563 -0.3790
 3966SOL    HW223361   2.234   1.038   5.138 -0.6868 -1.1579 -0.6177
 3967SOL     OW23362   0.635   0.001  13.459  0.0945  0.1293  0.3719
 3967SOL    HW123363   0.601   0.090  13.456  1.3327  0.5694 -0.4909
 3967SOL    HW223364   0.579   4.691  13.528  1.2117  0.6162  1.5312
 3968SOL     OW23365   1.481   0.069   8.371 -0.2724  0.2802  0.2991
 3968SOL    HW123366   1.451   0.107   8.289  2.3748  1.0476 -0.3254
 3968SOL    HW223367   1.576   0.075   8.358 -0.0892 -4.5370 -0.5778
 3969SOL     OW23368   3.828   1.126  10.269 -0.0799 -0.0774 -0.2340
 3969SOL    HW123369   3.912   1.120  10.224  0.5672  1.2540  0.7802
 3969SOL    HW223370   3.818   1.043  10.315  0.2133  1.1158  1.9949
 3970SOL     OW23371   2.594   1.811  15.568 -0.3555 -0.6608  0.6266
 3970SOL    HW123372   2.666   1.805  15.505 -0.1955  2.6786  0.5010
 3970SOL    HW223373   2.542   1.734  15.542 -0.7057 -0.5180  0.9018
 3971SOL     OW23374   3.487   4.618  12.096 -0.6346  0.0782 -0.2673
 3971SOL    HW123375   3.540   4.553  12.143 -1.1577 -0.5946 -0.6016
 3971SOL    HW223376   3.396   4.590  12.108 -1.8182  4.3631  0.9305
 3972SOL     OW23377   1.011   2.526   1.086 -0.0267 -0.1681  0.0156
 3972SOL    HW123378   1.076   2.589   1.117 -0.0998 -0.5458  0.9574
 3972SOL    HW223379   1.022   2.524   0.991  2.2904 -2.8649  0.3338
 3973SOL     OW23380   3.931   0.750   2.628 -0.5167  0.0388  0.1074
 3973SOL    HW123381   4.018   0.778   2.601  0.2677  0.0190  2.6279
 3973SOL    HW223382   3.936   0.657   2.606 -0.2415 -0.1768  1.0826
 3974SOL     OW23383   4.453   4.082  16.462  0.1141  0.0721 -0.2015
 3974SOL    HW123384   4.371   4.053  16.422  1.5711 -4.1099 -0.1983
 3974SOL    HW223385   4.501   4.000  16.451  0.1196 -0.2061  1.7549
 3975SOL     OW23386   1.862   1.464   4.044  0.1038  0.3848  0.0742
 3975SOL    HW123387   1.837   1.376   4.015  1.8246  0.2561 -0.9878
 3975SOL    HW223388   1.827   1.526   3.981  1.4844  1.0623 -0.0083
 3976SOL     OW23389   3.458   4.679   6.438  0.1684 -0.1115 -0.1851
 3976SOL    HW123390   3.384   4.640   6.483 -0.0609  0.6836  0.1369
 3976SOL    HW223391   3.499   0.010   6.504 -0.6858 -0.0664  0.2996
 3977SOL     OW23392   1.217   0.530   4.987 -0.1654  0.1492 -0.3310
 3977SOL    HW123393   1.200   0.612   5.033 -0.8096 -0.4618  0.5101
 3977SOL    HW223394   1.201   0.569   4.901  0.6683 -0.1073 -0.6013
 3978SOL     OW23395   0.075   1.909   6.495  0.4105  0.2465  0.0410
 3978SOL    HW123396   0.095   1.991   6.540 -2.1861 -0.4584  2.4863
 3978SOL    HW223397   0.071   1.849   6.568 -0.6843 -0.2200 -0.3987
 3979SOL     OW23398   0.989   3.822   4.554 -0.6372 -0.7866  0.1994
 3979SOL    HW123399   0.963   3.839   4.463  0.3136 -0.8393 -0.0891
 3979SOL    HW223400   0.943   3.898   4.589  1.3543  0.1576  0.7841
 3980SOL     OW23401   2.804   1.014   5.274 -0.2515 -0.6265 -0.7740
 3980SOL    HW123402   2.754   1.088   5.239 -0.2062 -0.0531  0.4010
 3980SOL    HW223403   2.861   0.996   5.199  1.3986 -0.4471  0.4603
 3981SOL     OW23404   2.159   3.605   9.135  0.2282 -0.2311  0.2390
 3981SOL    HW123405   2.161   3.573   9.225  4.0319  1.5666  0.8006
 3981SOL    HW223406   2.250   3.595   9.108  0.4853 -0.2405  1.1041
 3982SOL     OW23407   3.935   1.907  13.942  0.3034 -0.1561 -0.4698
 3982SOL    HW123408   3.919   2.001  13.929  1.4366  0.0425 -0.3638
 3982SOL    HW223409   4.024   1.920  13.972  0.7623  0.4207 -2.1124
 3983SOL     OW23410   3.419   0.444   8.857  0.0261  0.1261 -0.1080
 3983SOL    HW123411   3.363   0.381   8.812 -0.4561 -1.4546  2.6815
 3983SOL    HW223412   3.373   0.467   8.938  0.8178  1.2206  0.0362
 3984SOL     OW23413   3.706   0.779   5.341  0.0421 -0.6896  0.8285
 3984SOL    HW123414   3.780   0.720   5.323 -0.7450 -1.8009  1.2493
 3984SOL    HW223415   3.747   0.860   5.311 -0.7029 -0.4925  0.3651
 3985SOL     OW23416   4.140   0.227   4.857  0.0080 -0.5728 -0.8586
 3985SOL    HW123417   4.204   0.191   4.918  0.6567 -0.2421 -1.3515
 3985SOL    HW223418   4.060   0.182   4.885  0.3612 -1.0536 -0.6302
 3986SOL     OW23419   0.699   1.246   5.420  0.2845  0.2693  0.0788
 3986SOL    HW123420   0.780   1.209   5.454  0.9278  0.1260 -1.6117
 3986SOL    HW223421   0.656   1.289   5.494 -1.1722  0.1570 -0.7133
 3987SOL     OW23422   3.750   2.147   8.376  0.4113 -0.4327 -0.0660
 3987SOL    HW123423   3.719   2.062   8.344 -2.8460  0.4446  0.7224
 3987SOL    HW223424   3.828   2.158   8.322  0.4791  0.4880  0.2288
 3988SOL     OW23425   2.800   2.246   8.417 -0.3823 -0.6543  0.4291
 3988SOL    HW123426   2.774   2.168   8.467  3.0709 -1.2654  1.2513
 3988SOL    HW223427   2.882   2.215   8.380 -0.1752  0.8637 -0.3452
 3989SOL     OW23428   4.473   3.054  12.281  0.2973  0.5037  0.3139
 3989SOL    HW123429   4.568   3.054  12.296  0.4504  0.0534 -0.6167
 3989SOL    HW223430   4.461   2.965  12.315  0.8805  0.7903  1.2571
 3990SOL     OW23431   1.382   2.359   1.915  0.3493 -0.2737  0.1565
 3990SOL    HW123432   1.476   2.338   1.921  0.2910 -0.0847  1.9790
 3990SOL    HW223433   1.371   2.443   1.960  0.1250 -0.7437  0.9758
 3991SOL     OW23434   0.250   4.385   5.916 -0.6898 -0.1628 -0.4699
 3991SOL    HW123435   0.240   4.479   5.903 -0.6945  0.0058  0.7641
 3991SOL    HW223436   0.222   4.376   6.007 -0.7257 -0.4684 -0.5091
 3992SOL     OW23437   0.966   2.217   4.494 -0.1869  0.1874  0.1803
 3992SOL    HW123438   0.959   2.187   4.404 -0.7608 -0.7966  0.5524
 3992SOL    HW223439   1.007   2.146   4.543  0.6961 -1.7842 -3.4775
 3993SOL     OW23440   1.413   4.645   3.287  0.6271 -0.5733 -0.1667
 3993SOL    HW123441   1.336   4.684   3.244  0.3575 -1.3445 -0.3873
 3993SOL    HW223442   1.488   4.686   3.244 -0.0467  0.9335  0.0822
 3994SOL     OW23443   2.395   1.450   4.943 -0.3494 -0.2179 -0.1339
 3994SOL    HW123444   2.408   1.371   4.891  0.9587  1.4899 -2.4033
 3994SOL    HW223445   2.397   1.412   5.030 -3.0023  0.2213  0.1141
 3995SOL     OW23446   3.002   1.610   2.814 -0.1700  0.2022  0.4821
 3995SOL    HW123447   3.044   1.526   2.831 -0.9644 -0.0236  1.3112
 3995SOL    HW223448   3.021   1.628   2.722  0.7459 -1.8539  0.2809
 3996SOL     OW23449   0.025   0.039   9.218  0.3669 -0.2869 -0.3205
 3996SOL    HW123450   4.675   4.713   9.190  0.6094 -0.7923 -0.0377
 3996SOL    HW223451   0.084   4.691   9.232 -0.3196 -0.5013  1.4250
 3997SOL     OW23452   2.417   1.396   5.564  0.6226  0.1326 -0.3385
 3997SOL    HW123453   2.506   1.428   5.552  1.1175 -0.7764  0.9322
 3997SOL    HW223454   2.407   1.322   5.504  1.7439 -1.4559  1.4424
 3998SOL     OW23455   0.889   2.777   7.278  1.0202  0.2328 -0.3081
 3998SOL    HW123456   0.908   2.779   7.184  1.4510  0.5248 -0.2159
 3998SOL    HW223457   0.808   2.726   7.281  2.7942 -2.4325  2.7272
 3999SOL     OW23458   1.252   4.068   5.803  0.0919  0.5264  0.0060
 3999SOL    HW123459   1.255   4.155   5.843 -0.7948  0.1730  0.8490
 3999SOL    HW223460   1.172   4.082   5.752 -0.4671  0.9140  0.9803
 4000SOL     OW23461   4.092   3.382   4.094 -0.9206  0.0767 -0.4215
 4000SOL    HW123462   4.144   3.440   4.038  2.4188 -0.8332  1.7964
 4000SOL    HW223463   4.014   3.407   4.044 -0.8228 -0.2395 -0.7334
 4001SOL     OW23464   1.131   0.723   5.509 -0.7317  0.4222  0.3110
 4001SOL    HW123465   1.173   0.786   5.451  0.8825  0.4083  1.4477
 4001SOL    HW223466   1.127   0.644   5.456  1.2330  0.0113  0.7987
 4002SOL     OW23467   1.466   0.335   5.064  0.0231 -0.2471  0.3485
 4002SOL    HW123468   1.516   0.406   5.105 -0.6018 -0.6468  1.7751
 4002SOL    HW223469   1.381   0.378   5.050  0.2828  0.8835  2.3880
 4003SOL     OW23470   0.518   0.098   1.507 -0.3379  0.2423 -0.4014
 4003SOL    HW123471   0.440   0.094   1.563  0.3742  1.7861  0.6798
 4003SOL    HW223472   0.569   0.025   1.543 -1.0601 -0.2880 -0.4539
 4004SOL     OW23473   1.475   2.492  13.161  0.0034 -0.0163 -0.5657
 4004SOL    HW123474   1.528   2.418  13.130 -0.7880 -1.3734  1.2868
 4004SOL    HW223475   1.409   2.487  13.092 -0.7970 -0.9180  0.2707
 4005SOL     OW23476   1.255   3.280  17.272 -0.3898 -0.0901  0.1173
 4005SOL    HW123477   1.225   3.347  17.211  1.1220  0.8511  0.4176
 4005SOL    HW223478   1.279   3.207  17.215 -0.4933  0.7611 -0.9946
 4006SOL     OW23479   0.467   4.208   9.005 -0.1605 -0.2502  0.5942
 4006SOL    HW123480   0.561   4.214   8.989  0.0588 -3.9994  0.3054
 4006SOL    HW223481   0.469   4.254   9.089 -1.8069  1.9997 -0.6063
 4007SOL     OW23482   4.539   0.746  13.501 -0.2588 -0.0577 -0.0250
 4007SOL    HW123483   4.460   0.698  13.526  0.3866 -0.4015  1.3798
 4007SOL    HW223484   4.604   0.679  13.520 -1.8181 -1.7643 -0.6960
 4008SOL     OW23485   0.071   3.009   8.407 -0.3000 -0.2120  0.4045
 4008SOL    HW123486   0.162   3.030   8.430 -0.4306  2.3697 -1.4471
 4008SOL    HW223487   0.066   2.929   8.461  0.7621 -0.0257  0.7723
 4009SOL     OW23488   4.404   2.013  11.089  0.2218 -0.1459  0.2233
 4009SOL    HW123489   4.491   1.979  11.072  0.3838  0.2271  0.3077
 4009SOL    HW223490   4.394   2.093  11.038 -1.4663 -0.8508 -0.5769
 4010SOL     OW23491   4.060   2.029   9.777  0.4731 -0.1053 -0.0879
 4010SOL    HW123492   4.025   1.951   9.819  5.6919 -1.7258  1.1462
 4010SOL    HW223493   4.047   2.006   9.685  2.2912  1.1866 -0.6826
 4011SOL     OW23494   1.450   3.128   2.160 -0.8919 -0.4685  0.3989
 4011SOL    HW123495   1.542   3.108   2.174 -0.0764  2.9923  0.1068
 4011SOL    HW223496   1.409   3.058   2.211 -1.4635  0.3694  1.1035
 4012SOL     OW23497   0.419   1.157   5.997  0.7611 -0.6792  0.4308
 4012SOL    HW123498   0.362   1.091   5.956  1.5325 -1.7943  1.1680
 4012SOL    HW223499   0.461   1.107   6.067  2.2684 -0.3436 -0.2345
 4013SOL     OW23500   3.743   0.325   5.968 -0.0002  0.6044  0.1658
 4013SOL    HW123501   3.794   0.401   5.998  0.8158 -0.1984  0.8279
 4013SOL    HW223502   3.755   0.339   5.874 -0.6500  2.8610  0.4235
 4014SOL     OW23503   0.966   1.281   2.958 -0.4386 -0.1894  0.1871
 4014SOL    HW123504   0.973   1.323   2.872 -1.7055 -1.8188 -0.7216
 4014SOL    HW223505   0.995   1.192   2.935  1.8581  0.2462  1.4784
 4015SOL     OW23506   3.158   4.472  16.477  0.1171 -0.1123 -0.5007
 4015SOL    HW123507   3.248   4.463  16.446 -0.0038 -0.9522 -0.6101
 4015SOL    HW223508   3.158   4.411  16.551  1.5958  1.6557  0.9647
 4016SOL     OW23509   0.462   3.637   0.491  0.9184 -0.2394  0.3186
 4016SOL    HW123510   0.449   3.604   0.580  1.3632 -1.3521 -0.0247
 4016SOL    HW223511   0.501   3.560   0.449  2.9282  0.0366  1.6626
 4017SOL     OW23512   1.416   0.363   6.801  0.4946  0.5727 -0.3200
 4017SOL    HW123513   1.374   0.385   6.884  1.0810  0.7345 -0.0676
 4017SOL    HW223514   1.478   0.295   6.828 -0.7763 -0.4723 -0.0252
 4018SOL     OW23515   3.629   3.814   7.650 -0.5591 -0.0539 -0.3910
 4018SOL    HW123516   3.670   3.731   7.626 -1.6788 -1.7967  3.7576
 4018SOL    HW223517   3.675   3.828   7.733  1.3003  2.1751 -1.7914
 4019SOL     OW23518   4.604   2.620   8.390  0.1937 -0.7785  0.4518
 4019SOL    HW123519   4.524   2.663   8.421  0.8576  1.8224 -1.4596
 4019SOL    HW223520   4.682   2.653   8.434  0.5262 -1.8882  0.6952
 4020SOL     OW23521   4.554   3.973   4.147  0.1410  0.0221 -0.4692
 4020SOL    HW123522   4.613   4.037   4.107  0.9270  0.1373  0.8783
 4020SOL    HW223523   4.557   3.893   4.094  0.4638  0.1388 -0.6275
 4021SOL     OW23524   4.243   2.139   8.963 -0.3351  0.1848 -0.2137
 4021SOL    HW123525   4.263   2.075   8.895  2.3938  0.6063  0.1955
 4021SOL    HW223526   4.159   2.172   8.930 -1.4470 -2.0697  0.4061
 4022SOL     OW23527   3.412   0.078   2.767 -0.4387 -0.3902  0.6288
 4022SOL    HW123528   3.506   0.081   2.784 -0.1993 -0.8631 -0.5753
 4022SOL    HW223529   3.395   0.002   2.711  0.1778 -1.1560  1.4856
 4023SOL     OW23530   3.959   2.826  11.351 -0.1231 -0.5068  0.6139
 4023SOL    HW123531   3.916   2.884  11.413  2.9715  1.0669  1.2779
 4023SOL    HW223532   3.972   2.889  11.280 -1.1265 -0.6357  0.3104
 4024SOL     OW23533   2.629   4.494   7.231 -0.0230 -0.9020  0.0598
 4024SOL    HW123534   2.633   4.402   7.255  0.1114 -0.5693  1.3052
 4024SOL    HW223535   2.700   4.532   7.282  0.4840  0.1142 -1.4244
 4025SOL     OW23536   1.273   3.125   4.862  0.1018  0.4311  0.0580
 4025SOL    HW123537   1.229   3.041   4.856  0.8313 -0.0547  1.6808
 4025SOL    HW223538   1.208   3.172   4.915 -0.3317  0.5236 -0.5503
 4026SOL     OW23539   0.810   1.766   3.989 -0.1994  0.2165 -0.4826
 4026SOL    HW123540   0.867   1.807   3.924 -0.7609  0.9960 -0.4903
 4026SOL    HW223541   0.841   1.677   4.006 -2.7829 -0.7552 -0.8487
 4027SOL     OW23542   1.602   0.994   0.306 -0.0201  0.4778  0.0759
 4027SOL    HW123543   1.559   0.977   0.223 -0.0530  3.7468 -0.5852
 4027SOL    HW223544   1.599   1.088   0.289 -0.7102  0.6999  1.4068
 4028SOL     OW23545   3.434   3.398   8.187  0.3824  0.0441  0.2114
 4028SOL    HW123546   3.410   3.338   8.257  0.4140 -1.6731 -1.2357
 4028SOL    HW223547   3.449   3.482   8.228 -1.8158  0.3688  0.3228
 4029SOL     OW23548   0.634   3.185   5.573  0.3660  0.7491 -0.0503
 4029SOL    HW123549   0.581   3.262   5.553  0.4601  0.8954  0.2673
 4029SOL    HW223550   0.598   3.121   5.511  4.5271 -1.5263 -0.1185
 4030SOL     OW23551   2.507   2.310  15.423  0.2245 -0.4511  0.1991
 4030SOL    HW123552   2.574   2.242  15.414  1.8953  1.5720 -2.3681
 4030SOL    HW223553   2.535   2.361  15.347 -1.4132 -1.9057 -1.3918
 4031SOL     OW23554   2.848   1.180   2.143  0.6933  0.1629 -0.1441
 4031SOL    HW123555   2.827   1.270   2.166  2.0744 -0.3674  3.1592
 4031SOL    HW223556   2.777   1.134   2.188  1.1957 -0.2837  0.1862
 4032SOL     OW23557   0.162   1.062   4.501  0.2271 -0.0627 -0.9451
 4032SOL    HW123558   0.116   0.983   4.472  0.2727 -0.6597  0.6038
 4032SOL    HW223559   0.251   1.049   4.469  1.0565  2.2973  0.4065
 4033SOL     OW23560   1.321   1.897   4.353 -0.3166 -0.3933 -0.5869
 4033SOL    HW123561   1.348   1.933   4.438  1.1212 -2.1023 -0.3204
 4033SOL    HW223562   1.345   1.805   4.366  0.8125 -0.3151 -2.0655
 4034SOL     OW23563   1.258   4.603   4.495  0.1540 -0.2388  0.4643
 4034SOL    HW123564   1.236   4.606   4.588  0.9676 -0.9636  0.6831
 4034SOL    HW223565   1.168   4.601   4.464  0.1056 -0.1490  0.6001
 4035SOL     OW23566   2.818   3.030   7.603 -0.1192  0.3104  0.5038
 4035SOL    HW123567   2.810   3.105   7.662 -1.2155  0.7248 -0.1780
 4035SOL    HW223568   2.907   3.038   7.568 -0.8308  1.0840 -1.1410
 4036SOL     OW23569   2.705   0.187   1.884  0.1003  0.3350 -0.3693
 4036SOL    HW123570   2.654   0.240   1.946  2.4238  0.1190  1.7338
 4036SOL    HW223571   2.723   0.108   1.935  0.2958 -1.1234 -2.6935
 4037SOL     OW23572   1.940   1.576   9.100  0.1565  0.0738  0.8357
 4037SOL    HW123573   1.862   1.555   9.152 -0.5145 -1.2133 -0.6792
 4037SOL    HW223574   1.938   1.670   9.116  1.3772  0.2618 -0.1039
 4038SOL     OW23575   2.963   2.653  10.916  0.0734  1.0051  0.2446
 4038SOL    HW123576   2.983   2.646  11.009  3.2476  0.8294 -0.4788
 4038SOL    HW223577   2.962   2.748  10.904 -2.5295  1.3283  2.9886
 4039SOL     OW23578   4.232   1.418   1.616 -0.1341 -0.3730 -0.2888
 4039SOL    HW123579   4.305   1.425   1.554 -0.5860 -0.9836 -0.8918
 4039SOL    HW223580   4.255   1.338   1.664  0.2333 -0.6867 -0.9849
 4040SOL     OW23581   1.651   4.658   8.033 -0.1649  0.3799  0.0301
 4040SOL    HW123582   1.670   0.012   8.082 -3.6491  0.3620  1.3843
 4040SOL    HW223583   1.633   4.596   8.104 -0.9509 -0.8445 -1.2212
 4041SOL     OW23584   0.386   2.918   0.268 -0.1243 -0.1516 -0.6325
 4041SOL    HW123585   0.462   2.956   0.312  0.1799 -2.8996  1.2088
 4041SOL    HW223586   0.318   2.930   0.335 -0.6767 -0.7131 -1.1019
 4042SOL     OW23587   0.588   1.457   4.989  0.6766 -0.4154  0.1381
 4042SOL    HW123588   0.538   1.520   5.041  1.1268  0.4860 -0.5406
 4042SOL    HW223589   0.619   1.390   5.049  0.3515  1.6094  2.5742
 4043SOL     OW23590   4.109   1.080  17.021 -0.6710  0.1803  0.4819
 4043SOL    HW123591   4.146   1.084  17.109  0.4806  0.0804 -0.0039
 4043SOL    HW223592   4.091   1.172  16.998  0.5450  0.6878  1.5713
 4044SOL     OW23593   1.146   2.065  12.806  0.2281  0.4948 -0.2169
 4044SOL    HW123594   1.220   2.053  12.746 -0.2536 -0.2460 -0.6691
 4044SOL    HW223595   1.159   2.146  12.854  1.4108  2.3594 -3.6791
 4045SOL     OW23596   2.347   3.202  16.857  0.3650  0.1042 -0.2194
 4045SOL    HW123597   2.403   3.174  16.929  3.3671  1.6642 -1.9546
 4045SOL    HW223598   2.410   3.222  16.788 -1.7485 -0.8616 -2.4541
 4046SOL     OW23599   2.352   0.290   6.986 -0.6367  0.2096  0.0725
 4046SOL    HW123600   2.421   0.240   7.030  0.8706  2.2854  0.0769
 4046SOL    HW223601   2.275   0.245   7.023  0.1944 -1.0745  0.2472
 4047SOL     OW23602   4.708   4.665  13.797 -0.0539  0.0818 -0.0187
 4047SOL    HW123603   0.022   4.663  13.884 -0.4819 -1.6872  0.1275
 4047SOL    HW223604   0.007   0.026  13.764  0.8577  0.0168  0.4855
 4048SOL     OW23605   0.548   3.322   4.666 -0.5682  0.2268  0.3040
 4048SOL    HW123606   0.541   3.235   4.626 -1.8202 -0.8614  2.8841
 4048SOL    HW223607   0.454   3.339   4.656 -0.3933  0.6660 -0.6095
 4049SOL     OW23608   0.330   0.600  12.210 -0.7549 -0.1125 -0.1630
 4049SOL    HW123609   0.276   0.657  12.155  1.4260  1.2588 -0.8721
 4049SOL    HW223610   0.273   0.527  12.234 -0.6145 -0.8641 -2.0763
 4050SOL     OW23611   1.043   3.607   5.883 -0.4104 -0.0573  0.1187
 4050SOL    HW123612   1.060   3.545   5.954 -1.8221 -1.3583 -0.6723
 4050SOL    HW223613   0.948   3.615   5.888 -0.5467 -1.1808 -0.5555
 4051SOL     OW23614   2.283   3.916  14.181 -0.5317 -0.1355 -0.5221
 4051SOL    HW123615   2.269   3.956  14.095 -1.1372  0.2729 -0.2344
 4051SOL    HW223616   2.221   3.968  14.232  0.6836  2.1821 -1.3748
 4052SOL     OW23617   1.719   1.590   6.872 -0.2094  0.0565  0.1143
 4052SOL    HW123618   1.716   1.685   6.859  1.2245  0.3491  1.8717
 4052SOL    HW223619   1.649   1.579   6.808  0.7992 -2.4975 -0.5616
 4053SOL     OW23620   2.748   2.492   5.968 -0.0378 -0.2202  0.5448
 4053SOL    HW123621   2.768   2.585   5.952 -1.0845 -0.1433 -0.2590
 4053SOL    HW223622   2.835   2.454   5.957 -0.4840 -1.0629  0.0046
 4054SOL     OW23623   1.846   4.278  13.657  0.1623 -0.2931 -0.2620
 4054SOL    HW123624   1.778   4.229  13.702 -0.9832  1.3278 -0.2120
 4054SOL    HW223625   1.921   4.239  13.701 -0.8181 -0.3413  1.3864
 4055SOL     OW23626   4.476   4.480   8.087  0.3641  0.9095  0.0984
 4055SOL    HW123627   4.532   4.460   8.012 -1.2063 -2.1975 -0.2442
 4055SOL    HW223628   4.542   4.505   8.152  0.7238 -1.3049  0.5901
 4056SOL     OW23629   0.552   2.715   3.299 -0.1815 -0.2194  0.0732
 4056SOL    HW123630   0.624   2.736   3.239 -0.2006  1.1558  0.5292
 4056SOL    HW223631   0.577   2.644   3.358  2.1740  1.7627  1.4570
 4057SOL     OW23632   2.878   2.853   4.419 -0.0130 -0.3477 -0.3860
 4057SOL    HW123633   2.929   2.823   4.344  2.0318 -1.5360  1.4724
 4057SOL    HW223634   2.877   2.949   4.411  0.1574 -0.1925  1.5518
 4058SOL     OW23635   3.674   2.960  14.694  0.3598 -0.9882 -0.3365
 4058SOL    HW123636   3.722   2.977  14.613 -1.9536  0.0911 -1.4472
 4058SOL    HW223637   3.721   3.012  14.759  1.2290 -0.3577 -1.4773
 4059SOL     OW23638   0.751   4.681   6.216  0.0406 -0.0160  0.2065
 4059SOL    HW123639   0.837   4.722   6.230 -0.3676  0.8984  0.0299
 4059SOL    HW223640   0.773   4.600   6.169 -0.1599  0.2929 -0.4255
 4060SOL     OW23641   3.567   1.772  12.061  0.2181 -0.2971  0.7234
 4060SOL    HW123642   3.474   1.769  12.085  0.1339 -1.4086  0.2666
 4060SOL    HW223643   3.565   1.726  11.977  0.6479 -2.0760  1.6905
 4061SOL     OW23644   3.782   3.067   5.659  0.2109  0.1783 -0.0053
 4061SOL    HW123645   3.696   3.098   5.631 -0.6746 -1.5779  0.8065
 4061SOL    HW223646   3.764   3.040   5.749  1.3272 -1.2044 -0.2000
 4062SOL     OW23647   0.715   0.867   4.834  0.3233  0.7473  0.4562
 4062SOL    HW123648   0.785   0.802   4.828 -0.4889 -0.2724  2.1182
 4062SOL    HW223649   0.760   0.944   4.868  2.2751 -1.3331  2.5996
 4063SOL     OW23650   4.181   1.437   5.435  0.0826 -0.6171  0.5571
 4063SOL    HW123651   4.171   1.457   5.342 -1.2614 -0.1453  0.7945
 4063SOL    HW223652   4.271   1.405   5.440  0.2735 -0.2025 -0.1926
 4064SOL     OW23653   0.864   3.402   3.047  0.0089 -0.2660  0.0607
 4064SOL    HW123654   0.804   3.476   3.059  1.0422  1.1251 -3.4052
 4064SOL    HW223655   0.826   3.351   3.119  2.5282 -1.5695  0.4862
 4065SOL     OW23656   1.014   3.145   9.044  0.4403 -0.1457 -0.6392
 4065SOL    HW123657   1.013   3.127   8.950 -1.5625 -0.1127 -0.6279
 4065SOL    HW223658   0.930   3.125   9.086  1.0770  1.9664  1.6417
 4066SOL     OW23659   2.095   3.190   3.401  0.2925 -0.4653  0.7242
 4066SOL    HW123660   2.016   3.242   3.392  0.6977  0.0671  0.2892
 4066SOL    HW223661   2.076   3.108   3.355  0.8610  0.9052 -1.9516
 4067SOL     OW23662   2.685   1.747   8.965 -0.2509 -0.3640  0.4019
 4067SOL    HW123663   2.747   1.682   8.996 -0.5008 -0.1760  1.2803
 4067SOL    HW223664   2.663   1.709   8.880  1.6067  1.1880 -0.7978
 4068SOL     OW23665   3.898   1.001  12.162  0.2265 -0.4014 -0.1114
 4068SOL    HW123666   3.905   1.036  12.073  0.8656  0.0691  0.1234
 4068SOL    HW223667   3.854   0.918  12.143 -1.3194 -0.0141  1.7530
 4069SOL     OW23668   3.062   0.229   4.951  0.4700  0.6512 -0.1915
 4069SOL    HW123669   2.991   0.196   5.005  0.5413  1.1466  0.2064
 4069SOL    HW223670   3.027   0.317   4.938  1.3109  0.8570 -1.1062
 4070SOL     OW23671   2.135   3.049  14.560  0.2205  0.4404 -0.7692
 4070SOL    HW123672   2.112   2.960  14.532  1.4655  0.4035 -1.6608
 4070SOL    HW223673   2.049   3.090  14.564 -0.6933 -1.5686  0.0927
 4071SOL     OW23674   2.363   2.101   8.466  0.3963  0.1517  0.2941
 4071SOL    HW123675   2.394   2.099   8.556  2.9542 -4.6135 -0.6899
 4071SOL    HW223676   2.423   2.165   8.428 -0.3668  0.6356 -0.1137
 4072SOL     OW23677   3.047   1.357   1.917  0.3188 -0.3578  0.0206
 4072SOL    HW123678   3.054   1.297   1.992  1.1021 -1.2676 -0.7815
 4072SOL    HW223679   3.106   1.312   1.857 -0.6448 -1.5165 -0.0617
 4073SOL     OW23680   3.317   0.823   2.745 -0.2639 -0.5330 -0.4776
 4073SOL    HW123681   3.313   0.734   2.778  0.6522 -1.0634 -1.8052
 4073SOL    HW223682   3.224   0.846   2.741 -0.2331 -0.4322 -0.6293
 4074SOL     OW23683   2.594   1.155   2.235 -0.0260 -0.0023  0.0298
 4074SOL    HW123684   2.546   1.235   2.217 -1.0319 -0.1087  2.2499
 4074SOL    HW223685   2.528   1.085   2.234 -1.2206  1.0994  2.5316
 4075SOL     OW23686   4.185   1.765   0.266  0.1031 -0.3009  0.2816
 4075SOL    HW123687   4.103   1.722   0.289 -1.0541  2.9390  2.2510
 4075SOL    HW223688   4.236   1.685   0.273 -1.5628 -1.5157 -1.3738
 4076SOL     OW23689   4.319   4.674   5.944  0.2578 -0.3756  0.3950
 4076SOL    HW123690   4.318   0.029   5.996  1.0127 -0.1086 -0.0086
 4076SOL    HW223691   4.391   4.631   5.989  0.0213 -0.2017  0.9456
 4077SOL     OW23692   4.456   4.669   4.592 -0.5419 -0.4012 -0.0399
 4077SOL    HW123693   4.445   4.708   4.679  0.6531  1.5318 -0.7720
 4077SOL    HW223694   4.537   4.618   4.606  0.0871  0.8204  0.7627
 4078SOL     OW23695   3.379   3.509   0.829 -0.1056  0.2478  0.6607
 4078SOL    HW123696   3.452   3.548   0.782 -0.2319 -0.2514  0.0574
 4078SOL    HW223697   3.315   3.580   0.819  1.3709  1.7381  1.7793
 4079SOL     OW23698   4.382   4.217   6.394 -0.4339  0.3806  0.3837
 4079SOL    HW123699   4.307   4.198   6.451 -0.4746 -0.9382 -0.1179
 4079SOL    HW223700   4.453   4.222   6.459  0.1086  1.7892 -0.3222
 4080SOL     OW23701   3.836   2.983  11.545 -0.0180  0.1621  0.1727
 4080SOL    HW123702   3.760   2.926  11.531  0.4375 -0.7084  1.1585
 4080SOL    HW223703   3.881   2.930  11.611 -0.3898 -2.5747 -1.7808
 4081SOL     OW23704   2.965   3.231  13.551 -0.1003  0.2455 -0.6265
 4081SOL    HW123705   3.021   3.239  13.473  0.0295  1.2054 -0.4410
 4081SOL    HW223706   2.877   3.232  13.513 -0.7462  0.4142  0.8941
 4082SOL     OW23707   2.129   2.278  15.941  0.3510 -0.4376 -0.3363
 4082SOL    HW123708   2.161   2.215  15.877  1.5111  0.1288 -0.3147
 4082SOL    HW223709   2.167   2.240  16.021  0.2087 -0.5691 -0.3305
 4083SOL     OW23710   1.532   3.830   5.330 -0.7049  0.4836 -0.5356
 4083SOL    HW123711   1.477   3.754   5.350  0.9402 -1.1129 -2.2403
 4083SOL    HW223712   1.610   3.795   5.372 -0.5250 -1.0226 -2.1836
 4084SOL     OW23713   0.480   2.030   9.244 -0.3274  0.2891 -0.0681
 4084SOL    HW123714   0.449   1.942   9.225  1.9007 -0.2993 -1.0164
 4084SOL    HW223715   0.531   2.048   9.165 -0.5634  1.9292  0.1512
 4085SOL     OW23716   1.969   4.594  14.438 -0.2213  0.2021 -1.3782
 4085SOL    HW123717   2.034   4.536  14.476  2.0874  1.6967 -3.0151
 4085SOL    HW223718   1.959   4.656  14.510 -1.9487  1.7284 -2.8910
 4086SOL     OW23719   2.211   4.287   4.909 -0.0733 -0.4347 -0.0031
 4086SOL    HW123720   2.270   4.356   4.940  0.8104 -1.1514 -0.1194
 4086SOL    HW223721   2.263   4.237   4.847  1.2084  2.1767 -1.0636
 4087SOL     OW23722   1.584   3.919   2.975 -0.7445 -0.0511  0.0370
 4087SOL    HW123723   1.557   3.833   2.944 -1.2171 -0.3922  1.4285
 4087SOL    HW223724   1.531   3.927   3.054 -0.9393  0.8938 -0.1899
 4088SOL     OW23725   3.779   4.470   4.896 -0.4275 -0.0715 -0.8193
 4088SOL    HW123726   3.837   4.471   4.820  2.7764  1.4340  1.6680
 4088SOL    HW223727   3.767   4.376   4.907  2.9018 -0.4417 -0.5158
 4089SOL     OW23728   4.275   3.639  13.037  0.0036  0.0131 -0.1173
 4089SOL    HW123729   4.270   3.560  12.982 -1.8855  0.5605 -0.7262
 4089SOL    HW223730   4.358   3.675  13.006 -0.3668  0.4242 -0.6190
 4090SOL     OW23731   0.643   3.315   8.383 -0.0650 -0.6272  0.3388
 4090SOL    HW123732   0.677   3.276   8.464  0.1143 -1.5479 -0.1799
 4090SOL    HW223733   0.695   3.393   8.367  0.4663 -0.9717  0.4019
 4091SOL     OW23734   3.574   3.037  15.073  0.6128  0.1626 -0.0502
 4091SOL    HW123735   3.667   3.050  15.055  0.7150  0.5663  0.7615
 4091SOL    HW223736   3.568   3.077  15.160  0.9330  0.3336 -0.1053
 4092SOL     OW23737   4.237   3.334  11.621 -0.0512  0.2809  0.4690
 4092SOL    HW123738   4.270   3.372  11.702 -0.4819 -1.0402  1.2647
 4092SOL    HW223739   4.177   3.405  11.596 -0.3037 -0.0543  0.1131
 4093SOL     OW23740   4.255   3.724   7.015 -0.7210 -0.5580 -0.1547
 4093SOL    HW123741   4.294   3.810   7.030 -0.9317 -0.4033 -0.4921
 4093SOL    HW223742   4.171   3.728   7.060 -0.3100  1.5162  0.4044
 4094SOL     OW23743   4.023   2.162   1.025  0.2336  0.2475  0.1405
 4094SOL    HW123744   3.929   2.143   1.024  0.3698 -0.3858 -0.6950
 4094SOL    HW223745   4.058   2.086   0.978 -1.0060  0.8200 -1.7371
 4095SOL     OW23746   0.174   1.371   3.164  0.0368  0.2377  0.4094
 4095SOL    HW123747   0.261   1.368   3.204  0.8716  0.2147 -1.4102
 4095SOL    HW223748   0.127   1.424   3.227 -0.6449  1.8799 -1.4783
 4096SOL     OW23749   4.405   2.415   3.874  0.4545  0.0139 -0.6118
 4096SOL    HW123750   4.348   2.490   3.860  0.0052 -0.1803  0.1486
 4096SOL    HW223751   4.461   2.441   3.947 -1.0144  0.7979  0.2415
 4097SOL     OW23752   0.647   3.991   6.443  0.5533 -0.2547 -0.1501
 4097SOL    HW123753   0.637   3.915   6.501  0.8550  0.2768  0.5963
 4097SOL    HW223754   0.742   4.000   6.429  0.4818  2.0965  0.9015
 4098SOL     OW23755   1.338   2.137  13.240  0.8278  0.1414 -0.2430
 4098SOL    HW123756   1.380   2.203  13.295  0.5436 -0.1711  0.3475
 4098SOL    HW223757   1.372   2.166  13.155 -2.1267  2.6261 -0.5381
 4099SOL     OW23758   3.656   3.983   6.771  0.5324 -0.0840  0.1778
 4099SOL    HW123759   3.635   3.950   6.858  0.9796  1.7372  0.9876
 4099SOL    HW223760   3.651   3.902   6.720  0.8930 -1.0667  1.6901
 4100SOL     OW23761   0.586   0.133   6.370  0.0811  0.3270 -0.3277
 4100SOL    HW123762   0.638   0.171   6.441 -2.7565 -0.8296  2.3769
 4100SOL    HW223763   0.660   0.107   6.315  0.0632  0.5865 -0.4736
 4101SOL     OW23764   1.839   0.655   6.695 -0.2151  0.6612  0.6070
 4101SOL    HW123765   1.798   0.741   6.707 -2.2856 -0.2342 -0.0895
 4101SOL    HW223766   1.802   0.630   6.610  0.6729 -0.6198  0.6029
 4102SOL     OW23767   3.216   2.502  15.675  0.2416 -0.1890  0.0252
 4102SOL    HW123768   3.152   2.492  15.604  0.2174  0.4647 -0.0501
 4102SOL    HW223769   3.179   2.450  15.746 -1.3501  2.1466  0.9085
 4103SOL     OW23770   1.945   0.847   6.338  0.2681  0.0755 -0.1677
 4103SOL    HW123771   1.929   0.774   6.398  2.5411  0.8640  1.3753
 4103SOL    HW223772   1.980   0.790   6.270  3.4020  1.5925  0.1892
 4104SOL     OW23773   0.497   0.389   5.491 -0.4119  0.7232  0.0266
 4104SOL    HW123774   0.510   0.452   5.561  0.8810  0.8926 -0.3596
 4104SOL    HW223775   0.454   0.444   5.425 -0.3956  0.0265 -0.5698
 4105SOL     OW23776   1.900   3.669   4.803 -0.2275  0.4502  0.2829
 4105SOL    HW123777   1.831   3.734   4.789 -1.0441  0.0722  2.4952
 4105SOL    HW223778   1.903   3.642   4.711  0.9742  2.8539 -0.3827
 4106SOL     OW23779   2.489   0.464   2.549 -0.1121 -0.3906 -0.2844
 4106SOL    HW123780   2.432   0.541   2.545 -1.0934 -1.0992  0.0033
 4106SOL    HW223781   2.510   0.457   2.456 -1.5965  1.5932 -0.7760
 4107SOL     OW23782   0.476   2.277   5.633  0.0147  0.6948 -0.1693
 4107SOL    HW123783   0.467   2.367   5.601  0.9162  1.4127  1.5963
 4107SOL    HW223784   0.509   2.224   5.561 -2.1921 -1.6669  0.5461
 4108SOL     OW23785   3.711   0.802   0.779  0.5377  0.1813  0.0811
 4108SOL    HW123786   3.770   0.733   0.807 -1.3911 -1.4627  0.1151
 4108SOL    HW223787   3.727   0.871   0.844  0.9287 -0.9739  1.1988
 4109SOL     OW23788   0.584   3.710  14.669  0.2919 -0.3214 -0.3039
 4109SOL    HW123789   0.515   3.681  14.610 -0.1462 -0.6572  0.3723
 4109SOL    HW223790   0.655   3.717  14.605  0.8387 -0.6070  0.2703
 4110SOL     OW23791   0.301   2.712   6.969 -0.1384 -0.1337  0.3340
 4110SOL    HW123792   0.349   2.754   6.898  0.4503 -0.0191  0.7984
 4110SOL    HW223793   0.210   2.737   6.957  0.4462  0.8416 -2.0446
 4111SOL     OW23794   0.030   4.682   3.321 -0.0532 -0.0100 -0.1289
 4111SOL    HW123795   4.676   0.006   3.314  0.6107  0.6102 -3.2348
 4111SOL    HW223796   0.093   0.027   3.325  0.7797 -0.8063  1.0294
 4112SOL     OW23797   1.579   1.479   0.458  0.2664  0.0084  0.0286
 4112SOL    HW123798   1.531   1.512   0.534  1.3121  0.0423  0.6740
 4112SOL    HW223799   1.542   1.541   0.395 -1.5259 -2.5466 -1.4544
 4113SOL     OW23800   0.637   1.239   9.673  0.2717  0.1289 -0.2683
 4113SOL    HW123801   0.578   1.217   9.745 -1.1918 -1.9354 -2.1089
 4113SOL    HW223802   0.683   1.156   9.657  0.2332  0.0869 -0.1625
 4114SOL     OW23803   0.844   1.549   6.494  0.1564 -0.2166  0.7421
 4114SOL    HW123804   0.828   1.596   6.412  0.1226 -0.8183  0.4049
 4114SOL    HW223805   0.800   1.469   6.464  2.0786 -1.8394  2.2447
 4115SOL     OW23806   3.446   2.759   7.970  0.8352 -0.6275  0.3929
 4115SOL    HW123807   3.534   2.793   7.956  0.0861  2.1433  2.5748
 4115SOL    HW223808   3.441   2.680   7.916 -0.5211  1.5190 -2.6273
 4116SOL     OW23809   0.017   0.731  12.787  0.0852 -0.2497  0.2018
 4116SOL    HW123810   0.009   0.667  12.717  0.7587  0.2070 -0.2939
 4116SOL    HW223811   4.717   0.815  12.749 -2.4739  0.1286  2.7832
 4117SOL     OW23812   1.399   3.039   4.463 -0.5894 -0.1553 -0.4482
 4117SOL    HW123813   1.491   3.021   4.478 -0.5463  1.4225  1.2658
 4117SOL    HW223814   1.397   3.110   4.399  1.8215  2.6413  2.5663
 4118SOL     OW23815   0.428   2.327   5.354 -0.1792 -0.1880 -0.2556
 4118SOL    HW123816   0.459   2.418   5.355 -0.4047 -0.1234  2.1059
 4118SOL    HW223817   0.472   2.290   5.278  2.6730  0.8581  0.8993
 4119SOL     OW23818   3.243   3.003   5.898 -0.2918  0.3506 -0.4361
 4119SOL    HW123819   3.278   2.914   5.896  2.6793  1.5599 -1.3369
 4119SOL    HW223820   3.207   3.008   5.987  1.9302 -1.5859  0.5703
 4120SOL     OW23821   0.733   1.534   0.142  0.2236  0.2833  0.6702
 4120SOL    HW123822   0.714   1.625   0.165 -2.0936 -0.2573  0.9303
 4120SOL    HW223823   0.657   1.489   0.104  1.3863 -1.9188  0.9677
 4121SOL     OW23824   3.914   3.907   5.693  0.0858 -0.1605 -0.0872
 4121SOL    HW123825   3.999   3.870   5.719 -1.0638 -2.0564  0.9376
 4121SOL    HW223826   3.913   3.993   5.736 -2.1716  0.4474 -1.3374
 4122SOL     OW23827   0.903   3.418  17.090  0.2730  0.1379 -0.0427
 4122SOL    HW123828   0.961   3.368  17.032 -0.6645 -2.4200  1.2138
 4122SOL    HW223829   0.967   3.480  17.125 -0.4883  0.0966  1.4104
 4123SOL     OW23830   1.689   3.061   3.273 -0.2086 -0.0463 -0.0421
 4123SOL    HW123831   1.735   3.100   3.198 -0.7843  1.4029  0.3548
 4123SOL    HW223832   1.761   3.014   3.315  0.0025 -0.1355 -0.4965
 4124SOL     OW23833   2.875   2.299   4.559  0.1495  0.1467  0.2023
 4124SOL    HW123834   2.814   2.228   4.580 -2.6565  2.2159 -0.9280
 4124SOL    HW223835   2.849   2.320   4.469 -0.8853 -1.4043  0.1422
 4125SOL     OW23836   2.944   3.609   4.166  0.3617  0.3131 -0.2432
 4125SOL    HW123837   3.035   3.596   4.193  0.7561  3.3864 -0.1422
 4125SOL    HW223838   2.926   3.516   4.154  0.4047 -0.0218  2.2601
 4126SOL     OW23839   3.619   3.113   2.188 -0.0543  0.1695 -0.2282
 4126SOL    HW123840   3.705   3.129   2.227 -0.9567  0.3253  1.7374
 4126SOL    HW223841   3.568   3.097   2.268 -0.1444 -0.8250 -0.4811
 4127SOL     OW23842   4.067   4.426   3.404 -0.4275  0.1943 -0.7639
 4127SOL    HW123843   4.135   4.492   3.415  0.6189 -0.5958 -2.4229
 4127SOL    HW223844   4.086   4.393   3.492 -1.2785  1.5683 -0.0669
 4128SOL     OW23845   0.670   3.402   9.697  0.2671 -0.7007 -0.1622
 4128SOL    HW123846   0.747   3.457   9.678 -0.7387  0.3795 -1.1053
 4128SOL    HW223847   0.680   3.333   9.632 -1.0401 -0.6831 -0.3773
 4129SOL     OW23848   1.707   3.013  16.058 -0.7461  0.3178  0.5114
 4129SOL    HW123849   1.744   3.088  16.011 -1.5325  1.0013  0.9894
 4129SOL    HW223850   1.651   2.975  15.991 -1.5861 -0.6549  1.7445
 4130SOL     OW23851   4.658   3.411  17.064  0.5609  0.7602 -0.2146
 4130SOL    HW123852   4.600   3.437  17.135 -1.4143 -2.6669 -0.5628
 4130SOL    HW223853   4.725   3.364  17.114  2.4364  3.9906  0.2667
 4131SOL     OW23854   3.372   1.438  14.465 -0.1007  0.0915  0.1019
 4131SOL    HW123855   3.398   1.391  14.386 -4.2256  0.9785 -1.7638
 4131SOL    HW223856   3.415   1.390  14.536  0.9920 -1.2194 -1.4510
 4132SOL     OW23857   2.081   1.142   1.669 -0.0933  0.5223 -0.0029
 4132SOL    HW123858   2.059   1.197   1.594 -1.0705  2.1868  1.5000
 4132SOL    HW223859   1.999   1.097   1.690 -0.8023  2.9260  2.3009
 4133SOL     OW23860   4.618   3.530   7.476 -0.6466 -0.8488  0.1205
 4133SOL    HW123861   4.556   3.510   7.546 -0.3720  0.2534  0.6719
 4133SOL    HW223862   4.617   3.451   7.421  2.3639 -1.3381  0.7751
 4134SOL     OW23863   1.515   1.540  11.147  0.0053 -0.0671  0.5191
 4134SOL    HW123864   1.502   1.471  11.082 -0.7561  1.2246 -0.7193
 4134SOL    HW223865   1.458   1.608  11.110 -0.9168 -0.6297  0.9086
 4135SOL     OW23866   3.178   2.170   4.579 -0.0456  0.8102 -0.4252
 4135SOL    HW123867   3.114   2.199   4.513  0.7337  1.3637 -0.9300
 4135SOL    HW223868   3.240   2.241   4.570 -1.5885  2.3395  1.1358
 4136SOL     OW23869   4.199   0.133   3.332  0.7199  0.0149 -0.2126
 4136SOL    HW123870   4.185   0.105   3.423 -1.9467  0.1918 -0.5525
 4136SOL    HW223871   4.132   0.084   3.285 -1.5312  1.5364  1.3962
 4137SOL     OW23872   3.112   3.560   3.791  0.3174  1.0875 -0.3625
 4137SOL    HW123873   3.022   3.592   3.797  0.0984  0.4310 -0.1232
 4137SOL    HW223874   3.155   3.624   3.733  0.9186 -0.1076 -1.2380
 4138SOL     OW23875   0.399   0.804   7.740  0.5822 -0.0402 -0.1709
 4138SOL    HW123876   0.475   0.834   7.690  1.0467  1.5080  1.4480
 4138SOL    HW223877   0.327   0.845   7.692  0.4034  0.6034  0.6522
 4139SOL     OW23878   1.684   0.621   6.012 -0.3908 -0.2606 -0.3258
 4139SOL    HW123879   1.754   0.557   5.995  0.0958  0.0263  0.6186
 4139SOL    HW223880   1.648   0.651   5.929 -3.1890 -2.5573  0.0683
 4140SOL     OW23881   0.511   0.752   2.042 -0.0644 -0.1664 -0.4320
 4140SOL    HW123882   0.479   0.667   2.013  0.8770  0.0654 -2.1398
 4140SOL    HW223883   0.606   0.753   2.031  0.2691  0.7781  2.4247
 4141SOL     OW23884   3.995   4.581   1.609  0.5149 -0.0015  0.2293
 4141SOL    HW123885   3.927   4.644   1.635 -0.2385 -0.3419 -0.9488
 4141SOL    HW223886   3.944   4.501   1.623 -2.6839  1.3476 -4.0001
 4142SOL     OW23887   1.804   2.649   6.862 -0.4076 -0.0026 -0.0609
 4142SOL    HW123888   1.787   2.560   6.891  1.6591 -0.9597 -1.8339
 4142SOL    HW223889   1.775   2.653   6.770  0.0741 -0.1136 -0.2201
 4143SOL     OW23890   1.088   4.483   3.661  0.6073 -0.1796  0.3841
 4143SOL    HW123891   1.003   4.464   3.701  0.3300 -1.8575 -1.0077
 4143SOL    HW223892   1.055   4.510   3.576 -0.0945 -1.7281  0.1569
 4144SOL     OW23893   1.540   3.843   7.962  0.0722  0.2052 -0.0149
 4144SOL    HW123894   1.499   3.759   7.943  2.7230 -0.3313 -3.3525
 4144SOL    HW223895   1.466   3.900   7.939  0.4590  1.5822  2.1770
 4145SOL     OW23896   1.119   0.859   2.234  0.8418 -0.1385 -0.3677
 4145SOL    HW123897   1.202   0.827   2.199  0.7331 -0.4133 -0.3783
 4145SOL    HW223898   1.085   0.921   2.170 -0.9876 -0.1391  0.6196
 4146SOL     OW23899   1.824   3.232   4.615 -0.3711  0.1507  0.0807
 4146SOL    HW123900   1.901   3.251   4.669 -1.1934 -1.4068  1.7582
 4146SOL    HW223901   1.765   3.299   4.649  1.5585  1.7444  0.3176
 4147SOL     OW23902   4.416   2.687   7.610  0.7369 -0.6155 -0.3417
 4147SOL    HW123903   4.508   2.662   7.607  0.5778 -1.3792  1.0606
 4147SOL    HW223904   4.425   2.774   7.650  0.2457 -0.8098  0.1831
 4148SOL     OW23905   3.011   1.843   8.042 -0.0790 -0.0350  0.3946
 4148SOL    HW123906   3.019   1.794   8.124  0.9956  0.3270  0.5013
 4148SOL    HW223907   2.972   1.921   8.082 -1.4523 -0.4115 -0.2126
 4149SOL     OW23908   2.208   3.079   5.896 -0.0717  0.0908  0.3632
 4149SOL    HW123909   2.179   3.156   5.846 -1.8493  0.7623  2.4297
 4149SOL    HW223910   2.261   3.128   5.959  2.7167 -0.0301 -1.8359
 4150SOL     OW23911   4.349   4.439   7.454  0.8203 -0.7352 -0.0185
 4150SOL    HW123912   4.275   4.381   7.435 -0.6087  1.6602 -1.6987
 4150SOL    HW223913   4.304   4.522   7.469 -1.6176 -2.2349  0.9791
 4151SOL     OW23914   2.297   1.618   7.318  0.6558  0.2428 -0.0114
 4151SOL    HW123915   2.275   1.542   7.372  0.3468  0.1720 -0.2412
 4151SOL    HW223916   2.216   1.669   7.319  0.4907 -0.0562  1.6250
 4152SOL     OW23917   1.497   2.022  11.794 -0.4254  0.1328 -0.0946
 4152SOL    HW123918   1.550   2.101  11.779 -0.7076 -0.2780 -3.1585
 4152SOL    HW223919   1.414   2.065  11.813 -0.0630 -0.0333  1.9014
 4153SOL     OW23920   0.223   2.356   3.028 -0.1218 -0.7747  0.1637
 4153SOL    HW123921   0.135   2.330   2.999 -1.6629  2.6264  1.7214
 4153SOL    HW223922   0.259   2.268   3.021 -1.2606 -1.1507 -1.1566
 4154SOL     OW23923   0.746   2.689   9.540  0.3201  0.1812 -0.0685
 4154SOL    HW123924   0.773   2.637   9.465  1.8991 -1.4806  1.6284
 4154SOL    HW223925   0.651   2.688   9.528  0.4823  2.1121 -1.4245
 4155SOL     OW23926   0.658   2.775   2.761  0.3419  0.5739  0.4034
 4155SOL    HW123927   0.747   2.757   2.731  1.3192  2.0541  2.4533
 4155SOL    HW223928   0.672   2.852   2.816  3.3074 -0.3842  1.0149
 4156SOL     OW23929   3.493   3.596   4.656  0.2166  0.2909 -0.5285
 4156SOL    HW123930   3.413   3.613   4.606 -0.6224 -0.2432  0.6207
 4156SOL    HW223931   3.464   3.574   4.744 -1.8498 -0.5372 -1.4060
 4157SOL     OW23932   4.428   4.007   4.625  0.4243  0.3749  0.0910
 4157SOL    HW123933   4.499   4.021   4.688 -0.6614 -0.3101  1.4606
 4157SOL    HW223934   4.347   4.033   4.668 -0.2224  0.0366 -0.9149
 4158SOL     OW23935   1.147   3.431   8.592  0.0581 -0.3699  0.2262
 4158SOL    HW123936   1.111   3.500   8.536  0.8939  0.4043  0.6366
 4158SOL    HW223937   1.078   3.425   8.658 -1.9674  1.4724 -1.7403
 4159SOL     OW23938   0.610   4.064   4.546  0.0881 -0.2380 -0.6281
 4159SOL    HW123939   0.684   4.099   4.595 -1.2390 -1.0044  1.9514
 4159SOL    HW223940   0.596   3.982   4.594 -2.2569  0.2142 -0.5247
 4160SOL     OW23941   3.844   0.023   8.871  0.2908  0.1256  0.3674
 4160SOL    HW123942   3.829   0.099   8.816  1.0891 -0.5617 -0.7970
 4160SOL    HW223943   3.894   4.692   8.813 -1.6647 -1.4471  0.2321
 4161SOL     OW23944   4.356   2.380   8.515 -0.0879  0.0644 -0.0307
 4161SOL    HW123945   4.348   2.475   8.527  0.3043  0.6456 -4.4426
 4161SOL    HW223946   4.412   2.361   8.591 -2.0931 -2.1241  0.8927
 4162SOL     OW23947   2.748   3.509   2.779  0.2179 -0.6125 -0.1298
 4162SOL    HW123948   2.750   3.586   2.837  0.0554 -0.2106 -0.6570
 4162SOL    HW223949   2.817   3.450   2.809  0.5615  0.2096  0.7033
 4163SOL     OW23950   4.586   1.876   7.713 -0.3354  0.8060 -0.0310
 4163SOL    HW123951   4.655   1.900   7.775 -2.1254 -1.1934  2.7227
 4163SOL    HW223952   4.526   1.838   7.778 -0.5734 -0.1484 -0.8072
 4164SOL     OW23953   0.582   0.110   7.312 -0.4169 -0.1046  0.4280
 4164SOL    HW123954   0.493   0.143   7.315 -1.1372 -1.8325 -2.3273
 4164SOL    HW223955   0.577   0.085   7.219 -0.9746  0.4689  0.3096
 4165SOL     OW23956   0.352   0.454  10.746  0.1746  0.0385 -0.3404
 4165SOL    HW123957   0.386   0.421  10.829 -0.9293 -0.5306 -0.1019
 4165SOL    HW223958   0.288   0.519  10.775 -0.1539 -0.5476  0.2688
 4166SOL     OW23959   0.625   2.965   6.387 -0.1618  0.3488 -1.0112
 4166SOL    HW123960   0.715   2.977   6.416 -0.5095 -0.7050  0.4625
 4166SOL    HW223961   0.620   3.025   6.312 -0.8186 -0.3377 -1.5236
 4167SOL     OW23962   1.927   3.535   4.562 -0.5410 -0.0507 -0.4079
 4167SOL    HW123963   1.976   3.483   4.500 -1.5447  1.0331 -2.1014
 4167SOL    HW223964   1.839   3.523   4.526 -0.3450 -1.2800 -0.4623
 4168SOL     OW23965   0.359   2.859   2.007 -0.5611  0.6412  0.5074
 4168SOL    HW123966   0.372   2.809   2.088 -2.3670 -1.0789 -0.2586
 4168SOL    HW223967   0.435   2.828   1.957 -1.9114 -2.7203  0.5090
 4169SOL     OW23968   4.408   2.386   3.186 -0.5207 -0.2485  0.2832
 4169SOL    HW123969   4.386   2.473   3.221 -2.4050  0.2121 -1.9577
 4169SOL    HW223970   4.373   2.410   3.100  1.3920  0.8427 -0.1781
 4170SOL     OW23971   2.685   4.609   2.857  0.1697 -0.2309 -0.1184
 4170SOL    HW123972   2.685   4.525   2.903 -2.1599  0.2901  0.8195
 4170SOL    HW223973   2.621   4.587   2.790 -0.6707 -0.0924  0.6436
 4171SOL     OW23974   3.613   0.882   8.434  0.6231 -0.1790  0.1981
 4171SOL    HW123975   3.557   0.904   8.509  1.6428 -2.0747  1.5004
 4171SOL    HW223976   3.636   0.966   8.394 -0.0032 -1.2248 -2.3892
 4172SOL     OW23977   1.888   0.053   7.370 -0.5148 -0.6606  0.0861
 4172SOL    HW123978   1.907   4.692   7.334  0.5747  0.4478 -1.9873
 4172SOL    HW223979   1.885   0.099   7.286  0.1119 -1.1287 -0.2005
 4173SOL     OW23980   1.590   1.292   6.744 -0.0757  0.2447  0.6660
 4173SOL    HW123981   1.615   1.259   6.658 -0.9809 -2.6534  1.5104
 4173SOL    HW223982   1.623   1.381   6.747  0.5123  0.0610 -0.2713
 4174SOL     OW23983   1.258   1.139   3.288  0.2412 -0.6434 -0.6138
 4174SOL    HW123984   1.272   1.233   3.285 -1.3299 -0.3606  0.6300
 4174SOL    HW223985   1.307   1.120   3.368  2.0007  2.5834 -0.9694
 4175SOL     OW23986   0.585   0.636   5.277 -0.3508  0.4877 -0.6851
 4175SOL    HW123987   0.588   0.714   5.333  0.7661  2.1906 -3.1179
 4175SOL    HW223988   0.647   0.663   5.210  2.3594  0.1281  1.7037
 4176SOL     OW23989   0.882   1.717  12.613 -0.3710 -0.0631  0.0886
 4176SOL    HW123990   0.934   1.696  12.690 -0.0547 -0.2876 -0.1883
 4176SOL    HW223991   0.935   1.783  12.569 -0.4901  0.1217  0.2192
 4177SOL     OW23992   0.810   0.234  17.640  0.8975  0.2907  0.2024
 4177SOL    HW123993   0.747   0.272  17.702 -1.2830 -3.6062  0.3782
 4177SOL    HW223994   0.870   0.308  17.627  1.4826 -0.2685 -0.3159
 4178SOL     OW23995   2.337   0.108   3.311 -0.6776 -0.4888  0.1139
 4178SOL    HW123996   2.376   0.193   3.293  0.7971 -0.8779  1.5037
 4178SOL    HW223997   2.262   0.121   3.369 -1.5744 -1.9065 -0.6931
 4179SOL     OW23998   0.750   1.822  13.594  0.5231  0.2025  0.2735
 4179SOL    HW123999   0.799   1.746  13.626  1.6008  1.1217  0.8254
 4179SOL    HW224000   0.670   1.813  13.646 -0.0511  0.9313 -0.4933
 4180SOL     OW24001   4.622   4.151  12.932  0.0865 -0.4906 -0.2466
 4180SOL    HW124002   4.679   4.208  12.984  1.1335 -2.0106  0.2561
 4180SOL    HW224003   4.684   4.082  12.910 -1.3012 -1.7751 -0.1947
 4181SOL     OW24004   4.571   3.624   4.819  0.3614  0.1114 -0.0319
 4181SOL    HW124005   4.483   3.630   4.782  0.5322 -0.5317 -0.5363
 4181SOL    HW224006   4.614   3.549   4.779 -0.4094 -0.0375 -0.5852
 4182SOL     OW24007   4.674   0.026   2.030  0.1512  0.1035  0.5280
 4182SOL    HW124008   4.659   0.020   2.124 -0.0708 -0.8662  0.4318
 4182SOL    HW224009   4.586   0.040   1.995  1.5744 -0.2082 -3.1825
 4183SOL     OW24010   3.853   2.970   4.129  0.7228 -0.3939 -0.4137
 4183SOL    HW124011   3.928   2.987   4.072  0.7644 -1.1336 -0.5765
 4183SOL    HW224012   3.857   3.056   4.171 -2.4087 -1.3130  1.7562
 4184SOL     OW24013   3.018   2.577   4.443 -0.1096 -0.0779  0.2899
 4184SOL    HW124014   2.964   2.655   4.452 -0.6042 -0.5639  1.4568
 4184SOL    HW224015   3.105   2.598   4.476 -0.5844  0.1120  1.4269
 4185SOL     OW24016   1.132   1.555   3.693 -0.1286  0.3870 -0.0924
 4185SOL    HW124017   1.197   1.494   3.729  0.9239  1.6302  0.1277
 4185SOL    HW224018   1.187   1.588   3.621  0.5794 -1.3170 -0.3265
 4186SOL     OW24019   0.192   3.279   7.824 -0.0481 -0.6159  0.7076
 4186SOL    HW124020   0.276   3.255   7.787  0.7985 -0.1963  2.3652
 4186SOL    HW224021   0.225   3.333   7.896  0.7798 -0.7645  0.4304
 4187SOL     OW24022   3.602   1.392   6.092 -0.2269 -0.1340  0.1434
 4187SOL    HW124023   3.573   1.350   6.010  3.2768 -0.8775 -0.6909
 4187SOL    HW224024   3.519   1.432   6.118  0.1414 -0.4110  1.7545
 4188SOL     OW24025   3.007   1.042   5.503 -0.3227  0.1563  0.2977
 4188SOL    HW124026   2.981   1.106   5.437 -2.5508 -0.5196  0.5274
 4188SOL    HW224027   3.078   0.991   5.464 -0.9414  1.4940 -2.5247
 4189SOL     OW24028   2.956   3.871   6.387 -0.2423  0.0690  0.3293
 4189SOL    HW124029   2.935   3.961   6.413 -1.5712  0.1314 -0.9542
 4189SOL    HW224030   2.953   3.829   6.473 -2.7568 -0.8613 -0.2126
 4190SOL     OW24031   4.532   1.145  15.133  0.2860  0.4427 -0.4284
 4190SOL    HW124032   4.494   1.141  15.221  1.8836 -1.6131  0.1553
 4190SOL    HW224033   4.623   1.137  15.161  0.4849  1.9139 -0.6491
 4191SOL     OW24034   1.190   1.076   8.968 -0.6149  0.3384  0.5261
 4191SOL    HW124035   1.267   1.099   9.019  1.3259  0.8477 -2.6390
 4191SOL    HW224036   1.224   1.068   8.878 -1.6564  2.2874 -0.0209
 4192SOL     OW24037   3.353   1.098   9.864 -0.2117 -0.2955  0.4752
 4192SOL    HW124038   3.258   1.106   9.870 -0.1804  0.8061 -0.4665
 4192SOL    HW224039   3.370   1.072   9.773 -0.7162  1.7504 -0.2184
 4193SOL     OW24040   2.275   3.659  16.116 -0.3321 -0.2606 -0.3217
 4193SOL    HW124041   2.340   3.719  16.080 -0.8276  0.9927  0.8410
 4193SOL    HW224042   2.288   3.577  16.068 -2.0679  0.0377 -1.3005
 4194SOL     OW24043   3.981   4.211   8.519  0.3799 -0.0089 -0.2877
 4194SOL    HW124044   3.915   4.254   8.573  0.4619  0.8731 -0.8887
 4194SOL    HW224045   4.059   4.258   8.548  0.9175 -1.9456  1.3987
 4195SOL     OW24046   3.295   2.727   5.091  0.2399 -0.0376 -0.1048
 4195SOL    HW124047   3.214   2.706   5.139  2.0698 -3.8499  1.3632
 4195SOL    HW224048   3.271   2.802   5.037  0.0530  0.6507  0.9234
 4196SOL     OW24049   2.650   3.135  14.527 -0.2634 -0.2934  0.3019
 4196SOL    HW124050   2.622   3.071  14.461 -0.6175  0.4067 -0.2242
 4196SOL    HW224051   2.742   3.151  14.506 -0.4857  0.1052 -0.3900
 4197SOL     OW24052   0.077   1.952  15.048  0.2383 -0.1919  0.0015
 4197SOL    HW124053   0.100   1.978  14.959  0.0314 -0.0144 -0.0015
 4197SOL    HW224054   0.054   2.043  15.066  1.1670  0.4031 -1.8290
 4198SOL     OW24055   0.274   3.926  11.555  0.1926 -0.4532  0.3879
 4198SOL    HW124056   0.344   3.863  11.537  0.2858  0.3406 -1.9991
 4198SOL    HW224057   0.330   3.991  11.596  0.7763 -0.9039  0.2959
 4199SOL     OW24058   3.599   1.067   3.360  0.4494  0.1000 -0.3476
 4199SOL    HW124059   3.532   1.099   3.299  1.2489  0.3078 -1.1110
 4199SOL    HW224060   3.683   1.105   3.337  0.5314 -0.5861 -1.1504
 4200SOL     OW24061   1.958   4.005   8.067  0.0567  0.2245 -0.0683
 4200SOL    HW124062   1.946   3.968   7.980  0.0792 -0.4422  0.2054
 4200SOL    HW224063   1.978   3.926   8.118 -0.0887  0.3840  0.2349
 4201SOL     OW24064   2.921   0.905   0.880 -0.0635 -0.2746  0.0254
 4201SOL    HW124065   2.962   0.984   0.845 -1.3542  0.3387 -0.1149
 4201SOL    HW224066   2.999   0.880   0.930 -1.0083 -0.9620  1.1665
 4202SOL     OW24067   4.273   1.950   8.768  0.7191 -0.1396  0.1061
 4202SOL    HW124068   4.336   1.879   8.757  0.6394 -0.2455  0.3378
 4202SOL    HW224069   4.240   1.963   8.679  0.4147 -1.4158  0.0394
 4203SOL     OW24070   2.226   0.079  14.716  0.0905  0.3454 -0.8047
 4203SOL    HW124071   2.270   0.152  14.672  0.6690  0.0988 -0.6373
 4203SOL    HW224072   2.273   0.073  14.800  0.0011  0.9238 -0.7184
 4204SOL     OW24073   4.442   1.599   3.073  0.5548 -0.2634 -0.3422
 4204SOL    HW124074   4.519   1.615   3.127  0.1761  1.0824 -0.1946
 4204SOL    HW224075   4.474   1.527   3.019 -1.9110 -0.1255 -1.9949
 4205SOL     OW24076   1.274   2.975  10.601 -0.4722 -0.0753 -0.0340
 4205SOL    HW124077   1.186   3.002  10.624 -0.4614 -1.7638  1.9696
 4205SOL    HW224078   1.282   2.968  10.505 -2.1489 -0.7744 -0.1282
 4206SOL     OW24079   0.788   4.165   3.049  0.3010 -0.0875 -0.0724
 4206SOL    HW124080   0.783   4.100   2.979 -1.1755  1.3344 -1.2907
 4206SOL    HW224081   0.716   4.135   3.104  0.0677 -2.7006 -1.8182
 4207SOL     OW24082   4.349   3.161   3.839  0.2284  0.2366  0.2462
 4207SOL    HW124083   4.359   3.129   3.928 -0.5368 -0.5109  0.0718
 4207SOL    HW224084   4.296   3.090   3.801 -1.5270  0.7094  1.8262
 4208SOL     OW24085   2.667   1.758   4.962 -0.3778 -0.7880 -0.1287
 4208SOL    HW124086   2.762   1.758   4.977 -0.4802 -0.0023  0.5258
 4208SOL    HW224087   2.665   1.830   4.899  0.3672 -0.3815  0.3029
 4209SOL     OW24088   2.305   2.332   0.877 -0.2613  0.2227 -0.2831
 4209SOL    HW124089   2.396   2.354   0.858 -0.7126  1.1538 -1.3503
 4209SOL    HW224090   2.318   2.269   0.948 -0.1931 -1.2832 -1.6554
 4210SOL     OW24091   1.689   2.518  11.335 -0.0916 -0.1061  0.2449
 4210SOL    HW124092   1.638   2.532  11.255 -0.2161 -0.3324  0.2848
 4210SOL    HW224093   1.627   2.545  11.403  1.9078  1.6300  1.3804
 4211SOL     OW24094   0.512   0.345   9.308 -0.2735  0.6943 -0.4509
 4211SOL    HW124095   0.421   0.375   9.315 -0.6324 -0.7761  1.2919
 4211SOL    HW224096   0.507   0.296   9.226 -2.7743 -1.5408  1.0243
 4212SOL     OW24097   0.864   1.484  16.000  0.0806 -0.4970 -0.0190
 4212SOL    HW124098   0.845   1.522  16.086  2.9244  0.6591  0.1195
 4212SOL    HW224099   0.803   1.411  16.004 -1.5069  0.8585  0.6897
 4213SOL     OW24100   0.944   2.183  16.344  0.5283 -0.4937  0.0459
 4213SOL    HW124101   0.908   2.165  16.431  1.7665 -0.2865  0.5957
 4213SOL    HW224102   1.037   2.163  16.351  0.1316 -1.9448  1.2185
 4214SOL     OW24103   3.307   2.542  11.605 -0.2712 -0.3344 -0.5215
 4214SOL    HW124104   3.340   2.626  11.574  0.1563  0.0626  1.0088
 4214SOL    HW224105   3.382   2.486  11.587 -2.5292 -3.4348 -0.2629
 4215SOL     OW24106   2.002   0.441   6.769 -0.3097 -0.3696 -0.1919
 4215SOL    HW124107   2.079   0.484   6.807 -0.3684 -0.6522  0.2386
 4215SOL    HW224108   1.941   0.515   6.777  0.0610 -0.2390  1.3985
 4216SOL     OW24109   0.958   3.499   8.755 -0.3596 -0.0059 -0.0816
 4216SOL    HW124110   0.901   3.467   8.825 -0.3707 -0.2852 -0.2193
 4216SOL    HW224111   0.898   3.561   8.714 -1.5137 -1.3532 -0.4173
 4217SOL     OW24112   2.745   2.958   8.441  0.5374 -0.2814  0.1398
 4217SOL    HW124113   2.758   2.975   8.534  0.0023  1.3497 -0.0855
 4217SOL    HW224114   2.730   2.864   8.441  1.0353 -0.3653  2.2849
 4218SOL     OW24115   4.556   3.713   7.789 -0.4732  0.6135 -0.3022
 4218SOL    HW124116   4.519   3.632   7.824 -0.1833  0.2371 -0.8614
 4218SOL    HW224117   4.644   3.683   7.766  0.2920  0.9038  2.2006
 4219SOL     OW24118   1.538   1.160   3.991  0.4106 -0.3635  0.6462
 4219SOL    HW124119   1.589   1.188   3.915 -1.3849  1.2161  0.0129
 4219SOL    HW224120   1.479   1.091   3.960 -1.8286  1.6759  0.3338
 4220SOL     OW24121   4.643   2.909   5.874 -0.1356 -0.5118  0.2293
 4220SOL    HW124122   4.589   2.966   5.820  0.4480  2.3219  2.6605
 4220SOL    HW224123   4.584   2.849   5.920 -1.2529  0.6178  0.2406
 4221SOL     OW24124   2.463   2.282   2.207 -0.0310  0.7288  0.3700
 4221SOL    HW124125   2.424   2.318   2.287 -1.1471  1.3472 -0.4614
 4221SOL    HW224126   2.556   2.272   2.226  0.2918  0.4024 -1.4162
 4222SOL     OW24127   3.007   2.721  15.676 -0.0216 -0.0953 -0.4541
 4222SOL    HW124128   2.986   2.642  15.726 -2.2900 -0.2799 -1.7154
 4222SOL    HW224129   3.102   2.717  15.692 -0.0824 -1.1363 -0.3168
 4223SOL     OW24130   1.465   0.230   5.893  0.3184  0.7451  0.3177
 4223SOL    HW124131   1.409   0.259   5.965 -0.3438  0.1123  0.0535
 4223SOL    HW224132   1.485   0.305   5.837 -0.4557 -1.3758 -2.8118
 4224SOL     OW24133   1.776   0.722   7.439  0.3268 -0.7343  0.1370
 4224SOL    HW124134   1.718   0.664   7.488  1.1636 -0.3573  1.5673
 4224SOL    HW224135   1.858   0.681   7.467  1.0582  2.4103  2.6517
 4225SOL     OW24136   3.808   2.942  17.563  0.1247 -0.0180 -0.2259
 4225SOL    HW124137   3.904   2.951  17.565  0.2523 -1.5647  0.4931
 4225SOL    HW224138   3.788   2.901  17.479 -0.0181 -0.7674  0.1767
 4226SOL     OW24139   4.191   0.796   7.299  0.0223 -0.0937 -0.2640
 4226SOL    HW124140   4.117   0.857   7.294  0.0319 -0.1853 -1.5374
 4226SOL    HW224141   4.154   0.710   7.279  1.3917 -0.7755  0.1754
 4227SOL     OW24142   3.870   1.223   6.887 -0.1132 -0.0856  0.2132
 4227SOL    HW124143   3.953   1.191   6.852  0.9488  0.1515  2.4993
 4227SOL    HW224144   3.898   1.268   6.967 -1.1523  0.1331  0.4561
 4228SOL     OW24145   3.456   1.115   5.569 -0.2437 -0.0419 -0.4594
 4228SOL    HW124146   3.375   1.098   5.618 -0.2742  2.7556  0.4335
 4228SOL    HW224147   3.420   1.100   5.481  1.7977 -1.4109 -1.0626
 4229SOL     OW24148   0.809   2.221   1.157  0.1738  0.7985 -0.9473
 4229SOL    HW124149   0.858   2.167   1.095  0.2986  0.9387 -0.9712
 4229SOL    HW224150   0.724   2.209   1.114  0.3224 -0.3956 -0.9212
 4230SOL     OW24151   3.455   3.082   3.104 -0.0573  0.5072  0.4193
 4230SOL    HW124152   3.419   2.996   3.128  0.1110  0.3352  0.0604
 4230SOL    HW224153   3.381   3.134   3.134  0.7100  2.5999 -1.3563
 4231SOL     OW24154   3.877   1.618   7.314  0.0888 -0.1306 -0.1742
 4231SOL    HW124155   3.942   1.673   7.357  1.1373 -1.5610  0.0743
 4231SOL    HW224156   3.809   1.617   7.382  1.2673  0.5406  1.0087
 4232SOL     OW24157   4.357   1.647   4.026 -0.4849 -0.4321 -0.1636
 4232SOL    HW124158   4.352   1.587   4.100  0.4057  0.0414  0.2831
 4232SOL    HW224159   4.320   1.603   3.949  1.4003 -1.3017 -0.5723
 4233SOL     OW24160   1.370   3.018   3.077 -0.3912  0.2819  0.0164
 4233SOL    HW124161   1.374   2.949   3.143  0.3503 -0.0238 -0.3501
 4233SOL    HW224162   1.358   2.971   2.995 -1.5546 -0.5378  0.6559
 4234SOL     OW24163   3.152   1.198   6.803 -0.2359  0.8843 -0.3428
 4234SOL    HW124164   3.125   1.161   6.887 -0.6253  1.6191 -0.1512
 4234SOL    HW224165   3.242   1.200   6.836 -0.7857 -0.3507  1.2449
 4235SOL     OW24166   0.203   0.218  11.996  0.2817  0.1693  0.0459
 4235SOL    HW124167   0.184   0.134  12.037 -1.8878  0.1123 -1.0431
 4235SOL    HW224168   0.125   0.221  11.940  0.5015 -0.8229 -0.3034
 4236SOL     OW24169   3.846   4.539   2.180  0.2369 -0.2380 -0.4530
 4236SOL    HW124170   3.824   4.447   2.166  1.6329 -1.0625  2.8263
 4236SOL    HW224171   3.758   4.572   2.200  0.7220  1.1146 -0.5536
 4237SOL     OW24172   1.944   3.238   1.147 -0.3383 -0.4854 -0.0003
 4237SOL    HW124173   1.986   3.305   1.092  1.5610 -0.2522  1.7073
 4237SOL    HW224174   1.875   3.287   1.192 -1.0359  0.5939 -2.2155
 4238SOL     OW24175   3.060   2.933  10.965 -0.2962  0.2250  0.3352
 4238SOL    HW124176   3.108   2.954  11.046 -2.2317  0.8159  1.3318
 4238SOL    HW224177   2.983   2.989  10.969 -0.1538  0.4180  0.3737
 4239SOL     OW24178   1.339   0.899   0.194 -0.0596 -0.2009 -0.2636
 4239SOL    HW124179   1.260   0.846   0.195 -0.1772 -0.0064  0.4749
 4239SOL    HW224180   1.331   0.921   0.101  0.2054 -0.5024 -0.3603
 4240SOL     OW24181   0.585   0.721   2.319 -0.1887 -0.3516  0.0182
 4240SOL    HW124182   0.597   0.814   2.301  0.2765 -0.3838  0.1680
 4240SOL    HW224183   0.635   0.673   2.253  0.1044 -0.7025  0.4991
 4241SOL     OW24184   3.458   0.816   7.387 -0.0998 -0.1486  0.1311
 4241SOL    HW124185   3.491   0.903   7.409 -0.1997 -0.3378  0.9939
 4241SOL    HW224186   3.427   0.833   7.298  2.3216 -1.5801 -0.9955
 4242SOL     OW24187   4.696   4.651   4.397  0.0275  0.3570  0.3179
 4242SOL    HW124188   4.606   4.620   4.396  0.2725 -0.3934  1.6532
 4242SOL    HW224189   4.684   0.015   4.427 -0.5946 -0.5725  2.8642
 4243SOL     OW24190   1.107   3.337  15.743 -0.0154  0.0551 -0.0619
 4243SOL    HW124191   1.020   3.333  15.704  0.1291  2.7354 -0.6860
 4243SOL    HW224192   1.131   3.245  15.732  0.9740  0.3083 -0.0703
 4244SOL     OW24193   2.590   2.567  15.197  0.1400  0.7787  0.3614
 4244SOL    HW124194   2.547   2.645  15.161 -0.3872  0.9255  1.3080
 4244SOL    HW224195   2.574   2.498  15.133 -0.4709  0.8950  0.3854
 4245SOL     OW24196   2.340   1.656   9.516  0.0459 -0.2343  0.0279
 4245SOL    HW124197   2.389   1.605   9.580 -0.8836 -0.4798  0.5383
 4245SOL    HW224198   2.317   1.737   9.562  2.2966  0.2826  0.2589
 4246SOL     OW24199   3.692   0.767  15.638 -0.7207  0.5501 -0.0476
 4246SOL    HW124200   3.776   0.759  15.594  0.5211  1.5702  2.1473
 4246SOL    HW224201   3.665   0.675  15.637 -1.2380  0.6736  1.7004
 4247SOL     OW24202   0.417   3.135  10.505  0.9585 -0.3606 -0.5639
 4247SOL    HW124203   0.338   3.082  10.510  1.7263 -1.5958 -1.3379
 4247SOL    HW224204   0.445   3.133  10.413  0.5484 -0.8230 -0.6791
 4248SOL     OW24205   3.955   2.292  16.454  0.5064  0.6084  0.6551
 4248SOL    HW124206   3.901   2.217  16.476  2.2878 -1.5524 -2.3091
 4248SOL    HW224207   4.041   2.252  16.465  1.0107  1.5156  0.0437
 4249SOL     OW24208   4.179   3.219  14.357  0.8855  0.9655  0.4649
 4249SOL    HW124209   4.106   3.160  14.339  1.8258 -0.5261  1.5076
 4249SOL    HW224210   4.238   3.187  14.288 -2.7503 -2.0985 -1.2021
 4250SOL     OW24211   4.075   1.737   5.996 -0.2685  0.4678 -0.5819
 4250SOL    HW124212   4.025   1.813   5.963 -0.1411  0.9075  0.2408
 4250SOL    HW224213   4.079   1.759   6.089  0.3653  1.6859 -0.8945
 4251SOL     OW24214   3.817   3.412   0.603 -0.3684  0.0574  0.4037
 4251SOL    HW124215   3.779   3.385   0.687  0.5668  2.1686  1.4932
 4251SOL    HW224216   3.811   3.328   0.557 -0.4101  0.9840 -1.2758
 4252SOL     OW24217   4.719   1.832   4.158 -0.1501  0.0030 -0.5103
 4252SOL    HW124218   4.630   1.853   4.129 -0.2442  0.5456  0.1690
 4252SOL    HW224219   0.041   1.915   4.161  1.3262 -0.8936  0.6213
 4253SOL     OW24220   3.561   4.634   4.924  0.0532 -0.7478 -0.6406
 4253SOL    HW124221   3.523   4.678   4.848  0.3934  0.9927  0.1832
 4253SOL    HW224222   3.629   4.577   4.889  0.0467 -1.4633  0.5065
 4254SOL     OW24223   3.086   2.841   8.626 -0.0263 -0.4908  0.4011
 4254SOL    HW124224   3.131   2.844   8.711 -0.5676 -0.0531  0.6679
 4254SOL    HW224225   3.063   2.748   8.623  2.4853 -1.1374  0.3629
 4255SOL     OW24226   3.080   1.605   7.050  0.0979  0.1040  0.1042
 4255SOL    HW124227   3.172   1.583   7.034  0.1135  2.5489 -3.1844
 4255SOL    HW224228   3.045   1.612   6.962 -0.4762  0.8213  0.3921
 4256SOL     OW24229   2.266   2.697   4.145  0.4199  0.6693  0.3545
 4256SOL    HW124230   2.326   2.623   4.155 -2.0947 -1.4165 -0.2108
 4256SOL    HW224231   2.312   2.769   4.187 -1.0313  1.0906  1.2046
 4257SOL     OW24232   1.860   3.641   7.490  0.5236 -0.3416  0.4581
 4257SOL    HW124233   1.951   3.658   7.514  0.5846  0.1707 -0.1240
 4257SOL    HW224234   1.874   3.609   7.401 -0.5083  0.5738 -0.0329
 4258SOL     OW24235   2.795   1.658   7.630  0.2278 -0.0200  0.2963
 4258SOL    HW124236   2.732   1.596   7.592  1.2327 -1.5903  1.1872
 4258SOL    HW224237   2.794   1.721   7.558  0.8303 -2.0189 -1.4526
 4259SOL     OW24238   3.645   0.872  12.697  0.2618 -0.0622  0.6592
 4259SOL    HW124239   3.631   0.907  12.609  0.3863 -2.3785 -0.2856
 4259SOL    HW224240   3.599   0.788  12.692  0.1448  0.1746 -2.1205
 4260SOL     OW24241   4.305   3.833   1.388  0.2921 -0.2474  0.1822
 4260SOL    HW124242   4.344   3.785   1.461 -1.3006 -0.9335  0.5754
 4260SOL    HW224243   4.215   3.848   1.418 -0.6969  0.8647 -3.3505
 4261SOL     OW24244   0.370   3.701   6.449  0.5326 -0.5206  0.3775
 4261SOL    HW124245   0.305   3.689   6.519  0.5646  1.3398  0.7192
 4261SOL    HW224246   0.315   3.764   6.402  1.1872 -0.8741 -0.8493
 4262SOL     OW24247   4.709   0.985   5.347  0.3757  0.3272 -0.3180
 4262SOL    HW124248   4.702   1.080   5.354  1.7394  0.4061 -0.1112
 4262SOL    HW224249   0.028   0.975   5.264  0.1020 -0.4428 -0.3843
 4263SOL     OW24250   3.477   1.209   4.572 -0.0741  0.2380 -0.7429
 4263SOL    HW124251   3.407   1.148   4.550  0.2670 -0.8939  1.3341
 4263SOL    HW224252   3.534   1.193   4.497 -1.7224  1.1399 -2.1747
 4264SOL     OW24253   0.343   3.780  16.194  0.0537  0.1216 -0.2014
 4264SOL    HW124254   0.257   3.808  16.225 -0.0568  0.5525 -0.9005
 4264SOL    HW224255   0.387   3.865  16.200  1.1427 -0.3317 -1.6918
 4265SOL     OW24256   1.264   2.915   0.409 -0.0463  0.9133  0.4064
 4265SOL    HW124257   1.308   2.997   0.432 -0.6825  1.3454  0.0983
 4265SOL    HW224258   1.179   2.945   0.440  0.9580  1.5024  2.6543
 4266SOL     OW24259   0.630   2.953  12.551 -0.4135  0.5147  0.3461
 4266SOL    HW124260   0.548   2.998  12.530  0.9396  2.8167  0.0079
 4266SOL    HW224261   0.609   2.930  12.641  0.4159  2.7068  1.1077
 4267SOL     OW24262   2.652   4.098   2.474 -0.0704 -0.2976 -0.2583
 4267SOL    HW124263   2.745   4.115   2.489  0.4146 -1.2506 -2.2096
 4267SOL    HW224264   2.610   4.115   2.558  1.0131 -0.7320  0.3842
 4268SOL     OW24265   0.394   2.294  16.586  0.3703 -0.1518 -0.3458
 4268SOL    HW124266   0.356   2.359  16.528 -0.5253 -3.1219 -3.0679
 4268SOL    HW224267   0.483   2.301  16.550  0.8915  0.3729  1.0368
 4269SOL     OW24268   3.112   1.059  17.440 -0.6264 -0.7391  0.5039
 4269SOL    HW124269   3.069   1.086  17.521 -3.0337 -0.7813 -0.7657
 4269SOL    HW224270   3.191   1.024  17.482  0.2511 -0.5901 -1.0112
 4270SOL     OW24271   3.952   0.874  17.506  0.3506 -0.9080  0.3810
 4270SOL    HW124272   3.866   0.841  17.534 -1.0190  0.9518 -1.6605
 4270SOL    HW224273   3.923   0.943  17.446  0.8126 -1.1767 -0.1495
 4271SOL     OW24274   2.311   2.826   8.703  0.3978 -0.5449  0.3913
 4271SOL    HW124275   2.384   2.889   8.706  0.5706 -0.7445  0.3828
 4271SOL    HW224276   2.318   2.786   8.790 -0.9236  1.6952  1.5588
 4272SOL     OW24277   0.490   1.771   3.017 -0.2384 -0.0461 -0.0353
 4272SOL    HW124278   0.397   1.795   3.014 -1.0452 -3.2450 -0.9166
 4272SOL    HW224279   0.505   1.742   2.927 -0.6973  0.2090 -0.1944
 4273SOL     OW24280   1.203   2.423   5.423 -0.4330  0.2795  0.0767
 4273SOL    HW124281   1.292   2.388   5.428 -0.3598  0.5160  0.4744
 4273SOL    HW224282   1.182   2.417   5.517  0.9503 -0.5642  0.3254
 4274SOL     OW24283   2.391   0.652   1.152 -0.3713 -0.0294 -0.2266
 4274SOL    HW124284   2.387   0.558   1.164  0.8417 -0.3500 -2.2482
 4274SOL    HW224285   2.362   0.657   1.060  0.2003  1.0681 -0.3490
 4275SOL     OW24286   2.340   1.210   4.851  0.0148  0.1055 -0.4467
 4275SOL    HW124287   2.345   1.124   4.810  0.6150 -0.3565  0.5852
 4275SOL    HW224288   2.301   1.263   4.782 -0.4092  1.7576  1.0735
 4276SOL     OW24289   0.454   1.601   1.946  0.0513 -0.2950  0.4360
 4276SOL    HW124290   0.360   1.597   1.964 -0.1333  1.8914  0.0443
 4276SOL    HW224291   0.489   1.577   2.031  1.5341  0.1607 -0.0447
 4277SOL     OW24292   2.207   4.295   0.801  0.4085  0.1869  0.3908
 4277SOL    HW124293   2.130   4.250   0.836 -0.6021  1.3623 -0.2874
 4277SOL    HW224294   2.262   4.218   0.789  0.2200  0.2372 -0.8572
 4278SOL     OW24295   0.103   3.095   6.938 -0.0164  0.1872 -0.3497
 4278SOL    HW124296   0.040   3.042   6.889 -0.4936 -1.1562  1.7367
 4278SOL    HW224297   0.105   3.175   6.885 -0.1880  1.4294  1.5239
 4279SOL     OW24298   0.568   2.678  11.479 -0.2433  0.3822 -0.3848
 4279SOL    HW124299   0.624   2.627  11.422 -0.1215 -1.3095  1.2368
 4279SOL    HW224300   0.487   2.660  11.432  1.1388 -1.5848 -1.9950
 4280SOL     OW24301   4.045   3.586   8.746  0.9584  0.3433 -0.4188
 4280SOL    HW124302   3.987   3.656   8.775  1.0329  0.7527 -1.2599
 4280SOL    HW224303   4.106   3.583   8.819  3.3307  2.2818 -2.3180
 4281SOL     OW24304   0.384   0.122  13.328  0.8142 -0.1214  0.6664
 4281SOL    HW124305   0.344   0.062  13.391 -2.5837  0.8605 -0.5388
 4281SOL    HW224306   0.440   0.071  13.269  1.3403  0.6071  0.5397
 4282SOL     OW24307   4.672   3.552   5.097 -0.2406 -0.1813 -0.0831
 4282SOL    HW124308   4.609   3.491   5.058  0.6497 -0.7145 -0.7139
 4282SOL    HW224309   4.672   3.622   5.032  1.7032 -0.0881 -0.0021
 4283SOL     OW24310   1.471   2.467   0.449  0.2466  0.3665 -0.1850
 4283SOL    HW124311   1.468   2.505   0.361 -1.3578  1.2043  0.2389
 4283SOL    HW224312   1.469   2.374   0.427 -0.0550  0.2565  0.3079
 4284SOL     OW24313   0.486   4.268   8.267  0.1175  0.1565  0.1447
 4284SOL    HW124314   0.539   4.308   8.197 -1.0810  1.0175 -0.2650
 4284SOL    HW224315   0.513   4.178   8.251 -2.6297 -0.8233  1.0846
 4285SOL     OW24316   2.466   0.064  16.649  0.2966  0.3704 -1.0127
 4285SOL    HW124317   2.556   0.030  16.645  0.5918  1.1212 -0.8066
 4285SOL    HW224318   2.415   4.715  16.678  1.1676  0.9077  1.9401
 4286SOL     OW24319   3.901   0.193   4.384 -0.1328 -0.4042  0.2430
 4286SOL    HW124320   3.841   0.183   4.309  0.0023  0.9218 -0.0321
 4286SOL    HW224321   3.938   0.105   4.375  0.2670 -0.3357  1.2405
 4287SOL     OW24322   2.413   0.492  12.885  0.7199 -0.8933  0.1536
 4287SOL    HW124323   2.348   0.504  12.817  0.1356  3.2901  1.4569
 4287SOL    HW224324   2.357   0.437  12.940 -0.5343 -0.4962 -0.7337
 4288SOL     OW24325   1.748   1.817   8.206  0.8070  0.7011  0.7595
 4288SOL    HW124326   1.709   1.746   8.256  3.4735 -0.6357  0.9495
 4288SOL    HW224327   1.687   1.835   8.134  0.4658  1.8310  1.3250
 4289SOL     OW24328   1.026   1.667   4.706 -0.5391  0.4034 -0.0386
 4289SOL    HW124329   0.970   1.695   4.634  0.3821 -0.1881 -0.9696
 4289SOL    HW224330   0.975   1.688   4.785 -0.2598 -0.2109  0.3039
 4290SOL     OW24331   2.301   4.524  17.389  0.2414  0.2354  0.2702
 4290SOL    HW124332   2.352   4.466  17.446 -0.1805 -2.2949 -1.9784
 4290SOL    HW224333   2.286   4.603  17.441  1.8400 -0.0112  1.1111
 4291SOL     OW24334   1.988   3.638   1.792  0.2656  0.0420  0.0113
 4291SOL    HW124335   1.919   3.704   1.791 -0.5155 -0.7294  2.4080
 4291SOL    HW224336   2.066   3.693   1.803 -0.3478  1.0289 -0.5659
 4292SOL     OW24337   0.810   1.617   4.945  0.1169  0.3365 -0.1662
 4292SOL    HW124338   0.725   1.572   4.936  1.2528 -1.9711  0.6846
 4292SOL    HW224339   0.771   1.701   4.918  2.4539  1.6161  0.5042
 4293SOL     OW24340   2.780   4.122   1.835  0.1777 -0.3640 -0.5258
 4293SOL    HW124341   2.696   4.078   1.840  0.7427 -1.3850 -0.0617
 4293SOL    HW224342   2.755   4.212   1.855  0.5069 -0.5322  0.6404
 4294SOL     OW24343   0.477   4.590   0.083 -0.0690  0.4350 -0.3019
 4294SOL    HW124344   0.424   4.667   0.066 -0.5121  1.0757  3.8316
 4294SOL    HW224345   0.562   4.629   0.107  1.3326 -2.5172 -0.4550
 4295SOL     OW24346   0.911   2.704   5.307  0.3827 -0.3365 -0.1512
 4295SOL    HW124347   0.934   2.736   5.394  1.0783 -1.8142  0.2053
 4295SOL    HW224348   0.994   2.665   5.278 -0.8446 -2.6003 -0.6043
 4296SOL     OW24349   2.191   1.112   7.368  0.3463  0.1718 -0.0502
 4296SOL    HW124350   2.280   1.092   7.341  0.8758  2.1140  0.2283
 4296SOL    HW224351   2.136   1.064   7.306  0.0903 -0.1895  0.4494
 4297SOL     OW24352   0.475   4.517   8.912 -0.1835 -0.7140 -0.2822
 4297SOL    HW124353   0.510   4.536   8.999  3.3904 -2.1051 -1.4411
 4297SOL    HW224354   0.415   4.592   8.903  0.4276 -0.2933 -0.8204
 4298SOL     OW24355   3.372   4.273   3.800 -0.8715  0.0797  1.2360
 4298SOL    HW124356   3.380   4.366   3.821  2.3948 -0.0824  0.6943
 4298SOL    HW224357   3.278   4.264   3.789 -0.7357 -1.6169  1.5581
 4299SOL     OW24358   3.447   3.272   7.761 -0.4152 -0.0525 -0.1794
 4299SOL    HW124359   3.496   3.255   7.841 -0.0440  1.3055 -0.1106
 4299SOL    HW224360   3.361   3.259   7.801 -0.4817  0.3759 -0.1752
 4300SOL     OW24361   3.370   1.477   8.786 -0.3518 -0.7484  1.1113
 4300SOL    HW124362   3.423   1.397   8.787 -0.1965 -0.6767 -0.3503
 4300SOL    HW224363   3.410   1.519   8.862  1.3231 -1.1625  0.4642
 4301SOL     OW24364   3.270   3.810  10.304  0.2603  0.1870 -0.5196
 4301SOL    HW124365   3.200   3.793  10.241  1.5207 -1.4255 -1.4824
 4301SOL    HW224366   3.331   3.737  10.289 -1.0638 -1.3183  1.3169
 4302SOL     OW24367   2.881   0.595  12.699  0.2826  0.3113 -0.2949
 4302SOL    HW124368   2.954   0.656  12.692 -0.0597  0.8990  1.2596
 4302SOL    HW224369   2.916   0.519  12.652 -2.0957  0.3497 -2.1664
 4303SOL     OW24370   0.768   3.539   2.306 -0.0409  0.6520 -0.1893
 4303SOL    HW124371   0.690   3.484   2.316 -0.4715  0.9722 -1.7082
 4303SOL    HW224372   0.734   3.612   2.255 -2.9346  0.3491  1.2898
 4304SOL     OW24373   3.313   4.509  13.016  0.1878  0.9736  0.8260
 4304SOL    HW124374   3.327   4.422  13.054  0.4686 -0.2364 -2.0168
 4304SOL    HW224375   3.294   4.562  13.093  0.7184  2.6803 -0.2143
 4305SOL     OW24376   0.911   1.359   7.445 -0.0580 -0.3367  0.1979
 4305SOL    HW124377   0.935   1.269   7.426  1.0597  0.4375 -2.1261
 4305SOL    HW224378   0.994   1.396   7.474  0.5927 -1.4976 -0.2303
 4306SOL     OW24379   0.824   3.879   6.081 -0.0806 -0.1717 -0.0453
 4306SOL    HW124380   0.918   3.882   6.064  0.3584  0.7877  2.6247
 4306SOL    HW224381   0.804   3.814   6.014 -1.3303  1.5375 -1.3528
 4307SOL     OW24382   0.217   1.935   7.254  0.1054  0.3284  0.5534
 4307SOL    HW124383   0.121   1.930   7.254  0.1490 -0.4513 -0.8045
 4307SOL    HW224384   0.246   1.884   7.178  1.2997  2.7038 -0.6328
 4308SOL     OW24385   2.785   0.518  10.836 -0.4919  0.2349 -0.1007
 4308SOL    HW124386   2.869   0.487  10.869 -0.0575  1.8208  0.2763
 4308SOL    HW224387   2.813   0.605  10.807 -0.6475 -0.5320 -2.5718
 4309SOL     OW24388   1.918   2.550   7.876 -0.4901  0.1119  0.1837
 4309SOL    HW124389   1.890   2.557   7.785  0.4268 -0.7218 -0.1687
 4309SOL    HW224390   1.873   2.625   7.915 -0.7093  0.9257 -1.6303
 4310SOL     OW24391   0.147   4.058   4.408 -0.0145  0.4428  0.1590
 4310SOL    HW124392   0.142   4.110   4.488  0.9474  1.0790 -0.1897
 4310SOL    HW224393   0.223   4.104   4.372  3.1072 -2.1631  3.4660
 4311SOL     OW24394   0.629   4.469   9.798 -0.2160  0.2509  0.1412
 4311SOL    HW124395   0.678   4.406   9.851 -0.4336  0.5182  0.6702
 4311SOL    HW224396   0.620   4.542   9.860 -1.9712 -0.9018  1.2704
 4312SOL     OW24397   1.568   1.284   0.224 -0.1537  0.5351 -0.1991
 4312SOL    HW124398   1.626   1.344   0.177 -0.0854  1.8776  1.6224
 4312SOL    HW224399   1.563   1.326   0.310  4.1568  0.3782  0.1417
 4313SOL     OW24400   0.926   3.851   1.299 -0.5681  0.7164  0.0822
 4313SOL    HW124401   0.868   3.897   1.359 -0.6257  2.7863 -1.5782
 4313SOL    HW224402   0.866   3.784   1.265  2.2136 -1.6836 -0.1734
 4314SOL     OW24403   0.512   0.415   5.137 -1.1942 -0.2465 -0.1786
 4314SOL    HW124404   0.557   0.483   5.186  1.3254 -2.1962  0.1819
 4314SOL    HW224405   0.548   0.435   5.051 -0.9811 -0.4473 -0.1360
 4315SOL     OW24406   3.290   3.716  14.004  0.0934  0.3005  0.3857
 4315SOL    HW124407   3.304   3.631  13.963  0.6651  1.3918 -1.6936
 4315SOL    HW224408   3.313   3.694  14.094 -1.9935 -0.6338  0.6691
 4316SOL     OW24409   2.015   2.926   8.751 -0.2970  0.4399  0.4678
 4316SOL    HW124410   2.106   2.898   8.746 -0.7650 -0.8702 -0.5416
 4316SOL    HW224411   2.023   2.983   8.828  1.4082  0.0404  0.5734
 4317SOL     OW24412   0.139   2.170  14.176 -0.5687  0.8772 -0.1309
 4317SOL    HW124413   0.061   2.193  14.125  0.3729  1.4164 -1.3308
 4317SOL    HW224414   0.159   2.252  14.221 -0.1840 -0.3119  1.8924
 4318SOL     OW24415   1.128   2.351  11.376  0.4452  0.6474 -0.2092
 4318SOL    HW124416   1.214   2.355  11.335 -1.8131 -1.4520 -5.1114
 4318SOL    HW224417   1.148   2.354  11.470  1.2560  0.5431 -0.3844
 4319SOL     OW24418   4.653   3.745  12.435  0.4236 -0.5265 -0.1961
 4319SOL    HW124419   4.583   3.810  12.427 -0.4315 -1.3950  0.1734
 4319SOL    HW224420   4.715   3.802  12.480 -1.7941  1.0916  0.8184
 4320SOL     OW24421   2.512   2.470   2.876 -0.1417 -0.4205  0.4999
 4320SOL    HW124422   2.589   2.446   2.824 -0.4110 -0.7498  0.2535
 4320SOL    HW224423   2.548   2.534   2.937  0.4184 -3.9277  3.8745
 4321SOL     OW24424   4.674   0.902  12.066 -0.2727  0.1173  0.6600
 4321SOL    HW124425   4.680   0.902  11.970 -0.7752 -1.0522  0.6261
 4321SOL    HW224426   4.627   0.984  12.084 -1.3568 -0.3320 -0.1012
 4322SOL     OW24427   4.711   1.056   7.242 -0.2276 -0.0709 -0.1527
 4322SOL    HW124428   0.062   1.110   7.220 -1.1135  0.6145 -1.5820
 4322SOL    HW224429   4.652   1.092   7.175  0.1573  0.4824 -0.2024
 4323SOL     OW24430   3.240   4.099   3.051  0.2770  0.2326 -0.1450
 4323SOL    HW124431   3.177   4.127   3.117  0.9602  0.5366  0.3691
 4323SOL    HW224432   3.325   4.081   3.092  0.5100 -0.7899 -1.0630
 4324SOL     OW24433   0.547   3.513   6.310  0.1258 -0.6262 -0.4745
 4324SOL    HW124434   0.638   3.543   6.306 -0.2664  0.5135 -0.7322
 4324SOL    HW224435   0.509   3.586   6.356 -2.3606 -1.9520 -0.4398
 4325SOL     OW24436   2.024   0.489  13.476  0.2271  0.2451  0.1327
 4325SOL    HW124437   2.010   0.429  13.550 -1.9046  1.5258  0.7749
 4325SOL    HW224438   2.058   0.559  13.532  1.3441 -0.5382  0.4154
 4326SOL     OW24439   1.797   1.166   2.353  0.5990 -0.7087  0.4629
 4326SOL    HW124440   1.707   1.143   2.376 -0.8664  2.6403 -2.0448
 4326SOL    HW224441   1.822   1.133   2.267  0.5421 -2.9996  1.3303
 4327SOL     OW24442   1.267   1.198   2.686 -0.1370  0.0756  0.4282
 4327SOL    HW124443   1.343   1.190   2.743  1.4658  1.2169 -1.5424
 4327SOL    HW224444   1.203   1.155   2.743 -0.6944  0.4938  0.1106
 4328SOL     OW24445   1.455   3.633   3.201 -0.6331  0.0119  0.5804
 4328SOL    HW124446   1.379   3.634   3.144 -0.4105  0.9366  0.2995
 4328SOL    HW224447   1.496   3.714   3.169  2.9573 -2.3718 -0.8403
 4329SOL     OW24448   1.193   3.454   5.537  0.2049 -0.3289 -0.1520
 4329SOL    HW124449   1.209   3.447   5.443  0.0020  3.7311 -0.4978
 4329SOL    HW224450   1.100   3.477   5.540  0.4548  0.5666  1.0587
 4330SOL     OW24451   3.247   4.301   1.121  0.0441 -0.0737  0.3047
 4330SOL    HW124452   3.208   4.359   1.187  2.4638  2.6217 -0.6002
 4330SOL    HW224453   3.282   4.368   1.062 -1.3240  1.2316  0.9515
 4331SOL     OW24454   2.198   0.344  11.549 -0.2463 -0.2637  0.6120
 4331SOL    HW124455   2.191   0.304  11.462 -2.3532  0.0993  0.6189
 4331SOL    HW224456   2.154   0.279  11.603 -0.3386  0.1768  1.0642
 4332SOL     OW24457   1.994   1.937   8.257 -0.2944 -0.0426 -0.1538
 4332SOL    HW124458   2.017   1.859   8.307  0.2169  0.8772  1.0590
 4332SOL    HW224459   1.913   1.910   8.213 -0.9327  2.8896 -0.7796
 4333SOL     OW24460   0.719   0.923   8.484  0.5876  0.2761 -0.0394
 4333SOL    HW124461   0.789   0.858   8.489  0.4398  0.0800 -0.4857
 4333SOL    HW224462   0.684   0.904   8.571  0.2549  1.0369 -0.0075
 4334SOL     OW24463   3.838   1.509   8.403 -0.4945 -0.3506  0.4134
 4334SOL    HW124464   3.901   1.561   8.453  0.9471  0.1643 -1.9356
 4334SOL    HW224465   3.898   1.497   8.329 -0.2176  1.4603  0.3431
 4335SOL     OW24466   1.205   1.557   6.049  0.5122  0.2807 -0.0208
 4335SOL    HW124467   1.164   1.524   6.128  1.3435  3.0876  1.5722
 4335SOL    HW224468   1.273   1.492   6.029 -0.7608 -0.9918 -0.1744
 4336SOL     OW24469   0.330   2.757   4.403  0.1631 -0.4747  0.8478
 4336SOL    HW124470   0.285   2.815   4.341 -0.2367 -2.3518 -0.5952
 4336SOL    HW224471   0.421   2.770   4.377 -0.6822 -2.8896 -3.2013
 4337SOL     OW24472   0.748   3.882   4.772 -0.0740  0.0097 -0.0409
 4337SOL    HW124473   0.721   3.810   4.715  0.0469 -0.9308  1.1064
 4337SOL    HW224474   0.823   3.842   4.815 -2.3018 -2.3268  1.6631
 4338SOL     OW24475   1.816   1.659   0.274  0.0766 -0.1388  0.0928
 4338SOL    HW124476   1.895   1.692   0.316 -0.6962  1.8026 -0.0035
 4338SOL    HW224477   1.746   1.710   0.314 -0.1131 -0.4701  0.1842
 4339SOL     OW24478   4.556   1.907   8.501 -0.0916  0.2122  0.1353
 4339SOL    HW124479   4.645   1.932   8.477  0.9764 -3.3357  0.4222
 4339SOL    HW224480   4.530   1.901   8.409  1.3654 -3.0414 -0.0516
 4340SOL     OW24481   2.221   1.338  16.168 -0.5278  0.4120  0.7555
 4340SOL    HW124482   2.129   1.347  16.147 -0.1945  0.4415 -0.7064
 4340SOL    HW224483   2.235   1.398  16.242  1.3770  0.5404  0.2977
 4341SOL     OW24484   4.022   2.201   4.061  0.0912 -0.2368 -0.3481
 4341SOL    HW124485   4.058   2.115   4.042  2.6693  0.2552  2.4375
 4341SOL    HW224486   4.053   2.214   4.150 -2.1213  1.2687  0.2122
 4342SOL     OW24487   0.975   1.068  10.637  0.2230  0.4833 -0.1793
 4342SOL    HW124488   1.015   1.107  10.559  0.5974 -0.0019 -0.2284
 4342SOL    HW224489   1.052   1.049  10.690 -0.8457 -1.0496  0.8095
 4343SOL     OW24490   2.262   0.347   0.881  0.3997  0.3772  0.0223
 4343SOL    HW124491   2.343   0.371   0.837  0.2103 -1.1185 -1.1645
 4343SOL    HW224492   2.284   0.260   0.915 -1.9309 -1.0495 -2.1083
 4344SOL     OW24493   4.245   0.645   3.755 -0.1187 -0.0599  0.3100
 4344SOL    HW124494   4.150   0.634   3.754 -0.4625  3.0995 -3.3045
 4344SOL    HW224495   4.264   0.570   3.811 -1.5253 -0.0273  0.8305
 4345SOL     OW24496   0.414   3.203   1.616  0.0592  0.8570 -0.3410
 4345SOL    HW124497   0.336   3.210   1.671 -0.3702  3.4733 -1.2467
 4345SOL    HW224498   0.399   3.286   1.570 -0.0982  1.2291  0.3726
 4346SOL     OW24499   0.829   3.553   7.590  0.3029  0.8107  0.6166
 4346SOL    HW124500   0.843   3.589   7.503 -2.8387  0.1814 -0.1575
 4346SOL    HW224501   0.748   3.596   7.617  0.4170  0.8764  0.8571
 4347SOL     OW24502   3.835   4.294   3.445  0.3490  0.0735  0.6377
 4347SOL    HW124503   3.919   4.319   3.407  0.2287  0.1902  0.4455
 4347SOL    HW224504   3.804   4.380   3.474  2.1614 -0.0393  2.9442
 4348SOL     OW24505   4.043   3.516  11.574 -0.2374 -0.1658  0.3819
 4348SOL    HW124506   4.117   3.571  11.599  0.0204 -0.6614  0.7112
 4348SOL    HW224507   3.971   3.575  11.552  1.3848  1.8653  0.5394
 4349SOL     OW24508   3.474   3.946  12.789  0.2869 -0.3541  0.0117
 4349SOL    HW124509   3.550   3.905  12.831  0.5698  1.1223  0.9471
 4349SOL    HW224510   3.523   4.022  12.756 -0.0027  0.4254  1.3636
 4350SOL     OW24511   1.112   2.053   5.130  0.4211  0.4106  0.1786
 4350SOL    HW124512   1.086   2.025   5.218  0.3319 -0.0165  0.0154
 4350SOL    HW224513   1.206   2.069   5.139  0.7106 -1.3066  0.1346
 4351SOL     OW24514   0.596   0.603  12.125 -0.2442 -0.2281 -0.2508
 4351SOL    HW124515   0.566   0.668  12.187  0.7881 -0.6396  0.6735
 4351SOL    HW224516   0.511   0.565  12.102 -0.3936  1.4859 -2.5142
 4352SOL     OW24517   2.233   3.113   8.098 -0.3254 -0.3702  0.5240
 4352SOL    HW124518   2.231   3.023   8.065  2.8666 -0.3331  0.2498
 4352SOL    HW224519   2.223   3.092   8.191  2.0983 -0.7403  0.6863
 4353SOL     OW24520   0.632   1.124   2.660 -0.1249 -0.1521 -0.1729
 4353SOL    HW124521   0.571   1.059   2.623 -0.1629  0.0877 -0.5415
 4353SOL    HW224522   0.644   1.087   2.747 -0.6399  3.1583  1.3154
 4354SOL     OW24523   4.062   2.193   0.615 -0.0886  0.7426  0.1355
 4354SOL    HW124524   4.126   2.252   0.575  0.8855  0.1345  0.7956
 4354SOL    HW224525   4.089   2.186   0.706 -0.7709 -1.6227  0.1483
 4355SOL     OW24526   4.009   3.735  15.432 -0.0942  0.5185 -0.0327
 4355SOL    HW124527   3.918   3.729  15.462 -0.3541 -0.6090 -1.0435
 4355SOL    HW224528   4.061   3.694  15.501  0.3137  2.6574  0.9059
 4356SOL     OW24529   3.917   2.493   8.268  0.2359  0.4837  0.5210
 4356SOL    HW124530   4.010   2.472   8.274  0.0069 -0.7572 -0.2106
 4356SOL    HW224531   3.917   2.581   8.306  0.5050  1.4136 -1.6298
 4357SOL     OW24532   1.113   0.237   7.972 -0.2168  0.4741  0.2815
 4357SOL    HW124533   1.157   0.307   7.924  0.0109  0.1663  0.0440
 4357SOL    HW224534   1.165   0.162   7.945 -0.9981  0.4596 -1.1807
 4358SOL     OW24535   0.633   0.732   2.778 -0.1480 -0.1448  0.3401
 4358SOL    HW124536   0.688   0.791   2.829  2.3250 -2.0025 -0.1729
 4358SOL    HW224537   0.573   0.802   2.750 -0.7313 -1.4212 -1.6079
 4359SOL     OW24538   0.065   2.589   6.275  0.0851  0.1396  0.3217
 4359SOL    HW124539   0.121   2.528   6.226  0.7555 -0.1299  1.4308
 4359SOL    HW224540   0.128   2.655   6.305 -0.3025 -0.2784  2.0082
 4360SOL     OW24541   0.495   4.211   5.580 -0.0645 -0.9291  0.1341
 4360SOL    HW124542   0.435   4.282   5.603 -0.4669 -1.5504  1.0006
 4360SOL    HW224543   0.506   4.218   5.486 -1.4671 -0.2376  0.0225
 4361SOL     OW24544   1.031   2.321   0.337  0.9132  0.1245  0.1690
 4361SOL    HW124545   1.040   2.341   0.244  0.2273  0.4219  0.1631
 4361SOL    HW224546   0.970   2.248   0.328  1.0708  0.2646 -1.8889
 4362SOL     OW24547   2.977   0.531   3.906 -0.5034  0.3005 -0.4076
 4362SOL    HW124548   2.907   0.513   3.842 -1.5036  1.2464  0.4289
 4362SOL    HW224549   3.054   0.543   3.850 -0.0832 -1.2560 -0.1806
 4363SOL     OW24550   3.182   1.791  17.452  0.1228  0.4885  0.0940
 4363SOL    HW124551   3.121   1.807  17.380 -1.3014 -0.2090  1.1456
 4363SOL    HW224552   3.163   1.872  17.499  1.5376  0.6261  0.4347
 4364SOL     OW24553   3.187   1.389   4.220 -0.7663 -0.0226 -0.4453
 4364SOL    HW124554   3.099   1.408   4.250 -0.5510 -3.4363  2.2884
 4364SOL    HW224555   3.231   1.392   4.305 -0.0383 -1.1469 -0.7756
 4365SOL     OW24556   1.318   3.615  17.593  0.2958  0.1580 -0.0649
 4365SOL    HW124557   1.385   3.684  17.590 -0.9194  1.2962 -1.1355
 4365SOL    HW224558   1.241   3.670  17.608  0.1385 -0.3712  1.0307
 4366SOL     OW24559   1.135   1.220  10.094 -0.5313  0.4359  0.0189
 4366SOL    HW124560   1.124   1.207  10.000 -1.7580 -0.9361  0.3613
 4366SOL    HW224561   1.044   1.196  10.110 -1.4543  3.7513 -0.3229
 4367SOL     OW24562   1.024   1.746   7.776  0.1056 -0.2702  0.2251
 4367SOL    HW124563   0.950   1.806   7.789 -0.1604 -0.5305 -0.0806
 4367SOL    HW224564   0.995   1.713   7.691  0.3746 -1.4466  0.5916
 4368SOL     OW24565   2.111   2.849  16.596  0.6430 -0.0032 -0.4273
 4368SOL    HW124566   2.052   2.774  16.590  1.5987 -1.0178  2.7568
 4368SOL    HW224567   2.094   2.872  16.688 -0.4688  1.7242 -1.0463
 4369SOL     OW24568   4.391   1.599   4.502  0.5419 -0.1533 -0.1981
 4369SOL    HW124569   4.477   1.639   4.510  0.2691 -0.2620  3.1826
 4369SOL    HW224570   4.342   1.680   4.491  0.5598 -0.0521  0.4775
 4370SOL     OW24571   2.174   1.032  10.060 -0.3756  0.2048  0.3355
 4370SOL    HW124572   2.266   1.024  10.085 -0.6949  1.1287  1.8837
 4370SOL    HW224573   2.181   1.099   9.992  0.7078 -0.0647  0.1797
 4371SOL     OW24574   4.405   1.972  15.468 -0.5528  0.4572  0.0397
 4371SOL    HW124575   4.452   1.976  15.384 -0.4913 -1.1036  0.0110
 4371SOL    HW224576   4.340   2.042  15.474  0.5687  1.5350 -0.4181
 4372SOL     OW24577   2.414   2.492   7.176 -0.1203 -0.1002  0.2856
 4372SOL    HW124578   2.339   2.536   7.215 -1.1396  0.7629 -2.6628
 4372SOL    HW224579   2.483   2.497   7.243 -1.1881  0.9535  1.2960
 4373SOL     OW24580   1.736   3.299  12.188  0.7416 -0.7271  0.1138
 4373SOL    HW124581   1.739   3.389  12.218  2.5924 -1.1843  1.3252
 4373SOL    HW224582   1.774   3.319  12.102 -2.6114  2.9644 -0.4845
 4374SOL     OW24583   0.024   1.667   4.895 -0.2388 -0.0151 -0.3635
 4374SOL    HW124584   4.675   1.626   4.936 -0.0948  1.0703  0.9798
 4374SOL    HW224585   4.718   1.757   4.891  0.2484  0.1815  0.0952
 4375SOL     OW24586   2.322   2.381   6.951  0.9912 -0.5908  0.5101
 4375SOL    HW124587   2.358   2.419   7.031 -0.4276 -1.1254  1.3966
 4375SOL    HW224588   2.346   2.293   6.978 -2.0220 -1.2760  0.8864
 4376SOL     OW24589   1.113   1.801   6.186 -0.4733 -0.7247  0.2281
 4376SOL    HW124590   1.026   1.773   6.213  0.0583  0.1044  2.7541
 4376SOL    HW224591   1.160   1.719   6.177  1.1364  0.2322 -0.1514
 4377SOL     OW24592   0.223   4.081   8.333  0.1563 -0.0570 -0.4025
 4377SOL    HW124593   0.161   4.149   8.359 -0.0575  0.3768 -2.0320
 4377SOL    HW224594   0.229   4.102   8.240  2.6605 -2.0347 -0.6711
 4378SOL     OW24595   2.163   3.294   8.726 -0.2874  0.4710 -0.4017
 4378SOL    HW124596   2.073   3.260   8.733 -0.1375  0.6062  2.1943
 4378SOL    HW224597   2.187   3.296   8.819  0.5450  0.8414 -0.6285
 4379SOL     OW24598   1.727   2.778  13.837 -0.0696  0.0530  0.6686
 4379SOL    HW124599   1.638   2.757  13.808  0.3209 -2.3260  1.2118
 4379SOL    HW224600   1.782   2.742  13.769 -1.0605 -0.8523  0.3474
 4380SOL     OW24601   1.872   3.567  14.024  0.3782 -0.2958 -0.0532
 4380SOL    HW124602   1.932   3.602  13.959  1.2301 -2.2853 -0.3435
 4380SOL    HW224603   1.875   3.474  14.001  2.2835 -0.1876 -0.2498
 4381SOL     OW24604   3.376   4.528   1.014  0.4832 -0.1908 -0.3381
 4381SOL    HW124605   3.398   4.495   0.927  1.8258  0.3244 -0.1933
 4381SOL    HW224606   3.432   4.605   1.025 -0.0184 -0.0575  1.3447
 4382SOL     OW24607   1.558   0.338  14.139 -0.2971 -0.0989 -0.3879
 4382SOL    HW124608   1.535   0.316  14.229  1.0004  0.0518 -0.0181
 4382SOL    HW224609   1.479   0.317  14.091 -0.8913  2.7265 -0.6732
 4383SOL     OW24610   1.698   2.932   1.173 -0.0239 -0.0277  0.2557
 4383SOL    HW124611   1.777   2.939   1.119  1.1278 -0.9739  1.8146
 4383SOL    HW224612   1.721   2.861   1.233  3.8984 -0.1552 -1.3991
 4384SOL     OW24613   2.611   1.934   8.772  0.6203  0.1267  0.0843
 4384SOL    HW124614   2.518   1.943   8.789  0.9653  0.2907  1.9364
 4384SOL    HW224615   2.641   1.905   8.858 -0.4600  1.3679  0.8735
 4385SOL     OW24616   2.861   3.736   6.622 -0.0585 -0.0185  0.8729
 4385SOL    HW124617   2.927   3.742   6.690  1.4038  0.9103 -0.6086
 4385SOL    HW224618   2.789   3.782   6.664 -0.1500  0.7978 -0.1506
 4386SOL     OW24619   1.968   0.188   6.896 -0.1152 -0.3475 -0.4562
 4386SOL    HW124620   2.056   0.185   6.858  0.7681 -0.6620  1.5958
 4386SOL    HW224621   1.955   0.280   6.872 -0.8221 -0.2501  0.3046
 4387SOL     OW24622   0.534   4.013   5.008 -0.0791  0.5461  0.5039
 4387SOL    HW124623   0.468   3.961   5.054  0.5969 -0.8929 -0.1487
 4387SOL    HW224624   0.480   4.027   4.930  0.2993  1.3476  0.3872
 4388SOL     OW24625   2.184   2.161  14.196 -0.0640 -0.0390  0.3540
 4388SOL    HW124626   2.185   2.224  14.124 -1.4538 -0.1006  0.2736
 4388SOL    HW224627   2.274   2.132  14.182  0.8802  3.9199 -1.6988
 4389SOL     OW24628   0.490   2.350   0.534 -0.1476  0.1055  0.1689
 4389SOL    HW124629   0.578   2.337   0.569  0.4584  1.9745 -0.6164
 4389SOL    HW224630   0.479   2.294   0.457 -1.3464 -0.4308  0.7354
 4390SOL     OW24631   2.818   3.587   4.552 -0.1656  0.2977 -0.2092
 4390SOL    HW124632   2.776   3.640   4.620 -0.0711 -0.6586  0.5987
 4390SOL    HW224633   2.802   3.636   4.472 -0.4832  0.3488 -0.1140
 4391SOL     OW24634   0.272   1.957   6.826  0.4862 -0.8833 -0.0867
 4391SOL    HW124635   0.271   1.996   6.738  3.9155  0.6471  0.5300
 4391SOL    HW224636   0.367   1.971   6.832  0.3994 -0.9006  1.3256
 4392SOL     OW24637   3.158   4.493   4.167 -0.2103  0.0160  0.6975
 4392SOL    HW124638   3.104   4.414   4.175  1.5528 -1.5221 -2.6655
 4392SOL    HW224639   3.242   4.452   4.148  0.0113  0.1799  1.3186
 4393SOL     OW24640   0.850   2.636  14.730 -0.0483  0.3064 -0.1204
 4393SOL    HW124641   0.789   2.699  14.769 -1.0285 -0.6675 -0.0724
 4393SOL    HW224642   0.809   2.610  14.647  0.7304  2.4298 -1.1650
 4394SOL     OW24643   3.793   3.281   3.574  0.1648 -0.4335 -0.3459
 4394SOL    HW124644   3.709   3.258   3.534 -0.4828  2.1558 -0.4607
 4394SOL    HW224645   3.789   3.376   3.579 -1.4804 -0.6230  1.5805
 4395SOL     OW24646   0.714   1.012   5.700  0.4959  0.1982 -0.0195
 4395SOL    HW124647   0.690   1.100   5.729  0.1658  0.3121 -0.6368
 4395SOL    HW224648   0.624   0.981   5.685  0.2720  0.0082  1.6924
 4396SOL     OW24649   2.613   1.571  14.012 -0.2798 -0.8743 -0.2855
 4396SOL    HW124650   2.682   1.635  13.994  1.5787 -2.4883  1.1615
 4396SOL    HW224651   2.593   1.607  14.099 -1.5461 -2.1481 -0.0555
 4397SOL     OW24652   3.788   1.789  10.089  0.1502 -0.6151 -0.2013
 4397SOL    HW124653   3.761   1.831  10.007 -0.2973  0.3781  0.4446
 4397SOL    HW224654   3.714   1.793  10.150  1.4781  1.1120  1.2994
 4398SOL     OW24655   4.286   3.430   3.891  0.1410  0.1833 -0.4692
 4398SOL    HW124656   4.306   3.347   3.850  0.4796  0.6076 -1.1617
 4398SOL    HW224657   4.375   3.463   3.881 -0.0299  0.4129 -1.2519
 4399SOL     OW24658   3.660   1.079   6.818  0.0043 -0.4193  0.1641
 4399SOL    HW124659   3.653   1.091   6.724 -1.3267 -0.1436  0.2925
 4399SOL    HW224660   3.726   1.144   6.842 -0.5207  0.2403 -0.1901
 4400SOL     OW24661   0.240   4.190  15.375  0.3712 -0.0803  0.6879
 4400SOL    HW124662   0.247   4.127  15.447 -2.4113 -1.3506 -0.1632
 4400SOL    HW224663   0.284   4.144  15.303 -0.4047  1.3227 -0.6691
 4401SOL     OW24664   4.455   2.305   5.029 -0.7300  0.7715 -0.2322
 4401SOL    HW124665   4.438   2.343   5.115  1.9928  0.0865  0.5787
 4401SOL    HW224666   4.419   2.217   5.045  0.5013 -0.4005 -3.8767
 4402SOL     OW24667   4.413   0.803   8.587  0.2365 -0.0984  0.1756
 4402SOL    HW124668   4.358   0.726   8.600  0.3384 -0.2190 -0.1050
 4402SOL    HW224669   4.499   0.767   8.566 -0.2848 -1.3504  0.2224
 4403SOL     OW24670   1.434   3.889   6.931  0.0218  0.1583 -0.1070
 4403SOL    HW124671   1.461   3.975   6.899  1.0747 -1.0481 -2.4031
 4403SOL    HW224672   1.348   3.885   6.889 -1.0892 -1.6625  2.3529
 4404SOL     OW24673   2.373   4.586   2.077  1.4417  0.3848  0.3401
 4404SOL    HW124674   2.444   4.616   2.133  1.3086 -1.2228  1.3859
 4404SOL    HW224675   2.395   4.618   1.989  1.0451  1.6471  0.7101
 4405SOL     OW24676   4.688   0.850  11.268  0.3908  0.6108  0.7063
 4405SOL    HW124677   4.724   0.864  11.180  0.3719  1.1178  0.7791
 4405SOL    HW224678   4.632   0.922  11.295 -1.6245 -0.0994 -1.5500
 4406SOL     OW24679   2.234   0.792  10.544  0.1499  0.0155 -0.3370
 4406SOL    HW124680   2.234   0.847  10.466  0.4121  0.1412 -0.2485
 4406SOL    HW224681   2.249   0.706  10.503  0.2286  1.5234 -3.4776
 4407SOL     OW24682   1.617   2.070   4.026  0.4044 -0.0691 -0.4556
 4407SOL    HW124683   1.595   2.164   4.030 -0.7993 -0.3863  0.5001
 4407SOL    HW224684   1.528   2.041   4.048  1.0908  0.1488  2.6168
 4408SOL     OW24685   0.285   2.498   3.251  0.1058  0.3099  0.3802
 4408SOL    HW124686   0.368   2.467   3.287 -0.0641  0.9658  1.3292
 4408SOL    HW224687   0.276   2.452   3.167 -0.0198  0.4577  0.3139
 4409SOL     OW24688   3.301   1.619   8.439  0.0155 -0.0799  0.4223
 4409SOL    HW124689   3.357   1.683   8.483  0.3896  1.2501 -1.9610
 4409SOL    HW224690   3.222   1.669   8.415 -1.2549 -1.3745  1.8843
 4410SOL     OW24691   4.382   2.881   4.016 -0.8470 -0.0137  0.3437
 4410SOL    HW124692   4.304   2.904   4.068 -1.1807  0.4215 -0.3450
 4410SOL    HW224693   4.451   2.934   4.056 -0.4242  0.1562 -0.6035
 4411SOL     OW24694   0.666   4.605   1.560  0.4552 -0.2261  0.0976
 4411SOL    HW124695   0.759   4.595   1.538  0.5267  2.8173 -1.0517
 4411SOL    HW224696   0.641   4.567   1.476  2.2243  0.6454 -0.8276
 4412SOL     OW24697   2.255   2.647   5.365  0.1078 -0.2377 -0.7108
 4412SOL    HW124698   2.317   2.579   5.389  1.8293  0.3021 -3.6124
 4412SOL    HW224699   2.303   2.711   5.314 -1.0157  0.9479 -0.2906
 4413SOL     OW24700   1.214   3.854  14.442  0.1400 -0.4943  0.2223
 4413SOL    HW124701   1.274   3.852  14.368 -0.7508 -0.7118 -0.5027
 4413SOL    HW224702   1.269   3.831  14.517  2.1723 -0.6848 -1.3489
 4414SOL     OW24703   4.045   3.058   1.000 -0.5644 -0.4599 -0.2463
 4414SOL    HW124704   3.961   3.081   1.040 -1.1524  0.5972 -2.0780
 4414SOL    HW224705   4.070   3.146   0.970  1.2756 -0.6464  0.7808
 4415SOL     OW24706   4.049   4.056   7.890  0.5797  0.2134 -0.5133
 4415SOL    HW124707   4.100   4.043   7.970 -1.1725  0.3492  0.6185
 4415SOL    HW224708   4.117   4.094   7.834 -0.5379  1.3362 -1.0898
 4416SOL     OW24709   3.859   1.812   8.113  0.4006 -0.3739 -0.0531
 4416SOL    HW124710   3.898   1.753   8.176 -1.7043 -0.4856  1.1407
 4416SOL    HW224711   3.787   1.759   8.080 -0.7664  0.1673  1.6623
 4417SOL     OW24712   2.572   0.219   0.765 -0.8759 -0.6502 -0.4788
 4417SOL    HW124713   2.583   0.258   0.852  1.8003  2.2104 -2.1000
 4417SOL    HW224714   2.546   0.290   0.708 -1.8575  0.5919  1.5114
 4418SOL     OW24715   4.493   3.353   3.621  0.5404  0.1194 -0.0104
 4418SOL    HW124716   4.446   3.353   3.538  1.6704 -2.3512 -0.6514
 4418SOL    HW224717   4.469   3.267   3.656 -1.5970  0.8788  0.4233
 4419SOL     OW24718   0.143   4.509   3.506 -0.0101  0.4793 -0.2044
 4419SOL    HW124719   0.127   4.588   3.454 -0.8119  0.0377 -0.6247
 4419SOL    HW224720   0.092   4.437   3.469  1.1645  0.1028 -1.1066
 4420SOL     OW24721   1.431   0.695   8.639  0.3823  0.1212 -0.2645
 4420SOL    HW124722   1.449   0.695   8.733  2.8253 -0.2435 -0.7450
 4420SOL    HW224723   1.467   0.775   8.601 -1.4084  0.9568 -0.2156
 4421SOL     OW24724   3.159   1.267  15.425 -0.0353  0.2489 -0.1631
 4421SOL    HW124725   3.091   1.295  15.487  0.0907  1.0272 -0.3802
 4421SOL    HW224726   3.202   1.351  15.411 -0.5790  0.4763 -0.4580
 4422SOL     OW24727   0.575   3.842  11.752 -0.1585 -0.0224 -0.6852
 4422SOL    HW124728   0.547   3.929  11.724 -2.7744 -1.3074 -2.0630
 4422SOL    HW224729   0.542   3.843  11.843 -0.4143 -1.5424 -0.7528
 4423SOL     OW24730   3.723   0.038   9.288  0.2137  0.5232  0.3146
 4423SOL    HW124731   3.719   4.670   9.306  0.7828  0.5030  0.3617
 4423SOL    HW224732   3.814   0.037   9.258 -0.1042  0.9921 -0.6594
 4424SOL     OW24733   2.799   3.928   5.085 -0.4374 -0.5477  0.4629
 4424SOL    HW124734   2.879   3.893   5.045  0.6077  1.8807  0.4239
 4424SOL    HW224735   2.816   4.021   5.070  3.7236 -1.6182 -1.5136
 4425SOL     OW24736   0.188   3.527   2.306  0.3154  0.2372 -0.0894
 4425SOL    HW124737   0.236   3.599   2.347  0.6582 -0.5090  0.8035
 4425SOL    HW224738   0.241   3.513   2.227  0.7682 -0.5893  0.3640
 4426SOL     OW24739   0.630   1.859  12.584  0.6888  0.7565  0.5017
 4426SOL    HW124740   0.716   1.830  12.554  0.5686  1.2693 -0.3616
 4426SOL    HW224741   0.624   1.790  12.650  0.0074  1.3486  1.0637
 4427SOL     OW24742   3.534   2.970   2.397  0.1234 -0.2654  0.3466
 4427SOL    HW124743   3.546   2.887   2.351 -2.3226  0.8172 -2.2393
 4427SOL    HW224744   3.446   2.952   2.431 -0.5280 -0.6080 -1.5055
 4428SOL     OW24745   0.078   2.493   1.473 -0.1363 -0.0680  0.7479
 4428SOL    HW124746   0.041   2.487   1.385  2.2086  0.7567 -0.2975
 4428SOL    HW224747   0.170   2.489   1.447 -0.2284 -1.3076  0.6169
 4429SOL     OW24748   3.368   1.329   8.479  0.1968  0.2365  0.5154
 4429SOL    HW124749   3.349   1.421   8.495  0.4593  0.5706 -1.1529
 4429SOL    HW224750   3.433   1.314   8.548 -0.0517  0.1552  0.7361
 4430SOL     OW24751   1.680   1.523   6.613  0.1744  0.5497 -0.3729
 4430SOL    HW124752   1.757   1.511   6.557  0.6879 -2.0121  0.8510
 4430SOL    HW224753   1.608   1.565   6.566 -1.7433 -0.9704  1.1980
 4431SOL     OW24754   0.046   0.875  11.011 -0.3002  0.0454 -0.7000
 4431SOL    HW124755   4.714   0.888  10.936 -0.6447 -1.1071 -0.6237
 4431SOL    HW224756   0.125   0.841  10.968  0.1844 -1.1603  1.1403
 4432SOL     OW24757   0.576   4.097   9.340 -0.3244 -0.6629  0.0062
 4432SOL    HW124758   0.527   4.172   9.307  1.0667  1.2768  2.3799
 4432SOL    HW224759   0.666   4.129   9.351 -0.9247  1.5574 -1.6189
 4433SOL     OW24760   2.417   0.604   1.838  0.7362  0.2418  0.0095
 4433SOL    HW124761   2.362   0.540   1.884 -1.5739  0.3457 -2.6195
 4433SOL    HW224762   2.446   0.639   1.922  3.3872 -3.2012  0.5242
 4434SOL     OW24763   3.934   3.152  13.403 -0.1101 -0.4094  0.2890
 4434SOL    HW124764   3.907   3.235  13.442  0.0570 -0.7739  1.1638
 4434SOL    HW224765   3.960   3.102  13.480  0.6127  1.3872  1.2007
 4435SOL     OW24766   3.657   1.289   5.680 -0.3730 -0.5518  0.4517
 4435SOL    HW124767   3.591   1.288   5.750  0.2160 -1.3988  0.9875
 4435SOL    HW224768   3.607   1.249   5.608 -1.7974 -1.6139  2.0416
 4436SOL     OW24769   3.850   4.227   6.833 -0.3543 -0.4870  0.3221
 4436SOL    HW124770   3.942   4.201   6.830 -0.5430 -1.0479 -0.8713
 4436SOL    HW224771   3.813   4.142   6.807 -0.3848 -0.3613 -0.0498
 4437SOL     OW24772   2.764   3.082   9.049  0.3850  0.1443  0.1548
 4437SOL    HW124773   2.806   3.000   9.021 -3.4779 -2.2231  1.3176
 4437SOL    HW224774   2.672   3.061   9.064  0.2091 -2.3348 -4.4003
 4438SOL     OW24775   3.993   1.063  15.905  0.4711  0.4258  0.2797
 4438SOL    HW124776   4.042   1.133  15.863 -1.8110 -0.2562 -3.5143
 4438SOL    HW224777   3.998   0.990  15.843  2.6793  1.4270 -0.6949
 4439SOL     OW24778   0.606   1.488   6.058  0.2487 -0.2416 -0.4473
 4439SOL    HW124779   0.511   1.476   6.066  0.1009  0.8477 -0.5446
 4439SOL    HW224780   0.612   1.578   6.025 -2.1420  0.1252  0.0844
 4440SOL     OW24781   4.578   2.654  13.057 -0.3114  0.5825 -0.1975
 4440SOL    HW124782   4.611   2.684  13.141 -0.7625 -0.7584  0.4708
 4440SOL    HW224783   4.548   2.568  13.087 -1.5794  0.4394 -1.8700
 4441SOL     OW24784   3.720   3.310   0.891  0.3048 -0.2934  0.8302
 4441SOL    HW124785   3.695   3.381   0.951 -0.7378 -0.1779  0.2634
 4441SOL    HW224786   3.763   3.244   0.944 -0.1489 -2.1903 -1.1820
 4442SOL     OW24787   2.964   0.552   6.352  0.7025  0.1501  0.5243
 4442SOL    HW124788   3.011   0.622   6.307  0.3705  0.1850  0.2353
 4442SOL    HW224789   2.957   0.488   6.280  0.1265 -0.2878  0.9691
 4443SOL     OW24790   3.144   3.296   3.713 -0.4410 -0.7653 -0.4390
 4443SOL    HW124791   3.049   3.296   3.702 -0.4277 -1.8522 -0.5243
 4443SOL    HW224792   3.156   3.390   3.729 -1.7606 -0.9824  1.7710
 4444SOL     OW24793   1.695   4.148   9.606 -0.3259 -0.1752  0.7894
 4444SOL    HW124794   1.697   4.103   9.691  0.3758  1.4615  1.6440
 4444SOL    HW224795   1.769   4.208   9.617 -0.7607  0.5689 -0.4102
 4445SOL     OW24796   2.804   2.770   5.612  0.0912  0.9806 -0.5270
 4445SOL    HW124797   2.796   2.731   5.525  1.2064  1.8663 -1.0197
 4445SOL    HW224798   2.724   2.821   5.608 -0.4933 -0.0554 -2.0587
 4446SOL     OW24799   1.807   1.439   0.146  0.1143  0.0061  0.1888
 4446SOL    HW124800   1.782   1.470   0.059  0.9246 -0.6720 -0.2844
 4446SOL    HW224801   1.811   1.514   0.206  1.7633 -0.3144  0.4940
 4447SOL     OW24802   0.233   1.732  14.810 -0.2118  0.4646  0.7947
 4447SOL    HW124803   0.179   1.690  14.878  0.3329 -2.0342 -0.3069
 4447SOL    HW224804   0.205   1.822  14.793  1.6700  1.2049  1.6409
 4448SOL     OW24805   1.114   4.661  12.360 -0.2183  0.4514  0.0458
 4448SOL    HW124806   1.162   4.580  12.344 -0.7996 -0.2395  1.7652
 4448SOL    HW224807   1.105   4.696  12.271  0.1045  1.3446  0.3577
 4449SOL     OW24808   0.201   1.037   3.754 -0.4534  0.5715  0.1746
 4449SOL    HW124809   0.243   1.050   3.839  1.4126  2.0054 -0.9631
 4449SOL    HW224810   0.262   1.090   3.703 -0.5631 -0.6732 -1.2626
 4450SOL     OW24811   3.735   4.685   2.542  0.0568  0.7614 -0.0763
 4450SOL    HW124812   3.741   0.013   2.462  2.9912 -3.6977 -2.9094
 4450SOL    HW224813   3.786   4.609   2.514 -2.5196 -1.9809  2.8627
 4451SOL     OW24814   2.784   2.333   0.329 -0.3317 -0.8048  0.1389
 4451SOL    HW124815   2.804   2.417   0.290  0.2548 -0.7800  0.4934
 4451SOL    HW224816   2.857   2.282   0.295  1.2898  0.3952  1.8106
 4452SOL     OW24817   1.808   3.047   0.783  0.2821 -0.1188 -0.0936
 4452SOL    HW124818   1.843   3.026   0.869  3.2451 -0.3292 -1.3305
 4452SOL    HW224819   1.885   3.043   0.726  0.3016 -0.9452 -0.0013
 4453SOL     OW24820   3.114   2.748   0.893  0.0437 -0.2993  0.1333
 4453SOL    HW124821   3.071   2.785   0.970 -0.8141  0.0552 -0.5136
 4453SOL    HW224822   3.206   2.760   0.916  0.0740  1.9586 -1.2005
 4454SOL     OW24823   1.563   0.648  14.423  0.0445  0.0331 -0.3407
 4454SOL    HW124824   1.538   0.739  14.410  1.3447  0.3650 -0.4179
 4454SOL    HW224825   1.479   0.602  14.433 -0.6193  0.8736 -2.0318
 4455SOL     OW24826   1.514   4.530   7.004  0.2044 -0.0858 -0.0733
 4455SOL    HW124827   1.609   4.519   7.000  0.2366  0.8416 -1.7986
 4455SOL    HW224828   1.500   4.437   7.023  2.2356 -0.6162 -1.2006
 4456SOL     OW24829   0.357   2.441   0.822  0.0706  0.5286  0.2049
 4456SOL    HW124830   0.380   2.527   0.787  0.9906  0.1596 -0.1005
 4456SOL    HW224831   0.355   2.375   0.753  2.9786  0.4043  0.2143
 4457SOL     OW24832   3.236   0.059   6.844 -0.1342 -0.0452  0.0908
 4457SOL    HW124833   3.179   0.011   6.903 -1.9720  1.4415 -0.4895
 4457SOL    HW224834   3.251   4.726   6.770 -0.4117 -1.6703  1.3462
 4458SOL     OW24835   3.768   2.510   1.592  0.1694 -0.3705 -0.2981
 4458SOL    HW124836   3.708   2.486   1.663  1.8790  0.0546  1.3085
 4458SOL    HW224837   3.770   2.426   1.546 -0.1952 -0.6273  0.1532
 4459SOL     OW24838   4.295   1.751   9.779 -0.5906  0.4121  0.1606
 4459SOL    HW124839   4.210   1.786   9.806  0.1235  1.7328  0.7311
 4459SOL    HW224840   4.290   1.801   9.697 -0.5696 -1.7059 -1.1320
 4460SOL     OW24841   0.653   0.575  13.127 -0.0642 -0.2950  0.0466
 4460SOL    HW124842   0.673   0.661  13.164 -0.0680 -0.7060  0.9885
 4460SOL    HW224843   0.687   0.580  13.037  0.2598  0.0100  0.1847
 4461SOL     OW24844   1.543   1.600   8.334 -0.3984  0.1144 -0.1718
 4461SOL    HW124845   1.505   1.646   8.259  1.2947  2.8285  0.6235
 4461SOL    HW224846   1.500   1.655   8.400  0.3703  0.1054  0.3306
 4462SOL     OW24847   2.727   1.209   6.951  0.0264 -0.3329  0.1040
 4462SOL    HW124848   2.729   1.200   6.856  1.0202 -1.1247  0.1977
 4462SOL    HW224849   2.641   1.240   6.979 -0.4148 -2.0406  0.5861
 4463SOL     OW24850   3.216   4.371   5.056 -0.0462  0.0926  0.2976
 4463SOL    HW124851   3.212   4.331   4.969 -0.0121 -1.2615  0.9230
 4463SOL    HW224852   3.159   4.446   5.042 -2.2092 -1.0780  2.9353
 4464SOL     OW24853   2.574   0.613   8.596 -0.0476 -0.3274  0.5455
 4464SOL    HW124854   2.567   0.609   8.500  1.1458  2.1692  0.3701
 4464SOL    HW224855   2.573   0.707   8.610  1.9929 -0.2578  0.1948
 4465SOL     OW24856   3.174   3.206  14.932 -0.4508  0.1921  0.2176
 4465SOL    HW124857   3.261   3.243  14.919 -1.1477  1.2220 -1.4113
 4465SOL    HW224858   3.191   3.125  14.883  2.7616 -0.4517  2.3899
 4466SOL     OW24859   0.445   3.404   5.844  0.3226  0.0181 -0.1495
 4466SOL    HW124860   0.388   3.328   5.853 -1.6678  1.6303  1.0165
 4466SOL    HW224861   0.432   3.449   5.928 -1.7334  2.0823 -1.5632
 4467SOL     OW24862   4.156   2.856   5.304  0.2034 -0.1594  0.2230
 4467SOL    HW124863   4.099   2.879   5.377  1.2271 -1.6792  1.4969
 4467SOL    HW224864   4.237   2.905   5.320  0.5838 -0.2532 -1.4041
 4468SOL     OW24865   2.234   2.571   1.355  0.4210  0.4381 -0.2389
 4468SOL    HW124866   2.329   2.575   1.367  0.4608 -1.5434  0.1058
 4468SOL    HW224867   2.223   2.506   1.286  1.8032  0.1017 -0.1498
 4469SOL     OW24868   2.927   3.955  14.240  0.6819 -0.4397 -0.2081
 4469SOL    HW124869   2.852   3.912  14.281  1.2497 -1.0584  0.1729
 4469SOL    HW224870   2.970   3.971  14.324 -1.1229 -0.8029  0.7833
 4470SOL     OW24871   1.157   2.414  14.368  0.0431  0.2370 -0.2495
 4470SOL    HW124872   1.162   2.508  14.386  2.6517  0.2079 -0.7804
 4470SOL    HW224873   1.071   2.389  14.402 -0.2872  3.1825  1.1317
 4471SOL     OW24874   4.062   2.770   4.707 -0.1973  0.2197  0.2582
 4471SOL    HW124875   4.059   2.785   4.801 -0.2681  0.7723  0.1648
 4471SOL    HW224876   3.978   2.808   4.681  0.3497  0.7600 -0.7045
 4472SOL     OW24877   3.384   2.087   5.370  0.3543 -0.2993  0.2098
 4472SOL    HW124878   3.314   2.089   5.304  0.1647 -0.3299  0.4070
 4472SOL    HW224879   3.368   2.169   5.417  0.6775 -0.2029  0.1481
 4473SOL     OW24880   3.564   3.811   6.981  0.4402 -0.2516  0.1172
 4473SOL    HW124881   3.607   3.878   7.035 -1.9335  1.5373 -0.2314
 4473SOL    HW224882   3.616   3.731   6.992  1.3579  0.4771  1.1339
 4474SOL     OW24883   2.084   0.129   3.764  0.1414  0.6839 -0.0448
 4474SOL    HW124884   2.014   0.086   3.715 -0.2994  1.5455 -0.1661
 4474SOL    HW224885   2.056   0.115   3.855  0.4334  1.0417  0.0985
 4475SOL     OW24886   2.973   0.364   5.685 -0.4377 -0.0691 -0.4062
 4475SOL    HW124887   3.016   0.443   5.719 -0.5798  1.1767 -3.1356
 4475SOL    HW224888   3.034   0.293   5.704  0.5976  0.9122 -0.0276
 4476SOL     OW24889   1.507   4.546   8.827  0.6892  0.4759  0.4774
 4476SOL    HW124890   1.586   4.576   8.781  1.0997 -3.0360 -1.1028
 4476SOL    HW224891   1.481   4.632   8.859  0.0711  1.2465 -2.1040
 4477SOL     OW24892   2.000   1.383   3.433 -0.2868 -0.2669  0.3520
 4477SOL    HW124893   1.951   1.401   3.514 -1.4034  0.1756 -0.4312
 4477SOL    HW224894   1.952   1.434   3.368 -0.4373 -2.2041 -1.0632
 4478SOL     OW24895   0.279   1.238  15.200  0.0150  0.4450  0.0828
 4478SOL    HW124896   0.324   1.297  15.139 -2.9765  0.3619 -2.1561
 4478SOL    HW224897   0.337   1.239  15.276  0.3057  0.1253 -0.1358
 4479SOL     OW24898   0.632   4.595   6.752  0.2132  0.1228  0.3858
 4479SOL    HW124899   0.600   4.683   6.769  1.1978  0.5844 -0.1640
 4479SOL    HW224900   0.560   4.535   6.773  1.2331 -1.8340 -1.6580
 4480SOL     OW24901   3.398   1.010   4.945 -0.3254 -0.1351  0.4369
 4480SOL    HW124902   3.441   0.958   4.878 -1.2544  1.8253 -1.6688
 4480SOL    HW224903   3.421   0.962   5.025  1.4883 -0.9389 -0.5691
 4481SOL     OW24904   4.007   1.616   3.895  0.4529  0.2798  0.5402
 4481SOL    HW124905   4.084   1.588   3.845 -0.9999 -2.6533  0.0085
 4481SOL    HW224906   3.978   1.690   3.842  0.8726  0.6937  0.8852
 4482SOL     OW24907   3.612   0.311   8.261  0.1140  0.2610 -0.1199
 4482SOL    HW124908   3.524   0.349   8.257  0.3705  0.5937 -2.3162
 4482SOL    HW224909   3.648   0.315   8.350 -0.9952  0.2766  0.3262
 4483SOL     OW24910   0.349   3.277   6.857 -0.4394  0.4588 -0.4528
 4483SOL    HW124911   0.373   3.316   6.941 -0.0916  0.0241 -0.3565
 4483SOL    HW224912   0.301   3.203   6.894 -1.3580  0.9990 -0.5590
 4484SOL     OW24913   0.200   3.836   3.737  0.2874 -0.0583  0.2346
 4484SOL    HW124914   0.185   3.813   3.829 -1.0287  1.9092  0.5159
 4484SOL    HW224915   0.113   3.806   3.712  0.9433 -0.3679 -1.6363
 4485SOL     OW24916   3.171   4.710   1.247 -0.0286 -0.8081  0.1546
 4485SOL    HW124917   3.262   4.724   1.274 -0.4233  0.5844  0.7951
 4485SOL    HW224918   3.157   4.616   1.248 -0.9603 -0.6363  2.5571
 4486SOL     OW24919   3.124   2.186   9.484  0.1400 -0.1140 -0.2705
 4486SOL    HW124920   3.183   2.220   9.552  1.0406  0.9233 -1.5635
 4486SOL    HW224921   3.035   2.195   9.520 -0.2748 -2.2338 -0.7832
 4487SOL     OW24922   2.438   0.371  12.003 -0.1923  0.3619  0.3092
 4487SOL    HW124923   2.482   0.413  11.928  1.9053  0.9128  1.8460
 4487SOL    HW224924   2.349   0.406  12.006 -0.0210  0.7791  0.5474
 4488SOL     OW24925   2.167   3.822   5.530  0.3401 -0.2421  0.4397
 4488SOL    HW124926   2.142   3.888   5.465 -2.4821 -0.8152  0.9549
 4488SOL    HW224927   2.213   3.877   5.592 -0.9085  1.6145 -0.2993
 4489SOL     OW24928   0.726   2.291   0.653 -0.1637  0.0515 -0.5700
 4489SOL    HW124929   0.680   2.211   0.677  1.9372 -1.2121 -0.7048
 4489SOL    HW224930   0.804   2.272   0.706 -0.6843  0.9825  0.5188
 4490SOL     OW24931   4.220   3.162   8.918 -0.4266  0.2281  0.7011
 4490SOL    HW124932   4.297   3.163   8.975 -0.2344  0.3536  0.4421
 4490SOL    HW224933   4.159   3.184   8.987  2.2798 -1.1364  3.5253
 4491SOL     OW24934   1.812   0.570   8.073  0.3696  0.3021 -0.3485
 4491SOL    HW124935   1.881   0.634   8.055  0.5384  0.4214  0.7574
 4491SOL    HW224936   1.778   0.611   8.152 -0.0294  1.0089 -0.8772
 4492SOL     OW24937   4.190   3.208   7.034  0.0049  0.1735 -0.7926
 4492SOL    HW124938   4.253   3.239   6.969  0.8433 -0.0548 -0.1017
 4492SOL    HW224939   4.246   3.198   7.112 -1.4104  3.8116  0.6930
 4493SOL     OW24940   1.783   3.204  15.884  1.3572 -0.5506  0.1823
 4493SOL    HW124941   1.799   3.167  15.797  0.1754 -0.9783  0.1485
 4493SOL    HW224942   1.784   3.300  15.878  0.4818 -0.4441  1.7910
 4494SOL     OW24943   3.449   2.208  14.474 -0.2575  0.6161  0.6719
 4494SOL    HW124944   3.376   2.238  14.419  1.1969 -0.2667 -1.7596
 4494SOL    HW224945   3.525   2.265  14.460  1.6182 -2.2833 -0.9003
 4495SOL     OW24946   3.460   4.683   3.420  0.8595  0.0139 -0.6741
 4495SOL    HW124947   3.426   4.667   3.332 -2.6370 -1.7788  0.9808
 4495SOL    HW224948   3.533   0.017   3.411  0.4753  0.3645 -1.4596
 4496SOL     OW24949   4.703   2.366  10.066  0.4861  0.5832 -0.2077
 4496SOL    HW124950   0.069   2.356  10.040  1.9220 -0.5538  5.1512
 4496SOL    HW224951   4.679   2.443  10.016  1.3523 -0.1008 -1.6935
 4497SOL     OW24952   0.146   0.437  16.524 -0.2988  0.2751  0.3257
 4497SOL    HW124953   0.131   0.527  16.555 -2.1942 -0.8727  2.7800
 4497SOL    HW224954   0.190   0.405  16.603  0.9395 -0.4335 -0.6504
 4498SOL     OW24955   2.596   1.204   6.537  0.6977 -0.8831  0.0553
 4498SOL    HW124956   2.630   1.289   6.566 -2.1592 -0.5028  2.3033
 4498SOL    HW224957   2.611   1.157   6.619  2.8891  0.2541  0.3036
 4499SOL     OW24958   2.698   2.008  16.292 -0.2155 -0.0808  0.2836
 4499SOL    HW124959   2.656   1.943  16.236  0.2121 -0.6103  0.5778
 4499SOL    HW224960   2.635   1.991  16.362  0.4372 -0.5278  0.7613
 4500SOL     OW24961   2.152   2.381   2.066  0.2952  0.2921  0.4273
 4500SOL    HW124962   2.099   2.311   2.028  1.6735  0.6377 -2.1830
 4500SOL    HW224963   2.089   2.435   2.113 -1.2398 -1.9054  0.9011
 4501SOL     OW24964   4.080   2.929   6.474  0.1987 -0.0470  0.1100
 4501SOL    HW124965   4.010   2.864   6.485  0.3809 -0.2730 -0.0566
 4501SOL    HW224966   4.148   2.876   6.432 -0.3174  0.2904 -1.1426
 4502SOL     OW24967   3.241   4.560   3.579  0.1711  0.2541 -0.4661
 4502SOL    HW124968   3.260   4.562   3.673 -1.6346  1.6251 -0.1266
 4502SOL    HW224969   3.318   4.598   3.538 -0.9405  2.8958 -0.0917
 4503SOL     OW24970   3.250   0.269  12.120 -0.0628 -0.4626 -0.2989
 4503SOL    HW124971   3.249   0.364  12.133  0.9633 -0.5407  0.3342
 4503SOL    HW224972   3.313   0.247  12.189  0.8289  0.7591 -0.7380
 4504SOL     OW24973   2.997   3.834  15.115  0.1609  0.7043  0.2691
 4504SOL    HW124974   3.045   3.753  15.096 -0.2084  0.4761  0.3241
 4504SOL    HW224975   3.041   3.854  15.198  0.4329  0.4194  0.1942
 4505SOL     OW24976   0.436   2.273   2.356 -0.6100 -0.0936  0.2570
 4505SOL    HW124977   0.496   2.302   2.424 -0.6814  1.0053 -0.1458
 4505SOL    HW224978   0.370   2.228   2.408  1.4918 -0.2400  2.7926
 4506SOL     OW24979   0.730   2.647   2.307  0.0140 -0.2863 -0.0132
 4506SOL    HW124980   0.639   2.676   2.299 -0.1503 -0.8849 -0.3327
 4506SOL    HW224981   0.767   2.705   2.373  0.4913  0.9913 -1.4042
 4507SOL     OW24982   0.146   2.566   8.355  0.2365 -0.1619 -0.0123
 4507SOL    HW124983   0.209   2.616   8.303 -0.0229 -2.4261 -2.4887
 4507SOL    HW224984   0.126   2.492   8.297  2.2674 -1.2273  0.6545
 4508SOL     OW24985   1.888   1.101   7.807 -0.2433  0.1026  0.2224
 4508SOL    HW124986   1.958   1.165   7.820 -1.2509  1.0245  1.2048
 4508SOL    HW224987   1.833   1.137   7.738  0.1638 -1.7666 -1.0822
 4509SOL     OW24988   3.393   2.343   3.422  0.4499 -0.6235  0.4840
 4509SOL    HW124989   3.362   2.355   3.512  0.6395  0.6235  0.3905
 4509SOL    HW224990   3.327   2.402   3.385  1.4303  0.1845  0.0322
 4510SOL     OW24991   3.133   2.027   8.601  0.8489  0.0560  0.0476
 4510SOL    HW124992   3.080   1.951   8.577  1.7168 -0.3111 -0.7200
 4510SOL    HW224993   3.204   1.978   8.642  0.8010 -0.6411 -0.6918
 4511SOL     OW24994   2.417   0.765   5.783 -0.4009 -0.0985  0.0525
 4511SOL    HW124995   2.459   0.799   5.703 -2.4674  1.2128 -0.4437
 4511SOL    HW224996   2.372   0.686   5.752  1.1807 -0.2757 -1.8423
 4512SOL     OW24997   0.745   1.329   8.054  0.0821 -0.3371  0.2742
 4512SOL    HW124998   0.751   1.234   8.046  0.1644 -0.2879 -0.2416
 4512SOL    HW224999   0.822   1.354   8.003 -1.4223  2.2712 -0.7153
 4513SOL     OW25000   2.554   4.034   5.045 -0.8767 -0.4452 -0.4902
 4513SOL    HW125001   2.620   3.966   5.058 -0.9114 -0.1259  1.3846
 4513SOL    HW225002   2.614   4.109   5.057 -0.0282 -1.0784 -0.7667
 4514SOL     OW25003   0.182   0.946   7.668  0.3040  0.2913  0.3106
 4514SOL    HW125004   0.182   0.974   7.576 -3.5509  1.1082  0.5782
 4514SOL    HW225005   0.191   1.033   7.705 -0.9405  0.0053  1.2846
 4515SOL     OW25006   1.095   3.405   9.095 -0.1114  0.1910 -0.3685
 4515SOL    HW125007   1.064   3.315   9.089 -1.7224  0.6960  0.3608
 4515SOL    HW225008   1.018   3.457   9.119  0.6540  1.4770 -0.7301
 4516SOL     OW25009   3.747   3.602   7.039 -0.1987  0.1176 -0.0964
 4516SOL    HW125010   3.796   3.540   6.985  1.2535  1.4898 -0.3815
 4516SOL    HW225011   3.682   3.545   7.079 -0.5362  1.4174  1.2297
 4517SOL     OW25012   4.426   2.956  11.179  0.0779  0.6535  0.0562
 4517SOL    HW125013   4.519   2.957  11.156  0.0781 -2.4126 -0.1379
 4517SOL    HW225014   4.431   2.981  11.271  1.5739 -0.7929  0.3614
 4518SOL     OW25015   4.566   3.746   6.526  0.4837  0.1062  0.6096
 4518SOL    HW125016   4.514   3.675   6.488  0.4382 -0.4294  1.6768
 4518SOL    HW225017   4.588   3.703   6.609  1.1364  1.7188  1.2992
 4519SOL     OW25018   3.845   1.862   3.141 -0.3853  0.4763  0.3433
 4519SOL    HW125019   3.752   1.843   3.127 -0.5435  1.1323  0.5047
 4519SOL    HW225020   3.831   1.921   3.215 -2.0499  0.9962 -0.3840
 4520SOL     OW25021   0.972   0.724  14.936 -0.3792 -0.1363 -0.1100
 4520SOL    HW125022   0.893   0.687  14.897  0.1044 -1.0006 -0.2703
 4520SOL    HW225023   0.925   0.803  14.964 -0.1383 -0.7929  2.2016
 4521SOL     OW25024   3.887   3.770   2.544 -0.7260 -0.5696 -0.2386
 4521SOL    HW125025   3.818   3.832   2.520 -1.2827 -0.8359  0.6393
 4521SOL    HW225026   3.950   3.795   2.477 -0.8571  0.3670 -0.0041
 4522SOL     OW25027   0.215   1.741   2.003  0.2983 -0.0947  0.0655
 4522SOL    HW125028   0.212   1.812   1.938 -1.5216 -0.6655 -0.4545
 4522SOL    HW225029   0.128   1.741   2.042 -0.1961  0.3120 -1.0360
 4523SOL     OW25030   0.635   2.724   5.284 -0.5709  0.1350 -0.1357
 4523SOL    HW125031   0.618   2.813   5.314  1.6054  1.0539 -1.6641
 4523SOL    HW225032   0.730   2.718   5.291 -0.4872  1.4556 -0.1143
 4524SOL     OW25033   0.717   4.026   1.957  0.1797 -0.6259  0.0563
 4524SOL    HW125034   0.810   4.032   1.937  0.1226  1.0645  0.2748
 4524SOL    HW225035   0.688   4.056   1.870 -0.5163  1.2882  0.9389
 4525SOL     OW25036   1.947   1.900  15.214 -0.4149  0.1751  0.2200
 4525SOL    HW125037   1.945   1.905  15.310  0.5759 -2.1893  0.3683
 4525SOL    HW225038   1.872   1.842  15.199 -1.1866  0.7698  1.7853
 4526SOL     OW25039   2.707   3.695   5.633 -0.3765 -0.0903  0.5393
 4526SOL    HW125040   2.668   3.781   5.645  0.5913  0.5389 -0.8324
 4526SOL    HW225041   2.662   3.647   5.703 -0.7012 -1.2795 -0.4682
 4527SOL     OW25042   1.231   3.007   3.372  0.1766  0.0469 -0.1192
 4527SOL    HW125043   1.190   2.949   3.436 -1.5137  3.0806  1.5535
 4527SOL    HW225044   1.155   3.058   3.344  0.6569  0.1505 -1.2013
 4528SOL     OW25045   0.766   4.603   7.086 -0.3979 -0.1266  0.1339
 4528SOL    HW125046   0.684   4.570   7.050  1.0411 -2.8125 -0.7081
 4528SOL    HW225047   0.771   4.690   7.046  0.1313 -0.3662 -0.3184
 4529SOL     OW25048   2.573   4.482   6.214 -0.4521 -0.1334 -0.1379
 4529SOL    HW125049   2.565   4.432   6.296 -1.5895  1.1807  0.5694
 4529SOL    HW225050   2.508   4.445   6.154 -0.5508  0.9665 -0.7107
 4530SOL     OW25051   4.344   1.310   2.672 -0.3008 -0.4420 -0.4991
 4530SOL    HW125052   4.391   1.326   2.590 -0.7556  1.7600 -0.3467
 4530SOL    HW225053   4.330   1.403   2.692  1.7527  0.3987 -2.9577
 4531SOL     OW25054   1.821   1.363  17.372 -0.0964  0.4955  0.2991
 4531SOL    HW125055   1.829   1.271  17.399 -0.9115  0.7358  1.3656
 4531SOL    HW225056   1.812   1.418  17.450 -1.3717  2.4380 -1.2382
 4532SOL     OW25057   0.485   0.768   8.109 -0.1581 -0.4638 -0.3932
 4532SOL    HW125058   0.480   0.863   8.109  2.0597 -0.3595  0.2138
 4532SOL    HW225059   0.462   0.750   8.200  3.2562 -2.8140  0.0158
 4533SOL     OW25060   0.640   3.341  14.779  0.6695  0.1215 -0.0683
 4533SOL    HW125061   0.663   3.305  14.864 -0.2462  0.7660  0.4456
 4533SOL    HW225062   0.678   3.429  14.777  2.3565 -0.6037  0.2687
 4534SOL     OW25063   3.668   0.097   3.708 -0.1829  0.2935 -0.2385
 4534SOL    HW125064   3.667   0.172   3.768 -1.6176 -0.5324  0.7973
 4534SOL    HW225065   3.590   0.104   3.653 -0.1526 -0.4360 -0.3650
 4535SOL     OW25066   1.728   3.617   2.384 -0.8859  0.5996 -0.0170
 4535SOL    HW125067   1.745   3.523   2.379 -2.5450  0.2900  0.4297
 4535SOL    HW225068   1.816   3.646   2.358  0.1127 -1.0766  1.5379
 4536SOL     OW25069   1.832   4.421   7.905  0.2824  0.1064  0.2990
 4536SOL    HW125070   1.895   4.470   7.852 -0.6545 -0.3717 -1.2531
 4536SOL    HW225071   1.780   4.494   7.938 -2.1579 -1.1863 -0.6916
 4537SOL     OW25072   0.129   4.526   9.368 -0.1865 -0.2106 -0.0205
 4537SOL    HW125073   0.182   4.538   9.447  0.3787  0.8772 -0.5746
 4537SOL    HW225074   0.053   4.476   9.400  0.4747 -0.0233  1.8783
 4538SOL     OW25075   2.495   3.045  16.640  0.5355  0.3502  0.4150
 4538SOL    HW125076   2.471   3.131  16.605 -0.5047 -0.9634 -2.0584
 4538SOL    HW225077   2.589   3.036  16.625  0.0555 -1.4138 -1.4972
 4539SOL     OW25078   2.712   0.348  15.228 -0.8028  0.3949 -0.3257
 4539SOL    HW125079   2.802   0.350  15.195 -0.9406 -1.0643 -0.7723
 4539SOL    HW225080   2.728   0.288  15.301  0.4045 -0.7147 -1.4888
 4540SOL     OW25081   4.396   2.060   4.299 -0.1106 -0.2656  0.4963
 4540SOL    HW125082   4.490   2.066   4.317 -0.1480  1.7048  0.0443
 4540SOL    HW225083   4.403   1.994   4.230  2.6758  0.2564  0.2744
 4541SOL     OW25084   3.511   3.715   0.308 -0.5274  0.0239  0.2401
 4541SOL    HW125085   3.552   3.632   0.286 -0.1671 -0.4553  2.6844
 4541SOL    HW225086   3.517   3.760   0.224 -0.0735 -0.2901  0.1057
 4542SOL     OW25087   2.687   0.627   5.563 -0.3913  0.0862 -0.1122
 4542SOL    HW125088   2.713   0.557   5.502  1.1190  1.1961 -0.7409
 4542SOL    HW225089   2.647   0.589   5.641 -1.2216  1.2849  0.0444
 4543SOL     OW25090   1.706   2.815  10.303  0.7076 -0.2028  0.3537
 4543SOL    HW125091   1.783   2.853  10.261  1.6558 -0.1664  2.1231
 4543SOL    HW225092   1.727   2.796  10.395 -0.5631 -0.1323  0.6565
 4544SOL     OW25093   3.158   1.404   2.774 -0.5211  0.0386 -0.2815
 4544SOL    HW125094   3.135   1.374   2.686  1.2858 -0.6829 -0.4925
 4544SOL    HW225095   3.244   1.444   2.762 -0.0678 -1.6260 -2.6162
 4545SOL     OW25096   0.665   1.284   4.071  0.9153 -0.5335 -0.0554
 4545SOL    HW125097   0.625   1.344   4.009  0.5467 -0.3333  0.3753
 4545SOL    HW225098   0.749   1.294   4.026  1.7420  2.1057  2.0582
 4546SOL     OW25099   4.184   4.367   8.614 -0.3911 -0.5690 -0.4012
 4546SOL    HW125100   4.227   4.328   8.690  0.5167 -2.4516 -1.8644
 4546SOL    HW225101   4.256   4.381   8.553  0.3308  2.8777  1.2765
 4547SOL     OW25102   1.754   4.605   1.421 -0.2594  0.0323  0.8142
 4547SOL    HW125103   1.709   4.650   1.492 -2.3325 -0.0745 -0.4441
 4547SOL    HW225104   1.743   4.660   1.344 -1.6203 -0.6838  0.5043
 4548SOL     OW25105   1.727   3.672  16.513 -0.4488 -0.1525  0.2964
 4548SOL    HW125106   1.678   3.594  16.539 -2.1044  0.2690 -1.5030
 4548SOL    HW225107   1.817   3.639  16.502 -0.0713  0.4752  1.5166
 4549SOL     OW25108   2.557   4.633   8.249 -0.4317  0.3319 -0.3244
 4549SOL    HW125109   2.593   4.596   8.168 -0.8235  1.2351 -0.9210
 4549SOL    HW225110   2.503   4.701   8.208  0.4332  0.6517 -0.9303
 4550SOL     OW25111   2.583   4.315   9.150  0.3625  0.2699  0.0552
 4550SOL    HW125112   2.523   4.257   9.102  0.4207 -1.1818  1.7272
 4550SOL    HW225113   2.639   4.248   9.189  1.9215  1.0612 -0.8595
 4551SOL     OW25114   2.625   3.682   1.951  0.0413  0.3100  0.4664
 4551SOL    HW125115   2.608   3.714   1.862 -2.6773  0.6228  1.1235
 4551SOL    HW225116   2.548   3.716   1.995 -1.6079 -2.0188 -0.6378
 4552SOL     OW25117   3.357   0.718   8.022 -0.2909 -0.0971 -0.6244
 4552SOL    HW125118   3.280   0.675   8.060 -0.7899  0.5284 -0.9255
 4552SOL    HW225119   3.406   0.715   8.104 -0.1809 -1.8617 -0.7522
 4553SOL     OW25120   3.602   1.027   2.318  0.2728  0.1021 -0.2302
 4553SOL    HW125121   3.616   1.120   2.338  0.5449  0.1364 -0.5699
 4553SOL    HW225122   3.638   0.974   2.389  0.8016  1.0478  0.2174
 4554SOL     OW25123   1.351   2.479  13.389  0.3954  0.1306  0.1328
 4554SOL    HW125124   1.374   2.404  13.444 -1.5914 -0.7403 -0.2280
 4554SOL    HW225125   1.410   2.474  13.314 -0.2413  1.6259 -0.4614
 4555SOL     OW25126   0.681   4.463   4.647  0.3060 -0.3712  0.1108
 4555SOL    HW125127   0.641   4.410   4.578 -0.2780 -0.0222  0.1778
 4555SOL    HW225128   0.642   4.427   4.726  2.3007  1.4586  1.9227
 4556SOL     OW25129   3.645   1.816   0.319  1.0058 -0.1340  0.7828
 4556SOL    HW125130   3.573   1.814   0.256  1.5866 -1.0183  0.1442
 4556SOL    HW225131   3.604   1.828   0.405 -0.3955 -0.7036  0.1846
 4557SOL     OW25132   4.696   0.282   6.725  0.3910  0.6714 -0.2305
 4557SOL    HW125133   0.028   0.217   6.764 -1.3970 -0.8873 -0.1573
 4557SOL    HW225134   4.620   0.271   6.782  0.8310 -0.9757  0.0344
 4558SOL     OW25135   1.281   4.453  12.330 -0.2597  0.2304 -0.9832
 4558SOL    HW125136   1.283   4.360  12.356 -0.7856  0.3918 -0.3803
 4558SOL    HW225137   1.361   4.465  12.279  0.5631  0.4200  0.3783
 4559SOL     OW25138   3.027   4.289   4.313 -0.3894  0.2544  0.1422
 4559SOL    HW125139   3.055   4.224   4.377 -0.6364  1.9081  1.9627
 4559SOL    HW225140   2.932   4.298   4.321 -0.4644 -1.7079  1.3136
 4560SOL     OW25141   1.391   4.379   6.687  0.8572 -0.1295  0.1467
 4560SOL    HW125142   1.359   4.367   6.598  1.0960 -1.1426  0.1872
 4560SOL    HW225143   1.482   4.406   6.676  1.0156 -0.0127  1.7377
 4561SOL     OW25144   0.352   3.041   7.557  0.5776  0.1409  0.0511
 4561SOL    HW125145   0.431   3.036   7.503  0.1185 -0.9494 -0.5051
 4561SOL    HW225146   0.380   2.989   7.633  1.2811 -0.7334 -0.8134
 4562SOL     OW25147   2.864   1.061   3.721  0.0819  0.0779  0.3565
 4562SOL    HW125148   2.942   1.008   3.739  0.5514  0.3886 -0.7417
 4562SOL    HW225149   2.904   1.143   3.693  0.2090  0.0547  0.4694
 4563SOL     OW25150   0.640   4.151   2.761 -0.1209 -0.0915  0.5079
 4563SOL    HW125151   0.612   4.061   2.746 -0.8528 -0.0932  1.8797
 4563SOL    HW225152   0.730   4.146   2.729  0.5615  0.2709  2.3518
 4564SOL     OW25153   1.381   0.999   3.597  0.5291 -0.1263  0.1751
 4564SOL    HW125154   1.351   1.026   3.684  0.7914  1.0403 -0.0871
 4564SOL    HW225155   1.378   0.904   3.595 -1.4144 -0.0639  0.6045
 4565SOL     OW25156   3.190   1.854   8.293 -0.1200 -0.2316  0.0821
 4565SOL    HW125157   3.205   1.882   8.202  0.5558 -0.1197  0.2268
 4565SOL    HW225158   3.259   1.901   8.340 -0.7860 -0.2747  1.0993
 4566SOL     OW25159   0.214   1.108   2.756  0.3738  0.1184  0.4659
 4566SOL    HW125160   0.139   1.161   2.785 -1.3500 -0.8104 -2.2464
 4566SOL    HW225161   0.203   1.085   2.664 -1.5185 -1.9421  1.2055
 4567SOL     OW25162   2.434   0.051  10.598 -0.3499 -0.5102 -0.8216
 4567SOL    HW125163   2.511   4.720  10.598  0.1606  0.1726  0.8077
 4567SOL    HW225164   2.471   0.139  10.595 -0.0890 -0.6040 -0.2630
 4568SOL     OW25165   1.702   1.244   0.579  0.4751  0.1658  0.3337
 4568SOL    HW125166   1.639   1.308   0.546 -1.5951 -1.4384  1.2069
 4568SOL    HW225167   1.783   1.253   0.529 -1.3843  0.5424 -2.6716
 4569SOL     OW25168   0.367   3.112   4.775 -0.1049  0.6189 -0.5619
 4569SOL    HW125169   0.438   3.076   4.828 -0.4766  1.3838  0.4539
 4569SOL    HW225170   0.396   3.107   4.684  1.7345 -1.8999  0.1631
 4570SOL     OW25171   0.118   4.516   3.873  0.0751  0.1356 -0.0927
 4570SOL    HW125172   0.079   4.432   3.899  0.5491 -0.2221 -0.5463
 4570SOL    HW225173   0.208   4.492   3.853  0.5059  1.0847  0.7049
 4571SOL     OW25174   3.951   0.592   7.541 -0.1569  0.7982  0.8632
 4571SOL    HW125175   3.979   0.520   7.597 -0.0188 -0.7140 -1.1144
 4571SOL    HW225176   3.967   0.557   7.453  1.3308 -0.5158  1.6446
 4572SOL     OW25177   3.697   3.971   4.564  0.0974  0.4165  0.4747
 4572SOL    HW125178   3.689   3.918   4.485 -0.6515  1.2304  0.0084
 4572SOL    HW225179   3.608   4.005   4.576 -1.5874 -3.3047 -1.4430
 4573SOL     OW25180   1.377   1.344  10.127 -0.2791  0.1131  0.0811
 4573SOL    HW125181   1.291   1.306  10.107 -0.7269  1.9193 -1.3961
 4573SOL    HW225182   1.350   1.399  10.200 -0.1158  1.3092 -0.7711
 4574SOL     OW25183   0.935   2.427   3.615  0.4521 -0.2475 -0.2899
 4574SOL    HW125184   0.939   2.516   3.650  1.8828 -0.4675  0.0960
 4574SOL    HW225185   0.891   2.380   3.686  0.2758  1.1515  0.5153
 4575SOL     OW25186   3.712   1.010  11.263  0.3422  0.1586  0.0524
 4575SOL    HW125187   3.786   0.981  11.211  0.6040 -1.0928  1.0954
 4575SOL    HW225188   3.640   0.997  11.201  0.0457  1.2324  0.1660
 4576SOL     OW25189   0.041   2.913   2.624  0.1732 -0.2506  0.2415
 4576SOL    HW125190   0.094   2.980   2.580  1.2249 -1.9709 -1.1408
 4576SOL    HW225191   0.109   2.857   2.663 -0.3278 -3.5224 -3.5456
 4577SOL     OW25192   0.677   3.636   7.958  0.0262 -0.5567  0.1708
 4577SOL    HW125193   0.702   3.545   7.943  0.5376 -0.3386 -0.3214
 4577SOL    HW225194   0.708   3.664   8.044  0.4732  0.7018 -0.3848
 4578SOL     OW25195   0.933   2.083   4.261 -0.3067 -0.0586  0.1532
 4578SOL    HW125196   0.845   2.052   4.283 -0.0034 -1.1252 -0.1550
 4578SOL    HW225197   0.921   2.139   4.184 -0.5224 -0.2927  0.0184
 4579SOL     OW25198   1.253   1.237   4.280 -0.2977 -0.2697  0.2577
 4579SOL    HW125199   1.237   1.248   4.374  2.5339  0.7639  0.6236
 4579SOL    HW225200   1.345   1.262   4.278 -0.1300 -0.6733  2.0815
 4580SOL     OW25201   1.285   3.027   9.086 -0.2603 -0.1531 -0.2568
 4580SOL    HW125202   1.316   2.978   9.162  1.5607 -1.6792 -1.9969
 4580SOL    HW225203   1.191   3.029   9.102  0.0154 -1.2358  1.5185
 4581SOL     OW25204   1.975   2.437  17.560 -0.8261  0.2010 -0.4734
 4581SOL    HW125205   2.061   2.421  17.519 -1.5695  0.1964 -2.0250
 4581SOL    HW225206   1.994   2.494  17.635 -3.5379 -1.4202  1.4424
 4582SOL     OW25207   1.366   0.811   8.076  0.4003 -0.3336 -0.1218
 4582SOL    HW125208   1.379   0.892   8.025  1.4626 -1.1629 -1.1749
 4582SOL    HW225209   1.291   0.846   8.124  1.5871 -0.7760  2.0025
 4583SOL     OW25210   3.512   0.561   5.652 -0.4684 -0.0171 -0.0989
 4583SOL    HW125211   3.490   0.577   5.744  0.2510  0.8392 -0.0839
 4583SOL    HW225212   3.577   0.491   5.651 -0.4380  0.0080  0.1082
 4584SOL     OW25213   4.567   3.264   2.274  0.3791  0.3181 -0.3686
 4584SOL    HW125214   4.614   3.278   2.191 -1.4649 -0.8317 -1.6054
 4584SOL    HW225215   4.508   3.190   2.262  0.5849 -0.5155  3.8524
 4585SOL     OW25216   4.320   2.889   5.900  0.0496 -0.2737 -0.1459
 4585SOL    HW125217   4.242   2.873   5.954 -0.1534  0.1921 -0.2963
 4585SOL    HW225218   4.381   2.822   5.930 -0.0816  1.2422  3.4693
 4586SOL     OW25219   3.147   2.388   0.104  0.3800 -0.0545  0.2015
 4586SOL    HW125220   3.213   2.455   0.120 -1.1876  1.6355 -0.3325
 4586SOL    HW225221   3.074   2.449   0.088 -0.8053 -0.9304  2.3761
 4587SOL     OW25222   0.962   0.840  15.955  0.3295  0.3649  0.2454
 4587SOL    HW125223   1.033   0.861  16.016 -0.0135  2.2669 -0.0128
 4587SOL    HW225224   1.017   0.814  15.880 -0.8035  0.9994 -0.8116
 4588SOL     OW25225   3.674   4.078  10.820  0.0630 -0.2110  0.1868
 4588SOL    HW125226   3.659   4.127  10.901  1.1553  2.0578 -1.0124
 4588SOL    HW225227   3.762   4.045  10.839  0.6094  0.3646 -1.3796
 4589SOL     OW25228   3.401   2.989   4.169 -0.0546  0.5944 -0.1691
 4589SOL    HW125229   3.483   2.972   4.123  1.0866  0.7984  1.8150
 4589SOL    HW225230   3.354   2.916   4.127 -0.1535  0.2022  0.6338
 4590SOL     OW25231   0.279   0.592   0.244  0.0273 -0.2728 -0.0338
 4590SOL    HW125232   0.225   0.536   0.189 -1.3578 -0.1427  1.2044
 4590SOL    HW225233   0.365   0.571   0.208  0.1131  0.3688 -0.2088
 4591SOL     OW25234   3.616   2.932   7.451 -0.2548  0.3035 -0.5195
 4591SOL    HW125235   3.531   2.889   7.458  0.4275 -1.2004 -1.6067
 4591SOL    HW225236   3.678   2.861   7.440  2.7337  2.9588 -0.7419
 4592SOL     OW25237   2.190   2.361   5.923 -0.4121 -0.3398  0.2676
 4592SOL    HW125238   2.129   2.369   5.997  0.0572  0.9438  0.5124
 4592SOL    HW225239   2.276   2.374   5.963  0.6910 -0.3263 -2.1087
 4593SOL     OW25240   4.110   4.586  11.086 -0.0688 -0.2140 -0.4532
 4593SOL    HW125241   4.169   4.511  11.088  0.2547  0.1267  2.3374
 4593SOL    HW225242   4.070   4.590  10.999  1.0402  2.7329 -0.8292
 4594SOL     OW25243   1.038   4.535   5.759  0.3608  0.4434 -0.4087
 4594SOL    HW125244   0.988   4.613   5.735  0.5867  1.0645  1.1263
 4594SOL    HW225245   0.970   4.468   5.747 -0.5617  1.4287 -0.7214
 4595SOL     OW25246   3.421   4.334   2.752  0.5129  0.3444 -0.2047
 4595SOL    HW125247   3.365   4.274   2.703 -2.5066 -0.1878  3.8988
 4595SOL    HW225248   3.416   4.401   2.684 -0.5492 -0.3325 -0.7875
 4596SOL     OW25249   2.635   0.397   7.208  0.1460  0.4862 -0.4483
 4596SOL    HW125250   2.598   0.478   7.241 -1.1267  0.0468 -0.7890
 4596SOL    HW225251   2.606   0.344   7.283  2.4812  0.3790  0.3947
 4597SOL     OW25252   3.690   0.094   2.759 -0.1270  0.0317  0.7447
 4597SOL    HW125253   3.708   0.036   2.684  1.2960  1.5247 -0.0686
 4597SOL    HW225254   3.780   0.114   2.785 -0.3257  0.4701  1.0988
 4598SOL     OW25255   3.537   1.166   3.662 -0.6738 -0.2900  0.0412
 4598SOL    HW125256   3.513   1.173   3.570  0.0965  2.0748  0.0218
 4598SOL    HW225257   3.620   1.212   3.660 -0.6304 -0.3866 -0.4562
 4599SOL     OW25258   4.154   2.352   7.164  0.2860  0.3064  0.1808
 4599SOL    HW125259   4.234   2.345   7.112  0.2605 -0.7860  0.2889
 4599SOL    HW225260   4.190   2.322   7.247 -1.7918 -0.1243  0.9123
 4600SOL     OW25261   2.884   2.639   3.644 -0.0048  0.6978 -0.2627
 4600SOL    HW125262   2.792   2.651   3.667  0.7997  3.9432  1.3506
 4600SOL    HW225263   2.893   2.721   3.594  0.5692  2.2614  2.4009
 4601SOL     OW25264   2.988   1.506  12.536 -0.2263 -0.2166  0.0228
 4601SOL    HW125265   2.932   1.459  12.598  0.5329 -3.1067 -1.4508
 4601SOL    HW225266   2.939   1.511  12.454  0.9804 -1.8704 -0.8161
 4602SOL     OW25267   4.149   2.116  17.251 -0.2282  0.7875  0.0997
 4602SOL    HW125268   4.102   2.036  17.227 -0.1410  0.2561  1.6605
 4602SOL    HW225269   4.237   2.095  17.222 -0.3221  0.2242  0.2077
 4603SOL     OW25270   2.868   2.304   7.030  0.5460 -0.4206 -0.3495
 4603SOL    HW125271   2.932   2.303   7.101  0.4973  0.6774 -0.2925
 4603SOL    HW225272   2.910   2.376   6.982  2.7420 -1.8105 -0.5573
 4604SOL     OW25273   0.305   2.914  17.027  0.0778 -0.0499 -0.5402
 4604SOL    HW125274   0.257   2.845  16.981 -0.4891 -0.9269  1.3783
 4604SOL    HW225275   0.233   2.937  17.085 -0.8370  1.6698 -2.3381
 4605SOL     OW25276   2.379   2.696   4.812  0.6057  0.1902 -0.2422
 4605SOL    HW125277   2.439   2.693   4.737  1.2723  0.3614  0.2850
 4605SOL    HW225278   2.388   2.790   4.831  1.3476  0.4012 -1.5965
 4606SOL     OW25279   2.635   2.086   6.875  0.4483  0.6262 -0.1015
 4606SOL    HW125280   2.650   1.999   6.912  0.5733  0.6315 -0.1394
 4606SOL    HW225281   2.720   2.106   6.836  1.1402 -2.4840 -0.1623
 4607SOL     OW25282   1.140   2.590   5.218  0.6249  0.2061  0.0675
 4607SOL    HW125283   1.160   2.522   5.153  1.0004 -0.1720  0.5778
 4607SOL    HW225284   1.171   2.543   5.296 -1.9235 -0.2545  0.8016
 4608SOL     OW25285   0.248   2.814   8.174 -0.1953  0.2849  0.1566
 4608SOL    HW125286   0.254   2.886   8.111  2.0946  0.1667  0.2159
 4608SOL    HW225287   0.326   2.758   8.168 -1.0961 -0.9456 -0.0080
 4609SOL     OW25288   4.060   2.099  10.135  0.0314 -0.0499  0.1678
 4609SOL    HW125289   4.049   2.014  10.093 -3.0264  0.6019 -0.2960
 4609SOL    HW225290   4.031   2.074  10.223  0.0814 -0.6047  0.0229
 4610SOL     OW25291   2.825   2.764   6.615 -0.1942  0.0633  0.1383
 4610SOL    HW125292   2.811   2.752   6.521 -2.2658 -1.8007  0.6835
 4610SOL    HW225293   2.850   2.856   6.629 -0.9209  0.1119  1.1460
 4611SOL     OW25294   3.451   0.653   5.882  0.1298 -0.1885  0.0348
 4611SOL    HW125295   3.517   0.707   5.925 -0.1570 -1.9008  2.6683
 4611SOL    HW225296   3.412   0.723   5.829  1.1188  0.3032 -0.0331
 4612SOL     OW25297   2.943   2.042   2.310  0.2271  0.3640 -0.2294
 4612SOL    HW125298   2.849   2.022   2.314  0.2703  0.4350  0.8960
 4612SOL    HW225299   2.968   2.014   2.397 -0.7740 -0.9530 -0.3610
 4613SOL     OW25300   0.689   1.523  13.777 -0.1861 -0.0579  0.1321
 4613SOL    HW125301   0.760   1.563  13.828 -0.5496 -0.9626  1.3534
 4613SOL    HW225302   0.621   1.591  13.775 -1.1284 -0.9780  1.3457
 4614SOL     OW25303   2.681   3.404   6.204  1.0886  1.0765  0.0036
 4614SOL    HW125304   2.627   3.430   6.279  1.1285 -0.8389  0.6989
 4614SOL    HW225305   2.689   3.485   6.153  0.5379  2.6427  2.3760
 4615SOL     OW25306   3.025   2.642   7.972 -0.5286 -0.0519  0.6736
 4615SOL    HW125307   3.023   2.626   8.066  0.0778 -2.5551  0.2606
 4615SOL    HW225308   3.052   2.734   7.974 -1.3386  0.2031 -0.0025
 4616SOL     OW25309   0.841   4.700   5.610 -0.3789  0.2457  0.4068
 4616SOL    HW125310   0.803   0.027   5.680 -1.0328 -1.7323  1.5547
 4616SOL    HW225311   0.783   0.001   5.538 -1.1889 -0.6123  0.7309
 4617SOL     OW25312   1.502   0.952   8.534  0.2579 -0.3239  0.3032
 4617SOL    HW125313   1.575   1.011   8.554  0.0948 -0.1008  0.2406
 4617SOL    HW225314   1.514   0.930   8.441 -3.6449 -1.4216  0.0555
 4618SOL     OW25315   1.220   3.376   7.730 -0.4633  0.2015  0.2057
 4618SOL    HW125316   1.156   3.314   7.694 -0.9953  1.8734 -1.7539
 4618SOL    HW225317   1.158   3.446   7.753  1.0883  1.6951 -0.1587
 4619SOL     OW25318   4.174   4.129   6.231 -0.2831  0.0286  0.2592
 4619SOL    HW125319   4.192   4.038   6.208  0.2782  0.5394 -1.2814
 4619SOL    HW225320   4.260   4.171   6.232  0.0731 -0.7106  1.1364
 4620SOL     OW25321   3.579   0.380   3.146 -0.4141 -0.4698 -0.0814
 4620SOL    HW125322   3.496   0.334   3.138 -0.7686  0.3272 -1.0083
 4620SOL    HW225323   3.649   0.320   3.122 -1.5338 -0.6393 -2.8578
 4621SOL     OW25324   3.985   2.160   8.232  0.7992  0.6244  0.4294
 4621SOL    HW125325   3.962   2.219   8.160  0.2668 -0.0408  0.0578
 4621SOL    HW225326   4.052   2.209   8.279  1.6516 -0.1630  0.0215
 4622SOL     OW25327   3.202   1.013   8.307 -0.0426 -0.1214 -0.4300
 4622SOL    HW125328   3.181   0.983   8.395 -1.7774 -0.4151 -0.9393
 4622SOL    HW225329   3.181   0.935   8.255  0.1548  0.3797 -1.2748
 4623SOL     OW25330   1.656   4.514   2.183 -0.2287  0.6527  0.0545
 4623SOL    HW125331   1.565   4.513   2.152  0.0344  1.7658 -0.7583
 4623SOL    HW225332   1.675   4.430   2.141 -1.4802 -0.3800  1.5046
 4624SOL     OW25333   1.460   1.864   7.806 -0.1053  0.2468 -0.1005
 4624SOL    HW125334   1.500   1.899   7.727 -0.0976 -1.2446 -0.7498
 4624SOL    HW225335   1.384   1.819   7.768  0.8493 -1.7434  0.3288
 4625SOL     OW25336   3.889   4.261   2.934 -0.0988 -0.1480  0.2642
 4625SOL    HW125337   3.925   4.273   3.022  0.7482 -0.7807  0.0068
 4625SOL    HW225338   3.803   4.302   2.932 -0.6105 -1.2541 -0.0878
 4626SOL     OW25339   2.562   3.500   4.313 -0.1620  0.4534  0.2841
 4626SOL    HW125340   2.600   3.585   4.334 -0.2177  0.3548  0.7925
 4626SOL    HW225341   2.488   3.503   4.374 -1.5213 -1.6371 -1.2854
 4627SOL     OW25342   2.983   2.458   7.490  0.6708  0.9159 -0.4054
 4627SOL    HW125343   2.956   2.484   7.578 -2.3280  0.2537 -1.1422
 4627SOL    HW225344   2.905   2.474   7.437 -1.1021  0.4493  2.0639
 4628SOL     OW25345   2.723   1.253   8.597 -0.1935  0.4076  0.1331
 4628SOL    HW125346   2.654   1.193   8.571 -1.5256  2.2419 -0.6020
 4628SOL    HW225347   2.680   1.329   8.558 -0.9627 -0.2872 -0.3743
 4629SOL     OW25348   0.821   0.640  11.860 -0.0865 -0.8016  0.0232
 4629SOL    HW125349   0.781   0.716  11.818  1.6834  1.5167  2.6178
 4629SOL    HW225350   0.767   0.567  11.828 -3.3838  0.6399  2.2717
 4630SOL     OW25351   2.595   2.171   6.138 -0.1534  0.0079 -0.0504
 4630SOL    HW125352   2.549   2.185   6.056 -0.2670 -1.2728 -0.2168
 4630SOL    HW225353   2.530   2.204   6.199 -0.9358 -0.3681 -0.6860
 4631SOL     OW25354   3.555   2.409   9.256  0.0261 -0.2317  0.0101
 4631SOL    HW125355   3.607   2.483   9.288  0.2777 -1.0481  1.4620
 4631SOL    HW225356   3.485   2.422   9.320  1.1189  2.4001  0.6925
 4632SOL     OW25357   0.490   1.077  16.280 -0.2750  0.5451 -0.6884
 4632SOL    HW125358   0.412   1.023  16.292  1.1332 -1.1982  0.7323
 4632SOL    HW225359   0.492   1.094  16.186 -2.9384  2.2159 -0.4405
 4633SOL     OW25360   2.705   0.330   3.176  0.2235 -0.4443 -0.0621
 4633SOL    HW125361   2.704   0.246   3.130 -0.3077  0.2415 -1.3005
 4633SOL    HW225362   2.733   0.307   3.265 -2.8895 -1.4162  0.6413
 4634SOL     OW25363   2.196   0.561  10.127 -0.5258  0.5999  0.7033
 4634SOL    HW125364   2.270   0.517  10.086 -0.0012  1.5102  0.6717
 4634SOL    HW225365   2.155   0.624  10.067 -0.8823 -1.5844 -1.3559
 4635SOL     OW25366   2.601   2.459   5.231 -0.1061 -0.5972 -0.7557
 4635SOL    HW125367   2.626   2.439   5.321 -0.8839 -0.5326 -0.5179
 4635SOL    HW225368   2.632   2.547   5.210  2.5460 -1.3905 -0.1580
 4636SOL     OW25369   0.318   3.658   7.402  0.0098  0.7898 -0.4933
 4636SOL    HW125370   0.224   3.651   7.383 -0.1362 -0.0714  0.5883
 4636SOL    HW225371   0.324   3.753   7.388  0.4241  0.4197 -2.9608
 4637SOL     OW25372   2.098   3.483   5.953 -0.4280  0.6365 -0.0327
 4637SOL    HW125373   2.038   3.435   5.897 -2.0388  1.7162  0.7501
 4637SOL    HW225374   2.043   3.495   6.030 -0.8288 -0.6793 -0.1129
 4638SOL     OW25375   4.337   4.584   8.887  0.7867 -0.5155 -0.3422
 4638SOL    HW125376   4.369   4.501   8.921  2.8299  0.9640  1.3397
 4638SOL    HW225377   4.300   4.632   8.961 -2.5932 -3.4441 -0.1282
 4639SOL     OW25378   0.354   0.293   2.579  0.2314  0.4909  0.4318
 4639SOL    HW125379   0.381   0.375   2.538  1.8409  0.3088  1.1495
 4639SOL    HW225380   0.404   0.235   2.523  0.0338  1.5989 -0.8987
 4640SOL     OW25381   1.152   1.003   8.389 -0.2447 -0.0294 -0.0137
 4640SOL    HW125382   1.245   1.002   8.368 -0.4508 -3.7566 -0.7989
 4640SOL    HW225383   1.143   0.909   8.404 -0.6951 -0.1263 -0.8847
 4641SOL     OW25384   2.876   3.037   2.536  0.1314  0.1365 -0.4073
 4641SOL    HW125385   2.818   3.042   2.460 -0.3249 -0.8673 -0.1170
 4641SOL    HW225386   2.937   2.964   2.525  1.6237  1.5655 -1.7100
 4642SOL     OW25387   0.169   3.332   4.415 -0.2811 -0.6677  0.0088
 4642SOL    HW125388   0.178   3.427   4.429 -2.9906 -0.6974  1.9712
 4642SOL    HW225389   0.194   3.321   4.324 -3.5217  1.9706 -1.2120
 4643SOL     OW25390   2.466   1.917   3.367 -0.7017 -0.5697  0.0047
 4643SOL    HW125391   2.459   1.984   3.435 -0.0970 -0.1520 -0.3432
 4643SOL    HW225392   2.560   1.907   3.359 -0.6411  0.0297 -0.0095
 4644SOL     OW25393   0.741   1.840   8.657  0.0246  0.5929 -0.0153
 4644SOL    HW125394   0.724   1.753   8.692  0.2425  0.2288 -0.8210
 4644SOL    HW225395   0.781   1.884   8.733  2.1906 -1.7387  0.1782
 4645SOL     OW25396   0.679   1.244   8.736  0.1007  0.2262 -0.0270
 4645SOL    HW125397   0.597   1.271   8.777  1.1319  0.5516  1.8331
 4645SOL    HW225398   0.656   1.271   8.647 -0.1472 -2.0471 -0.6638
 4646SOL     OW25399   3.233   2.399  12.766 -0.1737  0.1497 -0.5037
 4646SOL    HW125400   3.184   2.455  12.706  0.3699 -0.6408 -1.6881
 4646SOL    HW225401   3.303   2.460  12.789  1.9179 -2.5231  0.2532
 4647SOL     OW25402   1.869   2.924  14.231  0.4098 -0.2072 -0.7181
 4647SOL    HW125403   1.886   2.879  14.314 -0.6129  0.9696  0.1235
 4647SOL    HW225404   1.848   3.007  14.274 -0.8187 -0.2676 -1.2142
 4648SOL     OW25405   0.452   4.653   3.068  1.0760 -0.3506  0.2426
 4648SOL    HW125406   0.421   4.569   3.101  1.0017 -1.7145 -3.2274
 4648SOL    HW225407   0.535   4.656   3.116  2.1193 -2.0009 -1.4493
 4649SOL     OW25408   2.229   3.463   4.029 -0.2392  0.6498  0.6209
 4649SOL    HW125409   2.181   3.381   4.027  0.6244  0.1548  0.3373
 4649SOL    HW225410   2.257   3.464   3.938 -0.3491 -0.6440  0.5736
 4650SOL     OW25411   0.854   2.941   3.660  0.0020 -0.2054 -0.2204
 4650SOL    HW125412   0.887   3.008   3.599 -0.8913 -0.6426 -1.1962
 4650SOL    HW225413   0.769   2.926   3.618 -0.7415  0.0038  1.2323
 4651SOL     OW25414   3.083   1.972   0.098 -0.1081  0.0313 -0.5855
 4651SOL    HW125415   3.040   2.037   0.155 -0.0327 -0.9410  0.5838
 4651SOL    HW225416   3.096   2.028   0.021  5.3825 -0.6396 -0.1291
 4652SOL     OW25417   3.786   2.265   0.409 -0.0532  0.2848 -0.0996
 4652SOL    HW125418   3.700   2.245   0.373 -0.1566 -0.5341  0.5864
 4652SOL    HW225419   3.813   2.175   0.427 -2.4542 -0.0269  1.9824
 4653SOL     OW25420   3.906   2.790  16.448 -0.1628  0.6027 -0.1201
 4653SOL    HW125421   3.906   2.713  16.392 -0.4826  0.9698 -0.6210
 4653SOL    HW225422   3.999   2.811  16.445 -0.0564  0.9346  4.6558
 4654SOL     OW25423   3.776   3.225   5.375 -0.0604  0.3657 -0.7882
 4654SOL    HW125424   3.722   3.295   5.411 -1.0442 -1.2281  0.8365
 4654SOL    HW225425   3.811   3.273   5.300 -0.5137  2.8719  0.6212
 4655SOL     OW25426   2.418   1.292   8.293 -0.5170  0.1832 -0.4927
 4655SOL    HW125427   2.463   1.374   8.314 -0.6853  0.3476 -0.7737
 4655SOL    HW225428   2.458   1.232   8.356 -1.5783  1.7256  1.6676
 4656SOL     OW25429   1.232   4.549   4.105 -0.5929  0.2193  0.8802
 4656SOL    HW125430   1.211   4.631   4.149 -3.5309 -0.5417  0.9187
 4656SOL    HW225431   1.155   4.522   4.055 -0.3273 -0.7152  0.9659
 4657SOL     OW25432   1.605   2.624  13.479 -0.1971 -0.5541  0.6009
 4657SOL    HW125433   1.531   2.655  13.427  1.4660 -1.1600 -2.0812
 4657SOL    HW225434   1.555   2.568  13.539 -1.7597  0.6977  0.4739
 4658SOL     OW25435   0.815   2.503   1.307  0.3840  0.4296 -0.0934
 4658SOL    HW125436   0.897   2.505   1.257 -0.3709  1.0245 -1.3121
 4658SOL    HW225437   0.752   2.529   1.240 -0.4091 -1.5856 -0.1509
 4659SOL     OW25438   4.071   3.908   4.243 -0.1454 -0.0357 -0.0063
 4659SOL    HW125439   4.160   3.939   4.223  0.3580 -1.0922  0.6009
 4659SOL    HW225440   4.078   3.835   4.304  1.0876 -0.4520 -0.6505
 4660SOL     OW25441   3.250   0.043   0.587  0.0367  0.1471 -0.4395
 4660SOL    HW125442   3.228   4.676   0.583 -0.4020  0.1517  2.1167
 4660SOL    HW225443   3.328   0.047   0.643 -0.0070  0.9833 -0.4313
 4661SOL     OW25444   4.671   1.929   2.637  0.4419  0.8778  0.0099
 4661SOL    HW125445   4.614   2.005   2.649 -0.2591  0.3837 -0.2173
 4661SOL    HW225446   4.686   1.938   2.543  0.0277  1.8664  0.0340
 4662SOL     OW25447   3.872   3.163  12.190  0.1492  0.2752 -0.3516
 4662SOL    HW125448   3.848   3.088  12.136 -0.7774  0.8558 -0.7630
 4662SOL    HW225449   3.786   3.203  12.207  0.3301  0.2350  0.6522
 4663SOL     OW25450   2.676   2.474   9.016 -0.3009  0.0315  0.4798
 4663SOL    HW125451   2.650   2.541   9.080  0.2325  1.1249 -0.4580
 4663SOL    HW225452   2.613   2.405   9.036 -0.7873  0.0276 -1.0606
 4664SOL     OW25453   4.312   2.575  10.786  0.2618 -0.2566  0.5138
 4664SOL    HW125454   4.271   2.660  10.801 -1.3060 -0.8790 -0.2155
 4664SOL    HW225455   4.263   2.540  10.712 -0.9701 -1.0001  1.6673
 4665SOL     OW25456   0.532   1.183   4.987  0.8320 -0.1529  0.1306
 4665SOL    HW125457   0.450   1.201   4.941  0.3873 -2.8444 -0.0974
 4665SOL    HW225458   0.504   1.129   5.060  2.2342  0.8789  1.4334
 4666SOL     OW25459   1.312   1.827   4.662 -0.4738 -0.1633  0.1166
 4666SOL    HW125460   1.322   1.839   4.756 -1.2873 -3.4801  0.6352
 4666SOL    HW225461   1.375   1.758   4.642  2.1387  2.3076 -0.1905
 4667SOL     OW25462   3.874   3.328   8.749  0.8141  0.4503  0.3345
 4667SOL    HW125463   3.927   3.403   8.775  0.6442  1.4483 -2.2199
 4667SOL    HW225464   3.875   3.335   8.654  0.5713 -1.5675  0.1673
 4668SOL     OW25465   2.968   0.487   2.001 -0.0434 -0.1129  0.3451
 4668SOL    HW125466   3.045   0.485   1.943  0.7916  0.3965  1.4326
 4668SOL    HW225467   2.903   0.510   1.935  1.2464 -0.3132 -0.9984
 4669SOL     OW25468   1.602   4.134   5.192 -0.0505 -0.0426  0.4483
 4669SOL    HW125469   1.634   4.086   5.268 -1.9203 -0.8699  0.7115
 4669SOL    HW225470   1.509   4.135   5.210 -0.2022  1.1869 -0.3774
 4670SOL     OW25471   4.013   4.693   5.328 -0.2473 -0.0893  0.4404
 4670SOL    HW125472   4.011   4.600   5.307  0.9581  0.1033 -0.5351
 4670SOL    HW225473   4.109   4.697   5.335 -0.3697  4.2445 -0.0507
 4671SOL     OW25474   2.406   0.149   6.368 -0.3193  0.0691 -0.1763
 4671SOL    HW125475   2.381   0.059   6.387 -0.6226  0.3009  0.5359
 4671SOL    HW225476   2.500   0.140   6.382 -0.1885 -2.0750 -2.3975
 4672SOL     OW25477   0.837   1.006   0.799 -0.2603 -0.2739 -0.0914
 4672SOL    HW125478   0.783   0.997   0.721  2.7849 -0.8579 -2.1602
 4672SOL    HW225479   0.919   1.044   0.766 -0.3047 -1.4344 -1.4916
 4673SOL     OW25480   4.562   1.837   6.392 -0.1857  0.1984  0.5330
 4673SOL    HW125481   4.644   1.850   6.438  1.6678 -0.3902 -2.5765
 4673SOL    HW225482   4.561   1.742   6.398  1.6430 -0.0215 -2.3737
 4674SOL     OW25483   2.348   2.408   5.654  0.3809  0.5266 -0.1920
 4674SOL    HW125484   2.279   2.342   5.643  1.0242 -0.1439 -0.1962
 4674SOL    HW225485   2.332   2.443   5.742 -1.1417  2.2369 -1.1573
 4675SOL     OW25486   0.997   2.800   5.546 -0.0377  0.9570  0.1064
 4675SOL    HW125487   0.961   2.851   5.619 -0.3158  0.5746  0.2393
 4675SOL    HW225488   1.090   2.811   5.564  0.6657 -1.3374 -2.1477
 4676SOL     OW25489   4.549   4.415   2.085 -0.0999 -0.2163  0.2240
 4676SOL    HW125490   4.486   4.465   2.137  0.0991  0.4737 -0.1980
 4676SOL    HW225491   4.495   4.379   2.015 -2.1485  0.5693  1.4126
 4677SOL     OW25492   1.564   4.078   2.289  0.4253  0.1637 -0.6119
 4677SOL    HW125493   1.540   4.170   2.279  0.8925  0.2176 -1.3063
 4677SOL    HW225494   1.537   4.053   2.377  1.1673  1.7842  0.0626
 4678SOL     OW25495   0.863   3.081   5.075 -0.1177  0.1310 -0.6181
 4678SOL    HW125496   0.917   3.115   5.147  0.8638 -1.4024 -0.6542
 4678SOL    HW225497   0.791   3.051   5.131  0.7041 -0.3598  0.1630
 4679SOL     OW25498   2.390   2.746   6.211  0.0489  0.2271  0.2550
 4679SOL    HW125499   2.305   2.757   6.169  0.2340 -1.7086 -0.6359
 4679SOL    HW225500   2.447   2.761   6.135 -0.8408 -1.5622 -0.7565
 4680SOL     OW25501   3.950   3.605   2.199  0.0769  0.2000 -0.7784
 4680SOL    HW125502   4.028   3.623   2.252 -0.2620 -2.2466  0.5919
 4680SOL    HW225503   3.961   3.651   2.116 -0.1190  0.4171 -0.6825
 4681SOL     OW25504   1.808   1.705  10.796  0.2640  0.0144  0.3084
 4681SOL    HW125505   1.801   1.750  10.880  2.3918  1.4939 -0.3002
 4681SOL    HW225506   1.806   1.779  10.734 -1.9604  0.3413  0.7604
 4682SOL     OW25507   1.533   2.505   3.081  0.6412 -0.4772 -0.5932
 4682SOL    HW125508   1.470   2.440   3.052  1.8296 -0.6121 -2.8934
 4682SOL    HW225509   1.617   2.468   3.052  1.4523  0.4826  0.5337
 4683SOL     OW25510   4.652   2.566   2.962  0.2205  0.4342 -0.5170
 4683SOL    HW125511   4.604   2.645   2.988  0.2398  0.2550  0.0626
 4683SOL    HW225512   4.689   2.618   2.891  1.8224 -0.6857 -0.4920
 4684SOL     OW25513   1.259   2.303   8.309  0.3773 -0.7611 -0.3250
 4684SOL    HW125514   1.206   2.231   8.341 -0.0969  0.2575  1.1700
 4684SOL    HW225515   1.333   2.263   8.263 -0.0843 -1.7943 -0.1421
 4685SOL     OW25516   3.745   2.295   7.848  0.5049 -0.5976  0.0541
 4685SOL    HW125517   3.752   2.322   7.939 -2.3523 -0.1014  0.1218
 4685SOL    HW225518   3.786   2.209   7.845  1.0359 -0.3797  1.2335
 4686SOL     OW25519   3.556   1.859   0.584  0.3892 -0.1362 -0.1674
 4686SOL    HW125520   3.597   1.792   0.639 -0.4425  0.5834  1.3057
 4686SOL    HW225521   3.504   1.911   0.645 -1.3363 -1.8336 -0.2009
 4687SOL     OW25522   3.113   1.310  12.348  0.4084  0.2525  0.2013
 4687SOL    HW125523   3.111   1.216  12.332 -2.1392  0.2632  0.4837
 4687SOL    HW225524   3.125   1.314  12.443  2.0382 -0.4195  0.0237
 4688SOL     OW25525   4.247   4.550  17.574  0.3759  0.6143 -0.3678
 4688SOL    HW125526   4.309   4.480  17.593 -2.1201 -1.6619 -0.6317
 4688SOL    HW225527   4.282   4.606  17.644  1.9626 -0.8217 -0.0105
 4689SOL     OW25528   1.419   3.347  12.138 -0.2252  0.3142  0.5191
 4689SOL    HW125529   1.337   3.313  12.103  0.1056 -0.6564  0.6663
 4689SOL    HW225530   1.469   3.338  12.057  1.4629  0.3766  1.5475
 4690SOL     OW25531   0.757   0.499   4.872 -0.0002  0.4497  0.0489
 4690SOL    HW125532   0.725   0.457   4.792 -2.1314  0.5204  0.8560
 4690SOL    HW225533   0.811   0.434   4.918 -3.0099 -0.2647  2.5792
 4691SOL     OW25534   1.417   1.210   8.332 -0.5510  0.0647  0.3804
 4691SOL    HW125535   1.482   1.265   8.289  1.2409 -1.7175  0.8287
 4691SOL    HW225536   1.344   1.272   8.343 -1.1738 -0.3057 -1.5782
 4692SOL     OW25537   3.675   1.734   2.532  0.1840  0.1881 -0.4942
 4692SOL    HW125538   3.764   1.703   2.515  0.8553  0.8226  1.8380
 4692SOL    HW225539   3.665   1.817   2.486  0.7279  0.3777 -0.2597
 4693SOL     OW25540   2.201   3.805   4.602  0.2598  0.3549 -0.5948
 4693SOL    HW125541   2.117   3.817   4.558 -0.2445 -3.3024 -0.6470
 4693SOL    HW225542   2.243   3.890   4.593  0.0016  0.5591  0.1267
 4694SOL     OW25543   2.972   4.108   5.402 -0.3861  0.1304  0.2907
 4694SOL    HW125544   2.994   4.022   5.366 -0.7059  0.0895  0.1866
 4694SOL    HW225545   2.942   4.160   5.328  1.9922  1.8748  0.5504
 4695SOL     OW25546   3.452   2.734   2.228  0.0982  0.1910 -0.1887
 4695SOL    HW125547   3.472   2.643   2.250  1.6544  0.4301 -0.5713
 4695SOL    HW225548   3.488   2.743   2.139 -1.1722  0.5776 -0.6686
 4696SOL     OW25549   1.234   3.333  10.920 -0.5921 -0.4346 -0.1883
 4696SOL    HW125550   1.285   3.360  10.996  0.3776 -2.3529 -0.1572
 4696SOL    HW225551   1.285   3.259  10.888 -0.3677  0.3700 -1.7154
 4697SOL     OW25552   1.729   4.333   1.981  0.2592  0.7362  0.4463
 4697SOL    HW125553   1.752   4.248   1.941  0.0964  0.1479  1.6136
 4697SOL    HW225554   1.728   4.389   1.903 -2.2272  3.4054  2.4456
 4698SOL     OW25555   4.692   0.683   4.221  0.1564  0.3112 -0.1407
 4698SOL    HW125556   4.680   0.692   4.126 -1.9261  0.4892  0.1291
 4698SOL    HW225557   4.617   0.623   4.231  0.3049  0.1699  0.1144
 4699SOL     OW25558   2.926   0.535   7.297 -0.0745 -0.3759  0.6420
 4699SOL    HW125559   3.007   0.522   7.248  0.2286  1.2427  0.7281
 4699SOL    HW225560   2.880   0.459   7.263  0.4941  0.2121 -1.4057
 4700SOL     OW25561   4.348   2.569   9.847  0.4837  0.0639  0.1433
 4700SOL    HW125562   4.292   2.634   9.890  1.2163 -0.0661  1.3003
 4700SOL    HW225563   4.435   2.579   9.886  1.8762  0.3814 -3.1098
 4701SOL     OW25564   4.150   1.277   4.008  0.7283 -0.3994  0.4484
 4701SOL    HW125565   4.205   1.295   3.932 -0.7155 -1.1500 -0.7669
 4701SOL    HW225566   4.183   1.194   4.042 -1.6120 -1.3939  0.3000
 4702SOL     OW25567   0.168   0.104   1.910  0.3266 -0.3230  0.3734
 4702SOL    HW125568   0.094   0.075   1.963  0.5630 -0.6647  0.5142
 4702SOL    HW225569   0.123   0.125   1.828  0.2125 -0.0756  0.4990
 4703SOL     OW25570   1.423   4.293   8.965 -0.1410 -0.1974  0.4824
 4703SOL    HW125571   1.503   4.279   8.915 -1.5688 -1.7018 -1.3824
 4703SOL    HW225572   1.367   4.355   8.919 -2.3829 -1.9754  0.7967
 4704SOL     OW25573   4.313   0.280   8.718  0.1242  0.1563 -0.0238
 4704SOL    HW125574   4.282   0.338   8.649 -0.6807 -0.9174 -0.5657
 4704SOL    HW225575   4.337   0.210   8.658  1.2963  1.3622 -0.9637
 4705SOL     OW25576   0.257   2.524   8.917 -0.4874 -0.7240  0.2403
 4705SOL    HW125577   0.242   2.597   8.857 -0.1204  0.5174  1.6586
 4705SOL    HW225578   0.345   2.492   8.900 -1.4129 -2.6709 -1.0393
 4706SOL     OW25579   2.126   1.511   5.935 -0.3360  0.5830 -0.1293
 4706SOL    HW125580   2.175   1.505   5.853 -2.1811  1.8177 -1.3182
 4706SOL    HW225581   2.201   1.503   5.994 -0.5642  1.6869  0.3001
 4707SOL     OW25582   4.468   2.484  10.489 -0.3291  0.0098  0.5824
 4707SOL    HW125583   4.548   2.470  10.540  0.7324 -0.5206 -1.2074
 4707SOL    HW225584   4.507   2.491  10.402  4.2284  0.1246  2.6565
 4708SOL     OW25585   3.005   4.537   9.934 -0.5023  0.0938  0.0708
 4708SOL    HW125586   3.076   4.595   9.906 -0.0983 -0.5423 -0.2077
 4708SOL    HW225587   2.936   4.550   9.870  0.0621 -1.9906 -0.9637
 4709SOL     OW25588   0.066   1.425  14.068 -0.2066  0.0900  0.2600
 4709SOL    HW125589   0.005   1.436  14.142  0.6747 -0.1921  1.0300
 4709SOL    HW225590   0.097   1.335  14.073  1.8003  0.6673 -2.3645
 4710SOL     OW25591   3.878   2.379   5.758 -0.3353  0.5830 -0.2237
 4710SOL    HW125592   3.927   2.382   5.839  0.3923  0.0184 -0.6437
 4710SOL    HW225593   3.944   2.375   5.689 -0.4807  2.2001 -0.4526
 4711SOL     OW25594   3.926   1.998   9.257  0.2024  0.2050  0.2270
 4711SOL    HW125595   4.017   1.997   9.229 -0.1535  0.2329 -0.8999
 4711SOL    HW225596   3.944   1.980   9.350 -0.6542  0.5013  0.4509
 4712SOL     OW25597   2.150   0.622   6.579 -0.5098 -0.3943  0.5528
 4712SOL    HW125598   2.194   0.554   6.630  0.6146 -1.7988 -2.2683
 4712SOL    HW225599   2.058   0.601   6.595 -0.8968  0.7109 -0.2368
 4713SOL     OW25600   0.674   4.351   8.721 -0.3067  0.2784  0.4082
 4713SOL    HW125601   0.672   4.446   8.732 -0.8878  0.0959  1.7821
 4713SOL    HW225602   0.653   4.317   8.807 -0.7836  1.8929  0.9349
 4714SOL     OW25603   2.309   1.130  14.401 -0.2738 -0.6861 -0.0815
 4714SOL    HW125604   2.300   1.185  14.323  0.6623 -1.3266 -0.6413
 4714SOL    HW225605   2.402   1.111  14.393 -0.0390  0.8263 -1.0432
 4715SOL     OW25606   2.916   4.281   7.131 -0.6740 -0.1582 -0.1263
 4715SOL    HW125607   2.860   4.205   7.114 -1.0975  0.1702 -0.2228
 4715SOL    HW225608   2.957   4.253   7.212 -0.9989  0.4975  0.2711
 4716SOL     OW25609   2.372   2.019   6.366 -0.0898 -0.0394  0.0981
 4716SOL    HW125610   2.373   2.107   6.329  1.7814 -0.6408 -1.2472
 4716SOL    HW225611   2.379   2.037   6.460 -3.0111  2.1890 -0.0948
 4717SOL     OW25612   3.635   3.276   0.248  0.2101  0.3481 -0.0763
 4717SOL    HW125613   3.711   3.275   0.190  0.5518 -0.6222  0.3993
 4717SOL    HW225614   3.661   3.219   0.320 -0.5142  1.0608  0.7419
 4718SOL     OW25615   0.408   3.923   7.553 -0.3276  0.3934 -0.1388
 4718SOL    HW125616   0.346   3.920   7.626 -2.0280 -1.0251 -1.6430
 4718SOL    HW225617   0.456   3.850   7.594 -0.8602 -0.3237 -0.7974
 4719SOL     OW25618   0.102   2.119   4.866  0.7456 -0.5937 -0.0247
 4719SOL    HW125619   0.124   2.206   4.899  0.3105  0.1073 -1.5972
 4719SOL    HW225620   0.176   2.094   4.812 -0.8264  1.1440 -3.0118
 4720SOL     OW25621   1.360   0.768  15.536  0.3030 -0.3002 -0.0203
 4720SOL    HW125622   1.380   0.822  15.613  3.8078  0.4712 -1.4661
 4720SOL    HW225623   1.311   0.700  15.583  0.5633  0.3229  1.1608
 4721SOL     OW25624   3.501   2.167   8.020  0.1689 -0.2999  0.0850
 4721SOL    HW125625   3.494   2.243   7.962  0.8338 -0.2339  0.0883
 4721SOL    HW225626   3.552   2.211   8.088  1.0123 -0.5314 -0.3920
 4722SOL     OW25627   1.475   2.876   5.060  0.0661  0.0032  0.3311
 4722SOL    HW125628   1.543   2.943   5.057  0.1279 -0.0865 -0.2687
 4722SOL    HW225629   1.410   2.911   5.121 -1.3457 -0.0862 -1.1210
 4723SOL     OW25630   4.526   1.939   5.261 -0.3411  0.4744 -1.1332
 4723SOL    HW125631   4.559   1.851   5.278  1.6075  1.1002 -1.6613
 4723SOL    HW225632   4.607   1.979   5.229 -0.7909 -1.4969 -4.6546
 4724SOL     OW25633   0.752   2.269   6.750  0.4610 -0.7864  0.3045
 4724SOL    HW125634   0.761   2.289   6.844  1.2650  1.1337 -0.1958
 4724SOL    HW225635   0.764   2.175   6.763  1.5113 -0.7623 -0.5476
 4725SOL     OW25636   3.138   0.850   7.882 -0.2528  0.5814  0.9652
 4725SOL    HW125637   3.193   0.861   7.804 -0.5411 -1.2611  0.5027
 4725SOL    HW225638   3.158   0.758   7.897  1.4954  0.9212  0.6691
 4726SOL     OW25639   0.564   2.340   1.706 -0.0571  0.0456 -0.9094
 4726SOL    HW125640   0.469   2.339   1.704  0.0150 -2.1334 -3.3685
 4726SOL    HW225641   0.581   2.258   1.751  0.9035  0.0622 -1.2389
 4727SOL     OW25642   3.418   2.117  10.338  0.3492  0.0769 -0.0877
 4727SOL    HW125643   3.514   2.112  10.331  0.1951 -2.0938 -0.6401
 4727SOL    HW225644   3.406   2.096  10.431  0.0213  1.6015  0.2148
 4728SOL     OW25645   2.882   3.615   3.116  0.0444  0.0228 -0.4961
 4728SOL    HW125646   2.809   3.644   3.062  0.2353 -1.7401 -1.6886
 4728SOL    HW225647   2.842   3.550   3.173  0.6977 -0.8822 -1.0674
 4729SOL     OW25648   0.275   1.127   6.458  0.3267  0.3516  0.0462
 4729SOL    HW125649   0.341   1.109   6.525  0.0896 -1.6477 -0.2749
 4729SOL    HW225650   0.241   1.040   6.439  2.3190 -0.9100  2.2021
 4730SOL     OW25651   3.654   1.848   5.088 -0.2065  0.0931  0.0162
 4730SOL    HW125652   3.590   1.821   5.153 -0.6190  0.6392 -0.1610
 4730SOL    HW225653   3.613   1.931   5.063  0.6901  0.0202 -1.7058
 4731SOL     OW25654   0.581   0.541   3.044 -0.4075  0.3825 -0.5272
 4731SOL    HW125655   0.551   0.616   2.992  1.4543  2.9510  2.1717
 4731SOL    HW225656   0.590   0.477   2.973  0.9610  0.4477 -0.3976
 4732SOL     OW25657   2.948   2.001   9.766  0.3943  0.1954 -0.0682
 4732SOL    HW125658   3.008   2.073   9.786 -0.7570  0.6499  1.7200
 4732SOL    HW225659   2.913   2.051   9.692 -0.4393 -0.9514 -0.4485
 4733SOL     OW25660   2.941   3.711  16.085  0.1787 -0.3874 -0.0743
 4733SOL    HW125661   2.860   3.719  16.035  1.6707  0.6501 -2.3361
 4733SOL    HW225662   2.943   3.799  16.123  0.5616  0.3347 -1.7783
 4734SOL     OW25663   0.633   3.205  12.418 -0.1449  0.6925  0.3882
 4734SOL    HW125664   0.663   3.127  12.465 -1.4340 -0.8472 -1.3474
 4734SOL    HW225665   0.622   3.261  12.495 -1.3632  0.1709  0.5973
 4735SOL     OW25666   3.233   1.086   9.139 -0.2120 -0.4261  0.0157
 4735SOL    HW125667   3.217   1.034   9.218  2.5723  0.0271  0.8814
 4735SOL    HW225668   3.327   1.067   9.145 -0.6466 -2.3966  0.6275
 4736SOL     OW25669   4.235   4.120   7.513 -0.0921 -0.3326  0.7169
 4736SOL    HW125670   4.142   4.110   7.535 -0.3601  0.2126 -0.1461
 4736SOL    HW225671   4.273   4.032   7.518 -0.5607 -0.4816  1.6291
 4737SOL     OW25672   2.521   0.179   6.713 -0.0084 -0.1256  1.0457
 4737SOL    HW125673   2.513   0.085   6.697 -1.7043  0.1264  0.3558
 4737SOL    HW225674   2.559   0.203   6.628 -2.6711  0.9537  0.1320
 4738SOL     OW25675   1.252   1.668   2.666  0.0064 -0.0962  0.0101
 4738SOL    HW125676   1.230   1.679   2.759  1.5446 -3.2435  0.7223
 4738SOL    HW225677   1.203   1.593   2.633 -0.2759 -0.2147  0.6928
 4739SOL     OW25678   2.146   0.406   2.234 -0.0625 -0.6220 -0.2393
 4739SOL    HW125679   2.205   0.331   2.242  1.1108  0.4254  0.8086
 4739SOL    HW225680   2.109   0.415   2.322  1.5785  0.6987  0.2968
 4740SOL     OW25681   0.930   2.164   1.888 -0.2038  0.0565 -0.2976
 4740SOL    HW125682   0.923   2.221   1.811  2.1586  2.5639  1.3475
 4740SOL    HW225683   1.024   2.146   1.890  0.5326  4.0234 -0.0839
 4741SOL     OW25684   3.235   1.435   9.229  0.3386 -0.2621 -0.0821
 4741SOL    HW125685   3.237   1.353   9.279  1.0950  0.1233  0.5209
 4741SOL    HW225686   3.187   1.403   9.153  1.2992 -0.8574 -0.4378
 4742SOL     OW25687   4.460   3.717   4.039 -0.6577  0.3091  0.4051
 4742SOL    HW125688   4.488   3.634   4.000 -1.1503 -0.0401  0.7901
 4742SOL    HW225689   4.414   3.750   3.962 -0.7594 -0.5010  0.1174
 4743SOL     OW25690   2.812   0.606   6.828 -0.1935  0.3729  0.0432
 4743SOL    HW125691   2.815   0.618   6.733 -1.2364  0.9072  0.0732
 4743SOL    HW225692   2.801   0.695   6.862 -0.4846  0.3842 -0.0836
 4744SOL     OW25693   3.184   4.658   8.419  0.0006 -0.4987  0.6925
 4744SOL    HW125694   3.155   4.709   8.344  2.1793 -0.3934 -0.0930
 4744SOL    HW225695   3.236   4.592   8.372 -0.5468 -1.0792  0.8949
 4745SOL     OW25696   0.834   3.291   6.798 -0.6353 -0.0262 -0.1068
 4745SOL    HW125697   0.896   3.340   6.745 -2.7574  1.6668 -1.0503
 4745SOL    HW225698   0.840   3.314   6.891  1.1973 -0.7468 -0.0478
 4746SOL     OW25699   3.842   3.391   6.880 -0.2526 -0.2427  1.2791
 4746SOL    HW125700   3.770   3.391   6.817 -0.9078  0.7884  2.0253
 4746SOL    HW225701   3.892   3.327   6.830 -2.2211 -0.5124 -0.3390
 4747SOL     OW25702   3.176   0.853   6.498 -0.0375 -0.5277  0.4618
 4747SOL    HW125703   3.265   0.873   6.469 -0.8744  0.3599 -1.4631
 4747SOL    HW225704   3.149   0.781   6.440  2.3290 -0.4403 -0.7782
 4748SOL     OW25705   4.272   2.278   7.407  0.0791 -0.4932 -0.7230
 4748SOL    HW125706   4.316   2.363   7.407  0.8148 -0.8703  0.2423
 4748SOL    HW225707   4.238   2.286   7.496 -0.3988  0.4908 -0.9932
 4749SOL     OW25708   0.341   1.462   5.118  0.3011  0.2781  0.3227
 4749SOL    HW125709   0.327   1.413   5.037  1.6249 -0.2222  0.3848
 4749SOL    HW225710   0.367   1.398   5.185 -0.6100 -2.8410 -2.3124
 4750SOL     OW25711   0.162   3.786   4.212 -0.0991 -0.6820  0.2469
 4750SOL    HW125712   0.130   3.725   4.278  0.5409  0.0068  1.2008
 4750SOL    HW225713   0.152   3.874   4.248  1.0386 -0.4731  0.0826
 4751SOL     OW25714   0.894   0.772   6.328  0.0623  0.1573  0.0146
 4751SOL    HW125715   0.896   0.745   6.419  0.3606  0.9039  0.2314
 4751SOL    HW225716   0.804   0.805   6.330  0.6061  1.5549  1.1112
 4752SOL     OW25717   1.267   2.857   5.588 -1.1769 -0.0651 -0.3940
 4752SOL    HW125718   1.327   2.879   5.660 -0.7415 -1.1306 -0.4355
 4752SOL    HW225719   1.314   2.785   5.547 -1.5799  1.1613 -3.0153
 4753SOL     OW25720   0.735   0.871  11.734 -0.4298  0.6290 -0.0376
 4753SOL    HW125721   0.679   0.862  11.657  0.1443  2.4227 -0.6742
 4753SOL    HW225722   0.693   0.945  11.778 -0.4218  0.5585  0.0889
 4754SOL     OW25723   0.207   0.472  12.847  0.2126 -0.5659  0.1485
 4754SOL    HW125724   0.275   0.407  12.831  0.0055 -0.1499 -2.3677
 4754SOL    HW225725   0.155   0.464  12.768 -0.8613 -0.2934  0.8218
 4755SOL     OW25726   2.425   0.850   7.122  0.6321  0.0226  0.6792
 4755SOL    HW125727   2.334   0.850   7.151 -0.0694 -0.8179 -1.5698
 4755SOL    HW225728   2.419   0.844   7.027  2.2177  1.5759  0.4717
 4756SOL     OW25729   0.086   4.489   4.189 -0.0642  0.0033 -0.3214
 4756SOL    HW125730   0.178   4.510   4.205  0.1336  0.8274 -2.4549
 4756SOL    HW225731   0.042   4.569   4.216  1.7925  0.2917  1.8309
 4757SOL     OW25732   3.967   0.658   3.734 -0.0540 -0.3388 -0.2255
 4757SOL    HW125733   3.913   0.626   3.662 -2.2268 -0.2167  1.3423
 4757SOL    HW225734   3.976   0.749   3.707 -2.8450  0.2245  0.7727
 4758SOL     OW25735   2.126   1.109   1.999  0.7863 -0.3172  0.6225
 4758SOL    HW125736   2.167   1.046   1.940  1.0708  0.6660 -0.2213
 4758SOL    HW225737   2.116   1.177   1.932 -0.4418  0.6007  1.7294
 4759SOL     OW25738   0.609   2.628  15.023  0.1302  0.2419  0.3987
 4759SOL    HW125739   0.625   2.647  15.116 -2.2038 -0.4443  0.9599
 4759SOL    HW225740   0.638   2.704  14.973  0.3791  0.1960  0.4715
 4760SOL     OW25741   0.163   0.592   6.076  0.4247  0.1820  0.2930
 4760SOL    HW125742   0.140   0.638   5.995 -1.6145  0.8077  1.2273
 4760SOL    HW225743   0.254   0.621   6.073  1.1521 -2.1119 -0.2490
 4761SOL     OW25744   2.820   2.288   8.052 -0.1823  0.4892 -0.0699
 4761SOL    HW125745   2.814   2.274   7.957  1.4102 -1.7263  0.1595
 4761SOL    HW225746   2.773   2.368   8.076 -1.0521  0.6356 -2.2861
 4762SOL     OW25747   0.300   3.262   0.129  0.3021  0.5803  0.0923
 4762SOL    HW125748   0.371   3.204   0.158 -0.6734 -0.0106  1.2827
 4762SOL    HW225749   0.267   3.206   0.058 -0.4170  2.3364 -0.9502
 4763SOL     OW25750   4.634   1.055   8.464  0.0599  0.0436 -0.3194
 4763SOL    HW125751   4.641   0.971   8.509  0.2183  0.7802  1.0443
 4763SOL    HW225752   4.584   1.033   8.385 -1.2279  1.9470 -0.0565
 4764SOL     OW25753   2.127   2.792   1.202 -0.1454 -0.1896 -0.9955
 4764SOL    HW125754   2.088   2.872   1.238  0.4427  1.3216 -3.6963
 4764SOL    HW225755   2.191   2.750   1.259 -1.0855 -1.2505 -0.7184
 4765SOL     OW25756   2.301   1.841   5.295  0.0790 -0.1892  0.0552
 4765SOL    HW125757   2.362   1.799   5.233 -1.0592 -1.3034 -0.3163
 4765SOL    HW225758   2.344   1.824   5.379  1.4917 -3.5117 -1.3107
 4766SOL     OW25759   1.489   4.701  16.376  0.3972 -0.5332  0.1449
 4766SOL    HW125760   1.514   4.611  16.397 -0.1085 -1.0349 -1.3973
 4766SOL    HW225761   1.462   4.682  16.287  0.0055  2.2829 -0.3318
 4767SOL     OW25762   3.971   2.412   4.305 -0.1734  0.2279  0.1427
 4767SOL    HW125763   4.008   2.476   4.365 -1.3780  0.9150  0.1462
 4767SOL    HW225764   4.040   2.347   4.315  1.8708  2.2081 -1.2466
 4768SOL     OW25765   2.425   3.143   8.573  0.4542 -0.3285 -0.5190
 4768SOL    HW125766   2.390   3.204   8.638  0.2901 -0.6690 -0.2877
 4768SOL    HW225767   2.478   3.089   8.631 -1.1716  0.8404  2.0401
 4769SOL     OW25768   4.323   2.340   2.548  0.7981  0.0630 -0.6665
 4769SOL    HW125769   4.360   2.428   2.539  1.1866  0.0464  0.7961
 4769SOL    HW225770   4.283   2.359   2.632 -0.7666 -0.6041 -1.2709
 4770SOL     OW25771   3.618   4.710   3.018  0.1178  0.2809  0.0934
 4770SOL    HW125772   3.623   0.047   3.090  0.0214  0.0867  0.2728
 4770SOL    HW225773   3.622   0.036   2.938  2.7364  1.0993  0.7659
 4771SOL     OW25774   0.426   0.449   2.126  0.0376  0.0217 -0.8320
 4771SOL    HW125775   0.456   0.482   2.041 -0.2561 -0.4993 -1.1377
 4771SOL    HW225776   0.331   0.460   2.123 -0.0331 -0.0754  1.2363
 4772SOL     OW25777   2.378   2.703   8.945  0.0548  0.0664 -0.0130
 4772SOL    HW125778   2.298   2.651   8.947 -0.1379  0.2093 -3.6887
 4772SOL    HW225779   2.425   2.662   9.018 -0.3187  0.3166  0.3671
 4773SOL     OW25780   4.083   3.667  16.590 -0.2536  0.2032  0.2033
 4773SOL    HW125781   4.020   3.706  16.652 -1.4090 -0.2629 -0.6754
 4773SOL    HW225782   4.139   3.628  16.657 -1.4313 -2.8287 -0.5916
 4774SOL     OW25783   0.102   0.699   7.408  0.1013 -0.4711 -0.3876
 4774SOL    HW125784   0.105   0.695   7.503 -0.3627 -0.5742 -0.3748
 4774SOL    HW225785   0.017   0.663   7.384  1.0113 -1.5472 -1.9927
 4775SOL     OW25786   0.713   1.860   1.287 -0.0380  0.4207 -1.0867
 4775SOL    HW125787   0.717   1.884   1.194 -0.6035 -0.3842 -1.3204
 4775SOL    HW225788   0.645   1.795   1.266  1.1495 -0.1551 -3.1802
 4776SOL     OW25789   0.978   2.887   8.176 -0.2662  0.0984  0.1813
 4776SOL    HW125790   0.942   2.953   8.235 -0.5773  1.4273 -1.4939
 4776SOL    HW225791   1.064   2.878   8.216 -1.4378 -1.5282  2.3819
 4777SOL     OW25792   0.983   0.032  16.058  0.4749  0.5541 -0.4440
 4777SOL    HW125793   0.903   0.038  16.110  2.1178 -1.9424  2.3913
 4777SOL    HW225794   1.053   0.064  16.114  0.2445 -0.2957  0.3192
 4778SOL     OW25795   3.086   3.034   7.549 -0.1217  0.1969  0.3283
 4778SOL    HW125796   3.105   2.990   7.467 -0.6216  2.6021 -1.0677
 4778SOL    HW225797   3.165   3.000   7.592 -0.3976 -0.5233  0.2565
 4779SOL     OW25798   3.137   3.803   9.041 -0.3163  0.9245 -0.5642
 4779SOL    HW125799   3.128   3.882   8.987 -2.4793  0.4769 -0.8548
 4779SOL    HW225800   3.098   3.735   8.986 -0.0332  1.2069 -1.1143
 4780SOL     OW25801   4.350   4.008  14.502 -0.5406  0.1256  0.6453
 4780SOL    HW125802   4.400   4.085  14.530  0.7518 -1.8350  3.7986
 4780SOL    HW225803   4.407   3.962  14.441 -0.7928 -1.0639  1.3031
 4781SOL     OW25804   0.234   1.390  12.594 -0.5438 -0.2646  0.1673
 4781SOL    HW125805   0.246   1.420  12.504  0.6279 -1.3623 -0.0516
 4781SOL    HW225806   0.192   1.309  12.567 -0.4957  0.0298 -0.7912
 4782SOL     OW25807   4.223   4.649   3.816  0.1512 -0.4078  0.2429
 4782SOL    HW125808   4.280   4.577   3.842 -0.9627 -1.5083 -0.3310
 4782SOL    HW225809   4.278   0.000   3.826  3.3494 -2.5839 -0.6965
 4783SOL     OW25810   0.498   1.925   0.232  0.7261  0.2531 -0.1082
 4783SOL    HW125811   0.570   1.866   0.254  0.5949  0.2127  0.2120
 4783SOL    HW225812   0.447   1.861   0.182 -0.8610  1.0409  0.5162
 4784SOL     OW25813   3.426   2.049   4.133 -0.3319 -0.0207  0.0385
 4784SOL    HW125814   3.428   2.144   4.124 -2.3696  0.0592  0.2562
 4784SOL    HW225815   3.352   2.030   4.075  1.2015 -2.5123 -1.0877
 4785SOL     OW25816   0.958   2.237   0.794 -0.0654 -0.0078  0.4096
 4785SOL    HW125817   1.009   2.305   0.837 -1.1708  0.2865  1.2443
 4785SOL    HW225818   1.021   2.185   0.744 -1.4806 -2.8745  1.6066
 4786SOL     OW25819   2.175   0.201   1.899  0.6406 -0.0706 -0.6478
 4786SOL    HW125820   2.207   0.118   1.935 -0.7675  0.4192  1.7570
 4786SOL    HW225821   2.208   0.199   1.809  0.6165 -1.0642 -0.6257
 4787SOL     OW25822   0.100   1.135   3.443  0.3240 -0.6515  0.0158
 4787SOL    HW125823   0.056   1.168   3.522  2.2144  0.0252  0.7716
 4787SOL    HW225824   0.180   1.187   3.434 -0.0957 -0.3153 -1.7719
 4788SOL     OW25825   0.954   1.099   6.053  0.0149  0.2856  0.2514
 4788SOL    HW125826   0.961   1.194   6.061 -0.7480  0.4789 -1.4200
 4788SOL    HW225827   1.040   1.067   6.025 -0.4173 -1.5264  0.9607
 4789SOL     OW25828   2.871   3.118   3.203 -0.3330  0.5528 -0.0174
 4789SOL    HW125829   2.831   3.053   3.146 -0.9363  0.4689  0.5011
 4789SOL    HW225830   2.796   3.173   3.225  0.8580  2.1245  0.1565
 4790SOL     OW25831   3.036   3.077   4.942 -0.2554  0.3017  0.5613
 4790SOL    HW125832   3.098   3.113   5.006  1.1939 -0.7091 -0.2734
 4790SOL    HW225833   3.068   3.127   4.868  0.0352 -1.0018 -0.1933
 4791SOL     OW25834   1.506   4.196  11.157 -0.6110 -0.4331 -0.7573
 4791SOL    HW125835   1.517   4.119  11.212  0.9778  2.6850  3.3280
 4791SOL    HW225836   1.590   4.236  11.180 -0.0951 -1.7402 -0.3711
 4792SOL     OW25837   0.162   0.582  10.913  0.1157 -0.1364  0.1171
 4792SOL    HW125838   0.081   0.562  10.866  0.2430  2.7472 -1.3197
 4792SOL    HW225839   0.138   0.602  11.003 -0.4876  0.2480 -0.1273
 4793SOL     OW25840   0.087   4.389  17.130 -0.1308  0.0210 -0.0957
 4793SOL    HW125841   0.075   4.472  17.084 -0.5751  0.5967  1.0477
 4793SOL    HW225842   0.099   4.413  17.222 -2.3151  1.4574 -0.1898
 4794SOL     OW25843   3.239   4.194   1.842 -0.1467  0.4125  0.2291
 4794SOL    HW125844   3.260   4.146   1.922 -0.7557 -0.4883 -0.1518
 4794SOL    HW225845   3.162   4.144   1.812  1.6913 -1.0086 -2.1186
 4795SOL     OW25846   4.391   2.723   2.762 -0.1880  0.1102  0.2940
 4795SOL    HW125847   4.474   2.769   2.772  0.1727 -0.3280 -0.6385
 4795SOL    HW225848   4.408   2.680   2.678 -3.4575 -0.3670 -0.1512
 4796SOL     OW25849   4.106   2.293   8.458 -0.4138 -0.0238 -0.1334
 4796SOL    HW125850   4.062   2.365   8.501  2.0356  0.6969  1.1562
 4796SOL    HW225851   4.195   2.312   8.485 -0.4891 -0.3805  0.3635
 4797SOL     OW25852   0.400   4.443   6.626  0.1887  0.0458  0.3405
 4797SOL    HW125853   0.378   4.371   6.567 -0.9801  0.6557  0.0343
 4797SOL    HW225854   0.465   4.485   6.569  0.1219 -2.8834 -1.8596
 4798SOL     OW25855   3.038   3.866   8.690  0.2788 -0.0118 -0.2226
 4798SOL    HW125856   2.943   3.871   8.703  0.4680  0.1042  1.1712
 4798SOL    HW225857   3.072   3.895   8.775  1.1040 -1.8653  0.0739
 4799SOL     OW25858   3.332   2.159   7.207  0.3962  0.2852 -0.5400
 4799SOL    HW125859   3.353   2.237   7.257 -1.3741  0.2905  0.2071
 4799SOL    HW225860   3.281   2.105   7.268  0.0035 -0.8061 -1.8270
 4800SOL     OW25861   2.026   0.480   9.790  0.1490  0.0275  0.4736
 4800SOL    HW125862   1.986   0.567   9.788  0.5576  0.1705 -1.4165
 4800SOL    HW225863   2.113   0.506   9.759  0.0951 -2.4147 -1.7615
 4801SOL     OW25864   2.843   0.433   8.652  0.0470 -0.2890 -0.1362
 4801SOL    HW125865   2.765   0.388   8.620 -0.5437 -0.2439  1.2545
 4801SOL    HW225866   2.811   0.476   8.731 -0.2902  0.3615 -0.6295
 4802SOL     OW25867   2.725   2.457   3.887 -0.5318  0.2032 -0.2065
 4802SOL    HW125868   2.637   2.458   3.923 -0.3231  1.5807  0.2885
 4802SOL    HW225869   2.706   2.505   3.806  2.5842 -0.6989 -1.4607
 4803SOL     OW25870   0.468   0.377   7.560  0.3398 -1.1499  0.5361
 4803SOL    HW125871   0.543   0.415   7.606  0.1111 -0.4698  0.3407
 4803SOL    HW225872   0.398   0.432   7.595  1.3613  2.3283 -2.9321
 4804SOL     OW25873   2.000   0.403  10.572  0.5053  0.0609 -0.6606
 4804SOL    HW125874   2.066   0.334  10.569 -2.4426 -2.8228  1.7708
 4804SOL    HW225875   2.041   0.464  10.510  2.2496  0.6868  1.0733
 4805SOL     OW25876   1.415   0.589   4.087 -0.0633 -0.1489  0.6223
 4805SOL    HW125877   1.464   0.671   4.087  1.2528 -0.9399  0.2034
 4805SOL    HW225878   1.336   0.619   4.042 -0.2113 -1.3877  0.0530
 4806SOL     OW25879   2.626   0.440   2.254  0.4506  0.1881  0.1457
 4806SOL    HW125880   2.677   0.359   2.253 -1.1519 -0.8537  1.2038
 4806SOL    HW225881   2.692   0.508   2.266 -1.7031  2.1312  0.9349
 4807SOL     OW25882   2.747   0.962   5.526  0.4112 -0.0690  0.2348
 4807SOL    HW125883   2.763   0.950   5.433 -0.9989  0.7478 -0.1173
 4807SOL    HW225884   2.835   0.994   5.547  1.0226 -0.1983 -2.1663
 4808SOL     OW25885   0.252   2.781   7.778 -0.5500 -0.0903  0.4831
 4808SOL    HW125886   0.285   2.822   7.858  2.3081 -2.3615  0.4261
 4808SOL    HW225887   0.298   2.697   7.773  1.1464  0.8422  0.4783
 4809SOL     OW25888   3.978   1.612   9.530 -0.2281 -0.7820 -0.5536
 4809SOL    HW125889   3.935   1.605   9.615 -0.9577  2.6493 -0.6063
 4809SOL    HW225890   3.963   1.525   9.495 -1.6070 -1.3530  1.4836
 4810SOL     OW25891   1.478   2.690   6.772 -0.3570 -0.2012  0.4531
 4810SOL    HW125892   1.521   2.771   6.745 -2.3305  0.6268 -0.2148
 4810SOL    HW225893   1.410   2.674   6.707 -0.3001 -3.0868  1.1051
 4811SOL     OW25894   2.386   0.017   7.330  0.0713  0.0233 -0.2992
 4811SOL    HW125895   2.387   0.007   7.425 -0.7007  0.5600 -0.2353
 4811SOL    HW225896   2.381   4.652   7.303  0.1904 -0.0584 -0.0463
 4812SOL     OW25897   1.733   0.361   2.120 -0.2295  0.9336  0.0669
 4812SOL    HW125898   1.742   0.315   2.204  1.9339 -1.2642 -1.3722
 4812SOL    HW225899   1.762   0.288   2.065 -0.7707  0.6117  0.1958
 4813SOL     OW25900   4.652   2.691   4.894  0.1716  1.0089 -0.3473
 4813SOL    HW125901   4.589   2.619   4.890  2.2877 -0.8294 -0.4072
 4813SOL    HW225902   4.644   2.711   4.987  2.2446  1.1232 -0.1955
 4814SOL     OW25903   3.512   4.594   6.740 -0.2457 -0.0065  0.1788
 4814SOL    HW125904   3.444   4.528   6.735 -0.2078 -0.3295  4.3695
 4814SOL    HW225905   3.577   4.536   6.700 -0.4318  1.3079 -2.0648
 4815SOL     OW25906   1.997   0.176   0.220 -0.1598 -0.5105  0.4485
 4815SOL    HW125907   1.920   0.232   0.214  0.4959  0.5407  1.9859
 4815SOL    HW225908   1.989   0.118   0.144  0.5481 -1.3942  1.0490
 4816SOL     OW25909   4.265   2.010   7.289 -0.6824  0.3330 -0.0251
 4816SOL    HW125910   4.336   1.975   7.341 -1.1187 -1.9299 -0.9785
 4816SOL    HW225911   4.255   2.097   7.328  0.1916  1.1558 -1.6492
 4817SOL     OW25912   0.696   3.022   2.127 -0.0182  0.5056 -0.2524
 4817SOL    HW125913   0.749   3.007   2.048 -0.1898  0.4450 -0.3546
 4817SOL    HW225914   0.765   3.022   2.194  0.6269 -1.7264 -0.9302
 4818SOL     OW25915   2.455   2.037   9.895 -0.1102  0.0183 -0.5850
 4818SOL    HW125916   2.504   1.995   9.966  0.0280  0.0992 -0.6312
 4818SOL    HW225917   2.375   2.057   9.944  0.5021 -0.5670  0.6459
 4819SOL     OW25918   0.753   0.075   2.883  0.2284  0.1207 -0.4000
 4819SOL    HW125919   0.826   0.112   2.933 -1.5043  0.7592  1.6709
 4819SOL    HW225920   0.690   0.063   2.955  1.3550 -1.6622  0.2969
 4820SOL     OW25921   2.724   0.793   1.423 -0.3189  0.6162  0.4483
 4820SOL    HW125922   2.753   0.744   1.346 -2.9697  1.7718 -1.2644
 4820SOL    HW225923   2.687   0.869   1.378  2.3212  2.5398  1.5059
 4821SOL     OW25924   4.077   3.569   7.781  0.4108 -0.0616  0.1459
 4821SOL    HW125925   4.039   3.655   7.764 -2.5970 -0.9811  2.1554
 4821SOL    HW225926   4.028   3.553   7.862 -1.8461  0.0169 -1.1952
 4822SOL     OW25927   0.111   2.597  10.204  0.1022 -0.7118  0.7850
 4822SOL    HW125928   0.024   2.578  10.238  0.3153  1.5796  2.5913
 4822SOL    HW225929   0.094   2.619  10.112 -0.0246  2.6360  1.6161
 4823SOL     OW25930   0.739   0.875   6.070  0.0519 -0.4845 -0.0428
 4823SOL    HW125931   0.807   0.940   6.053 -0.6624  0.4754  0.7684
 4823SOL    HW225932   0.794   0.797   6.082 -0.8938 -1.2025 -0.3917
 4824SOL     OW25933   2.641   4.541  13.384  0.0768 -0.1412  0.9639
 4824SOL    HW125934   2.565   4.483  13.376 -0.5821  1.0504 -1.2214
 4824SOL    HW225935   2.709   4.473  13.380 -0.1505 -0.3507  0.7139
 4825SOL     OW25936   2.624   1.128   3.819 -0.0902 -0.3978 -0.3472
 4825SOL    HW125937   2.599   1.218   3.841  1.1667 -0.4085  1.1477
 4825SOL    HW225938   2.710   1.140   3.779  0.6154  1.3168  1.6354
 4826SOL     OW25939   2.248   3.055   8.390  0.1796 -0.2006 -0.2441
 4826SOL    HW125940   2.252   2.971   8.437  1.5406 -0.8849 -1.5999
 4826SOL    HW225941   2.303   3.099   8.454 -0.4381  1.3528 -0.7859
 4827SOL     OW25942   1.718   2.539   7.272 -0.3939 -0.1010  0.1002
 4827SOL    HW125943   1.687   2.482   7.201  1.6812 -0.5667 -0.4161
 4827SOL    HW225944   1.763   2.609   7.225 -0.9764 -0.6251 -1.2419
 4828SOL     OW25945   3.265   2.436  14.912 -0.1261 -0.1117  0.0971
 4828SOL    HW125946   3.222   2.374  14.971  1.3892 -0.6925  0.5800
 4828SOL    HW225947   3.284   2.380  14.836  1.5350  2.1346 -1.1395
 4829SOL     OW25948   2.307   4.406   8.588  0.1053  0.5910 -0.0251
 4829SOL    HW125949   2.213   4.427   8.593 -0.4510 -2.3956  1.6353
 4829SOL    HW225950   2.348   4.480   8.633  1.4079 -0.4241  0.4621
 4830SOL     OW25951   0.774   2.527   7.170  0.1631  0.7608  0.1459
 4830SOL    HW125952   0.709   2.561   7.231 -1.1710 -0.6709 -0.4909
 4830SOL    HW225953   0.826   2.478   7.234  0.9816 -0.7631 -1.6870
 4831SOL     OW25954   0.123   0.903   1.516 -0.5928  0.0814  0.5736
 4831SOL    HW125955   0.120   0.873   1.425 -0.7188  0.8649  0.3266
 4831SOL    HW225956   0.085   0.826   1.560  0.6297  0.6087  2.5469
 4832SOL     OW25957   3.221   0.236  13.590  0.0533  0.5360 -0.3812
 4832SOL    HW125958   3.241   0.216  13.682  0.5268 -0.8727 -0.7895
 4832SOL    HW225959   3.133   0.205  13.569  0.2417  0.5813 -1.2021
 4833SOL     OW25960   1.015   4.105   5.712  0.4105 -0.3311  0.2194
 4833SOL    HW125961   0.942   4.043   5.710 -1.9648  2.5215 -1.1837
 4833SOL    HW225962   0.966   4.182   5.682  2.3390  0.8358  0.1106
 4834SOL     OW25963   1.958   1.496  13.205 -0.4738  0.2959 -0.3666
 4834SOL    HW125964   2.049   1.467  13.200 -0.5013 -0.2083  2.0402
 4834SOL    HW225965   1.949   1.558  13.277 -0.5678 -1.4527  1.1146
 4835SOL     OW25966   2.579   3.537   3.606  0.1401 -0.2273  0.0037
 4835SOL    HW125967   2.653   3.526   3.546 -0.0324  0.6463 -0.3735
 4835SOL    HW225968   2.543   3.620   3.574  0.8993  1.3508  3.1987
 4836SOL     OW25969   1.084   3.102   6.032 -0.2902 -0.2641  0.4321
 4836SOL    HW125970   1.008   3.061   6.072 -0.8439  1.1180  0.7898
 4836SOL    HW225971   1.050   3.189   6.010  0.4420 -0.0819 -0.0040
 4837SOL     OW25972   3.610   1.222   3.935  0.5334 -0.0278 -0.1286
 4837SOL    HW125973   3.641   1.312   3.947 -1.0124  0.5184 -0.2242
 4837SOL    HW225974   3.586   1.222   3.842  0.4297  1.1682 -0.1082
 4838SOL     OW25975   0.699   1.638   5.270  0.5469  0.2940  0.0738
 4838SOL    HW125976   0.607   1.659   5.254  0.2696  1.1571  2.9172
 4838SOL    HW225977   0.755   1.704   5.228  0.0347  0.1738 -0.7994
 4839SOL     OW25978   3.604   2.491  11.707  0.0671 -0.1063  0.7590
 4839SOL    HW125979   3.692   2.479  11.671 -0.4813  2.3377 -1.3568
 4839SOL    HW225980   3.550   2.441  11.645 -1.2468  0.4300  1.4823
 4840SOL     OW25981   1.275   1.209   8.631 -0.2469 -0.3492  0.3619
 4840SOL    HW125982   1.312   1.123   8.649  1.3775 -0.1602 -2.0562
 4840SOL    HW225983   1.308   1.207   8.541  0.2112 -0.3036  0.5301
 4841SOL     OW25984   2.310   2.072   3.591 -0.2420 -0.1505  0.2756
 4841SOL    HW125985   2.289   1.980   3.610 -1.7695  0.2361  0.4098
 4841SOL    HW225986   2.285   2.104   3.677  1.9943  2.2348  0.0363
 4842SOL     OW25987   4.599   3.234   8.354  0.2520  0.4297  0.4953
 4842SOL    HW125988   4.661   3.172   8.392  2.3081  2.8549  1.1333
 4842SOL    HW225989   4.584   3.300   8.422 -1.2392  2.7515 -2.0600
 4843SOL     OW25990   4.001   1.229  13.972  0.3935 -0.1527  0.2899
 4843SOL    HW125991   4.074   1.261  14.026 -0.5174  1.9976  0.2469
 4843SOL    HW225992   4.038   1.217  13.884  1.1436 -2.4930  0.9109
 4844SOL     OW25993   0.916   0.628   6.564 -0.0568  0.5006 -0.5121
 4844SOL    HW125994   0.905   0.589   6.651  0.1797 -2.1284 -1.6745
 4844SOL    HW225995   0.964   0.705   6.593 -0.6549 -0.3921  2.8423
 4845SOL     OW25996   3.216   0.319   6.811  0.0511  0.0430  0.4420
 4845SOL    HW125997   3.207   0.225   6.793 -1.0186  0.6310 -2.1109
 4845SOL    HW225998   3.241   0.315   6.903  0.0251 -0.0551  0.4450
 4846SOL     OW25999   1.186   3.473   2.598  0.2457  0.0483  0.0486
 4846SOL    HW126000   1.114   3.483   2.536 -1.0261  1.1219  1.7023
 4846SOL    HW226001   1.150   3.511   2.678  2.4151 -0.7145  1.3919
 4847SOL     OW26002   4.226   3.831   7.362  0.1529  0.3105 -0.0320
 4847SOL    HW126003   4.239   3.764   7.429 -0.6825 -1.6936 -1.8848
 4847SOL    HW226004   4.162   3.794   7.302 -0.6187  1.8138 -0.1558
 4848SOL     OW26005   0.164   0.032   7.240  0.1474  0.0434  0.1678
 4848SOL    HW126006   0.098   0.060   7.304 -1.2477 -1.9605 -0.3762
 4848SOL    HW226007   0.216   0.112   7.241 -0.6162  0.5443  0.1549
 4849SOL     OW26008   0.501   2.618  16.753 -0.1902  0.3878 -0.0096
 4849SOL    HW126009   0.416   2.621  16.710 -0.9363 -1.1658  1.3576
 4849SOL    HW226010   0.524   2.710  16.738 -1.2809  0.6910  0.1655
 4850SOL     OW26011   3.751   1.930  10.742 -0.5796  0.2205  0.3245
 4850SOL    HW126012   3.750   2.004  10.804 -1.9238  1.6360 -1.3769
 4850SOL    HW226013   3.672   1.885  10.769  0.6919 -1.3654  1.4001
 4851SOL     OW26014   2.752   0.103  16.931 -0.5419 -0.4410 -0.0271
 4851SOL    HW126015   2.797   0.173  16.884  1.6205 -1.4202  0.5699
 4851SOL    HW226016   2.715   0.152  17.005  0.8750 -2.7864  2.2368
 4852SOL     OW26017   2.419   2.396  15.946  0.4907  0.3026  0.1542
 4852SOL    HW126018   2.425   2.402  15.851  0.7177  2.5589  0.3043
 4852SOL    HW226019   2.328   2.372  15.965  0.3221  0.0031 -1.0372
 4853SOL     OW26020   3.410   3.580   7.646 -0.7544 -0.2731 -0.4757
 4853SOL    HW126021   3.411   3.568   7.741 -0.7547  0.8372 -0.3413
 4853SOL    HW226022   3.455   3.501   7.617 -0.8991 -1.3059  2.1269
 4854SOL     OW26023   3.903   1.702   0.290 -0.5642 -0.2619  0.0141
 4854SOL    HW126024   3.827   1.645   0.278 -0.7761  0.1817 -0.7284
 4854SOL    HW226025   3.873   1.785   0.327 -1.3324 -0.1068 -0.9558
 4855SOL     OW26026   4.160   0.197   7.997 -0.1020  0.0173 -0.3706
 4855SOL    HW126027   4.187   0.106   8.012  0.2190  0.3570  1.1595
 4855SOL    HW226028   4.066   0.189   7.982 -0.0307 -0.0813 -0.7798
 4856SOL     OW26029   4.467   3.378  12.466  0.3558 -0.3393  0.6159
 4856SOL    HW126030   4.390   3.410  12.419  0.6488 -1.1340 -0.4204
 4856SOL    HW226031   4.463   3.429  12.546  1.2665  0.3901  0.1870
 4857SOL     OW26032   1.536   4.375   5.722  0.1593 -0.1022  0.7761
 4857SOL    HW126033   1.443   4.376   5.745 -0.3614  0.2356 -1.3427
 4857SOL    HW226034   1.575   4.323   5.792  1.7606 -0.9405 -0.7541
 4858SOL     OW26035   4.600   1.353   5.097 -0.2697  0.0602  0.2715
 4858SOL    HW126036   4.554   1.402   5.165 -1.9890 -0.9948 -0.1289
 4858SOL    HW226037   4.688   1.340   5.133 -0.4586  0.5210  0.8992
 4859SOL     OW26038   2.829   4.379  16.853  0.4468 -0.3711  0.1447
 4859SOL    HW126039   2.825   4.332  16.937  1.4902  0.4739  0.6635
 4859SOL    HW226040   2.780   4.314  16.802  2.7643 -1.6463 -0.4661
 4860SOL     OW26041   1.082   1.052   2.851  0.3831  0.0242 -0.5474
 4860SOL    HW126042   1.140   1.018   2.919  0.9802  0.3504 -0.8943
 4860SOL    HW226043   1.031   0.973   2.835  1.4490 -0.5610 -1.0542
 4861SOL     OW26044   3.474   1.853   8.966 -0.5262  0.0656 -0.7680
 4861SOL    HW126045   3.492   1.943   8.940 -0.7506  0.0628 -0.9303
 4861SOL    HW226046   3.412   1.865   9.037  1.4929 -0.0971  1.0309
 4862SOL     OW26047   2.096   3.819   8.195  0.3129 -1.1031 -0.2099
 4862SOL    HW126048   2.102   3.724   8.204  1.8833 -0.8524  1.4756
 4862SOL    HW226049   2.185   3.843   8.172 -0.4649 -0.0637 -2.1010
 4863SOL     OW26050   2.845   4.275   7.956 -0.2141 -0.0843 -0.4196
 4863SOL    HW126051   2.879   4.264   8.045 -3.8556 -1.2115  0.8477
 4863SOL    HW226052   2.858   4.192   7.911  0.1359  0.4262 -1.2533
 4864SOL     OW26053   3.000   3.355   2.180  0.0132 -0.0467 -0.4629
 4864SOL    HW126054   2.909   3.382   2.173  0.5937  2.0485  0.0096
 4864SOL    HW226055   3.020   3.396   2.264  1.4778 -0.0135 -0.8288
 4865SOL     OW26056   0.077   3.956   7.147  0.5072 -0.3125  0.7543
 4865SOL    HW126057   0.144   3.953   7.215  0.5410 -0.4498  0.7140
 4865SOL    HW226058   4.725   3.957   7.203  0.9064  1.5356  1.2817
 4866SOL     OW26059   1.421   3.576   5.342 -0.1077 -0.3005 -0.7009
 4866SOL    HW126060   1.333   3.565   5.378  0.2349  1.4313  0.6705
 4866SOL    HW226061   1.456   3.488   5.350  1.3152  0.3047 -0.1672
 4867SOL     OW26062   2.109   1.378   1.889 -0.0624  0.8776 -0.5628
 4867SOL    HW126063   2.157   1.450   1.930  0.0061  0.1594  0.6120
 4867SOL    HW226064   2.135   1.374   1.797  0.8562 -1.0732 -0.2247
 4868SOL     OW26065   4.056   2.355   6.587  0.4603  0.9003 -0.4491
 4868SOL    HW126066   4.066   2.319   6.675 -0.7486 -0.4372 -0.8566
 4868SOL    HW226067   4.032   2.447   6.594 -0.0823  0.6279  1.2631
 4869SOL     OW26068   2.031   3.041   1.292  0.0044  0.8990 -0.8321
 4869SOL    HW126069   2.008   3.115   1.237 -0.5622  2.2480  1.2227
 4869SOL    HW226070   1.960   3.053   1.355  0.7868 -2.0821  0.6108
 4870SOL     OW26071   3.086   3.168  10.300 -0.4398  0.1037 -0.1275
 4870SOL    HW126072   3.040   3.098  10.255  1.0823  0.1818 -1.8248
 4870SOL    HW226073   3.068   3.247  10.249  0.4343  0.1656 -0.3416
 4871SOL     OW26074   2.097   0.455   8.243 -0.3524 -0.1803  0.2994
 4871SOL    HW126075   2.150   0.399   8.300  1.7712  1.7676  0.2658
 4871SOL    HW226076   2.138   0.541   8.254  1.5246 -1.1845  1.0925
 4872SOL     OW26077   3.438   1.628   4.543  0.0110 -0.1195 -0.5185
 4872SOL    HW126078   3.415   1.712   4.582  0.3838  0.4605 -1.5611
 4872SOL    HW226079   3.533   1.623   4.545  0.0030  0.3076  0.5290
 4873SOL     OW26080   1.277   1.019   3.035  0.1344  0.5245 -0.3201
 4873SOL    HW126081   1.370   1.040   3.036  0.8303 -2.6305  1.2476
 4873SOL    HW226082   1.257   1.073   3.112 -0.1089  0.9794 -0.6988
 4874SOL     OW26083   1.376   3.934   4.559  0.9579  0.0849  0.0314
 4874SOL    HW126084   1.463   3.974   4.570  0.3480  2.0060 -2.0846
 4874SOL    HW226085   1.336   3.938   4.646 -0.5779 -2.8976 -0.5494
 4875SOL     OW26086   1.884   0.713   9.771 -0.3733 -0.4203  0.7982
 4875SOL    HW126087   1.815   0.717   9.706  2.2347 -3.4768 -2.1631
 4875SOL    HW226088   1.832   0.722   9.851 -1.0840 -1.4510  0.4566
 4876SOL     OW26089   2.654   0.136   9.035  0.0956 -0.4836  0.3512
 4876SOL    HW126090   2.638   0.042   9.030  1.2644 -0.7410  1.6146
 4876SOL    HW226091   2.723   0.151   8.971  0.8344  0.8760  1.4678
 4877SOL     OW26092   3.661   0.462  12.142  0.2488  0.4900 -0.0816
 4877SOL    HW126093   3.700   0.381  12.110  1.5521  0.1251  2.3695
 4877SOL    HW226094   3.631   0.513  12.067  0.8929 -0.0809 -0.7259
 4878SOL     OW26095   2.546   4.401   8.387 -0.6247  0.4546  0.2243
 4878SOL    HW126096   2.457   4.373   8.365 -0.1031 -1.9229  1.1986
 4878SOL    HW226097   2.553   4.482   8.336  0.9893  0.1985  0.0656
 4879SOL     OW26098   0.303   2.832   3.322 -0.1024  0.4091  0.1107
 4879SOL    HW126099   0.385   2.782   3.318 -2.7116 -3.7493 -1.5588
 4879SOL    HW226100   0.291   2.874   3.237 -1.7322 -0.2306  0.0353
 4880SOL     OW26101   3.527   2.597   3.053 -0.3930  0.6876 -0.3612
 4880SOL    HW126102   3.580   2.528   3.012  0.9664  0.7386  1.3086
 4880SOL    HW226103   3.439   2.559   3.056 -1.3599  3.2099  2.6459
 4881SOL     OW26104   1.589   1.001   4.554 -0.3991 -0.1024  0.4310
 4881SOL    HW126105   1.675   0.979   4.592 -0.0152  1.2230  0.3210
 4881SOL    HW226106   1.617   1.013   4.463 -1.7080 -1.5336 -0.1533
 4882SOL     OW26107   3.331   4.116   9.232  0.0931  0.2436  0.0749
 4882SOL    HW126108   3.275   4.056   9.281 -0.0917 -0.0795 -0.5447
 4882SOL    HW226109   3.267   4.156   9.173  1.7124  1.5887 -0.7721
 4883SOL     OW26110   2.312   0.558  12.265 -0.4439  0.2791 -0.2464
 4883SOL    HW126111   2.254   0.514  12.328 -2.6155  1.1156 -1.6963
 4883SOL    HW226112   2.389   0.500  12.258 -0.1796  0.4574  1.0334
 4884SOL     OW26113   1.356   0.026   3.668 -0.8263 -0.3659 -0.0225
 4884SOL    HW126114   1.444   0.023   3.629  0.6756 -2.4209  3.4445
 4884SOL    HW226115   1.369   4.725   3.759  1.2008  0.4980 -0.0374
 4885SOL     OW26116   1.659   1.754   5.767 -0.1330  0.2957  0.3368
 4885SOL    HW126117   1.753   1.768   5.770 -0.1211  0.1905  0.4353
 4885SOL    HW226118   1.620   1.838   5.741  1.7210  1.3190  0.8213
 4886SOL     OW26119   3.338   0.271   4.981  0.3038  0.0883  0.5464
 4886SOL    HW126120   3.248   0.255   4.954 -0.0786  1.5611  0.9506
 4886SOL    HW226121   3.365   0.342   4.924 -0.6561  0.2082  0.2561
 4887SOL     OW26122   1.294   2.084   4.842 -0.4346 -0.3585  0.2218
 4887SOL    HW126123   1.202   2.062   4.859 -0.5129  0.2988  0.6772
 4887SOL    HW226124   1.322   2.086   4.934 -1.0220  0.3611  0.3868
 4888SOL     OW26125   2.690   1.716   5.847  0.1685 -0.5008  0.1442
 4888SOL    HW126126   2.695   1.622   5.833  2.5535 -0.3758  0.0590
 4888SOL    HW226127   2.707   1.730   5.940  1.2366 -0.9964  0.0229
 4889SOL     OW26128   0.936   1.150  15.222  0.3702  0.2246  0.3598
 4889SOL    HW126129   0.990   1.077  15.190  1.9446  2.0252 -1.0589
 4889SOL    HW226130   0.953   1.137  15.316 -0.0645 -1.1765  0.2469
 4890SOL     OW26131   3.069   3.610   8.539 -0.0644  0.0796  0.3734
 4890SOL    HW126132   3.014   3.688   8.541 -0.3527 -0.0454 -2.9832
 4890SOL    HW226133   3.042   3.547   8.606  1.8809 -1.4265 -0.2492
 4891SOL     OW26134   3.053   4.280   8.225 -0.8724  1.0273 -0.6456
 4891SOL    HW126135   2.960   4.290   8.248 -0.2230 -0.3253  2.5820
 4891SOL    HW226136   3.058   4.185   8.229  1.7120  1.2280  0.4786
 4892SOL     OW26137   4.381   3.052   4.748  0.1570  0.0925  0.4799
 4892SOL    HW126138   4.473   3.045   4.723 -0.3005 -0.5176 -0.9803
 4892SOL    HW226139   4.338   2.992   4.688  0.6938 -0.1042  0.2949
 4893SOL     OW26140   3.312   0.054   3.978 -0.0108 -0.1284 -0.0260
 4893SOL    HW126141   3.240   0.116   3.987 -1.2392 -1.0918 -3.2692
 4893SOL    HW226142   3.382   0.088   4.035  0.7124 -1.2536 -0.2296
 4894SOL     OW26143   3.736   2.204  10.821  0.1874 -0.0243  0.4453
 4894SOL    HW126144   3.726   2.246  10.735  0.2322 -1.9359 -0.5080
 4894SOL    HW226145   3.674   2.254  10.874 -1.0067 -1.1579  0.1255
 4895SOL     OW26146   3.064   2.867   5.551  0.6997 -0.2951  0.9121
 4895SOL    HW126147   3.078   2.958   5.575  0.3671 -0.4282  1.6230
 4895SOL    HW226148   2.982   2.846   5.596  1.7785 -0.6465  2.7556
 4896SOL     OW26149   2.410   0.111  15.306 -0.7828  0.3603  0.7564
 4896SOL    HW126150   2.500   0.081  15.297 -0.7159  1.1752 -1.3718
 4896SOL    HW226151   2.361   0.042  15.260  1.2035 -0.5000 -0.0692
 4897SOL     OW26152   2.264   4.147   9.269  0.0733  1.0055  0.0343
 4897SOL    HW126153   2.287   4.110   9.183 -0.6860 -0.4551  0.4610
 4897SOL    HW226154   2.202   4.218   9.253  1.2209  1.7341 -1.1886
 4898SOL     OW26155   3.078   1.187   3.284 -0.0043 -0.6095  0.1354
 4898SOL    HW126156   3.153   1.153   3.334 -0.9060 -1.1712  1.1032
 4898SOL    HW226157   3.098   1.281   3.286 -0.1124 -0.6182  1.8726
 4899SOL     OW26158   0.711   3.706   4.565  0.3089  0.0246 -0.5821
 4899SOL    HW126159   0.681   3.677   4.479 -1.7771  0.4025  0.0267
 4899SOL    HW226160   0.763   3.632   4.598  2.9550  1.1141 -2.2793
 4900SOL     OW26161   0.846   0.132   6.979 -0.1217 -0.4921  0.1536
 4900SOL    HW126162   0.865   0.132   6.886 -4.1800  0.3038 -0.6721
 4900SOL    HW226163   0.859   0.224   7.001  0.8328 -0.7308  0.5984
 4901SOL     OW26164   4.515   0.018   8.411  0.7222  0.0499 -0.2222
 4901SOL    HW126165   4.457   0.032   8.486 -0.9284 -0.1943 -1.4344
 4901SOL    HW226166   4.452   4.685   8.369 -0.3877  0.8312  0.3312
 4902SOL     OW26167   0.012   2.527  11.732 -0.5219  0.1939  0.4480
 4902SOL    HW126168   0.080   2.529  11.665  1.7875 -1.6743  2.7355
 4902SOL    HW226169   0.054   2.473  11.799 -1.6106  0.3080  1.2126
 4903SOL     OW26170   2.564   2.585   3.679  0.6992 -0.5285 -0.3838
 4903SOL    HW126171   2.521   2.652   3.625  0.7051  0.4958  0.8662
 4903SOL    HW226172   2.497   2.517   3.683 -0.8852  1.1426  1.8370
 4904SOL     OW26173   1.460   1.589   4.613 -0.0599  0.1311  0.5559
 4904SOL    HW126174   1.444   1.569   4.520 -1.3952  0.8106  0.6372
 4904SOL    HW226175   1.517   1.522   4.649 -2.0155  0.0278  3.4369
 4905SOL     OW26176   1.788   0.662   5.417 -0.7300 -0.1987 -0.1556
 4905SOL    HW126177   1.806   0.568   5.417  2.3358  0.4009  0.3493
 4905SOL    HW226178   1.870   0.698   5.451 -0.6890 -0.6911  0.2614
 4906SOL     OW26179   1.810   0.618   6.412 -0.3180 -0.0045 -0.0650
 4906SOL    HW126180   1.720   0.598   6.386  0.3996 -0.8249 -1.9541
 4906SOL    HW226181   1.848   0.541   6.370 -1.0046 -0.7444  0.6690
 4907SOL     OW26182   3.346   3.239   2.601  0.1764 -0.0967 -0.0966
 4907SOL    HW126183   3.379   3.230   2.691  0.4916 -1.0793 -0.3071
 4907SOL    HW226184   3.432   3.253   2.561  0.3762  0.5190  0.5552
 4908SOL     OW26185   4.027   3.303   0.825  0.0543 -0.1250 -0.5760
 4908SOL    HW126186   3.972   3.351   0.888  1.2107 -0.2817  0.5670
 4908SOL    HW226187   3.964   3.299   0.753 -0.4633  1.2116 -0.2085
 4909SOL     OW26188   0.491   3.613   5.321  0.0599 -0.4080 -0.1196
 4909SOL    HW126189   0.425   3.677   5.348  0.0338 -0.5606  0.1727
 4909SOL    HW226190   0.508   3.645   5.232 -2.6067  1.8728  0.1904
 4910SOL     OW26191   3.551   2.867  11.292  0.0947 -0.7302  0.0698
 4910SOL    HW126192   3.562   2.861  11.387 -3.6656 -3.2408  0.3244
 4910SOL    HW226193   3.553   2.962  11.283 -0.1227 -0.4829  2.5418
 4911SOL     OW26194   2.729   3.868   6.254 -0.4257  0.2999 -0.4826
 4911SOL    HW126195   2.664   3.857   6.324 -0.6861 -2.0349 -1.0924
 4911SOL    HW226196   2.813   3.863   6.301 -0.1609 -0.2597 -1.0210
 4912SOL     OW26197   1.621   2.226  14.804 -0.4577  0.1710  0.1554
 4912SOL    HW126198   1.558   2.271  14.861 -1.6018 -0.9357 -0.2296
 4912SOL    HW226199   1.647   2.301  14.751 -1.1919  0.2576 -0.0808
 4913SOL     OW26200   2.043   2.023   4.992 -0.1403  0.3255  0.1480
 4913SOL    HW126201   1.955   1.996   4.968 -0.0671  0.1953  0.0242
 4913SOL    HW226202   2.082   1.938   5.011  1.8242  0.7039 -2.1012
 4914SOL     OW26203   2.090   0.010   6.254  0.6909 -0.2749 -0.3941
 4914SOL    HW126204   2.087   4.648   6.292 -0.0480  0.1697  0.5892
 4914SOL    HW226205   2.120   0.056   6.332  1.3887 -2.6775  0.7608
 4915SOL     OW26206   0.342   2.180   7.706 -0.0581 -0.7183  0.3630
 4915SOL    HW126207   0.386   2.207   7.787 -0.1994 -1.9893  0.8593
 4915SOL    HW226208   0.390   2.098   7.702 -0.0372 -0.6012 -1.6457
 4916SOL     OW26209   4.126   2.085   5.405 -0.0818 -0.1651 -0.1231
 4916SOL    HW126210   4.037   2.095   5.372  0.2861 -1.5506 -1.5069
 4916SOL    HW226211   4.170   2.161   5.366 -2.0948  1.0528 -0.0391
 4917SOL     OW26212   3.613   3.070  10.962 -0.4230 -0.4934  0.6327
 4917SOL    HW126213   3.697   3.025  10.965  0.5636  1.3206  0.7411
 4917SOL    HW226214   3.627   3.144  10.902  1.0363 -1.1813  0.1320
 4918SOL     OW26215   0.473   2.844   7.136 -0.1765 -0.3780  0.0240
 4918SOL    HW126216   0.506   2.865   7.049 -0.1674 -2.0997 -0.3863
 4918SOL    HW226217   0.410   2.773   7.122  0.1483 -0.9216  1.2461
 4919SOL     OW26218   2.318   2.924  16.453  0.0795  0.5072  0.0340
 4919SOL    HW126219   2.232   2.895  16.484  0.3493 -0.8803 -0.5060
 4919SOL    HW226220   2.348   2.972  16.531  1.1545  1.0360 -0.7141
 4920SOL     OW26221   4.172   1.801   5.067 -0.6982 -0.1324 -0.2611
 4920SOL    HW126222   4.161   1.823   5.159 -1.1025 -0.6873 -0.1771
 4920SOL    HW226223   4.238   1.866   5.040 -0.0571 -0.5453  0.3134
 4921SOL     OW26224   2.679   2.991   7.933 -0.0866  0.1013 -1.0933
 4921SOL    HW126225   2.687   2.951   7.847  0.8359 -0.0814 -0.9128
 4921SOL    HW226226   2.610   3.056   7.917  1.1464  2.0085  1.3796
 4922SOL     OW26227   3.296   3.423   5.292 -0.3540 -0.1753  0.0621
 4922SOL    HW126228   3.214   3.472   5.299  0.3291  0.8837  0.6759
 4922SOL    HW226229   3.349   3.489   5.247  0.0728 -0.3166  0.3580
 4923SOL     OW26230   0.557   1.600   4.369  0.1741 -0.4129  0.3414
 4923SOL    HW126231   0.593   1.665   4.430  0.0167 -1.6490  1.7628
 4923SOL    HW226232   0.558   1.652   4.289  0.5234  0.3610  0.8542
 4924SOL     OW26233   3.553   1.729   8.670  0.4328  0.1777  0.4956
 4924SOL    HW126234   3.615   1.769   8.731  0.7827  3.1774 -1.8051
 4924SOL    HW226235   3.587   1.641   8.683 -0.1154 -0.1796 -0.5131
 4925SOL     OW26236   3.276   4.190   8.400 -0.8603  0.0270  0.3722
 4925SOL    HW126237   3.232   4.116   8.442 -2.2862  0.2741 -0.6859
 4925SOL    HW226238   3.203   4.242   8.367 -0.7390 -0.0080  0.0516
 4926SOL     OW26239   1.606   3.524  11.929 -0.2170  0.0421 -0.3236
 4926SOL    HW126240   1.517   3.540  11.962 -0.7797 -2.4218 -0.6976
 4926SOL    HW226241   1.636   3.611  11.957 -0.1382 -0.5846  1.4923
 4927SOL     OW26242   2.550   2.179   7.327 -0.6879  0.2690 -0.4520
 4927SOL    HW126243   2.597   2.127   7.261  0.0825 -0.8086  0.9664
 4927SOL    HW226244   2.488   2.218   7.265 -1.3193 -0.1366 -0.0672
 4928SOL     OW26245   2.161   0.535  13.737 -0.3960  0.1381  0.6048
 4928SOL    HW126246   2.212   0.470  13.688 -1.8919 -2.1349  2.0801
 4928SOL    HW226247   2.221   0.545  13.811 -0.3088 -0.2533  0.5856
 4929SOL     OW26248   3.232   0.267   5.694  0.2147  0.0975 -0.1152
 4929SOL    HW126249   3.205   0.189   5.742  0.5153  2.1980  3.4720
 4929SOL    HW226250   3.323   0.274   5.720  0.5983 -1.0735 -1.1379
 4930SOL     OW26251   0.808   3.984   8.344  0.5492  0.0201  0.0314
 4930SOL    HW126252   0.810   4.070   8.385 -0.3936 -0.5525  1.3074
 4930SOL    HW226253   0.715   3.967   8.328  1.1882 -0.9886 -2.6229
 4931SOL     OW26254   0.713   3.186   9.537 -0.1085 -0.1367 -0.5939
 4931SOL    HW126255   0.641   3.141   9.581 -0.7350  1.7849  0.3180
 4931SOL    HW226256   0.743   3.103   9.498 -2.9352 -1.1531 -0.5968
 4932SOL     OW26257   2.866   4.162  16.076 -0.5894 -0.3687  0.2256
 4932SOL    HW126258   2.877   4.174  15.981 -0.0046  1.3836  0.5204
 4932SOL    HW226259   2.946   4.206  16.103 -1.5307  0.8028  1.0978
 4933SOL     OW26260   2.807   3.243   3.914  0.5465  0.1721  0.3476
 4933SOL    HW126261   2.725   3.291   3.903 -0.1059 -1.6738 -2.9384
 4933SOL    HW226262   2.835   3.226   3.824 -0.2603  2.1325 -0.2597
 4934SOL     OW26263   1.962   4.137   4.938 -0.2423  0.7407  0.0038
 4934SOL    HW126264   1.978   4.090   4.856 -2.4349  1.2255 -0.6924
 4934SOL    HW226265   2.039   4.194   4.948 -1.4247  2.6300 -1.5704
 4935SOL     OW26266   1.806   3.451  15.813 -0.0165 -0.5706 -0.5376
 4935SOL    HW126267   1.880   3.475  15.758  1.0095 -3.8274 -0.5850
 4935SOL    HW226268   1.759   3.534  15.808  1.4244  0.3448  1.2248
 4936SOL     OW26269   1.094   4.609   0.783  0.1088  0.5544  0.1917
 4936SOL    HW126270   1.057   4.530   0.743 -0.1278  0.9680 -0.4111
 4936SOL    HW226271   1.014   4.660   0.770 -0.1191  0.0635 -0.3537
 4937SOL     OW26272   1.849   0.954   1.083 -0.5284 -0.1327  0.3874
 4937SOL    HW126273   1.768   0.974   1.129 -1.7547 -0.0460 -1.8335
 4937SOL    HW226274   1.821   0.930   0.995 -1.8048  1.5686  0.3391
 4938SOL     OW26275   0.062   2.700   3.365  0.2248  0.8604  1.1691
 4938SOL    HW126276   0.008   2.769   3.404 -0.1306  1.6428 -0.6881
 4938SOL    HW226277   0.141   2.744   3.335 -0.1856 -1.9637 -4.0161
 4939SOL     OW26278   0.753   4.062   6.725 -0.0493  0.0369 -0.3245
 4939SOL    HW126279   0.657   4.064   6.720  0.1083  3.2879 -1.6878
 4939SOL    HW226280   0.767   4.148   6.765  0.6012 -1.0368  1.7324
 4940SOL     OW26281   0.982   4.031   7.433 -0.1113  0.4925 -0.7521
 4940SOL    HW126282   0.975   4.118   7.395  0.5987  1.3436  1.0755
 4940SOL    HW226283   1.069   4.040   7.472 -0.8262 -0.6041  1.0718
 4941SOL     OW26284   1.415   2.132   2.153  0.1910  0.5149  0.1708
 4941SOL    HW126285   1.486   2.197   2.155  0.3461  0.2621  3.4091
 4941SOL    HW226286   1.467   2.051   2.147 -3.4180 -1.7098 -0.9983
 4942SOL     OW26287   1.360   0.727   5.959 -0.1562 -0.1514 -0.2507
 4942SOL    HW126288   1.384   0.667   6.030 -0.7797  0.0496  0.1331
 4942SOL    HW226289   1.437   0.722   5.902  0.1998 -1.1410  0.3034
 4943SOL     OW26290   3.135   1.502   6.757  0.5220  0.1243  0.3258
 4943SOL    HW126291   3.136   1.500   6.661 -1.9554  3.4613  0.2213
 4943SOL    HW226292   3.198   1.434   6.780 -1.5921 -1.8166  0.2774
 4944SOL     OW26293   0.077   2.258  14.910  0.0159 -0.2895 -0.6529
 4944SOL    HW126294   0.154   2.250  14.854 -0.2186  1.4456 -1.2035
 4944SOL    HW226295   0.005   2.281  14.852 -0.3932 -2.7927 -1.1343
 4945SOL     OW26296   2.544   4.139   0.797  0.2443 -0.2356  0.0641
 4945SOL    HW126297   2.552   4.231   0.772  1.2581  0.7455  3.8601
 4945SOL    HW226298   2.615   4.105   0.743  0.8568  2.1022 -0.6139
 4946SOL     OW26299   2.952   0.523   8.279  0.5904  0.6130 -0.7432
 4946SOL    HW126300   2.890   0.455   8.305  2.8429 -0.5924  1.4364
 4946SOL    HW226301   2.900   0.603   8.291  2.1133  1.0567  2.7536
 4947SOL     OW26302   4.447   0.101   3.737  0.1446 -0.3460  0.6866
 4947SOL    HW126303   4.496   0.024   3.765 -0.3640 -0.8752  0.1206
 4947SOL    HW226304   4.516   0.150   3.693 -1.7755  1.3538 -0.4315
 4948SOL     OW26305   3.436   2.842  14.686  0.3440  0.1837 -0.1842
 4948SOL    HW126306   3.472   2.821  14.600 -0.4114  0.5055 -0.5849
 4948SOL    HW226307   3.508   2.897  14.716  1.5441 -0.5854 -1.6847
 4949SOL     OW26308   2.126   2.414   0.662  0.1582  0.2538 -0.0269
 4949SOL    HW126309   2.135   2.370   0.747 -0.8158 -1.5070 -0.8454
 4949SOL    HW226310   2.201   2.377   0.616 -0.7618  0.8291 -1.9693
 4950SOL     OW26311   2.096   1.890   3.354 -0.1241 -0.3283 -0.3306
 4950SOL    HW126312   2.112   1.799   3.329  0.3881 -0.3365  0.0397
 4950SOL    HW226313   2.074   1.930   3.269 -1.9228  0.0105  0.2889
 4951SOL     OW26314   1.778   1.466  10.479  0.2626  0.0772  0.1687
 4951SOL    HW126315   1.843   1.509  10.424 -2.1623  0.9398 -2.0228
 4951SOL    HW226316   1.710   1.445  10.416 -0.2886  0.5874  0.5934
 4952SOL     OW26317   3.361   1.489   6.200 -0.0910  0.3347  0.2491
 4952SOL    HW126318   3.378   1.491   6.295  0.7108 -0.8667  0.1345
 4952SOL    HW226319   3.347   1.584   6.200  1.1657  0.5026 -2.9287
 4953SOL     OW26320   1.346   0.813  16.232 -0.3450  0.1156 -0.0901
 4953SOL    HW126321   1.432   0.856  16.232  0.1637 -0.9049 -1.3497
 4953SOL    HW226322   1.359   0.739  16.291  0.3944  1.6768  1.6972
 4954SOL     OW26323   3.502   3.268   8.648  0.0817 -0.2381  0.1150
 4954SOL    HW126324   3.578   3.294   8.596  0.1508  1.2379  0.9654
 4954SOL    HW226325   3.527   3.180   8.675  0.2230 -0.0273  0.6623
 4955SOL     OW26326   0.616   1.054   7.718  0.2143  0.3792  0.2405
 4955SOL    HW126327   0.703   1.094   7.709  1.1982 -1.5846  1.1061
 4955SOL    HW226328   0.630   0.977   7.774 -0.8858  0.3283  0.4454
 4956SOL     OW26329   2.586   1.968   9.117 -0.2236  0.1093  0.3041
 4956SOL    HW126330   2.611   1.882   9.082  1.2736  0.1824  1.2001
 4956SOL    HW226331   2.538   1.948   9.197  1.7923  0.8085  1.6851
 4957SOL     OW26332   0.820   2.933   1.884  0.7294  0.3000 -0.0968
 4957SOL    HW126333   0.779   2.959   1.801  1.1992 -2.6608 -1.2751
 4957SOL    HW226334   0.893   2.994   1.891 -0.0400  1.1219  0.7729
 4958SOL     OW26335   3.867   0.806   8.042  0.7844  0.0690  0.0562
 4958SOL    HW126336   3.793   0.858   8.072 -0.2382 -0.8436 -0.9075
 4958SOL    HW226337   3.839   0.784   7.953  0.7279 -2.4057  0.6857
 4959SOL     OW26338   3.977   4.381   5.292 -0.6638 -0.4410 -0.5010
 4959SOL    HW126339   3.968   4.429   5.210 -1.3518 -3.0143 -1.9254
 4959SOL    HW226340   4.047   4.319   5.271 -0.6807 -1.4024  2.2806
 4960SOL     OW26341   1.088   4.157   5.014  0.0006  0.1580 -0.3407
 4960SOL    HW126342   1.133   4.233   5.050  2.3186 -0.1420 -2.5675
 4960SOL    HW226343   1.120   4.086   5.069  0.0146  2.2602  2.3710
 4961SOL     OW26344   2.203   2.626  15.649  0.0474  0.0087  0.0097
 4961SOL    HW126345   2.288   2.653  15.684  0.3696 -0.6395 -0.2817
 4961SOL    HW226346   2.239   2.550  15.603 -1.9223 -2.1901  2.0588
 4962SOL     OW26347   3.104   4.230  16.173  1.0849 -0.0451  0.2837
 4962SOL    HW126348   3.134   4.304  16.225  0.0818  0.5800 -0.0201
 4962SOL    HW226349   3.154   4.252  16.095 -2.1093  1.4985 -1.3381
 4963SOL     OW26350   4.280   1.307   7.887  0.2134  0.0242 -0.3750
 4963SOL    HW126351   4.349   1.362   7.850 -0.1616 -1.0753 -2.7229
 4963SOL    HW226352   4.318   1.220   7.873  1.1955  0.3592  0.2360
 4964SOL     OW26353   2.403   1.655   2.086  0.3521  0.8758 -0.1947
 4964SOL    HW126354   2.325   1.652   2.031  0.5255 -3.4970 -0.1369
 4964SOL    HW226355   2.371   1.721   2.148  1.7133  0.1482  1.2831
 4965SOL     OW26356   0.772   0.399   9.409  0.1382  0.4871 -0.2544
 4965SOL    HW126357   0.687   0.428   9.373 -0.0779 -0.0912 -0.2067
 4965SOL    HW226358   0.783   0.323   9.352  0.1104 -1.7758  2.7877
 4966SOL     OW26359   4.081   0.846   6.010  0.0760 -0.0852 -0.4110
 4966SOL    HW126360   4.133   0.896   5.947  3.2185 -1.5428  1.0286
 4966SOL    HW226361   4.081   0.765   5.959  1.2801 -1.6345  2.0729
 4967SOL     OW26362   3.002   0.984  16.509 -0.0800  0.1322  0.0217
 4967SOL    HW126363   2.948   0.958  16.584 -0.6399 -0.8516 -0.7148
 4967SOL    HW226364   3.031   1.068  16.545 -0.1806  0.2928 -0.2701
 4968SOL     OW26365   2.607   1.115   3.138  0.4785  0.6832 -0.3031
 4968SOL    HW126366   2.650   1.058   3.201  0.6139 -0.6752 -1.6233
 4968SOL    HW226367   2.681   1.171   3.113  1.6747 -0.1669  1.3640
 4969SOL     OW26368   1.233   3.065   7.165  0.7337 -0.3111 -0.0488
 4969SOL    HW126369   1.195   3.152   7.178  0.4874 -0.5252  0.7019
 4969SOL    HW226370   1.305   3.067   7.228  0.4151  0.3813  0.2884
 4970SOL     OW26371   4.385   2.447  11.010  0.6237 -0.5176  0.0367
 4970SOL    HW126372   4.373   2.520  11.070 -0.6157 -0.7479  0.0724
 4970SOL    HW226373   4.336   2.486  10.938 -0.4726  1.1884  1.6849
 4971SOL     OW26374   1.451   3.405   8.166 -0.0820  0.1288  0.4165
 4971SOL    HW126375   1.396   3.367   8.098  0.5776  0.7314 -0.4530
 4971SOL    HW226376   1.386   3.450   8.220  1.9958  1.0412  2.1499
 4972SOL     OW26377   1.655   0.064   5.733  0.0599  0.0820 -0.1174
 4972SOL    HW126378   1.661   4.708   5.781  1.0363 -1.4407 -2.8495
 4972SOL    HW226379   1.621   0.123   5.800 -0.3177 -1.4686  1.0579
 4973SOL     OW26380   1.671   3.979   4.517  0.3635 -0.6546  0.3329
 4973SOL    HW126381   1.668   4.070   4.487 -0.3092 -0.3703  1.2854
 4973SOL    HW226382   1.751   3.949   4.473  0.6773  0.2470  0.2854
 4974SOL     OW26383   1.908   1.104   4.248  0.2408  0.2651  0.0518
 4974SOL    HW126384   1.836   1.140   4.300  1.0770 -1.4059  2.3886
 4974SOL    HW226385   1.869   1.110   4.161  0.6596 -0.7356 -0.2143
 4975SOL     OW26386   2.403   4.654   5.447  0.8502 -0.5744 -0.4876
 4975SOL    HW126387   2.352   0.009   5.445  0.9262 -0.5494 -1.2249
 4975SOL    HW226388   2.473   4.674   5.385  2.1028 -2.0665  0.4311
 4976SOL     OW26389   3.340   3.030  10.950 -0.1328 -0.1403 -0.1170
 4976SOL    HW126390   3.293   3.088  11.010  1.5666  0.0510  1.0302
 4976SOL    HW226391   3.432   3.056  10.954 -0.4592  0.6609  2.3651
 4977SOL     OW26392   2.403   2.725   1.166 -0.1363  0.2025  0.5403
 4977SOL    HW126393   2.435   2.653   1.220  0.4407 -0.1655 -0.3075
 4977SOL    HW226394   2.384   2.675   1.087 -0.3277  0.5493  0.3685
 4978SOL     OW26395   1.443   4.385   8.649 -0.0651  0.3828 -0.3510
 4978SOL    HW126396   1.470   4.435   8.725 -0.4950  0.0344  0.0354
 4978SOL    HW226397   1.523   4.391   8.597  0.0625  0.0872 -0.1903
 4979SOL     OW26398   2.150   1.467   8.989 -0.3531 -0.5201  0.3742
 4979SOL    HW126399   2.137   1.487   8.897 -0.4530  2.2176  0.9953
 4979SOL    HW226400   2.073   1.507   9.029  0.4646  1.2680  0.1598
 4980SOL     OW26401   0.518   2.524   2.786  0.6543  0.3219  0.0371
 4980SOL    HW126402   0.562   2.606   2.806  1.0596  0.4316 -1.3474
 4980SOL    HW226403   0.563   2.480   2.859  1.9377  3.3006  1.0378
 4981SOL     OW26404   1.674   2.036   2.242  0.1284 -0.1617  0.3594
 4981SOL    HW126405   1.637   1.968   2.298 -1.5572 -0.0974 -0.6862
 4981SOL    HW226406   1.742   1.982   2.202 -1.2922 -2.7711  1.4216
 4982SOL     OW26407   1.901   3.705  14.416  0.3444 -0.0429 -0.4293
 4982SOL    HW126408   1.910   3.780  14.356  0.0401 -0.6360 -1.2055
 4982SOL    HW226409   1.992   3.675  14.416  0.1617 -0.5838  0.1607
 4983SOL     OW26410   3.968   1.222   9.579  0.7516 -0.5189 -0.3141
 4983SOL    HW126411   3.941   1.284   9.647 -0.5311  0.3946 -1.6451
 4983SOL    HW226412   4.062   1.208   9.589  0.3651 -1.9363  1.4539
 4984SOL     OW26413   2.943   1.258   4.520 -0.3663 -0.0654 -0.4213
 4984SOL    HW126414   2.897   1.305   4.451  0.3287 -0.7881 -1.3672
 4984SOL    HW226415   3.005   1.205   4.470  1.9283  2.2504 -0.0606
 4985SOL     OW26416   3.091   4.150   6.937  0.3131 -0.2398  0.8676
 4985SOL    HW126417   3.051   4.225   6.980 -0.8681  0.3513 -1.2684
 4985SOL    HW226418   3.017   4.104   6.898  1.4019 -1.5051  0.2766
 4986SOL     OW26419   2.489   1.678   5.138 -0.3267 -0.0970  0.3805
 4986SOL    HW126420   2.490   1.596   5.089  0.3991  0.1553 -0.0213
 4986SOL    HW226421   2.558   1.718   5.086 -0.0932 -1.9009 -0.7087
 4987SOL     OW26422   1.445   1.174   0.991 -0.2623 -0.4865  0.8148
 4987SOL    HW126423   1.421   1.231   1.064 -0.4280 -0.5022  0.7726
 4987SOL    HW226424   1.502   1.114   1.039  3.1695  3.3125  1.5678
 4988SOL     OW26425   0.690   0.983   2.901  0.1309  0.6581 -0.0132
 4988SOL    HW126426   0.743   0.964   2.979  0.2981 -1.2670 -0.5920
 4988SOL    HW226427   0.608   1.013   2.939  1.2740  0.8764  2.2894
 4989SOL     OW26428   4.003   3.230  14.646  0.0965  0.7262 -0.1697
 4989SOL    HW126429   4.071   3.220  14.713 -0.9720 -1.0107  0.6508
 4989SOL    HW226430   4.063   3.243  14.572  0.4465  2.2778  0.3893
 4990SOL     OW26431   1.836   2.826   3.414 -0.4454 -0.1935 -0.3261
 4990SOL    HW126432   1.773   2.784   3.356  0.5974 -0.4122 -1.3034
 4990SOL    HW226433   1.801   2.806   3.501 -0.2573 -0.9900 -0.4331
 4991SOL     OW26434   3.158   0.844   6.946  0.1566 -0.6405 -0.0911
 4991SOL    HW126435   3.115   0.820   6.864 -0.7326  2.3163 -0.4969
 4991SOL    HW226436   3.101   0.919   6.968  0.9396 -0.4885  1.4553
 4992SOL     OW26437   3.943   2.431   2.658 -0.1899 -0.2734 -0.2319
 4992SOL    HW126438   4.033   2.428   2.689 -0.2938  1.2018  0.2393
 4992SOL    HW226439   3.928   2.520   2.627 -1.7784 -0.8913 -1.2447
 4993SOL     OW26440   1.769   1.801   2.528  0.2885  0.1472  0.1584
 4993SOL    HW126441   1.685   1.756   2.515  1.3579 -0.7223 -3.5823
 4993SOL    HW226442   1.811   1.716   2.539  1.6214  0.8436  0.3723
 4994SOL     OW26443   0.529   3.728   5.767 -0.6119  0.3458 -0.3563
 4994SOL    HW126444   0.480   3.805   5.738 -0.2574 -0.4376 -3.0706
 4994SOL    HW226445   0.482   3.722   5.850  0.6949 -2.8068  0.1703
 4995SOL     OW26446   2.386   1.162   6.375 -0.0911  0.3357 -0.0174
 4995SOL    HW126447   2.419   1.088   6.325 -0.7856 -0.1967  0.3046
 4995SOL    HW226448   2.461   1.186   6.429  0.1559  3.1266 -1.6136
 4996SOL     OW26449   1.780   1.217   7.584 -0.0545  0.0365 -0.0932
 4996SOL    HW126450   1.856   1.275   7.575 -1.2785  1.7844  0.7287
 4996SOL    HW226451   1.798   1.138   7.533 -0.8809 -0.2755  0.0930
 4997SOL     OW26452   0.809   2.498   0.476  0.2699  0.2339 -0.1823
 4997SOL    HW126453   0.787   2.441   0.549 -2.0084  1.1912 -0.1170
 4997SOL    HW226454   0.884   2.456   0.434 -1.7644 -0.7360 -2.8410
 4998SOL     OW26455   1.760   3.158  10.929 -0.1275 -0.6454  0.3967
 4998SOL    HW126456   1.719   3.107  10.998 -0.2767 -1.8275 -0.5787
 4998SOL    HW226457   1.840   3.182  10.976 -1.0996  1.4046  0.9981
 4999SOL     OW26458   3.126   2.789  10.282  0.1506  0.1353  0.3595
 4999SOL    HW126459   3.058   2.726  10.258 -0.7031  0.6984  1.2969
 4999SOL    HW226460   3.135   2.839  10.201 -0.7562  0.1631  0.2808
 5000SOL     OW26461   2.138   1.475   1.110  0.0838  0.0505 -0.1163
 5000SOL    HW126462   2.175   1.553   1.068 -0.9362  0.1000 -0.9117
 5000SOL    HW226463   2.079   1.430   1.050  3.0191  0.8199 -3.6220
 5001SOL     OW26464   1.745   2.316   5.780 -0.1195 -0.2556 -0.3352
 5001SOL    HW126465   1.817   2.253   5.776  0.3701  0.1604  1.8304
 5001SOL    HW226466   1.751   2.359   5.695 -0.8087  1.0754  0.2765
 5002SOL     OW26467   2.498   1.245   4.204  0.5355 -0.9434  0.0425
 5002SOL    HW126468   2.503   1.260   4.299 -1.3201 -0.5274  0.0770
 5002SOL    HW226469   2.548   1.164   4.200  1.1017 -0.6107  0.3214
 5003SOL     OW26470   4.226   2.816   3.142 -0.2017  0.3372  0.1774
 5003SOL    HW126471   4.244   2.906   3.116  2.3415 -0.4099 -0.6505
 5003SOL    HW226472   4.132   2.808   3.129 -0.2161 -0.3375  0.6460
 5004SOL     OW26473   3.540   0.571  10.241 -0.4922 -0.4204  0.0835
 5004SOL    HW126474   3.608   0.625  10.200 -1.1166 -0.3177 -0.8172
 5004SOL    HW226475   3.482   0.644  10.259  0.4492 -0.3643  2.8057
 5005SOL     OW26476   2.524   4.257   9.902  0.5663 -0.2180 -0.3976
 5005SOL    HW126477   2.454   4.208   9.859  1.5881  0.6097 -2.9423
 5005SOL    HW226478   2.570   4.262   9.819  1.0900 -1.6181 -0.1837
 5006SOL     OW26479   4.413   3.025  11.462 -0.7156  0.4226  0.6612
 5006SOL    HW126480   4.439   3.017  11.554  2.4512 -1.7845 -0.4322
 5006SOL    HW226481   4.318   3.034  11.468 -0.7217  0.0771  1.0885
 5007SOL     OW26482   0.083   3.742  16.411  0.5167  0.0531  0.7160
 5007SOL    HW126483   0.107   3.785  16.329 -1.7935  0.9360  0.5250
 5007SOL    HW226484   0.071   3.806  16.481  0.4656  0.1401  0.6266
 5008SOL     OW26485   1.789   4.068   2.978  0.3236  0.0820 -0.4627
 5008SOL    HW126486   1.851   4.008   2.938  1.3323  1.3401 -0.8051
 5008SOL    HW226487   1.713   4.012   2.988  0.8311 -0.7255 -1.1451
 5009SOL     OW26488   0.399   0.342   3.463 -0.4989 -0.3366 -0.3018
 5009SOL    HW126489   0.450   0.335   3.544 -3.5973  0.7182  1.7532
 5009SOL    HW226490   0.329   0.403   3.488  1.0281  0.5720  1.7454
 5010SOL     OW26491   3.655   3.615   4.168  0.5193  0.1260 -0.1247
 5010SOL    HW126492   3.620   3.690   4.216 -0.1348 -1.1288  1.3431
 5010SOL    HW226493   3.726   3.658   4.119  1.1912  0.5394  1.2170
 5011SOL     OW26494   3.325   0.973   4.527 -0.1836  0.6724  0.3426
 5011SOL    HW126495   3.234   0.967   4.556 -0.5646  2.6708 -0.5083
 5011SOL    HW226496   3.371   0.930   4.600 -1.3701 -1.8851 -0.3911
 5012SOL     OW26497   2.703   2.746   4.023  0.5453 -0.2837 -0.2612
 5012SOL    HW126498   2.769   2.684   4.056  1.7306  0.2105 -1.7106
 5012SOL    HW226499   2.737   2.831   4.049 -2.4746  0.8993 -0.2041
 5013SOL     OW26500   2.332   0.297   5.176  0.6338  0.2353  0.3500
 5013SOL    HW126501   2.412   0.272   5.221  0.3600  0.5677  1.0150
 5013SOL    HW226502   2.298   0.217   5.134 -0.4557 -1.1656  3.9205
 5014SOL     OW26503   2.697   0.928   0.708  0.2807 -0.3605 -0.6386
 5014SOL    HW126504   2.730   1.016   0.730 -0.4278 -0.0682 -0.7554
 5014SOL    HW226505   2.772   0.870   0.723  0.8214  1.2756  3.0259
 5015SOL     OW26506   1.917   1.349   6.815 -0.1066 -0.2118  0.2744
 5015SOL    HW126507   1.889   1.297   6.889 -3.6594  1.4558  0.1007
 5015SOL    HW226508   1.838   1.371   6.766  1.5087  0.8654 -1.8536
 5016SOL     OW26509   0.501   0.151   5.222 -0.5601 -0.6587  0.4201
 5016SOL    HW126510   0.505   0.237   5.181 -0.3208 -0.2389  1.3396
 5016SOL    HW226511   0.542   0.108   5.146 -0.0955  3.2592 -1.5640
 5017SOL     OW26512   1.212   2.922  13.290  0.0837 -0.2477 -0.1256
 5017SOL    HW126513   1.203   2.996  13.229 -0.7720  0.2220  0.5691
 5017SOL    HW226514   1.237   2.963  13.372  1.4587  0.5909 -0.9724
 5018SOL     OW26515   0.671   2.417  11.682 -0.7076  0.2978  0.4041
 5018SOL    HW126516   0.754   2.445  11.645 -0.5636 -1.0845 -0.3153
 5018SOL    HW226517   0.647   2.492  11.736  0.5985  0.8392  0.2226
 5019SOL     OW26518   0.107   3.850   8.480  0.1194  0.2018  0.0990
 5019SOL    HW126519   0.119   3.935   8.438 -0.8311  2.7187  4.9054
 5019SOL    HW226520   0.027   3.863   8.531  0.3891  1.7742  0.1305
 5020SOL     OW26521   2.670   4.385   4.772 -0.1125 -0.2077 -0.0360
 5020SOL    HW126522   2.739   4.440   4.809 -2.3417  1.8455  1.0282
 5020SOL    HW226523   2.716   4.322   4.716 -1.1510 -0.6101 -0.4372
 5021SOL     OW26524   3.344   0.467  13.346 -0.1652 -0.0090 -0.0897
 5021SOL    HW126525   3.291   0.402  13.300  1.7396 -0.8371 -1.1026
 5021SOL    HW226526   3.432   0.450  13.314 -0.8647 -0.7311 -1.6486
 5022SOL     OW26527   0.537   0.130  16.646  0.3658 -0.2327  0.0536
 5022SOL    HW126528   0.445   0.141  16.621  0.5068  1.7050  0.4533
 5022SOL    HW226529   0.546   0.034  16.651  2.4021 -0.1329 -2.0792
 5023SOL     OW26530   0.525   2.425   8.851 -0.6362 -0.1663  0.2026
 5023SOL    HW126531   0.469   2.362   8.896 -1.6088  1.1545  0.8710
 5023SOL    HW226532   0.574   2.364   8.796  0.8055  0.1631  1.1243
 5024SOL     OW26533   1.368   2.706   3.743 -0.2457 -0.1090  0.0965
 5024SOL    HW126534   1.339   2.702   3.834  0.8228 -2.0143  0.3417
 5024SOL    HW226535   1.409   2.791   3.758  1.3317 -0.9842  0.6860
 5025SOL     OW26536   0.646   2.073   2.486 -0.4081 -0.7034 -0.1705
 5025SOL    HW126537   0.644   2.122   2.568 -0.8634 -3.2811  1.3713
 5025SOL    HW226538   0.715   2.127   2.448 -1.0684  0.7886  0.7703
 5026SOL     OW26539   2.722   2.645  15.465 -0.1302 -0.1327  0.0924
 5026SOL    HW126540   2.687   2.605  15.386 -0.8048 -0.8167  0.7387
 5026SOL    HW226541   2.812   2.664  15.439  0.2073 -0.1960  1.1870
 5027SOL     OW26542   2.284   0.074   8.435  0.6198 -0.3119  0.1412
 5027SOL    HW126543   2.289   0.012   8.363  1.5418 -0.8588  0.6829
 5027SOL    HW226544   2.338   0.148   8.407 -0.4787  1.2532  2.1146
 5028SOL     OW26545   1.602   0.073   7.761 -0.2118 -0.0565  0.9688
 5028SOL    HW126546   1.627   0.029   7.842  0.8706 -2.1302 -0.4953
 5028SOL    HW226547   1.581   0.159   7.797  0.0904  0.4045  0.0524
 5029SOL     OW26548   0.232   3.327   2.840  0.0704 -0.3686 -0.1050
 5029SOL    HW126549   0.232   3.412   2.885  1.4812 -0.2287 -0.3811
 5029SOL    HW226550   0.189   3.275   2.908  2.3865 -0.8825  0.9412
 5030SOL     OW26551   3.686   4.523   4.110  0.3052 -0.2428  0.0530
 5030SOL    HW126552   3.677   4.523   4.014 -1.5127 -0.5250  0.2205
 5030SOL    HW226553   3.759   4.461   4.120  0.4999  0.1044  0.7055
 5031SOL     OW26554   3.296   1.503   2.124  0.3846 -0.3911  0.5027
 5031SOL    HW126555   3.306   1.411   2.150  1.1262 -0.9918 -1.9988
 5031SOL    HW226556   3.358   1.509   2.052 -0.5438  0.6756 -0.1985
 5032SOL     OW26557   0.619   3.350  15.921  0.2721  0.0282  0.8518
 5032SOL    HW126558   0.697   3.394  15.888 -1.2043  1.3743 -0.8178
 5032SOL    HW226559   0.651   3.297  15.995 -0.3124  1.6701  2.2770
 5033SOL     OW26560   3.155   1.884   7.829 -0.4022  0.6392  0.5704
 5033SOL    HW126561   3.180   1.959   7.884  0.8771  0.4990  0.1753
 5033SOL    HW226562   3.078   1.851   7.875  0.3047  1.0370  2.0418
 5034SOL     OW26563   4.167   2.949   3.639 -0.1034  0.1750 -0.5673
 5034SOL    HW126564   4.259   2.923   3.644 -0.0881  0.0570 -1.5695
 5034SOL    HW226565   4.136   2.916   3.724  0.1306  2.2436  0.3227
 5035SOL     OW26566   2.274   0.986   2.420 -0.5514 -0.4543 -0.2090
 5035SOL    HW126567   2.358   0.962   2.459 -0.0416 -0.6317 -1.3885
 5035SOL    HW226568   2.217   0.974   2.495 -0.4347 -0.4791 -0.1247
 5036SOL     OW26569   0.331   3.400  12.698 -0.0625  0.3184  0.7377
 5036SOL    HW126570   0.420   3.363  12.694 -1.5256 -3.1402  0.2539
 5036SOL    HW226571   0.294   3.369  12.781 -0.9838  0.3355  0.3304
 5037SOL     OW26572   4.656   4.159   2.785  0.0200  0.4931 -0.3849
 5037SOL    HW126573   4.696   4.072   2.775  1.3094  1.1080 -0.5429
 5037SOL    HW226574   4.688   4.179   2.873 -2.8447  0.5506  0.6511
 5038SOL     OW26575   2.182   4.313  17.264 -0.4437 -0.4338  0.9668
 5038SOL    HW126576   2.207   4.258  17.338  0.3804 -2.6092 -0.9396
 5038SOL    HW226577   2.221   4.397  17.289 -2.3054  0.4801  0.8052
 5039SOL     OW26578   0.647   2.543   7.937 -0.3423  0.3232 -0.2514
 5039SOL    HW126579   0.716   2.587   7.986 -1.0019  0.1881  0.7981
 5039SOL    HW226580   0.696   2.515   7.860  1.2528  0.4137  0.7488
 5040SOL     OW26581   3.746   1.112  12.830 -0.1952 -0.6757 -0.0018
 5040SOL    HW126582   3.666   1.130  12.878 -0.4677 -1.2538 -0.2430
 5040SOL    HW226583   3.725   1.043  12.768  0.1341 -0.7104 -0.0766
 5041SOL     OW26584   1.103   1.804  11.158  0.8169 -0.2835  0.4945
 5041SOL    HW126585   1.038   1.737  11.181 -0.5699  1.0661  0.5733
 5041SOL    HW226586   1.171   1.750  11.118  1.4086  1.0416 -0.2829
 5042SOL     OW26587   2.045   4.665   9.695 -0.4314 -0.6093 -0.3252
 5042SOL    HW126588   1.963   4.672   9.745 -0.8071  0.1875 -1.0688
 5042SOL    HW226589   2.026   4.640   9.605 -0.3483  0.2515 -0.5764
 5043SOL     OW26590   4.388   3.817   3.803 -0.0541 -0.8833 -0.0267
 5043SOL    HW126591   4.306   3.784   3.841 -0.7965  1.2405  0.1893
 5043SOL    HW226592   4.353   3.804   3.715  0.5781 -0.5071 -0.3315
 5044SOL     OW26593   0.109   2.170   5.887 -0.2680 -0.2565  0.3019
 5044SOL    HW126594   0.086   2.218   5.807 -1.2622 -0.3318  0.5447
 5044SOL    HW226595   0.195   2.210   5.899  0.2864 -1.3723  0.1258
 5045SOL     OW26596   4.517   2.955   8.609 -0.1960  0.2163  0.2168
 5045SOL    HW126597   4.444   3.017   8.608 -1.7302 -1.6209 -0.6821
 5045SOL    HW226598   4.509   2.927   8.700  1.9448 -1.6170 -0.1447
 5046SOL     OW26599   0.532   0.999   4.697  0.2016  0.0690 -0.2059
 5046SOL    HW126600   0.506   0.929   4.756  0.3488  0.4057  0.2617
 5046SOL    HW226601   0.626   0.988   4.709  0.2625 -0.9712 -1.6340
 5047SOL     OW26602   1.412   1.793   5.157 -0.2974  0.8340 -0.3856
 5047SOL    HW126603   1.401   1.712   5.109 -1.3914  0.1707  0.9893
 5047SOL    HW226604   1.375   1.766   5.241  1.4408  0.1318  0.1610
 5048SOL     OW26605   2.041   4.113  17.475 -0.9425  0.2397 -0.9180
 5048SOL    HW126606   2.106   4.063  17.525 -1.6170 -0.5673 -0.8574
 5048SOL    HW226607   1.985   4.042  17.444  0.6067 -0.2232 -2.6923
 5049SOL     OW26608   2.378   1.485   3.465 -0.9377  0.0020 -0.0215
 5049SOL    HW126609   2.310   1.483   3.533 -0.5266 -0.7305  0.3662
 5049SOL    HW226610   2.433   1.557   3.495 -0.4590 -1.4486  2.5805
 5050SOL     OW26611   0.912   1.401   0.362 -0.0062  0.2282 -0.0623
 5050SOL    HW126612   0.854   1.448   0.301  0.6631 -1.2563 -1.8435
 5050SOL    HW226613   0.973   1.470   0.388  0.4651 -0.8946  1.8343
 5051SOL     OW26614   4.270   1.438  15.621  0.1538 -0.1245 -0.5363
 5051SOL    HW126615   4.263   1.533  15.622 -2.5810 -0.3254 -0.2487
 5051SOL    HW226616   4.349   1.422  15.672  0.9678 -0.5358 -1.9051
 5052SOL     OW26617   4.679   1.267   1.243  0.1354 -0.0759  0.3152
 5052SOL    HW126618   0.036   1.276   1.196 -0.3656  0.7575 -0.4026
 5052SOL    HW226619   4.712   1.233   1.327 -1.2539 -2.7011 -0.2191
 5053SOL     OW26620   0.474   0.644   3.255 -0.7949 -0.7873 -0.1062
 5053SOL    HW126621   0.521   0.605   3.181  1.7060 -1.0039  1.5686
 5053SOL    HW226622   0.396   0.593   3.274 -0.0298 -2.5891 -1.6956
 5054SOL     OW26623   1.341   3.593   9.051  0.3638 -0.3958 -0.1434
 5054SOL    HW126624   1.276   3.524   9.066  0.6023 -0.1031  2.3116
 5054SOL    HW226625   1.322   3.601   8.958 -1.4436  0.0772  0.2697
 5055SOL     OW26626   1.814   1.859  16.411 -0.5677  0.0824 -0.1264
 5055SOL    HW126627   1.750   1.881  16.479 -0.5526  1.3956 -0.5364
 5055SOL    HW226628   1.895   1.876  16.458 -0.1120  0.8914 -1.1822
 5056SOL     OW26629   1.932   1.839   5.447  0.0127 -0.0925 -0.3317
 5056SOL    HW126630   2.010   1.892   5.429 -0.8268  0.4137 -2.4645
 5056SOL    HW226631   1.891   1.902   5.506 -0.2480  0.2464 -0.8745
 5057SOL     OW26632   3.653   4.544   4.411  0.2162  0.3287 -0.2731
 5057SOL    HW126633   3.567   4.575   4.383  0.5219  1.5905  0.1695
 5057SOL    HW226634   3.690   4.535   4.324  0.6944 -0.1756 -0.0114
 5058SOL     OW26635   3.743   1.885   6.725  0.7017  0.3045  0.6231
 5058SOL    HW126636   3.658   1.906   6.765  1.7140  1.1733  2.3030
 5058SOL    HW226637   3.728   1.794   6.698  0.6101  0.6738 -0.5661
 5059SOL     OW26638   0.418   4.654   2.772 -0.3000 -0.0615  0.0458
 5059SOL    HW126639   0.323   4.654   2.766 -0.3120 -1.6883  0.3015
 5059SOL    HW226640   0.441   4.665   2.864  0.2169  0.0077 -0.0928
 5060SOL     OW26641   1.628   3.980  15.813 -0.1059 -0.4577  0.1074
 5060SOL    HW126642   1.576   3.958  15.736  0.2705  0.0465 -0.2907
 5060SOL    HW226643   1.602   4.072  15.815 -1.9579 -1.0163  1.1245
 5061SOL     OW26644   0.725   0.336   3.611  0.0480 -0.1145 -0.2341
 5061SOL    HW126645   0.681   0.400   3.666 -0.0001  0.3516 -0.8111
 5061SOL    HW226646   0.801   0.389   3.585  1.8584 -2.3783  0.3720
 5062SOL     OW26647   1.877   4.007   0.215  0.3692 -0.0231 -0.3677
 5062SOL    HW126648   1.808   4.042   0.272  2.5842  0.2618  2.1438
 5062SOL    HW226649   1.956   4.055   0.238  0.0570  0.9568 -1.3510
 5063SOL     OW26650   2.328   0.193   5.486  0.2756  0.2072  0.8928
 5063SOL    HW126651   2.361   0.179   5.574  1.0558 -0.7081  0.4596
 5063SOL    HW226652   2.411   0.209   5.441  0.9997 -1.2849  1.6991
 5064SOL     OW26653   2.237   2.579   4.528  0.6329 -0.2916 -0.7184
 5064SOL    HW126654   2.326   2.609   4.509 -0.4758  2.3514 -1.8025
 5064SOL    HW226655   2.192   2.594   4.445 -0.5246 -0.3020 -0.0895
 5065SOL     OW26656   4.570   2.749   7.003  0.2785  0.0146 -0.2042
 5065SOL    HW126657   4.499   2.687   7.022 -0.9955  0.4363 -3.6349
 5065SOL    HW226658   4.633   2.718   7.069  0.6782 -0.2756 -0.7261
 5066SOL     OW26659   0.205   3.205   8.145  0.3808  0.6057  0.3069
 5066SOL    HW126660   0.234   3.275   8.204  3.4429 -1.4284  1.2140
 5066SOL    HW226661   0.169   3.137   8.202  0.4229 -0.2591 -0.6911
 5067SOL     OW26662   1.633   2.895  11.262 -0.4002  0.6806  0.1449
 5067SOL    HW126663   1.580   2.816  11.252 -1.4698  1.3696  0.4396
 5067SOL    HW226664   1.699   2.857  11.320 -1.9380 -0.0383  1.4217
 5068SOL     OW26665   4.411   1.315  10.049  0.2332  0.9011 -0.0299
 5068SOL    HW126666   4.448   1.394  10.010  0.9162 -0.3558 -1.9034
 5068SOL    HW226667   4.363   1.361  10.119  1.6632 -1.2504  2.3675
 5069SOL     OW26668   3.571   4.085   2.895  0.3308 -0.3481 -0.1993
 5069SOL    HW126669   3.554   4.156   2.833 -0.8135 -1.5757 -1.2964
 5069SOL    HW226670   3.666   4.078   2.901  0.3912  1.3684  0.7008
 5070SOL     OW26671   1.127   0.315   0.355  0.4731 -0.2352 -0.1119
 5070SOL    HW126672   1.116   0.262   0.277  1.4162 -2.3435  1.1927
 5070SOL    HW226673   1.086   0.252   0.415  1.6716  0.5131  1.5044
 5071SOL     OW26674   4.482   4.489   4.329 -1.0676  0.3716 -0.2036
 5071SOL    HW126675   4.407   4.446   4.370 -0.2794 -0.6366  0.1522
 5071SOL    HW226676   4.544   4.417   4.322 -1.0962  0.0950  2.2929
 5072SOL     OW26677   1.174   3.190  14.171 -0.0696  0.0854  0.2609
 5072SOL    HW126678   1.162   3.280  14.202 -0.6384 -0.5626  1.9515
 5072SOL    HW226679   1.261   3.193  14.132  0.1758 -1.0361  0.7136
 5073SOL     OW26680   2.288   4.701   8.161  0.1141 -0.0762 -0.0015
 5073SOL    HW126681   2.239   0.047   8.120  0.0366 -0.5513 -0.7454
 5073SOL    HW226682   2.271   4.629   8.101  0.8940  0.8640 -1.3641
 5074SOL     OW26683   0.024   1.653  16.075  0.2422 -0.2215 -0.1535
 5074SOL    HW126684   0.040   1.582  16.013 -0.3781  1.2396 -2.0106
 5074SOL    HW226685   4.667   1.688  16.043 -0.4824 -1.8194 -0.0064
 5075SOL     OW26686   3.719   1.169   4.933  0.0765  0.5605  0.4009
 5075SOL    HW126687   3.779   1.243   4.925 -0.0963  0.3002 -3.2450
 5075SOL    HW226688   3.656   1.195   4.865 -1.2919 -2.3626  0.5548
 5076SOL     OW26689   3.336   0.620   8.517 -0.4301  0.2972  0.1341
 5076SOL    HW126690   3.265   0.635   8.580 -0.5005  1.9468 -0.3443
 5076SOL    HW226691   3.409   0.655   8.569 -0.4326  1.5377 -0.7143
 5077SOL     OW26692   2.676   1.277   4.684 -0.1682 -0.2205 -0.4825
 5077SOL    HW126693   2.721   1.361   4.681 -0.0498 -0.2806 -0.3693
 5077SOL    HW226694   2.750   1.217   4.674 -0.6115 -0.7631 -0.5400
 5078SOL     OW26695   1.405   3.302  17.505  0.4794  0.2260 -0.1051
 5078SOL    HW126696   1.357   3.282  17.425 -1.4234 -0.1539  1.1285
 5078SOL    HW226697   1.399   3.221  17.555 -1.4339  0.7912  0.6002
 5079SOL     OW26698   3.663   0.176   6.569 -0.1187  0.7991  0.0304
 5079SOL    HW126699   3.729   0.240   6.540 -0.8161  1.8371  0.7037
 5079SOL    HW226700   3.584   0.216   6.534  0.3584  0.5824 -1.2937
 5080SOL     OW26701   1.741   3.442   2.037 -0.0385  0.2357  0.2155
 5080SOL    HW126702   1.770   3.418   1.949  0.4215  2.3764 -0.2142
 5080SOL    HW226703   1.648   3.430   2.018 -0.2629 -0.9876  2.0545
 5081SOL     OW26704   4.674   0.805   5.748 -0.3186  0.0070 -0.0175
 5081SOL    HW126705   4.613   0.876   5.725 -0.2073  0.3435  0.7263
 5081SOL    HW226706   4.626   0.756   5.814 -0.7168 -2.5156 -2.1901
 5082SOL     OW26707   0.815   1.254   0.117  0.2429 -0.6796 -0.0582
 5082SOL    HW126708   0.730   1.234   0.155 -1.5425  0.5814 -3.3481
 5082SOL    HW226709   0.793   1.250   0.023  0.3936 -1.9116 -0.0299
 5083SOL     OW26710   1.365   0.914  15.755 -0.6852 -0.6807  0.1232
 5083SOL    HW126711   1.369   0.856  15.830 -1.3995  1.5905  1.9188
 5083SOL    HW226712   1.429   0.984  15.772 -1.7050  0.3949 -0.4200
 5084SOL     OW26713   1.439   2.740  13.280 -0.1587  0.4118 -0.0301
 5084SOL    HW126714   1.353   2.778  13.301  0.6821  1.5793  1.3197
 5084SOL    HW226715   1.420   2.650  13.255  0.7482 -0.5809  2.7969
 5085SOL     OW26716   4.247   3.848   2.755  0.4621 -0.3753  0.4563
 5085SOL    HW126717   4.268   3.918   2.694 -2.8031  1.1568  1.0955
 5085SOL    HW226718   4.179   3.797   2.712  1.7620 -1.4623 -0.3323
 5086SOL     OW26719   2.347   0.079   9.201 -0.0161 -0.1790  0.4016
 5086SOL    HW126720   2.369   4.715   9.179 -1.5766 -1.1750  2.8786
 5086SOL    HW226721   2.252   0.077   9.193 -0.0177  2.5162 -0.1744
 5087SOL     OW26722   3.461   1.543   4.949 -0.3775 -0.0604  0.1610
 5087SOL    HW126723   3.543   1.543   4.900 -0.5170 -0.8932 -0.0716
 5087SOL    HW226724   3.493   1.506   5.032  2.7896 -1.2284 -1.5972
 5088SOL     OW26725   1.988   3.671   4.051 -0.1768 -0.4719 -0.3532
 5088SOL    HW126726   2.018   3.586   4.085 -1.6074 -0.5518  0.7117
 5088SOL    HW226727   1.931   3.692   4.125 -1.0022  2.6338 -1.8924
 5089SOL     OW26728   1.820   2.479  16.363  0.2957  0.0811 -0.1698
 5089SOL    HW126729   1.914   2.481  16.377  0.3050  2.2260 -0.4748
 5089SOL    HW226730   1.792   2.401  16.411 -0.3486 -0.7193 -1.8499
 5090SOL     OW26731   3.491   2.049  12.252 -0.2409 -0.1718  0.0423
 5090SOL    HW126732   3.443   1.990  12.194  0.4137 -1.7390  1.1002
 5090SOL    HW226733   3.438   2.127  12.232  2.0143  0.6565 -2.7646
 5091SOL     OW26734   4.267   1.041   2.335  0.3891  0.0918 -0.2618
 5091SOL    HW126735   4.182   0.998   2.334  0.5801 -0.2597 -1.3596
 5091SOL    HW226736   4.306   1.026   2.421  0.3167 -1.9450 -0.5749
 5092SOL     OW26737   2.706   0.057  15.229  0.2933 -0.3841 -0.5584
 5092SOL    HW126738   2.800   0.060  15.212 -0.1055 -0.0219 -2.6803
 5092SOL    HW226739   2.713   4.694  15.264 -0.4636 -0.4212 -0.4978
 5093SOL     OW26740   0.607   2.105   1.837 -0.0688 -0.6910  0.5333
 5093SOL    HW126741   0.667   2.131   1.907 -2.4563 -0.8606  2.6557
 5093SOL    HW226742   0.654   2.036   1.790  0.3443 -1.3996  1.9753
 5094SOL     OW26743   2.361   2.809  13.502 -0.4203 -0.1743  0.5717
 5094SOL    HW126744   2.292   2.743  13.492 -1.0233  0.1515  2.7961
 5094SOL    HW226745   2.433   2.748  13.484  0.3080  1.1037 -0.8269
 5095SOL     OW26746   1.450   3.721  10.427  0.1536  0.6702 -0.4630
 5095SOL    HW126747   1.409   3.791  10.477  0.8008 -0.5522  1.7816
 5095SOL    HW226748   1.396   3.651  10.464 -1.4271  1.2994 -1.5670
 5096SOL     OW26749   0.870   2.365   5.279 -0.0184  0.2978 -0.1812
 5096SOL    HW126750   0.866   2.447   5.328  0.4925 -0.2065  0.7100
 5096SOL    HW226751   0.913   2.407   5.205  0.7677  0.8912  0.6170
 5097SOL     OW26752   0.883   2.272  11.303 -0.2253  0.2868  0.3689
 5097SOL    HW126753   0.969   2.303  11.330 -0.0168 -0.2907  0.3621
 5097SOL    HW226754   0.900   2.178  11.305 -2.2132 -0.0525  1.7009
 5098SOL     OW26755   2.287   1.945   7.168  0.9519  0.7409 -0.4291
 5098SOL    HW126756   2.220   1.882   7.194  1.4366  0.4693  0.1551
 5098SOL    HW226757   2.367   1.914   7.211 -0.2291 -1.7515 -0.0384
 5099SOL     OW26758   3.682   3.527   2.057  1.0108 -0.0113 -0.4401
 5099SOL    HW126759   3.761   3.529   2.111  0.7785 -1.3276 -0.0701
 5099SOL    HW226760   3.614   3.571   2.109 -0.3224 -1.2272 -1.1614
 5100SOL     OW26761   3.005   4.437   7.461  0.1676  0.0582 -0.2739
 5100SOL    HW126762   3.080   4.467   7.409  0.1493 -2.3045 -1.7037
 5100SOL    HW226763   3.018   4.490   7.539  0.2116 -0.2502 -0.0714
 5101SOL     OW26764   1.579   2.793   8.590  0.4897 -0.0297  0.4484
 5101SOL    HW126765   1.539   2.862   8.539 -2.1631 -0.2664  2.2119
 5101SOL    HW226766   1.643   2.850   8.633 -0.2185  0.7954  0.4047
 5102SOL     OW26767   0.359   2.910  17.532  0.2617 -0.5761 -0.9386
 5102SOL    HW126768   0.443   2.896  17.488  1.6882  0.6951  1.3431
 5102SOL    HW226769   0.374   2.883  17.623  0.5582  2.8127  0.0206
 5103SOL     OW26770   2.124   2.246   4.168  0.4833  0.0899  0.2301
 5103SOL    HW126771   2.212   2.279   4.188  0.9218 -0.3282 -0.9901
 5103SOL    HW226772   2.088   2.215   4.251 -0.2779  2.2720  0.7235
 5104SOL     OW26773   3.656   3.598   1.788  0.6077  0.1480 -0.5438
 5104SOL    HW126774   3.662   3.559   1.876 -0.7912 -1.1357 -1.0076
 5104SOL    HW226775   3.561   3.600   1.778  0.6530  1.2161 -0.7286
 5105SOL     OW26776   3.525   1.097   4.167 -0.2894  0.0014  0.3451
 5105SOL    HW126777   3.443   1.048   4.164  0.2127 -0.9559  1.9898
 5105SOL    HW226778   3.509   1.143   4.085  1.0513 -0.5391 -0.2241
 5106SOL     OW26779   2.727   1.433  11.186  0.3767  0.3297 -0.0344
 5106SOL    HW126780   2.638   1.414  11.159  1.1191 -0.4919 -1.8662
 5106SOL    HW226781   2.777   1.410  11.108  0.8036 -2.1867  0.9893
 5107SOL     OW26782   2.599   3.195   8.376 -0.7897 -0.5122  0.3382
 5107SOL    HW126783   2.642   3.110   8.384 -0.1290 -0.1653  0.5114
 5107SOL    HW226784   2.521   3.187   8.431 -0.9216 -1.2201  0.0430
 5108SOL     OW26785   2.213   0.459   9.131 -0.2956  1.0120  0.2270
 5108SOL    HW126786   2.185   0.478   9.042 -1.2739  1.2241  0.5800
 5108SOL    HW226787   2.302   0.492   9.142 -0.0442  0.5390 -0.3745
 5109SOL     OW26788   4.709   0.073   4.714 -0.3322  0.3989 -0.2401
 5109SOL    HW126789   0.073   0.106   4.708 -0.6337  1.6329  2.0851
 5109SOL    HW226790   4.670   0.148   4.670 -1.9640 -0.4807 -0.2942
 5110SOL     OW26791   3.852   2.203   3.518 -0.1293  0.2420  0.4265
 5110SOL    HW126792   3.931   2.253   3.534 -1.4386  3.1023 -1.9624
 5110SOL    HW226793   3.798   2.264   3.467 -0.1733  1.9838  2.6103
 5111SOL     OW26794   4.462   1.018   8.157 -0.6500 -0.3669  0.0716
 5111SOL    HW126795   4.487   1.025   8.065 -0.6300 -0.8737  0.0405
 5111SOL    HW226796   4.472   0.923   8.163 -2.5876 -0.5630  0.2594
 5112SOL     OW26797   1.254   1.949   2.611 -0.2149 -0.0790  0.0297
 5112SOL    HW126798   1.217   1.867   2.578  0.9804 -0.7172  0.2406
 5112SOL    HW226799   1.249   2.007   2.535  0.3112  0.7814  0.6524
 5113SOL     OW26800   2.276   4.281   8.357 -0.1256  0.3847  0.1967
 5113SOL    HW126801   2.219   4.209   8.384 -0.2534 -0.7147 -3.0276
 5113SOL    HW226802   2.273   4.335   8.436  1.3245 -1.8473  1.7524
 5114SOL     OW26803   3.987   1.615  11.837  0.6007 -0.0219  0.0852
 5114SOL    HW126804   3.967   1.699  11.879 -1.6762  1.0170 -2.9979
 5114SOL    HW226805   3.974   1.640  11.745  0.0745  1.5326  0.5784
 5115SOL     OW26806   1.999   4.634   1.593 -0.0113 -0.7591 -0.3929
 5115SOL    HW126807   1.925   4.622   1.533  0.6650 -0.1352 -1.3626
 5115SOL    HW226808   2.075   4.644   1.536  0.8722 -0.0178  0.9402
 5116SOL     OW26809   4.588   0.941   6.832 -0.5987 -0.2362  0.0751
 5116SOL    HW126810   4.589   0.943   6.736 -0.7852 -1.9086  0.0347
 5116SOL    HW226811   4.531   0.864   6.841  1.6569 -1.7517  1.6354
 5117SOL     OW26812   1.792   0.018   2.516  0.0670 -0.0525  0.7202
 5117SOL    HW126813   1.844   0.072   2.456  1.6812 -1.5001  0.8139
 5117SOL    HW226814   1.712   4.719   2.471 -0.1558  1.2326  0.3910
 5118SOL     OW26815   3.906   1.258  13.639 -0.4313 -0.3682  0.7910
 5118SOL    HW126816   3.976   1.195  13.622  2.4002  3.2543 -0.9253
 5118SOL    HW226817   3.852   1.204  13.696 -0.2931 -1.6441 -0.2912
 5119SOL     OW26818   4.628   4.583   6.567 -0.7635 -0.4127 -0.4620
 5119SOL    HW126819   4.541   4.545   6.582 -0.0971 -1.1191  1.6556
 5119SOL    HW226820   4.637   4.632   6.649  3.7411 -1.9522 -0.0219
 5120SOL     OW26821   3.806   1.131   2.536  0.2808 -0.4666  0.1073
 5120SOL    HW126822   3.884   1.080   2.556  0.0642 -1.3281 -1.2006
 5120SOL    HW226823   3.836   1.173   2.455 -0.7373  0.2775  0.1074
 5121SOL     OW26824   3.727   1.250   0.860  0.7893 -0.1772 -0.4409
 5121SOL    HW126825   3.720   1.291   0.773  1.2026 -2.7284 -1.6969
 5121SOL    HW226826   3.652   1.192   0.844 -0.3353  0.7367  1.5162
 5122SOL     OW26827   4.361   1.918   6.554 -0.0876 -0.5578  0.5142
 5122SOL    HW126828   4.417   1.911   6.476 -0.3974 -1.0871  0.3459
 5122SOL    HW226829   4.308   1.841   6.536 -0.6190  0.2394 -1.3721
 5123SOL     OW26830   4.708   3.627   2.667  0.0139  0.1558 -0.0373
 5123SOL    HW126831   4.684   3.571   2.594  1.4441  2.4441 -2.2566
 5123SOL    HW226832   4.647   3.701   2.657 -0.1767 -0.0444 -0.3396
 5124SOL     OW26833   4.394   4.469   6.624 -0.3806 -0.0458 -0.1351
 5124SOL    HW126834   4.345   4.482   6.705 -2.9071  0.4527 -1.7421
 5124SOL    HW226835   4.427   4.379   6.627 -1.2078 -0.3181  0.6014
 5125SOL     OW26836   0.875   0.601  13.451 -0.1148  0.1171 -0.0805
 5125SOL    HW126837   0.792   0.633  13.488 -0.6293 -0.2951 -0.8950
 5125SOL    HW226838   0.890   0.513  13.485  0.8534  0.0521 -0.6701
 5126SOL     OW26839   3.664   1.619   8.069 -0.0822 -0.4990 -0.3467
 5126SOL    HW126840   3.670   1.525   8.056  0.4098 -0.6112  0.6902
 5126SOL    HW226841   3.626   1.631   8.156  0.9021 -1.3552  0.2105
 5127SOL     OW26842   4.342   1.209   0.587 -0.1312  0.1248  0.3838
 5127SOL    HW126843   4.314   1.292   0.547 -1.9380  0.2796  1.9558
 5127SOL    HW226844   4.384   1.245   0.665 -0.5903  1.0446  0.2149
 5128SOL     OW26845   0.424   4.178   5.840 -0.0148  0.4507  0.3864
 5128SOL    HW126846   0.464   4.221   5.764  0.2256 -1.6641 -0.6773
 5128SOL    HW226847   0.353   4.238   5.864  0.0270 -0.0207  1.6582
 5129SOL     OW26848   2.355   3.445   7.113 -0.5031 -0.2190  0.1776
 5129SOL    HW126849   2.337   3.356   7.085 -1.2140  0.8346 -2.6944
 5129SOL    HW226850   2.307   3.499   7.051  1.8194  1.7526  0.0878
 5130SOL     OW26851   4.654   2.331   4.784  0.2680  0.2090  0.0029
 5130SOL    HW126852   4.616   2.333   4.871  1.4514  1.8877  0.5043
 5130SOL    HW226853   4.627   2.243   4.759 -1.1582  1.0839 -1.4573
 5131SOL     OW26854   4.611   1.995   5.574 -0.6277  0.0439  0.1665
 5131SOL    HW126855   4.694   1.953   5.555 -0.2174  1.3399 -0.9086
 5131SOL    HW226856   4.547   1.952   5.518  1.7234 -2.5642 -0.5169
 5132SOL     OW26857   2.983   3.750   5.588 -0.7917  0.0458  0.3774
 5132SOL    HW126858   2.891   3.726   5.601 -0.9355  0.1067 -0.4811
 5132SOL    HW226859   2.988   3.824   5.648  1.8955  0.4680 -0.3652
 5133SOL     OW26860   0.227   3.001   4.266 -0.1275 -0.2118  0.2860
 5133SOL    HW126861   0.193   2.970   4.182  1.9947 -0.0502 -0.6425
 5133SOL    HW226862   0.150   3.015   4.322 -0.1434 -2.2389  0.7873
 5134SOL     OW26863   2.478   1.328   1.862 -0.1432 -0.1685 -0.1691
 5134SOL    HW126864   2.563   1.369   1.846 -0.4118  0.4297 -0.0408
 5134SOL    HW226865   2.481   1.298   1.953  1.2484  1.4430  0.3162
 5135SOL     OW26866   3.734   2.139  11.764  0.4389 -0.1405  0.0001
 5135SOL    HW126867   3.711   2.102  11.679 -0.3994 -0.3858  0.3340
 5135SOL    HW226868   3.798   2.207  11.744 -0.8709  0.7028 -1.2168
 5136SOL     OW26869   1.911   0.181   1.230 -0.6027 -0.1444  0.1978
 5136SOL    HW126870   1.826   0.179   1.274 -0.2395 -1.4367  0.8204
 5136SOL    HW226871   1.896   0.103   1.175 -1.9676  0.7946 -0.7758
 5137SOL     OW26872   0.142   2.964   1.872 -0.3668  0.0873 -0.0537
 5137SOL    HW126873   0.203   2.916   1.929 -0.6722 -1.4415 -1.0137
 5137SOL    HW226874   0.136   2.893   1.808  0.9814  0.2522 -0.3768
 5138SOL     OW26875   1.218   2.416  15.900 -0.2379 -0.1164  0.6656
 5138SOL    HW126876   1.221   2.467  15.980  0.9854  1.6082 -0.4808
 5138SOL    HW226877   1.124   2.401  15.888 -0.3540  1.0602  0.1078
 5139SOL     OW26878   2.234   2.268   8.917  0.4589 -0.0991  0.3764
 5139SOL    HW126879   2.148   2.229   8.933  0.7451 -1.4536 -1.4142
 5139SOL    HW226880   2.215   2.360   8.932 -0.0118 -0.4817  2.0965
 5140SOL     OW26881   4.119   1.087   5.352  0.7621  0.0153  0.2951
 5140SOL    HW126882   4.063   1.150   5.306 -0.1991 -0.9631  0.1504
 5140SOL    HW226883   4.057   1.053   5.416  0.9514  0.3800  0.6719
 5141SOL     OW26884   1.964   2.804  13.086 -0.1788 -0.0667  0.2601
 5141SOL    HW126885   2.057   2.807  13.107 -0.3564 -0.6513  1.1207
 5141SOL    HW226886   1.929   2.772  13.169  0.1865 -3.2275 -0.8052
 5142SOL     OW26887   2.047   0.457   3.250 -1.5229  0.2374  0.2052
 5142SOL    HW126888   2.014   0.419   3.332  1.8287  0.4374  1.6420
 5142SOL    HW226889   2.069   0.378   3.200 -0.5124 -0.3627  1.6097
 5143SOL     OW26890   1.509   2.930   5.385  0.0887  0.3101  0.2652
 5143SOL    HW126891   1.420   2.930   5.350 -0.2041  2.6393  1.0096
 5143SOL    HW226892   1.502   2.839   5.413  1.5653  0.1477  0.1124
 5144SOL     OW26893   4.360   1.182  14.802  0.1203 -0.3446 -0.0356
 5144SOL    HW126894   4.289   1.224  14.850  0.7296 -0.4682  0.9748
 5144SOL    HW226895   4.309   1.151  14.727 -0.2317 -1.0873  0.5072
 5145SOL     OW26896   2.163   3.901   2.108  0.5439 -0.0338  0.6163
 5145SOL    HW126897   2.145   3.811   2.136  1.3217 -0.1537  0.7198
 5145SOL    HW226898   2.080   3.947   2.117  1.4868  1.8744 -0.5192
 5146SOL     OW26899   1.853   1.456  12.947  0.1978  0.3192  0.3174
 5146SOL    HW126900   1.758   1.450  12.957  0.4951 -1.2405  2.2360
 5146SOL    HW226901   1.875   1.475  13.038 -2.3511  0.9349  0.8232
 5147SOL     OW26902   1.189   2.175   3.877  0.1475 -0.1399 -0.1749
 5147SOL    HW126903   1.240   2.255   3.881 -0.5381  0.2601  0.6509
 5147SOL    HW226904   1.165   2.159   3.786  0.7786 -1.9735 -0.0273
 5148SOL     OW26905   1.058   1.629   0.266 -1.5232  0.7388 -0.5579
 5148SOL    HW126906   1.005   1.694   0.311 -2.2239 -1.6935  2.1691
 5148SOL    HW226907   1.082   1.673   0.185  0.7208 -3.1556 -2.0326
 5149SOL     OW26908   0.923   1.705   7.510 -0.3923  0.0605  0.4087
 5149SOL    HW126909   0.925   1.799   7.488 -1.7289 -0.4344 -1.8189
 5149SOL    HW226910   0.936   1.661   7.427 -3.2098 -2.6341  1.4343
 5150SOL     OW26911   3.684   2.438   7.244  0.2206  0.2723  0.7057
 5150SOL    HW126912   3.771   2.474   7.228 -0.0196  0.6674  0.2998
 5150SOL    HW226913   3.673   2.404   7.155  0.2974 -0.2776  0.9012
 5151SOL     OW26914   1.560   3.225   4.017 -0.4901  0.5884 -0.3621
 5151SOL    HW126915   1.651   3.249   4.000 -0.7619  0.1139 -2.5578
 5151SOL    HW226916   1.510   3.284   3.961 -1.6572  0.8255  0.9231
 5152SOL     OW26917   2.465   3.423   4.700  0.1329  0.0706 -0.4204
 5152SOL    HW126918   2.417   3.394   4.623  0.7500 -0.8894 -0.4461
 5152SOL    HW226919   2.527   3.351   4.713  0.4400  0.1439 -1.4544
 5153SOL     OW26920   1.654   3.132   5.309  0.0875  0.1090  0.4371
 5153SOL    HW126921   1.669   3.117   5.215 -2.4138 -0.7260  0.1534
 5153SOL    HW226922   1.615   3.048   5.333  0.3304 -0.1075  0.0870
 5154SOL     OW26923   1.062   4.172   4.754 -0.2867 -0.4916  0.0883
 5154SOL    HW126924   1.131   4.105   4.762  0.0654 -0.3078 -1.5022
 5154SOL    HW226925   1.054   4.185   4.849  0.2550 -0.0778  0.0757
 5155SOL     OW26926   3.415   4.116   6.755 -0.6020  0.1649  0.0257
 5155SOL    HW126927   3.503   4.080   6.763 -0.9198 -0.7026 -0.4526
 5155SOL    HW226928   3.396   4.176   6.827 -1.4074 -0.4771  0.3439
 5156SOL     OW26929   2.271   2.680  16.850 -0.4261 -0.0251 -0.1194
 5156SOL    HW126930   2.352   2.730  16.858  0.1733 -1.2619  1.6285
 5156SOL    HW226931   2.203   2.745  16.870 -0.5687  0.2126 -1.3920
 5157SOL     OW26932   1.800   0.367   4.997  0.1372 -0.4573  0.1662
 5157SOL    HW126933   1.740   0.385   5.069 -0.8715  0.2585 -0.8477
 5157SOL    HW226934   1.767   0.431   4.934  3.0200 -0.3713 -1.2132
 5158SOL     OW26935   0.300   3.387   4.153  0.3437 -0.4269  0.0562
 5158SOL    HW126936   0.382   3.409   4.109  0.1273 -1.5141 -0.8994
 5158SOL    HW226937   0.243   3.393   4.076 -0.7763 -0.8351  0.8404
 5159SOL     OW26938   2.887   0.903   9.078  0.0683  0.5348  0.4960
 5159SOL    HW126939   2.816   0.871   9.133 -0.3740 -1.5075 -1.2821
 5159SOL    HW226940   2.953   0.942   9.136 -0.3364  1.9326  0.0171
 5160SOL     OW26941   0.194   1.297   2.390  0.3703  0.1029  0.5166
 5160SOL    HW126942   0.160   1.342   2.313  0.3708 -1.4642 -0.4013
 5160SOL    HW226943   0.121   1.250   2.432  0.0070 -1.8251 -2.2246
 5161SOL     OW26944   1.249   3.271   8.911  0.7931  0.3324 -0.5450
 5161SOL    HW126945   1.286   3.193   8.952  0.3379 -0.9245 -2.5557
 5161SOL    HW226946   1.183   3.292   8.977  1.9431  0.3775  0.5912
 5162SOL     OW26947   0.214   2.313   5.192  0.5921  0.5303 -0.4233
 5162SOL    HW126948   0.282   2.290   5.256  0.6772  0.7774 -0.4239
 5162SOL    HW226949   0.258   2.335   5.111  2.1213 -2.2114 -0.3391
 5163SOL     OW26950   3.864   1.132   5.758  0.1476  0.5125  0.0938
 5163SOL    HW126951   3.925   1.204   5.741 -0.3432  0.7093 -0.8114
 5163SOL    HW226952   3.782   1.174   5.732 -0.2590  0.2659  0.9610
 5164SOL     OW26953   2.121   0.839   1.089  0.1363  0.0811  0.5859
 5164SOL    HW126954   2.095   0.757   1.047  0.7933  0.7559 -1.1320
 5164SOL    HW226955   2.031   0.859   1.115  0.3103 -1.2820  2.2586
 5165SOL     OW26956   1.455   3.603   3.623 -0.2721 -0.0888  0.2734
 5165SOL    HW126957   1.511   3.532   3.655  0.0274 -0.5807 -1.3202
 5165SOL    HW226958   1.412   3.556   3.551  0.4879  0.8062 -0.7781
 5166SOL     OW26959   1.528   0.784  12.674  0.2120 -0.0163 -0.4232
 5166SOL    HW126960   1.614   0.757  12.708 -0.0258  0.8731  0.8876
 5166SOL    HW226961   1.543   0.830  12.592 -0.4329  0.7783 -0.0948
 5167SOL     OW26962   2.039   3.897   2.536 -0.4168  0.7726  0.6246
 5167SOL    HW126963   2.059   3.962   2.469  2.1764  0.6325  1.2579
 5167SOL    HW226964   2.008   3.824   2.482 -1.6016  0.6329  1.4974
 5168SOL     OW26965   3.402   3.860   2.949  0.1113 -0.1222  0.3687
 5168SOL    HW126966   3.423   3.809   2.871 -2.2842  0.2110 -0.5017
 5168SOL    HW226967   3.457   3.936   2.934  0.4588 -1.0888 -3.2126
 5169SOL     OW26968   4.170   4.185   8.830  0.6692  0.4414 -0.3841
 5169SOL    HW126969   4.107   4.124   8.868 -0.3352  1.2909 -0.6678
 5169SOL    HW226970   4.112   4.258   8.849 -0.4028 -0.4413 -0.2532
 5170SOL     OW26971   1.434   0.250   1.436  0.2468 -0.3324 -0.4955
 5170SOL    HW126972   1.349   0.232   1.396 -0.4376  0.5163  0.5753
 5170SOL    HW226973   1.417   0.321   1.498 -0.3590  0.3083 -1.3980
 5171SOL     OW26974   4.585   1.986  15.270 -0.1593 -1.0399 -0.6287
 5171SOL    HW126975   4.582   2.077  15.239  1.6449 -0.3597  1.2259
 5171SOL    HW226976   4.624   1.953  15.190 -2.1058 -2.3920 -1.0260
 5172SOL     OW26977   2.301   3.877   2.626 -0.2668  0.3015  0.0536
 5172SOL    HW126978   2.207   3.869   2.608 -0.3901  3.9732 -0.7553
 5172SOL    HW226979   2.334   3.806   2.570 -1.6918 -0.6527  0.4134
 5173SOL     OW26980   1.545   2.194  10.257  0.1222 -0.0134  0.2614
 5173SOL    HW126981   1.547   2.156  10.169 -0.0494 -2.2315  1.2099
 5173SOL    HW226982   1.494   2.272  10.236  1.0102  0.3155 -0.7242
 5174SOL     OW26983   1.929   1.624   2.270 -0.2435 -0.1102 -0.1636
 5174SOL    HW126984   1.902   1.708   2.233 -0.6895  0.5948  1.7950
 5174SOL    HW226985   1.910   1.562   2.199 -1.0808  2.8883 -2.5931
 5175SOL     OW26986   3.764   4.281   8.713 -0.0398 -0.6889 -0.1811
 5175SOL    HW126987   3.758   4.373   8.737 -2.7241 -0.5074 -1.5435
 5175SOL    HW226988   3.684   4.265   8.662  0.4013 -2.5289 -0.3211
 5176SOL     OW26989   4.587   1.380   2.283  0.7525  0.0616 -0.0806
 5176SOL    HW126990   4.641   1.308   2.248 -0.7827 -0.3451 -1.6310
 5176SOL    HW226991   4.591   1.441   2.210  1.5618 -0.0595 -0.1422
 5177SOL     OW26992   2.894   4.021   3.671 -0.4884 -0.5980  0.3405
 5177SOL    HW126993   2.798   4.020   3.679 -0.3807 -1.6964  1.3854
 5177SOL    HW226994   2.902   3.926   3.669  3.1459 -0.3233  3.1182
 5178SOL     OW26995   3.898   0.718   1.917  0.2108 -0.1339 -0.4672
 5178SOL    HW126996   3.896   0.645   1.854  0.6302 -1.2145  0.7623
 5178SOL    HW226997   3.975   0.761   1.881  0.9096 -0.8700  0.1542
 5179SOL     OW26998   3.064   0.503  10.895  0.4336  0.2705 -0.0263
 5179SOL    HW126999   3.069   0.530  10.986  1.4917 -0.6089  0.1706
 5179SOL    HW227000   3.125   0.430  10.883  1.3155  1.1148 -0.7304
 5180SOL     OW27001   4.079   2.926  16.857 -0.7356 -0.6198 -0.1652
 5180SOL    HW127002   4.040   3.012  16.845 -0.0402 -0.3118 -0.2232
 5180SOL    HW227003   4.120   2.922  16.943 -0.8966 -1.7328 -0.1431
 5181SOL     OW27004   3.722   3.027  16.280 -0.6855  0.0588 -0.2738
 5181SOL    HW127005   3.745   3.072  16.198  2.0250 -0.9236 -0.0568
 5181SOL    HW227006   3.669   2.954  16.248 -1.3077 -0.7662  2.6513
 5182SOL     OW27007   1.887   1.615   5.038 -0.2291  0.2601  0.3837
 5182SOL    HW127008   1.862   1.698   5.078 -0.9361  0.1475  0.1659
 5182SOL    HW227009   1.866   1.548   5.103  0.4458 -0.8055 -0.4864
 5183SOL     OW27010   0.142   3.438   9.010  0.2875  0.1730  0.1359
 5183SOL    HW127011   0.162   3.355   8.967  1.3332  0.2820  0.4060
 5183SOL    HW227012   0.148   3.500   8.938  2.7288  2.3877  2.2666
 5184SOL     OW27013   3.993   4.253   3.180  0.4708  0.5017  0.7193
 5184SOL    HW127014   4.032   4.317   3.239 -1.4305  2.2414  0.0906
 5184SOL    HW227015   4.046   4.175   3.197 -0.3743 -0.8001 -2.4412
 5185SOL     OW27016   2.966   0.676   9.301 -0.1076 -0.6081  0.5496
 5185SOL    HW127017   2.969   0.772   9.305 -0.6089 -0.4910 -2.1840
 5185SOL    HW227018   2.998   0.658   9.390 -0.7489 -0.9426  0.7139
 5186SOL     OW27019   1.900   3.558   0.601 -0.2848 -0.1847  0.0525
 5186SOL    HW127020   1.947   3.530   0.680  0.6970 -1.0310 -0.8123
 5186SOL    HW227021   1.840   3.626   0.630  0.0120 -0.4099  1.1826
 5187SOL     OW27022   2.531   4.372  10.801 -0.3796 -0.0635 -0.0054
 5187SOL    HW127023   2.507   4.438  10.866 -0.5160 -0.5109  0.4039
 5187SOL    HW227024   2.494   4.296  10.846 -1.3409  0.2720 -0.2244
 5188SOL     OW27025   0.208   0.975   2.139 -0.1342 -0.2302 -0.6723
 5188SOL    HW127026   0.244   0.898   2.182  1.1870 -0.2443 -1.7828
 5188SOL    HW227027   0.292   1.011   2.111  0.3737  0.0927  1.2995
 5189SOL     OW27028   3.775   3.869  16.884 -0.5412  0.3832 -0.5783
 5189SOL    HW127029   3.698   3.907  16.926 -0.0363  0.7009  0.0560
 5189SOL    HW227030   3.769   3.775  16.897 -0.3576  0.2113 -1.7088
 5190SOL     OW27031   1.147   2.251   6.075 -0.1648  0.4975 -0.0347
 5190SOL    HW127032   1.145   2.328   6.131  1.7797  1.9146 -1.8704
 5190SOL    HW227033   1.108   2.190   6.137  1.3852  0.6741  1.1276
 5191SOL     OW27034   0.599   4.313  13.551  0.1142  0.6492  0.6573
 5191SOL    HW127035   0.525   4.314  13.490  0.7304 -0.7355 -0.1060
 5191SOL    HW227036   0.555   4.306  13.636 -1.1594 -0.1460 -0.0778
 5192SOL     OW27037   1.429   2.565   0.192 -0.9448 -0.1835  0.0100
 5192SOL    HW127038   1.345   2.607   0.174 -1.6732 -1.7832 -0.2933
 5192SOL    HW227039   1.431   2.499   0.123 -1.5833 -1.4139  1.1850
 5193SOL     OW27040   3.598   3.855   8.715 -0.7598 -0.0410  0.1540
 5193SOL    HW127041   3.693   3.855   8.701 -0.9003 -3.6040 -0.7900
 5193SOL    HW227042   3.577   3.762   8.724  1.2174 -0.5684 -0.6938
 5194SOL     OW27043   0.303   0.259   7.335  0.4753 -0.3853  0.2513
 5194SOL    HW127044   0.356   0.277   7.413  0.7069 -1.0628  0.2518
 5194SOL    HW227045   0.270   0.346   7.316 -0.0042 -0.9014 -1.2934
 5195SOL     OW27046   3.121   2.283   3.070  0.0049 -0.2835  0.0425
 5195SOL    HW127047   3.037   2.326   3.055 -0.0868  0.1957  1.9329
 5195SOL    HW227048   3.102   2.251   3.158  1.1894 -1.0938  0.0023
 5196SOL     OW27049   3.332   3.222   6.163 -0.6566 -0.2162  0.1220
 5196SOL    HW127050   3.422   3.253   6.165 -0.7156 -0.1239  1.3746
 5196SOL    HW227051   3.286   3.303   6.138 -0.5269  0.1268  1.0094
 5197SOL     OW27052   2.890   2.927   3.582  0.4921  0.3909 -0.1693
 5197SOL    HW127053   2.961   2.937   3.646  0.9393  0.3532 -0.6608
 5197SOL    HW227054   2.839   3.007   3.596  0.6622  0.7914 -1.8906
 5198SOL     OW27055   2.076   2.597   4.789 -0.3747 -0.2162 -0.0387
 5198SOL    HW127056   2.093   2.568   4.879  0.6439 -0.5911 -0.3546
 5198SOL    HW227057   2.162   2.622   4.757 -0.8302  2.6815  0.9367
 5199SOL     OW27058   1.012   1.244   8.212 -0.0172 -0.6040 -0.5566
 5199SOL    HW127059   1.070   1.294   8.269 -2.1830  0.6527  0.5361
 5199SOL    HW227060   0.954   1.215   8.281 -1.3441 -1.4576 -2.0302
 5200SOL     OW27061   4.026   1.014   9.387  0.7562  0.3220  0.0302
 5200SOL    HW127062   4.098   0.965   9.348  1.0544  0.0574  0.9112
 5200SOL    HW227063   4.018   0.977   9.475 -0.5853 -0.1734 -0.2992
 5201SOL     OW27064   3.045   3.766  14.520  0.4501 -0.3762 -0.5490
 5201SOL    HW127065   3.038   3.861  14.522  0.3098 -0.3886 -0.4331
 5201SOL    HW227066   2.968   3.739  14.570 -0.3572  2.3983 -0.3197
 5202SOL     OW27067   3.406   4.678   8.076 -0.1272  0.2970 -0.3178
 5202SOL    HW127068   3.322   4.710   8.109 -0.4552  0.0590 -0.9205
 5202SOL    HW227069   3.463   0.027   8.095  2.4100 -1.3963 -1.3032
 5203SOL     OW27070   3.995   1.432   3.239  0.3627 -0.0437  0.4942
 5203SOL    HW127071   3.937   1.427   3.315 -1.0557 -0.9818 -0.6406
 5203SOL    HW227072   4.049   1.509   3.258 -1.9155  1.5198  0.5507
 5204SOL     OW27073   0.814   4.388   7.344  0.0769 -0.1482  0.2548
 5204SOL    HW127074   0.809   4.480   7.318 -0.6734 -0.2549  0.0406
 5204SOL    HW227075   0.905   4.363   7.323  0.1106  0.1300  0.0664
 5205SOL     OW27076   1.568   0.687   3.492  0.5543  0.4840 -0.1510
 5205SOL    HW127077   1.496   0.658   3.435  1.7023 -0.5198 -1.0858
 5205SOL    HW227078   1.635   0.633   3.451 -0.4629 -1.1614  0.3334
 5206SOL     OW27079   1.446   3.698   7.102  0.5347 -0.0313  0.0028
 5206SOL    HW127080   1.407   3.637   7.040 -0.5290 -0.4902  1.1281
 5206SOL    HW227081   1.449   3.782   7.056  1.3806 -0.6274 -1.0353
 5207SOL     OW27082   2.734   0.883   6.072 -0.3915  0.2286 -0.1480
 5207SOL    HW127083   2.730   0.866   5.978 -2.8483 -1.6952  0.3184
 5207SOL    HW227084   2.825   0.913   6.077 -0.8505  1.6281 -0.0327
 5208SOL     OW27085   0.881   4.664   7.635 -0.0520  0.4609 -0.0809
 5208SOL    HW127086   0.850   0.017   7.680 -0.4957  1.2165 -1.7195
 5208SOL    HW227087   0.853   4.681   7.545 -1.6104  0.0287  0.3362
 5209SOL     OW27088   1.193   3.667  12.691  0.2712 -0.0218 -0.5694
 5209SOL    HW127089   1.181   3.638  12.781 -0.0429 -3.5239 -1.7454
 5209SOL    HW227090   1.238   3.751  12.697 -0.9865  0.8683 -3.5288
 5210SOL     OW27091   1.788   0.150   3.382 -0.9922 -0.3342  0.1388
 5210SOL    HW127092   1.769   0.070   3.334 -0.3150 -0.0611 -0.5926
 5210SOL    HW227093   1.705   0.197   3.391 -1.5776 -1.3815  0.1763
 5211SOL     OW27094   3.476   4.061   4.021 -0.3922 -0.5647  0.2202
 5211SOL    HW127095   3.490   4.099   4.108 -0.1850  3.1181 -1.4585
 5211SOL    HW227096   3.439   4.134   3.971 -0.4622 -1.0245 -0.3965
 5212SOL     OW27097   3.798   3.796  12.088 -0.0687 -0.0409  0.3374
 5212SOL    HW127098   3.878   3.845  12.069  0.4471 -0.9701  0.1281
 5212SOL    HW227099   3.830   3.707  12.074 -0.9939 -0.3708  0.3383
 5213SOL     OW27100   0.761   0.143   3.364 -0.7716  0.2953  0.4107
 5213SOL    HW127101   0.747   0.191   3.445  0.7393 -0.5257  1.1509
 5213SOL    HW227102   0.692   0.175   3.306  0.3549  0.7806 -0.6795
 5214SOL     OW27103   0.836   3.569  12.111 -0.6558 -0.9046 -0.4194
 5214SOL    HW127104   0.800   3.629  12.176  2.6813 -0.5111  1.0776
 5214SOL    HW227105   0.822   3.488  12.160  1.8612  0.2754  2.3021
 5215SOL     OW27106   1.984   3.997   1.204  0.3404  0.1515 -0.3243
 5215SOL    HW127107   1.891   3.975   1.204  0.4733 -0.4220  3.5639
 5215SOL    HW227108   2.036   3.917   1.214 -1.1778 -0.9138 -0.8978
 5216SOL     OW27109   2.176   3.520   3.231 -0.0993  0.5180  0.2552
 5216SOL    HW127110   2.094   3.496   3.188 -0.4174 -1.3588  1.9225
 5216SOL    HW227111   2.146   3.564   3.310  2.0295 -0.4486  1.5970
 5217SOL     OW27112   1.019   3.538   2.383  0.1683  0.7182 -0.2390
 5217SOL    HW127113   0.928   3.527   2.355  0.2466 -1.8417  0.5241
 5217SOL    HW227114   1.022   3.634   2.383 -0.0229  0.7274 -0.9524
 5218SOL     OW27115   2.903   1.827   6.357  0.2577  0.0681 -0.0160
 5218SOL    HW127116   2.880   1.910   6.314  0.1207 -1.2167 -2.4323
 5218SOL    HW227117   2.819   1.786   6.380  0.3973 -1.0147 -1.4446
 5219SOL     OW27118   3.917   2.182  15.465 -0.1963 -0.4796 -0.2188
 5219SOL    HW127119   3.923   2.277  15.457  1.8303 -0.5503  0.4705
 5219SOL    HW227120   3.911   2.167  15.559 -0.0414 -3.3242 -0.6727
 5220SOL     OW27121   0.352   4.351   0.167  0.0034 -0.3223  0.1187
 5220SOL    HW127122   0.404   4.319   0.240 -1.2115 -1.2905  0.5437
 5220SOL    HW227123   0.391   4.439   0.159 -1.3035  0.5343  3.1012
 5221SOL     OW27124   0.645   0.713   4.490 -0.5677  0.3781 -0.5753
 5221SOL    HW127125   0.730   0.720   4.446 -0.2990  2.1416  0.2271
 5221SOL    HW227126   0.592   0.778   4.445 -0.4945 -0.9149 -2.5515
 5222SOL     OW27127   3.474   3.768  17.697 -0.1712  0.0999  0.0620
 5222SOL    HW127128   3.564   3.791   0.010 -0.9653  1.5802  2.0463
 5222SOL    HW227129   3.480   3.682   0.031  0.3970 -0.4064 -1.1158
 5223SOL     OW27130   4.650   2.003   1.447  0.3164  0.4388  0.7505
 5223SOL    HW127131   4.575   1.987   1.389  0.1263  2.3076  0.4741
 5223SOL    HW227132   4.640   2.098   1.460 -2.3548 -0.1392  2.8535
 5224SOL     OW27133   2.094   3.131   7.156  0.0672 -0.0397 -0.6697
 5224SOL    HW127134   2.154   3.133   7.082 -0.9467 -0.7175 -1.5055
 5224SOL    HW227135   2.128   3.200   7.213 -0.7043  1.2957 -1.8386
 5225SOL     OW27136   1.391   2.395   1.041 -0.0034 -0.0510 -0.6670
 5225SOL    HW127137   1.311   2.371   0.995 -0.1544  3.1147 -2.0911
 5225SOL    HW227138   1.436   2.313   1.061  0.0676 -0.2377 -1.6142
 5226SOL     OW27139   2.357   4.574   1.592 -0.4616 -0.3815  0.3617
 5226SOL    HW127140   2.431   4.531   1.551  0.2541  0.6056  0.6171
 5226SOL    HW227141   2.402   4.623   1.661 -1.3237  2.0500 -0.7837
 5227SOL     OW27142   3.295   2.827   3.113 -0.0092 -0.3093  0.1786
 5227SOL    HW127143   3.300   2.849   3.020  1.7948  0.2573  0.4087
 5227SOL    HW227144   3.245   2.745   3.106 -0.5542 -0.0235  0.7417
 5228SOL     OW27145   2.284   3.152  11.858 -0.2444 -0.4351  0.6398
 5228SOL    HW127146   2.289   3.182  11.767 -2.2768  0.7665  0.9270
 5228SOL    HW227147   2.310   3.061  11.844 -0.6501 -0.5408  0.5871
 5229SOL     OW27148   4.624   1.793   9.120 -0.3657  0.8298 -0.1411
 5229SOL    HW127149   4.651   1.719   9.174  2.7396  0.3543 -2.3526
 5229SOL    HW227150   4.542   1.761   9.082  0.2971 -1.6425  0.4858
 5230SOL     OW27151   3.622   2.181   5.108 -0.5728  0.0954  0.1573
 5230SOL    HW127152   3.604   2.218   5.195  1.6919 -1.2714  1.2187
 5230SOL    HW227153   3.638   2.261   5.057 -1.3235  0.0117 -0.2058
 5231SOL     OW27154   0.373   4.499  13.078 -0.4641  0.3230 -0.2296
 5231SOL    HW127155   0.375   4.452  13.161  1.1802 -0.9301 -0.9797
 5231SOL    HW227156   0.431   4.575  13.086 -0.0186 -0.0144 -0.2764
 5232SOL     OW27157   4.450   3.783   2.501  0.3153 -0.2105  0.4736
 5232SOL    HW127158   4.358   3.792   2.476  0.8842  2.8163 -0.6306
 5232SOL    HW227159   4.482   3.744   2.420  3.0699  0.4937  1.2076
 5233SOL     OW27160   1.877   3.674   8.700  0.6001 -0.5410  0.4135
 5233SOL    HW127161   1.867   3.766   8.678  0.9011 -0.2261  1.5804
 5233SOL    HW227162   1.904   3.639   8.615 -0.5904 -1.2815  0.3522
 5234SOL     OW27163   0.814   0.629   3.489  0.0892 -0.0702 -0.5624
 5234SOL    HW127164   0.742   0.692   3.498 -2.0094 -2.3205 -1.5832
 5234SOL    HW227165   0.825   0.636   3.394  0.5283  1.2734 -0.4231
 5235SOL     OW27166   1.865   0.812   9.324  0.0624  0.0666  0.0241
 5235SOL    HW127167   1.858   0.882   9.260  0.4718  0.3141  0.2514
 5235SOL    HW227168   1.959   0.798   9.335 -0.0203 -0.5701 -0.1110
 5236SOL     OW27169   2.029   0.593  11.574  0.4200  0.1550 -0.1466
 5236SOL    HW127170   2.072   0.660  11.627 -1.9054  1.2025  0.4391
 5236SOL    HW227171   2.102   0.534  11.556  0.7968  1.1328 -1.7560
 5237SOL     OW27172   4.519   3.521   8.481 -0.4816  0.3607  0.1411
 5237SOL    HW127173   4.600   3.516   8.532 -0.4784 -1.9817 -0.0960
 5237SOL    HW227174   4.449   3.482   8.534  0.0320 -0.3722  0.2797
 5238SOL     OW27175   3.426   4.289   5.896 -0.2782 -0.1364 -0.4496
 5238SOL    HW127176   3.434   4.370   5.946 -3.3990  1.2291 -2.1327
 5238SOL    HW227177   3.335   4.299   5.867 -0.2072 -1.5155 -1.1711
 5239SOL     OW27178   1.549   2.057   7.960 -0.3192  0.0478  0.4397
 5239SOL    HW127179   1.635   2.078   7.925  0.4262 -0.3066  2.0583
 5239SOL    HW227180   1.525   1.976   7.915 -0.9710  0.2547  0.4107
 5240SOL     OW27181   3.328   1.769   9.911 -0.4985  0.4059  0.2450
 5240SOL    HW127182   3.371   1.835   9.965  1.6793 -0.6205 -0.2328
 5240SOL    HW227183   3.350   1.801   9.824 -2.1458  0.7658 -0.0188
 5241SOL     OW27184   3.622   4.256   7.178 -0.4899  0.1823  0.0624
 5241SOL    HW127185   3.542   4.253   7.230 -1.6519  0.1411 -1.7207
 5241SOL    HW227186   3.605   4.331   7.121  1.1083  0.4811 -0.0255
 5242SOL     OW27187   0.471   3.802   0.169  0.1365  0.4576  0.2741
 5242SOL    HW127188   0.453   3.874   0.230  1.4177 -1.1677  2.5860
 5242SOL    HW227189   0.566   3.795   0.158  0.0559 -0.4103  0.1607
 5243SOL     OW27190   2.693   2.776   5.276 -0.5214 -0.3392 -0.4302
 5243SOL    HW127191   2.738   2.851   5.238  0.2006 -1.3833 -1.6068
 5243SOL    HW227192   2.614   2.825   5.298 -0.5605 -0.8394  0.5777
 5244SOL     OW27193   1.032   4.557  16.840 -0.3618 -0.5425  0.1191
 5244SOL    HW127194   1.032   4.531  16.932 -0.1306  1.3560  0.6573
 5244SOL    HW227195   1.107   4.524  16.791  0.6010  0.2736  1.0280
 5245SOL     OW27196   3.507   3.861   3.526 -0.0171  0.0504  0.0665
 5245SOL    HW127197   3.462   3.886   3.445 -0.6443 -1.8184 -0.1681
 5245SOL    HW227198   3.488   3.934   3.584  0.3725  0.8565 -0.8204
 5246SOL     OW27199   4.304   2.923   2.397  0.6340  0.3264  0.5609
 5246SOL    HW127200   4.321   2.856   2.330 -0.8276  1.9652 -1.4310
 5246SOL    HW227201   4.350   2.995   2.354  0.2753  0.5094  0.4894
 5247SOL     OW27202   4.133   2.384   1.449 -0.6047 -0.0492 -0.1877
 5247SOL    HW127203   4.219   2.348   1.467 -1.8440 -2.3119  1.1764
 5247SOL    HW227204   4.129   2.362   1.356 -1.5007 -1.8744  0.2745
 5248SOL     OW27205   3.284   3.801   7.941 -0.7681 -0.7437  0.3314
 5248SOL    HW127206   3.334   3.830   8.018 -0.1684  1.5957 -0.9487
 5248SOL    HW227207   3.333   3.719   7.934 -0.1825 -0.5172  1.7560
 5249SOL     OW27208   1.527   0.197   3.529  0.1124 -0.3405 -0.5892
 5249SOL    HW127209   1.443   0.176   3.488  0.3888  0.0840 -1.3697
 5249SOL    HW227210   1.497   0.277   3.572  0.4941 -0.8028  0.5569
 5250SOL     OW27211   4.331   1.575  15.261  0.0293  0.2106 -0.0754
 5250SOL    HW127212   4.256   1.533  15.303  0.7549  0.2407  1.2791
 5250SOL    HW227213   4.352   1.648  15.320  0.2391 -1.0328  1.3831
 5251SOL     OW27214   0.694   2.206   9.099  0.0452  0.3120 -0.2488
 5251SOL    HW127215   0.645   2.249   9.030 -1.5896  0.5883  1.0950
 5251SOL    HW227216   0.786   2.222   9.077  0.4775 -1.4561  0.2323
 5252SOL     OW27217   2.770   0.230   5.021 -0.6944 -0.2737 -0.1783
 5252SOL    HW127218   2.789   0.219   5.114 -0.1855 -0.5354 -0.3177
 5252SOL    HW227219   2.735   0.319   5.016 -0.6959 -0.3712 -2.1453
 5253SOL     OW27220   3.096   1.984  10.039  0.2723  0.5385 -0.2278
 5253SOL    HW127221   3.103   1.992   9.944 -1.8342 -1.3654 -0.5257
 5253SOL    HW227222   3.023   2.043  10.057  0.4755 -0.0851  2.7799
 5254SOL     OW27223   1.428   0.399   9.070  0.3589 -0.2729 -0.2127
 5254SOL    HW127224   1.370   0.325   9.052 -0.6485  0.2565  0.8247
 5254SOL    HW227225   1.481   0.391   8.992 -1.7912  1.7055 -1.8871
 5255SOL     OW27226   0.134   2.856  10.073  0.3186 -0.7864 -0.4662
 5255SOL    HW127227   0.139   2.793  10.145  4.3607 -0.4979 -0.5143
 5255SOL    HW227228   0.108   2.798  10.001 -3.5128  1.8678 -1.2458
 5256SOL     OW27229   0.950   3.013   7.936  0.5199  0.2896 -0.0245
 5256SOL    HW127230   0.948   2.953   8.011  0.9268 -0.3507 -0.5218
 5256SOL    HW227231   1.044   3.029   7.936  0.6348 -0.3766 -0.6152
 5257SOL     OW27232   1.252   0.915   7.716  0.0787  0.3057  0.0150
 5257SOL    HW127233   1.243   0.858   7.793  3.1055  0.6043  0.5641
 5257SOL    HW227234   1.163   0.917   7.681 -0.0993 -2.2006  0.2723
 5258SOL     OW27235   3.203   1.637   3.155 -0.1429 -0.0873 -0.1453
 5258SOL    HW127236   3.123   1.651   3.104  0.5408  0.5555 -1.0356
 5258SOL    HW227237   3.237   1.726   3.153 -0.5178  0.0297 -1.4097
 5259SOL     OW27238   4.637   0.995   6.564  0.3491  0.0626  0.5951
 5259SOL    HW127239   4.618   0.905   6.537 -2.0530  0.0549  2.3441
 5259SOL    HW227240   0.006   0.988   6.557  0.3410  0.4276  0.1123
 5260SOL     OW27241   2.555   1.451   7.984  0.1537  0.4960 -0.2842
 5260SOL    HW127242   2.533   1.530   7.935 -1.9181  0.3782  0.4910
 5260SOL    HW227243   2.588   1.471   8.072  0.4126 -1.4886  0.0923
 5261SOL     OW27244   1.489   2.878  10.788  0.4657  0.0995  0.2515
 5261SOL    HW127245   1.523   2.797  10.751  1.8653  0.2459  1.2010
 5261SOL    HW227246   1.415   2.886  10.728  0.7323  0.0164 -0.0895
 5262SOL     OW27247   1.754   3.538   9.164 -0.8394  0.5968 -0.1469
 5262SOL    HW127248   1.769   3.511   9.074 -1.7346 -0.1700 -0.0688
 5262SOL    HW227249   1.814   3.484   9.215 -0.6152  1.8376  0.8913
 5263SOL     OW27250   0.554   0.577   4.015 -0.3805  0.1537 -0.6024
 5263SOL    HW127251   0.542   0.538   4.102 -0.6338  0.5843 -0.4462
 5263SOL    HW227252   0.485   0.642   4.025 -0.7545 -0.2350 -0.6538
 5264SOL     OW27253   4.508   0.495   4.289  0.9290  0.5968 -0.0712
 5264SOL    HW127254   4.479   0.404   4.279  2.7157 -0.0252  0.3668
 5264SOL    HW227255   4.420   0.530   4.291  0.4945 -0.5721  1.7589
 5265SOL     OW27256   3.903   1.065  16.178 -0.6156  0.0170  0.0587
 5265SOL    HW127257   3.980   1.078  16.233  2.0443  0.1155 -3.7139
 5265SOL    HW227258   3.924   1.077  16.085 -0.4365  1.4912  0.3006
 5266SOL     OW27259   2.995   0.152   8.278  0.2755 -0.1615 -0.4548
 5266SOL    HW127260   2.930   0.221   8.291  0.2166 -0.5994  1.5444
 5266SOL    HW227261   2.961   0.078   8.327  1.9628  0.0596  1.0549
 5267SOL     OW27262   1.408   0.374  10.117  0.2999 -0.0196  0.3302
 5267SOL    HW127263   1.456   0.367  10.200  0.7055  0.5709  0.1450
 5267SOL    HW227264   1.397   0.284  10.087  0.3738  0.2866 -0.5953
 5268SOL     OW27265   1.168   0.934   5.319 -0.1611  0.0798  0.3624
 5268SOL    HW127266   1.117   0.895   5.248 -0.4012  1.0017  0.0358
 5268SOL    HW227267   1.151   1.027   5.305 -1.0749 -0.1561 -0.0764
 5269SOL     OW27268   2.350   4.094   4.744 -1.3520  0.2072 -0.6879
 5269SOL    HW127269   2.435   4.079   4.703 -0.0881  1.5315  1.4295
 5269SOL    HW227270   2.336   4.021   4.804  2.9825 -0.0326  0.0893
 5270SOL     OW27271   1.082   2.164  17.557  0.2839 -0.0712 -0.1164
 5270SOL    HW127272   1.016   2.148  17.625  0.6395 -0.1674  0.2055
 5270SOL    HW227273   1.022   2.200  17.491 -1.3999 -0.5201  1.1582
 5271SOL     OW27274   2.585   3.272   3.542 -0.1703  0.1036  0.4362
 5271SOL    HW127275   2.492   3.250   3.551 -0.4750  1.3519  0.4737
 5271SOL    HW227276   2.590   3.359   3.582 -1.6609  0.2285  0.3669
 5272SOL     OW27277   3.954   4.378   4.699  0.0785  0.0259  0.7268
 5272SOL    HW127278   3.935   4.307   4.638  1.9038  1.0469 -1.0193
 5272SOL    HW227279   4.040   4.348   4.728 -0.3441  0.6613  2.6694
 5273SOL     OW27280   4.607   1.974  17.000 -0.0635  0.3887  0.2024
 5273SOL    HW127281   4.589   1.972  16.906  1.3285  0.0098 -0.0590
 5273SOL    HW227282   4.671   2.044  17.013  0.4458 -0.2878  1.3081
 5274SOL     OW27283   3.511   1.957   7.601 -0.8021 -0.1943 -0.0605
 5274SOL    HW127284   3.429   1.910   7.615 -0.0852 -1.8787 -1.4190
 5274SOL    HW227285   3.477   2.043   7.578  1.3258  0.5052 -0.5966
 5275SOL     OW27286   1.562   4.570   0.232 -0.0008  0.8274  0.2769
 5275SOL    HW127287   1.572   4.505   0.302 -3.0516 -0.0405 -0.0774
 5275SOL    HW227288   1.483   4.615   0.260 -0.0831  1.0997 -0.3907
 5276SOL     OW27289   4.249   0.421   1.939 -0.8956 -0.1434  0.5844
 5276SOL    HW127290   4.242   0.509   1.901 -0.5933  0.0418  0.9604
 5276SOL    HW227291   4.179   0.382   1.887  0.6592  0.3442 -1.8573
 5277SOL     OW27292   3.368   3.359   4.351 -0.0023  0.3621  0.2468
 5277SOL    HW127293   3.448   3.328   4.308 -1.1775 -2.3124  0.0015
 5277SOL    HW227294   3.300   3.295   4.330  1.1639 -0.8399  0.1243
 5278SOL     OW27295   3.067   2.787   5.251  0.5980  0.3429 -0.4971
 5278SOL    HW127296   3.069   2.820   5.341 -2.0136 -1.0328  0.0753
 5278SOL    HW227297   2.996   2.838   5.211 -1.0457 -0.3685  1.4745
 5279SOL     OW27298   4.028   4.303   8.196  0.0413 -0.4581 -0.1797
 5279SOL    HW127299   4.118   4.321   8.167  0.5163 -1.0366  0.9452
 5279SOL    HW227300   4.034   4.279   8.288 -1.8810 -1.4424 -0.3001
 5280SOL     OW27301   1.859   1.002   7.437  0.4869  0.0176  0.5118
 5280SOL    HW127302   1.804   0.926   7.455  1.8376 -0.6725  1.8050
 5280SOL    HW227303   1.932   0.955   7.477  0.0095 -0.5143  0.7544
 5281SOL     OW27304   3.799   2.432  11.147 -0.4987  0.1867  0.3901
 5281SOL    HW127305   3.770   2.356  11.197  1.3534 -1.0002 -0.3493
 5281SOL    HW227306   3.802   2.411  11.053  1.4141  3.4400 -0.2747
 5282SOL     OW27307   0.851   0.815   5.448  0.1773  0.6287 -0.3172
 5282SOL    HW127308   0.889   0.748   5.392  0.5133 -1.4989  2.4602
 5282SOL    HW227309   0.920   0.833   5.513  1.4329 -1.8207 -0.9982
 5283SOL     OW27310   2.220   2.203   1.754  0.2964  0.4999 -0.3600
 5283SOL    HW127311   2.253   2.148   1.682  0.2770  0.0820 -0.0440
 5283SOL    HW227312   2.163   2.140   1.797 -0.2627 -0.3163 -2.2830
 5284SOL     OW27313   3.794   3.730   0.507 -0.3378  0.1334  0.0079
 5284SOL    HW127314   3.809   3.659   0.445  1.7577  2.8529 -2.6492
 5284SOL    HW227315   3.720   3.773   0.462 -0.1040 -1.1810 -1.6301
 5285SOL     OW27316   3.162   3.677   0.897  0.1010 -0.0134  0.2044
 5285SOL    HW127317   3.101   3.604   0.889  0.5608 -0.4915  1.1251
 5285SOL    HW227318   3.164   3.700   0.990 -0.8355  0.7296  0.0481
 5286SOL     OW27319   3.727   2.042  14.372  0.2231 -0.1357  0.1060
 5286SOL    HW127320   3.677   1.989  14.311  0.1471 -0.1131  0.1488
 5286SOL    HW227321   3.706   2.001  14.456  1.0821 -1.4051 -0.3003
 5287SOL     OW27322   0.328   4.226   4.844 -0.0810 -0.1475  0.2298
 5287SOL    HW127323   0.320   4.142   4.799  2.2311 -1.1556  1.7254
 5287SOL    HW227324   0.344   4.291   4.776  1.5872 -0.6248  0.1704
 5288SOL     OW27325   4.706   4.348  16.475 -0.4800  0.5367  0.5387
 5288SOL    HW127326   0.034   4.287  16.524 -0.0222  1.0847  0.7227
 5288SOL    HW227327   0.032   4.368  16.398 -0.4877 -0.9729  0.1559
 5289SOL     OW27328   2.053   1.640   3.187 -0.2734  0.4577 -0.7214
 5289SOL    HW127329   2.074   1.657   3.095  0.7279  1.4867 -0.3018
 5289SOL    HW227330   2.120   1.571   3.189 -1.4608 -0.7371 -1.6790
 5290SOL     OW27331   1.970   3.854   6.943  0.4534  0.2108 -0.3503
 5290SOL    HW127332   1.906   3.784   6.959 -1.5679  1.1086 -4.6551
 5290SOL    HW227333   1.934   3.924   6.997 -1.7707  1.3567 -3.4103
 5291SOL     OW27334   0.256   2.072   4.174 -0.0161  0.1937  0.3236
 5291SOL    HW127335   0.275   2.015   4.248 -0.1091  0.9242  0.9177
 5291SOL    HW227336   0.335   2.126   4.167  0.9070 -1.3505 -1.2237
 5292SOL     OW27337   2.942   4.659   5.565  0.3653  0.5051  0.2693
 5292SOL    HW127338   2.899   0.017   5.547 -0.0954  0.1693 -0.1876
 5292SOL    HW227339   2.871   4.605   5.600 -0.8822  3.1115  1.8221
 5293SOL     OW27340   3.381   0.862  12.494 -1.1410  0.1422  0.0406
 5293SOL    HW127341   3.363   0.812  12.415  2.6235 -2.6513  0.9745
 5293SOL    HW227342   3.433   0.803  12.549  1.4838  2.1908 -0.2397
 5294SOL     OW27343   4.550   1.439   4.624 -0.0014 -0.3112  0.3675
 5294SOL    HW127344   4.617   1.507   4.615  0.8583 -1.1317  0.6866
 5294SOL    HW227345   4.471   1.473   4.581 -0.7122  0.3574  2.1838
 5295SOL     OW27346   4.052   2.594  11.145 -0.2053 -0.2084 -0.0518
 5295SOL    HW127347   4.075   2.526  11.082  1.0080 -1.9351  2.2315
 5295SOL    HW227348   4.131   2.645  11.165 -0.4690  0.0472  0.3491
 5296SOL     OW27349   3.787   1.568   6.178  0.4181 -0.3534 -0.1330
 5296SOL    HW127350   3.710   1.511   6.180 -0.9981  1.3876 -4.4920
 5296SOL    HW227351   3.794   1.582   6.083  2.5590  0.9636  0.2024
 5297SOL     OW27352   0.309   0.333   1.750 -0.8100 -0.5172  0.4136
 5297SOL    HW127353   0.295   0.303   1.660  0.2932 -0.3503  0.1805
 5297SOL    HW227354   0.279   0.255   1.796  0.9784 -1.0263  0.6978
 5298SOL     OW27355   4.154   0.569   2.327 -0.6699  0.0377  0.1567
 5298SOL    HW127356   4.217   0.501   2.304 -0.4535 -0.5431  2.4968
 5298SOL    HW227357   4.099   0.561   2.248 -0.4259  0.7814 -0.0869
 5299SOL     OW27358   4.328   3.542   5.044  0.8491  0.1237 -0.2426
 5299SOL    HW127359   4.359   3.507   4.961  0.8178 -1.8771  0.5682
 5299SOL    HW227360   4.239   3.506   5.049  1.1746 -0.6964 -0.2295
 5300SOL     OW27361   2.616   2.278   5.769 -0.3536 -0.0327  0.5534
 5300SOL    HW127362   2.681   2.215   5.801 -1.7107 -1.9786 -0.5876
 5300SOL    HW227363   2.639   2.362   5.809 -0.9393  0.1260  0.5427
 5301SOL     OW27364   2.720   2.203   9.310  0.5528  0.0145  0.4659
 5301SOL    HW127365   2.785   2.215   9.241  0.1917 -2.4382 -0.2884
 5301SOL    HW227366   2.639   2.198   9.259  0.2376  2.2094  0.7440
 5302SOL     OW27367   1.560   3.322   1.688  0.3062 -0.2479  0.1588
 5302SOL    HW127368   1.498   3.394   1.701 -0.3628 -0.7270 -0.3802
 5302SOL    HW227369   1.544   3.268   1.765  0.7563 -0.6438 -0.0247
 5303SOL     OW27370   0.829   1.416  10.359 -0.5962  0.1053 -0.2805
 5303SOL    HW127371   0.740   1.448  10.342 -0.9573 -0.6789  0.1389
 5303SOL    HW227372   0.803   1.333  10.397 -1.6318  0.3761 -0.3989
 5304SOL     OW27373   4.205   1.010   5.848 -0.2238  0.0489  0.3814
 5304SOL    HW127374   4.210   1.098   5.885 -0.2203  0.8761 -1.5576
 5304SOL    HW227375   4.217   1.031   5.755 -0.8547  0.7371  0.4543
 5305SOL     OW27376   2.051   0.521   5.074 -0.2519  0.4595  0.1924
 5305SOL    HW127377   1.986   0.588   5.055  1.4706  1.8648 -0.7911
 5305SOL    HW227378   2.009   0.452   5.024 -3.8202  2.2840  0.6970
 5306SOL     OW27379   2.332   1.903  16.368 -0.4420  0.0745  0.0273
 5306SOL    HW127380   2.380   1.913  16.450 -2.4058  0.2016  1.1579
 5306SOL    HW227381   2.267   1.973  16.362 -1.8379 -1.4497 -2.6773
 5307SOL     OW27382   4.206   3.501   1.478 -0.1624  0.3804  0.6306
 5307SOL    HW127383   4.157   3.427   1.441  0.1811  0.2958  0.3516
 5307SOL    HW227384   4.249   3.540   1.402  1.1760  0.1561  1.2725
 5308SOL     OW27385   2.554   3.881   3.206 -0.2471 -0.1964 -0.4959
 5308SOL    HW127386   2.544   3.945   3.136  3.0236 -0.3003 -1.0870
 5308SOL    HW227387   2.467   3.868   3.242 -0.6253 -0.5939 -1.5545
 5309SOL     OW27388   4.583   4.148   4.933  0.1322  0.2308  0.7282
 5309SOL    HW127389   4.658   4.198   4.903  0.6002 -1.5052 -0.9651
 5309SOL    HW227390   4.511   4.210   4.918  0.4349  0.1798 -0.9149
 5310SOL     OW27391   3.803   4.652   7.259  0.6804 -0.6161 -0.3822
 5310SOL    HW127392   3.742   4.672   7.331  1.0810 -1.0455  0.0789
 5310SOL    HW227393   3.822   4.560   7.278  1.6628 -0.5417 -1.0086
 5311SOL     OW27394   0.625   1.141  10.274  0.0544 -0.1175 -0.1232
 5311SOL    HW127395   0.653   1.142  10.366  0.0716  2.0006 -0.1402
 5311SOL    HW227396   0.611   1.233  10.253  0.9426 -0.3140 -1.5368
 5312SOL     OW27397   0.503   0.805   3.743 -0.3414 -0.5406  0.6162
 5312SOL    HW127398   0.499   0.805   3.647 -0.7991 -0.1826  0.6372
 5312SOL    HW227399   0.414   0.801   3.778 -0.6621  2.6956  0.1955
 5313SOL     OW27400   1.815   1.443  17.109  0.3294  0.2912 -0.6900
 5313SOL    HW127401   1.898   1.469  17.069  1.0454  0.8667  1.1430
 5313SOL    HW227402   1.847   1.403  17.190  0.1579  0.8225 -0.3593
 5314SOL     OW27403   0.297   3.208  15.390 -0.2268  0.2420  0.3615
 5314SOL    HW127404   0.268   3.265  15.319  1.3311 -0.4487 -0.8317
 5314SOL    HW227405   0.292   3.283  15.449  1.8274  0.3782  0.3438
 5315SOL     OW27406   0.737   0.566   2.139 -0.8577  0.2978  0.1574
 5315SOL    HW127407   0.830   0.550   2.151 -0.7412 -1.1914 -2.9619
 5315SOL    HW227408   0.730   0.565   2.044 -0.4254 -1.1144  0.1545
 5316SOL     OW27409   1.295   2.858   0.136 -0.5096  0.4468  0.0727
 5316SOL    HW127410   1.287   2.876   0.229  0.9583 -1.0154  0.4752
 5316SOL    HW227411   1.389   2.874   0.124 -0.8959 -0.2351 -3.9022
 5317SOL     OW27412   1.718   2.798   5.644 -0.0282 -0.4875 -0.0168
 5317SOL    HW127413   1.716   2.888   5.611 -0.8550  0.2003  1.8630
 5317SOL    HW227414   1.809   2.803   5.674  0.4372 -0.4276 -1.4712
 5318SOL     OW27415   2.955   4.327  17.581 -0.2044 -0.2405 -0.0296
 5318SOL    HW127416   2.933   4.319  17.488  2.3974 -1.6805 -0.5299
 5318SOL    HW227417   2.992   4.416  17.585  0.5284 -0.5382 -0.0832
 5319SOL     OW27418   3.591   0.307   5.164 -0.1704 -0.4808  0.1211
 5319SOL    HW127419   3.558   0.351   5.085 -0.5450 -3.6351 -1.4486
 5319SOL    HW227420   3.686   0.321   5.159  0.1598 -2.8566 -0.0275
 5320SOL     OW27421   4.105   3.348   5.041  0.1399 -0.3364  0.1764
 5320SOL    HW127422   4.120   3.323   4.950  1.3324 -0.5886  0.4500
 5320SOL    HW227423   4.026   3.303   5.071 -0.5146 -0.6577 -1.9945
 5321SOL     OW27424   0.317   2.024  11.339 -0.1297  0.5168 -0.0010
 5321SOL    HW127425   0.404   2.002  11.373 -0.0285  0.1939 -0.4701
 5321SOL    HW227426   0.327   1.982  11.253 -0.2305  0.6974 -0.0992
 5322SOL     OW27427   0.338   3.583   7.952 -0.3624 -0.0707 -0.1527
 5322SOL    HW127428   0.368   3.664   7.993 -0.2023  1.0726 -2.4809
 5322SOL    HW227429   0.426   3.556   7.926 -0.3773  0.3638 -0.6627
 5323SOL     OW27430   0.772   0.143   7.970  0.0031  0.5326  0.0007
 5323SOL    HW127431   0.815   0.063   8.000  1.4959  1.7298  1.0745
 5323SOL    HW227432   0.735   0.119   7.885  0.0108  0.2389  0.0791
 5324SOL     OW27433   2.513   4.325   7.758 -0.0492  0.1424  0.1931
 5324SOL    HW127434   2.491   4.251   7.702 -3.1962  1.9987 -1.0112
 5324SOL    HW227435   2.534   4.285   7.842  0.6423 -0.4436 -0.2585
 5325SOL     OW27436   0.351   4.274   7.371  0.2288  0.1002 -0.5648
 5325SOL    HW127437   0.380   4.343   7.430  1.6058 -1.0335  0.0778
 5325SOL    HW227438   0.265   4.258   7.411  1.1396 -1.0606  0.9340
 5326SOL     OW27439   4.182   4.109   4.718 -0.5703  0.2543 -0.3749
 5326SOL    HW127440   4.100   4.078   4.679 -2.6616  2.8460  1.9718
 5326SOL    HW227441   4.157   4.145   4.803  0.5615 -2.3663  1.0566
 5327SOL     OW27442   3.918   3.925   6.407 -0.6406  0.1646 -0.4041
 5327SOL    HW127443   3.914   4.021   6.407 -1.1871  0.1305  0.9684
 5327SOL    HW227444   3.868   3.897   6.330 -0.0806  0.0162 -0.7189
 5328SOL     OW27445   0.147   2.196   6.926  0.1956  0.2069 -0.2630
 5328SOL    HW127446   0.187   2.115   6.895  1.3407  0.6172  0.1175
 5328SOL    HW227447   0.061   2.159   6.946  0.7041 -0.6767  0.2734
 5329SOL     OW27448   4.182   2.364   5.591 -0.2303 -0.5234 -0.4011
 5329SOL    HW127449   4.220   2.283   5.625  1.0144 -0.2468 -1.1026
 5329SOL    HW227450   4.259   2.421   5.577 -0.8575 -0.0533 -1.9870
 5330SOL     OW27451   2.388   1.764  13.208 -0.6701  0.1851 -0.2041
 5330SOL    HW127452   2.444   1.689  13.184 -0.4731 -1.0137  3.8111
 5330SOL    HW227453   2.445   1.836  13.182  2.5980 -1.7718  1.4144
 5331SOL     OW27454   2.996   1.438  10.634 -0.2770  0.8679  0.1408
 5331SOL    HW127455   3.081   1.448  10.677  0.4220 -0.0311 -1.0411
 5331SOL    HW227456   3.025   1.444  10.543 -1.0932 -2.6151 -0.3155
 5332SOL     OW27457   1.923   1.326   5.620 -0.1946  0.2285 -0.1001
 5332SOL    HW127458   1.841   1.374   5.632 -0.9142 -1.4549  1.7477
 5332SOL    HW227459   1.994   1.388   5.634 -0.7893  0.6670  1.0428
 5333SOL     OW27460   4.028   3.901  16.774 -0.2624 -0.0965 -0.3721
 5333SOL    HW127461   3.942   3.869  16.800 -0.4300  0.9221  0.2988
 5333SOL    HW227462   4.008   3.994  16.762  0.5732 -0.1280 -2.0671
 5334SOL     OW27463   3.410   2.455   7.152 -0.4580 -0.1843 -0.1203
 5334SOL    HW127464   3.483   2.513   7.173  0.4421 -0.9417 -1.1334
 5334SOL    HW227465   3.412   2.407   7.234 -1.1971  0.8603  0.5015
 5335SOL     OW27466   2.617   4.676   0.884  0.6689 -0.0772 -0.1714
 5335SOL    HW127467   2.546   4.664   0.947  0.9908 -1.2693 -0.0512
 5335SOL    HW227468   2.638   0.042   0.899 -0.5467 -0.3194  3.0758
 5336SOL     OW27469   2.293   4.164   7.968 -0.0734 -0.1595 -0.2086
 5336SOL    HW127470   2.354   4.237   7.956  1.1731 -1.2257 -0.4317
 5336SOL    HW227471   2.342   4.120   8.038  1.7359  0.7934 -0.8770
 5337SOL     OW27472   2.551   3.725   8.830  0.4579  0.1094  0.3764
 5337SOL    HW127473   2.510   3.709   8.745  0.5229 -1.0744  0.5680
 5337SOL    HW227474   2.637   3.685   8.822  0.2321 -0.0371 -1.1978
 5338SOL     OW27475   0.469   0.129   7.060  0.3886  0.5521  0.3149
 5338SOL    HW127476   0.518   0.141   6.979  0.0022  3.3283  0.4975
 5338SOL    HW227477   0.421   0.047   7.055 -0.9384  1.5007 -2.3153
 5339SOL     OW27478   2.763   0.980   2.462  0.3349 -0.3357 -0.4723
 5339SOL    HW127479   2.808   0.946   2.385  0.9876  0.9253 -0.6492
 5339SOL    HW227480   2.686   1.028   2.434  0.6501  0.8472  0.6515
 5340SOL     OW27481   2.404   2.312  10.493 -0.4785 -0.1468 -0.1115
 5340SOL    HW127482   2.393   2.405  10.512  0.4075  0.0377 -0.4803
 5340SOL    HW227483   2.500   2.313  10.486 -0.3136 -1.6865  1.9067
 5341SOL     OW27484   1.313   0.497   7.296  0.0732 -0.3036  0.4871
 5341SOL    HW127485   1.388   0.512   7.353  1.2260  2.9699 -1.8435
 5341SOL    HW227486   1.350   0.428   7.241  3.3085  0.8831  1.1720
 5342SOL     OW27487   1.151   1.644   9.671  0.1839  0.4045  0.1310
 5342SOL    HW127488   1.140   1.730   9.711 -2.7753  1.5643 -3.2514
 5342SOL    HW227489   1.106   1.645   9.587 -0.4530 -0.6041  0.4580
 5343SOL     OW27490   3.360   3.861   7.577 -0.0771 -0.1578 -0.2459
 5343SOL    HW127491   3.322   3.827   7.658 -0.8482  0.4478 -0.3458
 5343SOL    HW227492   3.451   3.840   7.599 -0.0321 -0.0427 -0.3171
 5344SOL     OW27493   0.354   2.546  14.666  0.9114 -0.5349  0.6354
 5344SOL    HW127494   0.330   2.499  14.586 -0.0425 -0.8913  1.1292
 5344SOL    HW227495   0.313   2.631  14.645  1.7282 -0.4949 -0.7813
 5345SOL     OW27496   3.372   3.422   5.968  0.0069 -0.4230  0.0732
 5345SOL    HW127497   3.342   3.350   5.912 -0.6967 -0.4153  0.4352
 5345SOL    HW227498   3.454   3.383   6.001  0.0647 -0.0060  0.4277
 5346SOL     OW27499   3.825   2.692   6.018  0.4251  0.7182  0.6862
 5346SOL    HW127500   3.743   2.740   6.004  0.4294  0.4144 -0.3515
 5346SOL    HW227501   3.803   2.654   6.103  1.2151 -1.0445  0.0995
 5347SOL     OW27502   1.789   2.819   7.098 -0.9415  0.5493  0.2842
 5347SOL    HW127503   1.794   2.768   7.017 -0.4041  0.9991  0.0321
 5347SOL    HW227504   1.702   2.858   7.100 -1.1456  0.2399 -2.4354
 5348SOL     OW27505   1.539   3.775  17.604 -0.0113 -0.6444 -0.0145
 5348SOL    HW127506   1.494   3.837  17.661  0.4192 -0.2614 -0.0922
 5348SOL    HW227507   1.629   3.783  17.633 -0.6883  1.4306  1.4274
 5349SOL     OW27508   2.989   2.829   4.825 -0.5191  0.3855  0.1390
 5349SOL    HW127509   2.984   2.919   4.857 -2.0778  1.0718 -2.0491
 5349SOL    HW227510   2.901   2.815   4.789  0.4591 -2.1264 -1.2690
 5350SOL     OW27511   4.122   2.200  10.825  0.2029 -0.1373 -0.4659
 5350SOL    HW127512   4.180   2.244  10.762  3.4669 -1.6727  1.4619
 5350SOL    HW227513   4.074   2.154  10.757  0.0568 -1.3467  0.4585
 5351SOL     OW27514   3.510   1.571  16.330 -0.8726 -0.0619  0.0047
 5351SOL    HW127515   3.437   1.585  16.270 -0.4375 -0.0124 -0.5110
 5351SOL    HW227516   3.486   1.486  16.368  1.0363 -0.7706 -0.3733
 5352SOL     OW27517   2.673   4.471  10.001 -0.1368  0.1922 -0.2007
 5352SOL    HW127518   2.733   4.471  10.075 -0.0534  0.4116 -0.2681
 5352SOL    HW227519   2.607   4.404  10.019 -0.7795  1.5784  2.6166
 5353SOL     OW27520   2.478   0.811   8.179  0.0420  0.3099  0.0505
 5353SOL    HW127521   2.389   0.845   8.189  0.4383  1.1677  0.7141
 5353SOL    HW227522   2.514   0.864   8.108 -0.9199  0.3176 -0.4245
 5354SOL     OW27523   0.096   3.501  14.707 -0.0982 -0.1064 -0.3816
 5354SOL    HW127524   0.192   3.504  14.706 -0.1628  0.6850 -2.8945
 5354SOL    HW227525   0.078   3.536  14.794  0.3808  0.5393 -0.5460
 5355SOL     OW27526   4.333   0.930   6.130 -0.6187 -1.6187  0.0508
 5355SOL    HW127527   4.267   0.906   6.065 -0.6995 -3.6079  0.8544
 5355SOL    HW227528   4.358   0.843   6.163 -0.3012 -1.4207  0.3231
 5356SOL     OW27529   0.926   3.921  12.777 -0.5643 -0.7151 -0.4919
 5356SOL    HW127530   0.885   3.995  12.822  0.1268 -1.8464  1.9850
 5356SOL    HW227531   1.018   3.946  12.778 -0.5230 -0.9257  1.0926
 5357SOL     OW27532   4.139   2.036   6.694 -0.6346 -0.2100 -0.4194
 5357SOL    HW127533   4.174   2.021   6.606 -1.8535  0.9399 -1.0967
 5357SOL    HW227534   4.124   1.949   6.731 -1.0805  0.2303  0.4298
 5358SOL     OW27535   2.119   1.747   6.850 -0.5304 -0.9554  0.0318
 5358SOL    HW127536   2.061   1.717   6.780  0.1166 -3.9658  0.7840
 5358SOL    HW227537   2.104   1.681   6.918 -0.6983  0.2801  1.1947
 5359SOL     OW27538   2.218   0.295   0.055  1.0039  0.1317  0.8687
 5359SOL    HW127539   2.128   0.281   0.084  0.5784 -0.6197 -0.7980
 5359SOL    HW227540   2.261   0.331   0.132  0.5130  2.8259 -0.1273
 5360SOL     OW27541   2.274   3.862   3.241 -0.3705 -0.2126 -0.0798
 5360SOL    HW127542   2.233   3.940   3.204  0.0494  0.2782  0.4819
 5360SOL    HW227543   2.215   3.830   3.308 -1.8488 -0.2111 -1.3844
 5361SOL     OW27544   3.149   0.275  13.203 -0.6824 -0.0598 -0.6446
 5361SOL    HW127545   3.074   0.224  13.233 -1.0742  0.5640 -0.5454
 5361SOL    HW227546   3.116   0.317  13.124 -0.3767  2.2418  0.4389
 5362SOL     OW27547   2.474   4.102   7.613 -0.6983 -0.6048 -0.3148
 5362SOL    HW127548   2.410   4.032   7.625 -0.8795 -0.3380  0.2716
 5362SOL    HW227549   2.502   4.089   7.523  0.2207 -2.1851  0.2028
 5363SOL     OW27550   0.048   3.112   3.583 -0.4283 -0.7224  0.1251
 5363SOL    HW127551   0.030   3.181   3.519 -0.2053 -1.7749 -1.0599
 5363SOL    HW227552   0.039   3.161   3.665 -0.0940 -0.0443 -0.2374
 5364SOL     OW27553   3.468   0.568   6.475  0.1874 -0.2131  0.4834
 5364SOL    HW127554   3.409   0.640   6.450 -0.5103 -1.1843 -0.6391
 5364SOL    HW227555   3.439   0.558   6.565 -0.9739 -1.9759 -0.0984
 5365SOL     OW27556   1.827   1.074   3.395  0.1460 -0.2654 -0.4859
 5365SOL    HW127557   1.890   1.145   3.405  1.7294 -1.5214 -1.3108
 5365SOL    HW227558   1.872   0.999   3.354  2.1226  0.6555 -0.0211
 5366SOL     OW27559   4.121   3.375  11.313 -0.4680  0.2500 -0.4626
 5366SOL    HW127560   4.140   3.432  11.239 -1.0803  0.3504 -0.5415
 5366SOL    HW227561   4.106   3.432  11.388  2.5579 -1.5345  1.5004
 5367SOL     OW27562   1.610   0.765   1.921 -0.0333 -0.0936 -0.6807
 5367SOL    HW127563   1.699   0.786   1.895 -0.6778 -2.3564 -4.6362
 5367SOL    HW227564   1.557   0.771   1.841 -0.6582  3.1497 -0.0323
 5368SOL     OW27565   2.339   3.013  15.595 -0.1048 -0.0960  0.3764
 5368SOL    HW127566   2.385   2.997  15.513  0.1435  0.5128  0.3978
 5368SOL    HW227567   2.256   2.966  15.583 -0.3690  0.3323  0.5469
 5369SOL     OW27568   0.634   1.161  14.895 -0.4080 -0.4863  0.0016
 5369SOL    HW127569   0.600   1.237  14.848 -0.7788 -1.8971 -2.0313
 5369SOL    HW227570   0.576   1.089  14.871 -0.3114 -0.8751  0.9302
 5370SOL     OW27571   4.191   2.427   2.776  0.2774  0.2942 -0.7688
 5370SOL    HW127572   4.193   2.352   2.836  3.0467  0.7465 -0.2873
 5370SOL    HW227573   4.218   2.497   2.836  0.2455 -0.4791  0.1506
 5371SOL     OW27574   3.531   1.729   2.217 -0.0646  0.8792 -0.0412
 5371SOL    HW127575   3.537   1.729   2.121  0.0202 -1.6692 -0.0407
 5371SOL    HW227576   3.560   1.640   2.241  1.1914  1.6617  1.3839
 5372SOL     OW27577   0.887   0.675   4.343 -0.0241  0.0380  0.4424
 5372SOL    HW127578   0.861   0.629   4.263 -1.5231 -1.1868  1.6114
 5372SOL    HW227579   0.981   0.660   4.340 -0.4737 -3.0497  1.1152
 5373SOL     OW27580   4.372   1.559   6.090  0.0134  0.1296 -0.3666
 5373SOL    HW127581   4.447   1.540   6.034 -1.1996 -2.9101 -1.0036
 5373SOL    HW227582   4.333   1.471   6.098  5.1773 -2.4324 -3.0863
 5374SOL     OW27583   1.144   1.615  12.726 -0.6191  0.1987  0.4900
 5374SOL    HW127584   1.159   1.558  12.651 -0.9353 -0.6177  1.0556
 5374SOL    HW227585   1.209   1.686  12.731  0.4411 -0.6958 -0.5765
 5375SOL     OW27586   2.458   3.888   2.863  0.2045 -0.3252  0.3611
 5375SOL    HW127587   2.420   3.879   2.776 -0.0769  0.3676  0.4131
 5375SOL    HW227588   2.407   3.836   2.925 -1.4859  1.5198  0.5020
 5376SOL     OW27589   3.151   4.275   5.517 -0.0001 -0.0917  0.2457
 5376SOL    HW127590   3.103   4.354   5.495  0.4035  0.5123  1.5259
 5376SOL    HW227591   3.100   4.202   5.481  0.1431  0.0082 -0.1579
 5377SOL     OW27592   0.621   1.967  11.432 -0.3529 -0.0964 -0.1090
 5377SOL    HW127593   0.600   1.892  11.488 -3.4156 -1.3865 -2.9355
 5377SOL    HW227594   0.610   2.038  11.495 -0.6798  0.7963 -1.1851
 5378SOL     OW27595   4.045   1.648   8.207  0.1065  0.1836 -0.0969
 5378SOL    HW127596   4.118   1.599   8.168  1.1536  1.6078  0.0471
 5378SOL    HW227597   4.080   1.665   8.295  1.3507  1.5785 -0.8624
 5379SOL     OW27598   4.649   1.514   2.017  0.1614 -0.1074  0.3378
 5379SOL    HW127599   4.631   1.598   2.058  0.1033  0.3897 -0.7181
 5379SOL    HW227600   4.624   1.541   1.929 -1.5131 -2.7848 -0.0228
 5380SOL     OW27601   3.317   1.397   4.456  0.1035 -0.2077  0.1716
 5380SOL    HW127602   3.354   1.342   4.525 -2.5836 -0.8286  1.1400
 5380SOL    HW227603   3.352   1.477   4.494  0.7172 -0.5917  0.4125
 5381SOL     OW27604   4.720   2.437   5.257 -0.0241  0.1633  0.1842
 5381SOL    HW127605   0.011   2.472   5.345 -0.3897 -1.7712  1.0173
 5381SOL    HW227606   0.070   2.388   5.230 -0.7712 -1.1935  0.5281
 5382SOL     OW27607   0.106   2.769   0.182  0.0411  0.4893 -0.4466
 5382SOL    HW127608   0.198   2.784   0.205 -0.6931  1.6047  1.8453
 5382SOL    HW227609   0.112   2.704   0.113  0.6767 -0.6146  0.6415
 5383SOL     OW27610   0.478   4.108   3.037 -0.3103  0.5580  0.3082
 5383SOL    HW127611   0.461   4.060   2.955  1.1418 -0.7854  0.8010
 5383SOL    HW227612   0.498   4.196   3.006  0.3719  0.3777  0.2420
 5384SOL     OW27613   2.282   0.836   7.687  0.5843  0.0762  0.2503
 5384SOL    HW127614   2.265   0.907   7.749 -1.0945 -0.5786  0.5616
 5384SOL    HW227615   2.355   0.864   7.632 -0.5495 -0.2027 -1.4018
 5385SOL     OW27616   4.277   2.169  16.969 -0.1488  0.3213 -0.4478
 5385SOL    HW127617   4.258   2.076  16.953 -0.1394  0.0825  0.9770
 5385SOL    HW227618   4.189   2.202  16.988  0.4234  1.0467  0.8687
 5386SOL     OW27619   3.399   3.797   6.370 -0.2497 -0.0877  0.1344
 5386SOL    HW127620   3.452   3.877   6.360 -0.5000 -0.0316 -0.7409
 5386SOL    HW227621   3.459   3.727   6.343  0.5958  0.1925  1.2541
 5387SOL     OW27622   1.142   3.102  17.458 -0.1900 -0.4156 -0.0725
 5387SOL    HW127623   1.058   3.110  17.414  0.5777 -0.4479 -1.5599
 5387SOL    HW227624   1.203   3.138  17.393  0.8896  2.0196  2.2971
 5388SOL     OW27625   3.502   4.479  16.866  0.5281  0.5616  0.6765
 5388SOL    HW127626   3.560   4.517  16.932  2.5413 -2.1897  0.4914
 5388SOL    HW227627   3.556   4.430  16.805  0.9479  2.0124 -0.1350
 5389SOL     OW27628   0.456   2.141   5.051 -0.0817  0.0520  0.0538
 5389SOL    HW127629   0.523   2.080   5.020  0.0737  0.5036 -0.5053
 5389SOL    HW227630   0.513   2.212   5.080  0.7868  1.3001 -4.8216
 5390SOL     OW27631   2.858   0.618   2.257  0.2532 -0.7883  0.0341
 5390SOL    HW127632   2.912   0.667   2.318 -1.4941  0.1734  0.8145
 5390SOL    HW227633   2.915   0.572   2.196  0.7772 -1.1346  0.7958
 5391SOL     OW27634   2.262   1.068   5.436  0.3852  0.2756  0.2177
 5391SOL    HW127635   2.183   1.092   5.484 -0.3577  1.4069 -1.5849
 5391SOL    HW227636   2.222   1.046   5.352 -2.2995 -2.0210  2.0934
 5392SOL     OW27637   1.377   2.500   4.197 -0.4598  0.0981  0.1143
 5392SOL    HW127638   1.418   2.418   4.171  1.6040  1.9520 -2.6038
 5392SOL    HW227639   1.396   2.505   4.291  0.2250 -1.4385  0.0533
 5393SOL     OW27640   0.086   2.389   4.298 -0.0179 -0.2660 -0.0511
 5393SOL    HW127641   0.129   2.439   4.367 -1.3483 -1.1886  1.4630
 5393SOL    HW227642   0.162   2.390   4.241 -0.8941 -0.8854 -1.2413
 5394SOL     OW27643   2.129   2.918  13.735 -0.3991 -0.7257 -0.1065
 5394SOL    HW127644   2.180   2.967  13.799 -3.4873  0.1166  1.7376
 5394SOL    HW227645   2.089   2.855  13.795 -0.8596 -1.2290 -0.9206
 5395SOL     OW27646   2.505   0.893   2.578 -0.1690 -0.0041  0.0389
 5395SOL    HW127647   2.594   0.902   2.612 -0.5347  2.5252  0.2959
 5395SOL    HW227648   2.477   0.807   2.611 -0.7159 -0.0665 -0.5857
 5396SOL     OW27649   4.706   0.610  11.165  0.2291  0.7166 -0.2045
 5396SOL    HW127650   4.686   0.695  11.204 -3.3699 -0.3165  0.2258
 5396SOL    HW227651   4.720   0.550  11.238  1.6945  1.2290 -0.0765
 5397SOL     OW27652   3.807   2.735   3.634 -0.4708 -0.1901  0.1322
 5397SOL    HW127653   3.858   2.674   3.580 -0.5874 -0.2578  0.0992
 5397SOL    HW227654   3.770   2.786   3.562  1.8299  2.2396  0.6660
 5398SOL     OW27655   4.489   2.157   3.811  0.6492  0.0883  0.3513
 5398SOL    HW127656   4.449   2.244   3.807  0.9476  0.2759  1.4072
 5398SOL    HW227657   4.414   2.097   3.810 -0.0747  1.0284 -0.8821
 5399SOL     OW27658   2.294   3.034  10.661  0.8334 -0.4663 -0.0478
 5399SOL    HW127659   2.318   2.979  10.735  3.2061  0.1328 -0.3788
 5399SOL    HW227660   2.257   3.109  10.708  0.9267 -0.4725  0.0372
 5400SOL     OW27661   3.317   3.310  14.675  0.1856  0.3815 -0.1096
 5400SOL    HW127662   3.400   3.300  14.627  0.0407  2.6666 -0.8113
 5400SOL    HW227663   3.354   3.279  14.758 -3.2293 -0.8778  0.9130
 5401SOL     OW27664   3.579   1.566   7.482 -0.3136 -0.3610 -0.8732
 5401SOL    HW127665   3.537   1.650   7.465 -0.0254  0.4423  2.4143
 5401SOL    HW227666   3.631   1.599   7.555 -0.7380  0.2947 -0.8732
 5402SOL     OW27667   1.779   1.509   7.806 -0.2562  0.7474 -0.3225
 5402SOL    HW127668   1.872   1.488   7.817 -0.7508 -0.5433  1.2882
 5402SOL    HW227669   1.791   1.551   7.721 -2.3126  0.8217 -0.5750
 5403SOL     OW27670   2.536   2.709   4.587 -0.4931  0.4012  0.1819
 5403SOL    HW127671   2.613   2.736   4.638  1.1596  1.7399 -3.0619
 5403SOL    HW227672   2.583   2.682   4.508 -0.2821 -3.4954  1.6317
 5404SOL     OW27673   4.054   2.727   3.441  0.2368 -0.3530 -0.5886
 5404SOL    HW127674   3.960   2.715   3.428 -0.0808  1.5797 -0.0715
 5404SOL    HW227675   4.057   2.823   3.440 -0.2623 -0.3549 -1.6047
 5405SOL     OW27676   2.259   3.670   3.747  0.5315 -0.0839 -0.0119
 5405SOL    HW127677   2.330   3.712   3.795  0.4478  0.6569 -0.5373
 5405SOL    HW227678   2.307   3.669   3.664 -0.2787 -0.7842 -0.4669
 5406SOL     OW27679   3.549   3.413   3.846 -0.0033 -0.5465 -0.2268
 5406SOL    HW127680   3.467   3.438   3.887  0.3417  0.7968 -0.3629
 5406SOL    HW227681   3.569   3.493   3.797 -2.2961  1.8061  2.7528
 5407SOL     OW27682   2.270   4.676   6.005  0.0457 -0.3529 -0.2202
 5407SOL    HW127683   2.215   4.700   6.079  1.4433 -0.7768  0.9674
 5407SOL    HW227684   2.234   4.593   5.972 -3.1862  0.7799  0.4820
 5408SOL     OW27685   1.397   4.423   2.494 -0.0589 -0.1155 -0.3348
 5408SOL    HW127686   1.385   4.516   2.474  0.2113 -0.3378 -1.5234
 5408SOL    HW227687   1.487   4.397   2.474  0.1508  0.9141 -0.7460
 5409SOL     OW27688   3.845   3.386   2.427 -0.0288  0.3373 -0.3180
 5409SOL    HW127689   3.818   3.458   2.371 -1.4849 -0.8138 -1.1040
 5409SOL    HW227690   3.930   3.362   2.391  1.4448  0.6180  2.9908
 5410SOL     OW27691   3.467   3.237   0.800  0.2226 -0.1765 -0.4514
 5410SOL    HW127692   3.428   3.323   0.785  1.4488  0.6679  1.2208
 5410SOL    HW227693   3.559   3.259   0.813  0.9321 -1.4020 -3.4381
 5411SOL     OW27694   0.808   2.601   0.070 -0.2738 -0.1507 -0.2214
 5411SOL    HW127695   0.898   2.629   0.087 -0.6672 -0.4150  2.3018
 5411SOL    HW227696   0.765   2.672   0.117 -2.1630 -2.5307  1.6441
 5412SOL     OW27697   1.137   2.570   7.978  0.1295 -0.1658  0.5899
 5412SOL    HW127698   1.157   2.563   7.885  0.4715 -2.9837  0.8752
 5412SOL    HW227699   1.196   2.640   8.007 -0.3005 -0.9877  3.4809
 5413SOL     OW27700   2.132   4.581   2.783  0.2496  0.2619 -0.4486
 5413SOL    HW127701   2.130   4.596   2.878  1.7779 -0.2421 -0.3338
 5413SOL    HW227702   2.077   4.504   2.767  1.6948 -0.7507 -0.5096
 5414SOL     OW27703   1.854   1.699   7.101 -0.1278  0.3125  0.3463
 5414SOL    HW127704   1.823   1.666   7.017  1.2160  2.7353 -1.0778
 5414SOL    HW227705   1.936   1.650   7.107  0.3841  1.2964  1.4481
 5415SOL     OW27706   2.803   4.191   5.058 -0.0882 -0.0699  0.1572
 5415SOL    HW127707   2.853   4.234   5.127 -0.4134  1.3130 -0.4793
 5415SOL    HW227708   2.759   4.264   5.015 -1.3825 -0.1964  1.2769
 5416SOL     OW27709   1.427   0.439   4.728  0.3743 -0.1806  0.1545
 5416SOL    HW127710   1.353   0.495   4.703 -0.9694 -2.3432 -0.6994
 5416SOL    HW227711   1.397   0.395   4.808  1.0106 -1.2645 -0.2097
 5417SOL     OW27712   3.784   4.294   1.392 -0.2241 -0.0051 -0.2938
 5417SOL    HW127713   3.692   4.309   1.372 -0.0219  0.2139 -1.0520
 5417SOL    HW227714   3.831   4.331   1.318  0.3797 -1.3330 -0.5658
 5418SOL     OW27715   3.421   1.951  14.531 -0.2065  0.3170  0.1960
 5418SOL    HW127716   3.480   1.940  14.606 -1.1086  1.8470  1.1281
 5418SOL    HW227717   3.429   2.046  14.523  0.7398  0.0766 -1.6354
 5419SOL     OW27718   3.375   4.044  10.882 -0.5748 -0.0804  0.0364
 5419SOL    HW127719   3.425   4.106  10.935  0.1560 -1.1338  0.5537
 5419SOL    HW227720   3.306   4.102  10.849 -1.9010 -0.7996  1.5492
 5420SOL     OW27721   1.652   1.926   5.416  0.1374 -0.1101  0.1630
 5420SOL    HW127722   1.581   1.891   5.470  1.1725 -1.2407  0.7991
 5420SOL    HW227723   1.648   2.019   5.437  0.5667 -0.4486  1.7533
 5421SOL     OW27724   2.975   3.815   0.755 -0.0901  0.6240  0.2282
 5421SOL    HW127725   3.013   3.772   0.678  1.9038  0.5737  1.2323
 5421SOL    HW227726   3.038   3.776   0.816  0.4515  3.0216  1.2254
 5422SOL     OW27727   0.783   2.345   0.153 -0.0210  0.3453 -0.0849
 5422SOL    HW127728   0.800   2.438   0.139  2.1004 -0.0468 -0.2252
 5422SOL    HW227729   0.688   2.339   0.163 -0.1341 -0.6609 -1.7197
 5423SOL     OW27730   3.397   4.103  16.484  0.0308  0.0526 -0.0527
 5423SOL    HW127731   3.372   4.011  16.490 -0.4236  0.2966  1.9490
 5423SOL    HW227732   3.492   4.088  16.478  0.1036  0.4038  0.1887
 5424SOL     OW27733   1.526   0.568   7.917 -0.5091  0.0697  0.4634
 5424SOL    HW127734   1.619   0.581   7.933 -0.9195 -0.8301  3.6174
 5424SOL    HW227735   1.488   0.650   7.950 -2.2770 -0.9318  0.9324
 5425SOL     OW27736   0.860   1.203   7.717 -0.2119 -0.4876 -0.4122
 5425SOL    HW127737   0.899   1.266   7.656 -1.4698 -0.3387 -1.0601
 5425SOL    HW227738   0.870   1.247   7.801 -0.2499  1.2936 -1.3292
 5426SOL     OW27739   3.444   3.828   3.882 -0.0363 -0.0546 -0.2326
 5426SOL    HW127740   3.476   3.900   3.936 -0.0765 -0.8741  0.8874
 5426SOL    HW227741   3.350   3.843   3.884  0.1686  1.3657 -1.2863
 5427SOL     OW27742   3.720   2.536   0.443  0.7143  0.6601  0.3836
 5427SOL    HW127743   3.750   2.448   0.425  0.3086  0.0818  2.5223
 5427SOL    HW227744   3.716   2.578   0.357 -0.4965 -0.7717 -0.2420
 5428SOL     OW27745   3.535   0.795   3.484 -0.4488  0.3792 -0.2758
 5428SOL    HW127746   3.542   0.887   3.458 -0.4587 -0.0097 -1.6747
 5428SOL    HW227747   3.591   0.750   3.421 -0.0395  0.3473  0.1183
 5429SOL     OW27748   3.683   0.889   8.864  0.7609 -0.0446 -0.8710
 5429SOL    HW127749   3.597   0.891   8.823  0.2732 -2.5571  0.0265
 5429SOL    HW227750   3.657   0.852   8.948  1.0111 -3.3528 -2.2374
 5430SOL     OW27751   1.091   1.864   6.623  0.7145  0.4545 -0.1529
 5430SOL    HW127752   1.113   1.771   6.616  2.6430  1.0869 -2.7058
 5430SOL    HW227753   1.167   1.892   6.673  1.1140 -1.9700  0.5862
 5431SOL     OW27754   4.094   3.027   3.977 -0.4537 -0.1492  0.6003
 5431SOL    HW127755   4.033   3.081   3.926  2.0177  1.4573 -0.6745
 5431SOL    HW227756   4.085   2.940   3.940  2.6741 -0.1400 -0.1268
 5432SOL     OW27757   0.928   2.983   0.265  0.3032 -0.3938 -0.2056
 5432SOL    HW127758   0.933   3.078   0.251 -0.5602 -0.3489 -0.2467
 5432SOL    HW227759   0.957   2.971   0.355  0.5663  2.1635  0.0489
 5433SOL     OW27760   0.258   4.643   2.443  0.2460 -0.0798  0.0959
 5433SOL    HW127761   0.203   4.687   2.507  1.5396  0.2637  0.9878
 5433SOL    HW227762   0.323   4.713   2.430 -0.3622  0.4977  0.1452
 5434SOL     OW27763   2.410   4.020   7.315 -0.1714  0.0215  0.3489
 5434SOL    HW127764   2.416   3.926   7.296 -2.6721 -0.0432 -0.1243
 5434SOL    HW227765   2.316   4.034   7.307 -0.3051 -0.9012  0.1895
 5435SOL     OW27766   3.709   2.410   6.502 -0.1957 -0.5902  0.1065
 5435SOL    HW127767   3.635   2.390   6.558  1.8015 -1.6657  2.3843
 5435SOL    HW227768   3.777   2.449   6.558  0.6449 -3.6653  1.2281
 5436SOL     OW27769   2.964   1.021   7.977  0.4999 -0.2021 -0.2585
 5436SOL    HW127770   3.012   1.076   8.038 -0.8301  1.4196 -0.6610
 5436SOL    HW227771   3.025   0.964   7.929  1.3493  0.9690 -0.5751
 5437SOL     OW27772   0.532   0.455   8.013  0.3905  0.0511 -0.2485
 5437SOL    HW127773   0.456   0.435   7.959  0.2720  0.6068 -0.2847
 5437SOL    HW227774   0.508   0.547   8.019  0.6091  0.1514 -0.9763
 5438SOL     OW27775   2.176   0.555  10.409 -0.4021 -0.1244 -0.1977
 5438SOL    HW127776   2.187   0.580  10.317 -0.3519 -0.6362 -0.3321
 5438SOL    HW227777   2.251   0.499  10.426 -0.3652 -0.0118  0.0063
 5439SOL     OW27778   2.898   3.652  14.854 -0.6427 -0.2227  0.2222
 5439SOL    HW127779   2.908   3.572  14.905  0.6097 -1.5728 -2.1520
 5439SOL    HW227780   2.925   3.711  14.924  1.4330 -0.0897 -0.6971
 5440SOL     OW27781   2.207   2.908   0.966 -0.0851 -0.0657 -0.1096
 5440SOL    HW127782   2.232   2.836   1.024  3.4490  2.8176  1.9190
 5440SOL    HW227783   2.281   2.969   0.964  0.1266 -0.4105 -3.3226
 5441SOL     OW27784   4.634   2.883  17.289 -0.1910  0.2232  0.5764
 5441SOL    HW127785   4.587   2.801  17.307 -1.8730  1.1031  0.2208
 5441SOL    HW227786   4.674   2.892  17.375  0.1107 -0.6547  0.5244
 5442SOL     OW27787   4.128   3.390   2.393 -0.0561  0.4738 -0.0034
 5442SOL    HW127788   4.147   3.471   2.347  2.7622  0.4123  1.0276
 5442SOL    HW227789   4.170   3.405   2.478  0.8804  0.7179 -0.5052
 5443SOL     OW27790   4.234   0.038   6.949  0.0491 -0.7376 -0.4898
 5443SOL    HW127791   4.158   0.012   6.898 -0.1924 -1.6452  0.3313
 5443SOL    HW227792   4.213   0.125   6.982  2.0424  0.2190 -1.7293
 5444SOL     OW27793   0.206   0.335   8.325  0.2473 -0.0086  0.2654
 5444SOL    HW127794   0.197   0.350   8.231  0.2316 -1.3573  0.0557
 5444SOL    HW227795   0.120   0.298   8.343  0.0104 -0.3764 -1.7044
 5445SOL     OW27796   1.944   4.566   4.163 -0.7115 -0.2937  0.2890
 5445SOL    HW127797   1.930   4.605   4.077  2.2302  1.9477  0.8167
 5445SOL    HW227798   1.862   4.589   4.206 -0.2816  0.1928  0.8564
 5446SOL     OW27799   3.146   1.732   1.345  0.1428 -0.0576 -0.6479
 5446SOL    HW127800   3.224   1.678   1.336  0.3370  0.0746  0.2321
 5446SOL    HW227801   3.183   1.816   1.317  0.1764  1.1058  2.7829
 5447SOL     OW27802   3.518   4.292   9.333  0.2247  0.6326  0.2112
 5447SOL    HW127803   3.566   4.237   9.395  1.1504  1.3479  0.1122
 5447SOL    HW227804   3.446   4.236   9.304 -0.6750  0.7979  2.0869
 5448SOL     OW27805   3.766   4.109   1.910 -0.0793  0.1060  0.3333
 5448SOL    HW127806   3.834   4.102   1.843 -2.5923 -1.8271 -2.0260
 5448SOL    HW227807   3.688   4.091   1.858 -0.6505  2.2536  0.4299
 5449SOL     OW27808   3.527   4.220   8.032  0.0798  0.3579  0.2649
 5449SOL    HW127809   3.603   4.245   8.084  0.4904 -1.4061  0.5195
 5449SOL    HW227810   3.448   4.242   8.082  1.1191  0.0629  2.0550
 5450SOL     OW27811   3.577   3.312  13.689  0.0224 -0.2655  0.5456
 5450SOL    HW127812   3.493   3.347  13.718  0.9487  0.4976  2.3204
 5450SOL    HW227813   3.580   3.226  13.729  0.0758 -0.2672  0.5379
 5451SOL     OW27814   4.007   4.329  10.926  0.3686  0.7570  0.0189
 5451SOL    HW127815   3.928   4.381  10.909  0.9220  1.4560 -0.4419
 5451SOL    HW227816   3.995   4.307  11.018 -1.1599  0.0580 -0.3447
 5452SOL     OW27817   2.343   2.167  16.668  0.3914  0.5485 -0.0823
 5452SOL    HW127818   2.268   2.116  16.699 -1.8059  3.7173 -0.2230
 5452SOL    HW227819   2.329   2.252  16.710 -2.1955 -0.2841  0.7599
 5453SOL     OW27820   2.095   2.124   8.451 -0.4958  0.8331  0.8164
 5453SOL    HW127821   2.190   2.118   8.448 -0.4027  1.8430  1.9036
 5453SOL    HW227822   2.083   2.046   8.396 -0.2420  0.2092  1.6532
 5454SOL     OW27823   3.681   1.477   6.604  0.2708  0.0529  0.4827
 5454SOL    HW127824   3.677   1.414   6.532  0.3146 -2.0891  2.3770
 5454SOL    HW227825   3.765   1.478   6.648 -2.1825 -1.1904  5.1779
 5455SOL     OW27826   2.444   4.525  11.873  0.5295 -0.0558 -0.1498
 5455SOL    HW127827   2.379   4.456  11.866 -0.2669  0.6253  0.4300
 5455SOL    HW227828   2.471   4.550  11.785 -3.4415  1.9503 -0.7731
 5456SOL     OW27829   1.047   1.431   8.589 -0.3267  0.3230  0.0023
 5456SOL    HW127830   1.092   1.420   8.673  0.1877 -1.2855 -0.4924
 5456SOL    HW227831   1.006   1.345   8.577 -0.6655  0.7151 -1.7329
 5457SOL     OW27832   2.826   2.073   3.143 -0.0018  0.1786  0.0064
 5457SOL    HW127833   2.828   2.148   3.083  0.1651  0.5091  0.4336
 5457SOL    HW227834   2.777   2.008   3.093 -1.1854  1.6446 -0.7490
 5458SOL     OW27835   3.318   1.910   4.353  0.2953  0.4448 -0.1048
 5458SOL    HW127836   3.305   1.964   4.275  0.5200 -0.3623 -0.6989
 5458SOL    HW227837   3.397   1.948   4.390  0.7997 -0.3695 -0.3363
 5459SOL     OW27838   2.522   4.494   2.682  0.3289  0.1339  0.6028
 5459SOL    HW127839   2.453   4.441   2.723 -0.3920 -0.4668 -1.3836
 5459SOL    HW227840   2.478   4.518   2.601 -0.7954  0.8340  1.4192
 5460SOL     OW27841   4.116   3.549  16.358 -0.2684  0.2383  0.3611
 5460SOL    HW127842   4.037   3.565  16.306  0.3609 -0.8128 -0.9255
 5460SOL    HW227843   4.104   3.600  16.438 -2.6916  2.6835 -1.5510
 5461SOL     OW27844   4.245   0.546   6.770  0.3178  0.0813 -0.7058
 5461SOL    HW127845   4.168   0.597   6.744 -0.4084 -0.8337 -0.3558
 5461SOL    HW227846   4.291   0.544   6.687  0.8498 -0.6091 -0.3876
 5462SOL     OW27847   2.125   3.414   7.806  0.2293  0.6632 -0.8647
 5462SOL    HW127848   2.092   3.348   7.867  0.1588  0.8713 -0.6769
 5462SOL    HW227849   2.211   3.419   7.849 -0.9885  1.4978  1.4741
 5463SOL     OW27850   4.154   4.657   0.348 -0.1406  0.4535 -0.0123
 5463SOL    HW127851   4.119   4.570   0.369  0.2080 -0.1428 -1.9076
 5463SOL    HW227852   4.131   4.667   0.256 -0.0802  0.5177 -0.0192
 5464SOL     OW27853   0.464   2.855  10.442 -0.7117 -0.9534 -0.1065
 5464SOL    HW127854   0.451   2.761  10.433 -2.2185 -1.1177  3.6093
 5464SOL    HW227855   0.386   2.875  10.494  0.4455 -1.3670  1.7948
 5465SOL     OW27856   1.548   3.118  11.145 -0.3081 -0.2060 -0.6874
 5465SOL    HW127857   1.498   3.072  11.078 -0.2420 -0.4767 -0.5541
 5465SOL    HW227858   1.585   3.039  11.185 -0.5671  0.5747  1.1244
 5466SOL     OW27859   3.996   2.181  11.515  0.0879  0.6370 -0.2444
 5466SOL    HW127860   4.056   2.110  11.540  1.0075  0.8233 -1.9101
 5466SOL    HW227861   3.992   2.231  11.597  0.8163 -2.0235  1.4247
 5467SOL     OW27862   2.377   3.207   6.353  0.0737  0.2377 -0.1572
 5467SOL    HW127863   2.398   3.114   6.351  2.3721  0.7703 -2.0081
 5467SOL    HW227864   2.295   3.215   6.305 -0.1420 -1.4871 -0.0548
 5468SOL     OW27865   1.611   2.351   2.101  0.0350 -0.1027  0.0891
 5468SOL    HW127866   1.652   2.351   2.187 -0.1139 -0.0949  0.1600
 5468SOL    HW227867   1.652   2.425   2.056 -1.1006 -0.3363 -1.3193
 5469SOL     OW27868   1.901   4.017  13.168 -0.4637  0.2472 -0.1913
 5469SOL    HW127869   1.980   3.965  13.180 -0.0505  1.4932  2.4534
 5469SOL    HW227870   1.924   4.094  13.219  1.3563  0.8893 -1.9828
 5470SOL     OW27871   2.392   0.270   8.655  0.1044 -0.0793 -0.1954
 5470SOL    HW127872   2.357   0.358   8.671  1.4993  0.1847  1.3662
 5470SOL    HW227873   2.362   0.225   8.734  3.0597  1.6683  1.9128
 5471SOL     OW27874   4.603   1.368   2.558  0.0959  0.1017 -0.0022
 5471SOL    HW127875   4.649   1.449   2.580 -2.6808  1.1317  1.9774
 5471SOL    HW227876   4.569   1.391   2.472  1.8723 -1.4309 -1.1077
 5472SOL     OW27877   3.552   2.510   5.505  0.7475 -0.7207 -0.3878
 5472SOL    HW127878   3.606   2.581   5.537 -1.2671  0.0445  1.3084
 5472SOL    HW227879   3.621   2.455   5.467 -0.8095 -2.0119 -1.3788
 5473SOL     OW27880   3.986   1.320   5.565  0.0762 -0.2627 -0.3190
 5473SOL    HW127881   4.065   1.367   5.538  1.3654 -0.7134  2.7564
 5473SOL    HW227882   3.924   1.394   5.563 -0.6067 -0.8668 -1.5351
 5474SOL     OW27883   3.879   4.203   2.605  0.3518 -0.0005 -0.2137
 5474SOL    HW127884   3.877   4.246   2.691 -1.7789  0.4583 -0.4729
 5474SOL    HW227885   3.789   4.219   2.574  0.0697 -1.7227 -0.2599
 5475SOL     OW27886   2.626   0.444   6.956 -0.0866 -0.4118  0.7634
 5475SOL    HW127887   2.625   0.451   7.052 -0.1417 -0.3328  0.7567
 5475SOL    HW227888   2.718   0.458   6.934  0.2476 -1.7352  1.3203
 5476SOL     OW27889   3.023   0.564   3.203  0.4008 -0.0452 -0.1928
 5476SOL    HW127890   2.955   0.546   3.138  0.9557 -3.0139  0.0425
 5476SOL    HW227891   3.076   0.615   3.142 -1.0744  0.1067 -1.3416
 5477SOL     OW27892   3.165   0.904   5.294  0.4489  0.4949  0.1607
 5477SOL    HW127893   3.239   0.845   5.281 -0.0129 -0.4886  1.9474
 5477SOL    HW227894   3.208   0.988   5.305  1.6112 -0.2288  1.1419
 5478SOL     OW27895   1.199   3.937   1.915  0.3412  0.6943 -0.0997
 5478SOL    HW127896   1.238   3.943   2.002 -0.4358  1.1517  0.2133
 5478SOL    HW227897   1.265   3.984   1.863  0.0076  1.0357 -0.2114
 5479SOL     OW27898   3.810   4.427   7.013 -0.1675  0.1049 -0.3978
 5479SOL    HW127899   3.821   4.366   6.940 -0.2518  1.4507 -1.5502
 5479SOL    HW227900   3.718   4.452   7.012 -0.1704  0.1565  1.5287
 5480SOL     OW27901   4.356   3.234   1.202 -0.2460  0.0117 -0.3088
 5480SOL    HW127902   4.315   3.320   1.192 -0.5996  0.2033  2.6341
 5480SOL    HW227903   4.445   3.259   1.177  0.0615  0.6059  1.3788
 5481SOL     OW27904   2.258   3.407   3.754  0.1132 -0.0533 -0.4425
 5481SOL    HW127905   2.271   3.378   3.664  3.6325 -0.9253  0.3548
 5481SOL    HW227906   2.246   3.501   3.742  1.4955  0.0145 -1.2834
 5482SOL     OW27907   1.943   3.119  12.260  0.0049 -0.6321  0.3484
 5482SOL    HW127908   1.877   3.179  12.226  0.2058 -0.8985 -0.4956
 5482SOL    HW227909   2.011   3.124  12.193 -2.2730  0.4803 -1.8841
 5483SOL     OW27910   3.910   3.391   1.456 -0.3741  0.4620 -0.4204
 5483SOL    HW127911   3.881   3.396   1.365  0.8720 -0.1999 -0.8551
 5483SOL    HW227912   3.981   3.327   1.448 -1.1368 -0.3254 -0.8841
 5484SOL     OW27913   3.197   4.250  16.661 -0.1014 -0.3599 -0.1293
 5484SOL    HW127914   3.120   4.219  16.612  0.4685  1.6848 -2.3421
 5484SOL    HW227915   3.271   4.201  16.626  0.6156  0.3906  0.3427
 5485SOL     OW27916   0.229   3.461   8.551 -0.2860 -0.1981  0.0572
 5485SOL    HW127917   0.278   3.404   8.611  0.9942 -1.3452 -2.0658
 5485SOL    HW227918   0.141   3.452   8.587 -0.4406  0.3220 -0.1842
 5486SOL     OW27919   2.569   1.582   5.391 -0.8625 -0.4283 -0.0813
 5486SOL    HW127920   2.535   1.622   5.311  0.2471  2.7125  1.0318
 5486SOL    HW227921   2.662   1.598   5.373 -0.6670 -0.1943  1.1264
 5487SOL     OW27922   3.653   3.343   4.244  0.4958 -0.2029 -0.0839
 5487SOL    HW127923   3.670   3.291   4.166 -0.3646  2.3357 -1.9532
 5487SOL    HW227924   3.636   3.429   4.207 -1.2366 -0.6822 -0.3734
 5488SOL     OW27925   1.868   2.016   7.139  0.3744  0.2501  0.0170
 5488SOL    HW127926   1.901   2.020   7.050 -1.1887 -1.2227 -0.6162
 5488SOL    HW227927   1.784   1.971   7.131  0.2036  0.5140  0.3224
 5489SOL     OW27928   0.276   0.853   8.561 -0.4835 -0.1601  0.2071
 5489SOL    HW127929   0.234   0.895   8.637  1.3815  0.8394  0.7075
 5489SOL    HW227930   0.252   0.764   8.584 -1.5887  0.2808  0.7273
 5490SOL     OW27931   1.483   2.496   8.028  0.4171 -0.4509 -0.5840
 5490SOL    HW127932   1.568   2.476   8.067  1.6246  0.6738 -2.6512
 5490SOL    HW227933   1.490   2.458   7.941  0.8400  1.8780 -1.5580
 5491SOL     OW27934   3.459   4.138   3.216  0.0894 -0.4168  0.5794
 5491SOL    HW127935   3.395   4.121   3.285  0.0053 -0.9268  0.3734
 5491SOL    HW227936   3.540   4.135   3.267 -0.7417  1.3757  2.0248
 5492SOL     OW27937   0.060   3.907  16.615  0.7065  0.0381 -0.1051
 5492SOL    HW127938   4.700   3.942  16.634  0.6084  0.8365 -2.0272
 5492SOL    HW227939   0.100   3.919  16.702  0.4919 -1.5916  0.2076
 5493SOL     OW27940   4.365   4.324   9.384 -0.0289  0.0864 -0.0162
 5493SOL    HW127941   4.394   4.234   9.365 -0.8704 -0.5612  1.7497
 5493SOL    HW227942   4.280   4.330   9.341 -0.0409 -0.4915 -0.0780
 5494SOL     OW27943   2.822   4.471  10.974  0.1099  0.6039 -0.2478
 5494SOL    HW127944   2.879   4.547  10.979 -0.2554  0.9518 -1.3433
 5494SOL    HW227945   2.875   4.424  10.909 -1.1066 -1.5618  0.3198
 5495SOL     OW27946   0.222   2.453  11.881  0.9977 -0.2587  0.2345
 5495SOL    HW127947   0.220   2.480  11.973 -0.4349 -2.6254  0.8779
 5495SOL    HW227948   0.237   2.360  11.894  2.0402  0.0736  1.3474
 5496SOL     OW27949   2.872   2.692   3.004  0.0158  0.1719 -0.7288
 5496SOL    HW127950   2.898   2.784   3.000  2.0548 -0.3953 -0.7925
 5496SOL    HW227951   2.832   2.658   2.924 -0.9338  0.6303 -0.4415
 5497SOL     OW27952   3.118   0.023   0.348 -0.0895  0.3805 -0.0511
 5497SOL    HW127953   3.167   0.075   0.412 -0.2184 -1.5160  1.5744
 5497SOL    HW227954   3.174   0.035   0.271  1.1077 -0.1737  0.7458
 5498SOL     OW27955   1.304   1.897   3.049 -0.6447  0.3871  0.2973
 5498SOL    HW127956   1.224   1.927   3.007 -1.2049 -2.0542 -0.3554
 5498SOL    HW227957   1.370   1.919   2.983 -0.0734 -1.5249  0.2205
 5499SOL     OW27958   3.496   3.661   7.366  0.1745  0.1968  0.0887
 5499SOL    HW127959   3.502   3.743   7.317 -0.4248 -0.9611 -1.9351
 5499SOL    HW227960   3.551   3.682   7.442  0.5724  3.3107 -1.0548
 5500SOL     OW27961   2.070   1.668   3.659  0.1589 -0.1764  0.0736
 5500SOL    HW127962   2.011   1.734   3.696 -0.5201 -0.8320  0.1512
 5500SOL    HW227963   2.121   1.727   3.603  0.9562 -1.5642 -0.6605
 5501SOL     OW27964   3.695   4.401   6.673 -0.0864  0.2088 -0.4635
 5501SOL    HW127965   3.702   4.349   6.593 -0.2283  0.2416 -0.4974
 5501SOL    HW227966   3.741   4.343   6.733  1.6717 -0.1429 -2.1564
 5502SOL     OW27967   3.624   3.021   3.736  0.1009 -0.1787  0.8493
 5502SOL    HW127968   3.604   2.943   3.684 -0.3959  0.6897 -0.2636
 5502SOL    HW227969   3.623   3.088   3.667  0.1536  1.5244  2.4986
 5503SOL     OW27970   1.202   3.866  13.248  0.2485 -0.1302  0.2365
 5503SOL    HW127971   1.204   3.846  13.342 -0.9706 -1.7271 -0.0728
 5503SOL    HW227972   1.150   3.947  13.252 -1.1064 -1.0268  0.7828
 5504SOL     OW27973   0.055   0.245  12.571  0.8732 -0.4290 -0.2013
 5504SOL    HW127974   0.134   0.222  12.620  1.6628  0.1992 -1.1865
 5504SOL    HW227975   0.064   0.340  12.566 -1.8990 -0.2121 -1.0896
 5505SOL     OW27976   1.734   2.962   8.747  0.4855  0.0245 -0.8429
 5505SOL    HW127977   1.732   3.057   8.763  2.3010 -0.2344  0.8648
 5505SOL    HW227978   1.827   2.945   8.765 -0.2958 -2.2183  1.1340
 5506SOL     OW27979   2.260   4.388   6.574  0.8008 -0.1291  0.5010
 5506SOL    HW127980   2.194   4.456   6.581  0.1074 -0.7776  0.2583
 5506SOL    HW227981   2.235   4.336   6.650  0.7387 -1.3942 -0.3858
 5507SOL     OW27982   3.448   3.731   5.976  0.0419  0.2055 -0.2277
 5507SOL    HW127983   3.377   3.668   5.963 -0.4063  0.8120 -0.6543
 5507SOL    HW227984   3.412   3.819   5.967 -0.2353  0.3338  2.1601
 5508SOL     OW27985   2.917   4.724   8.024  0.4718 -0.0552  0.1738
 5508SOL    HW127986   2.916   0.034   8.113  1.7457  1.9237 -0.6159
 5508SOL    HW227987   2.934   0.076   7.972 -0.4944 -0.9893 -1.5417
 5509SOL     OW27988   0.223   0.353  12.252 -0.2686 -0.1960 -0.2414
 5509SOL    HW127989   0.240   0.279  12.311  0.1822  1.2154  1.4148
 5509SOL    HW227990   0.216   0.302  12.171  0.7340  1.1679 -1.1855
 5510SOL     OW27991   3.862   1.351   9.784  0.1068  0.5911  0.0815
 5510SOL    HW127992   3.884   1.409   9.857  0.1254  1.8320 -0.9086
 5510SOL    HW227993   3.805   1.415   9.740  1.2863  0.7101 -1.2989
 5511SOL     OW27994   1.695   0.300  13.361  0.1967 -0.1661 -0.7338
 5511SOL    HW127995   1.625   0.350  13.403  0.2167 -1.3551  0.7133
 5511SOL    HW227996   1.756   0.361  13.320  1.0284 -0.7933 -0.4216
 5512SOL     OW27997   2.599   4.449   3.741  0.0203  0.1120  0.4216
 5512SOL    HW127998   2.542   4.375   3.720 -1.6034  1.5295 -0.2012
 5512SOL    HW227999   2.667   4.440   3.674 -1.1115 -0.4477 -0.6562
 5513SOL     OW28000   2.964   0.159  11.502 -0.3818  0.3852 -0.4181
 5513SOL    HW128001   2.975   0.232  11.564  2.1006  1.0292 -1.6184
 5513SOL    HW228002   3.030   0.100  11.538 -0.3034  0.9934  0.4436
 5514SOL     OW28003   4.646   2.997   4.111  0.6360 -0.5019  0.2861
 5514SOL    HW128004   0.006   2.970   4.079 -0.7739 -1.1828 -2.9451
 5514SOL    HW228005   4.667   3.025   4.200  1.4795  1.0420 -0.4041
 5515SOL     OW28006   0.280   0.271   6.602  0.3890  0.3141  0.1790
 5515SOL    HW128007   0.334   0.194   6.586  1.0541  1.1245 -1.4841
 5515SOL    HW228008   0.200   0.256   6.552  0.5375  2.2863 -0.6449
 5516SOL     OW28009   4.723   3.789  11.848 -0.2404 -0.3638 -0.0979
 5516SOL    HW128010   0.007   3.739  11.929  1.6744 -4.0884 -2.6810
 5516SOL    HW228011   0.010   3.721  11.783 -1.2831  1.7304 -2.4825
 5517SOL     OW28012   4.518   0.848   5.487  0.1733  0.1979  0.1297
 5517SOL    HW128013   4.573   0.896   5.425 -1.7246  1.1550 -0.8139
 5517SOL    HW228014   4.492   0.920   5.544 -0.0184 -0.3397  0.7154
 5518SOL     OW28015   0.973   2.692   3.747 -0.2244  0.0079 -0.4758
 5518SOL    HW128016   0.898   2.743   3.717 -0.9782 -1.0586 -0.4192
 5518SOL    HW228017   0.940   2.651   3.827 -1.0515  1.4608 -0.0734
 5519SOL     OW28018   1.916   3.930   5.148  0.4957  0.1796 -0.7613
 5519SOL    HW128019   1.951   3.956   5.063  1.9101  0.5627 -0.0770
 5519SOL    HW228020   1.961   3.846   5.158 -3.1894 -1.2270  4.1124
 5520SOL     OW28021   3.968   3.407  10.072 -0.0029  0.6057 -0.2543
 5520SOL    HW128022   3.980   3.494  10.032 -1.7566  1.9130  2.0341
 5520SOL    HW228023   3.882   3.379  10.042  1.8968 -3.6690 -1.7541
 5521SOL     OW28024   2.887   2.868   6.247  0.5312  0.2475 -0.0950
 5521SOL    HW128025   2.816   2.817   6.287  0.9588  0.3569  0.8118
 5521SOL    HW228026   2.839   2.950   6.235  0.3982  0.0976 -0.5771
 5522SOL     OW28027   4.410   1.859   4.670 -0.3227  0.0237 -0.0755
 5522SOL    HW128028   4.332   1.824   4.629 -1.1020 -0.5190  1.8611
 5522SOL    HW228029   4.400   1.954   4.664  1.7472  0.3001  0.5401
 5523SOL     OW28030   1.654   2.723   0.213 -0.5056  0.6539 -0.2113
 5523SOL    HW128031   1.581   2.661   0.207 -1.1188  1.1448  2.1391
 5523SOL    HW228032   1.610   2.793   0.165  1.3175  1.7516 -0.2727
 5524SOL     OW28033   4.297   0.596   8.942 -0.0790 -0.1664  0.3651
 5524SOL    HW128034   4.235   0.524   8.932  0.6916 -0.9774  1.2548
 5524SOL    HW228035   4.383   0.559   8.962  0.5875 -0.1767 -2.4786
 5525SOL     OW28036   2.898   2.428   8.850  0.2972  0.0097  0.0630
 5525SOL    HW128037   2.830   2.448   8.914 -0.5872  3.0238 -1.8241
 5525SOL    HW228038   2.868   2.350   8.803  2.4925 -0.4489 -0.6126
 5526SOL     OW28039   1.404   1.772   3.866 -0.0479 -0.2676  0.2989
 5526SOL    HW128040   1.355   1.799   3.789  0.6118  0.0330 -0.0185
 5526SOL    HW228041   1.391   1.849   3.921 -1.5174  0.7671 -1.4872
 5527SOL     OW28042   3.621   4.693   2.181  0.2265  0.4380 -0.1483
 5527SOL    HW128043   3.591   0.056   2.200 -0.1440  0.3646 -0.3977
 5527SOL    HW228044   3.599   4.696   2.088  2.1548  2.6235 -0.5445
 5528SOL     OW28045   2.320   4.546   0.770  0.0888  0.2454 -0.1525
 5528SOL    HW128046   2.356   4.578   0.853 -1.1684  0.0589  0.4618
 5528SOL    HW228047   2.292   4.458   0.795  0.7999  0.0817  0.0803
 5529SOL     OW28048   0.603   0.502   3.765 -0.6169  0.5758 -0.1016
 5529SOL    HW128049   0.577   0.511   3.857  1.1969  1.7232  0.3053
 5529SOL    HW228050   0.595   0.596   3.749 -0.4779  0.8637  1.4793
 5530SOL     OW28051   1.244   1.079   0.860  0.7587  0.4314 -0.1565
 5530SOL    HW128052   1.335   1.096   0.885  0.9346 -0.5928 -0.1117
 5530SOL    HW228053   1.212   1.046   0.944  0.9154 -0.3589 -0.4072
 5531SOL     OW28054   2.886   4.112   6.468 -0.2430  0.5200 -0.3616
 5531SOL    HW128055   2.944   4.157   6.529  0.1857 -0.0337 -0.3649
 5531SOL    HW228056   2.877   4.174   6.395  0.4203 -0.4612 -1.2707
 5532SOL     OW28057   0.207   2.897  11.781  0.1932 -0.1219 -0.1843
 5532SOL    HW128058   0.209   2.939  11.694  0.8962 -0.9955 -0.5891
 5532SOL    HW228059   0.262   2.826  11.749 -0.0891 -0.6740  0.5867
 5533SOL     OW28060   2.692   0.126   9.315 -0.1857  0.3104  0.2758
 5533SOL    HW128061   2.736   0.041   9.314 -0.3300  0.2136  2.1092
 5533SOL    HW228062   2.676   0.138   9.221  1.1513  0.7284  0.1086
 5534SOL     OW28063   4.245   3.680  11.712  0.2025 -0.6351 -0.0395
 5534SOL    HW128064   4.228   3.773  11.718 -0.7311 -0.8417  0.5020
 5534SOL    HW228065   4.299   3.667  11.790 -0.6683 -1.5510  0.4187
 5535SOL     OW28066   0.192   1.883   2.707 -0.2876  0.2215 -0.0913
 5535SOL    HW128067   0.190   1.868   2.802  0.7428  1.7808  0.1627
 5535SOL    HW228068   0.100   1.903   2.690 -0.8608 -1.2587  1.2505
 5536SOL     OW28069   4.697   0.267   3.857 -0.0893 -0.5748 -0.1587
 5536SOL    HW128070   4.696   0.249   3.763 -3.0054 -2.2231  0.1783
 5536SOL    HW228071   4.724   0.178   3.877  2.1632  0.3497  0.9231
 5537SOL     OW28072   3.742   0.375  11.731  0.4431  0.0653 -0.1414
 5537SOL    HW128073   3.726   0.466  11.709  0.7819  0.5175  1.5136
 5537SOL    HW228074   3.790   0.383  11.813  2.7718 -2.1137 -1.2515
 5538SOL     OW28075   1.022   4.137   3.505 -0.0623 -0.3654 -0.3882
 5538SOL    HW128076   1.039   4.043   3.511  2.0604  0.0292 -0.2718
 5538SOL    HW228077   0.930   4.141   3.478 -0.6939 -0.7534  1.6934
 5539SOL     OW28078   1.811   4.343   9.771  0.6045  0.1120 -0.1536
 5539SOL    HW128079   1.894   4.334   9.724  0.4645 -1.9157 -0.0336
 5539SOL    HW228080   1.763   4.415   9.729  0.8788 -0.4234 -1.3732
 5540SOL     OW28081   4.642   4.455   5.978  0.1883 -0.2467 -0.6765
 5540SOL    HW128082   4.712   4.520   5.989  1.5482 -1.6231 -1.1150
 5540SOL    HW228083   4.581   4.509   6.029  0.0784 -0.3478 -0.7010
 5541SOL     OW28084   0.010   3.545   5.459 -0.6489 -0.3224 -0.7081
 5541SOL    HW128085   0.076   3.499   5.510  0.3018  0.7188 -1.0088
 5541SOL    HW228086   0.004   3.624   5.513  1.3147 -1.6811  1.4424
 5542SOL     OW28087   1.161   1.649   4.115 -0.0328  0.7234 -0.1356
 5542SOL    HW128088   1.163   1.744   4.121  1.9278  0.4521  3.3309
 5542SOL    HW228089   1.114   1.625   4.195  0.3305  2.1682  0.5111
 5543SOL     OW28090   0.288   2.647  11.720 -0.3783 -0.2246 -0.4345
 5543SOL    HW128091   0.274   2.566  11.769 -1.0226  0.2380  0.1556
 5543SOL    HW228092   0.262   2.621  11.632 -2.2933 -0.8908  0.3471
 5544SOL     OW28093   2.856   2.640   5.029 -0.4542 -0.4825  0.5448
 5544SOL    HW128094   2.845   2.707   5.097  0.2119  1.3740 -1.1784
 5544SOL    HW228095   2.939   2.670   4.992 -1.4733  1.1531 -0.3953
 5545SOL     OW28096   2.643   2.909   7.362 -0.8770  0.1048  0.1436
 5545SOL    HW128097   2.637   2.978   7.429  1.5565  0.1371  0.3441
 5545SOL    HW228098   2.736   2.912   7.339 -0.1093 -0.3740  3.1574
 5546SOL     OW28099   1.641   1.190   4.990  0.3875  0.0437 -0.8532
 5546SOL    HW128100   1.584   1.176   4.915 -0.3653 -0.8724 -0.1139
 5546SOL    HW228101   1.581   1.187   5.065 -0.0098 -0.6644 -1.1993
 5547SOL     OW28102   4.469   1.631   9.997  0.3682 -0.3547 -0.4859
 5547SOL    HW128103   4.489   1.719  10.028 -0.1081 -2.3145  5.3882
 5547SOL    HW228104   4.411   1.662   9.927 -0.8479  0.5752  0.9339
 5548SOL     OW28105   3.196   2.175   2.456 -0.6007 -0.5434 -0.1000
 5548SOL    HW128106   3.206   2.120   2.378 -2.2049  0.3334 -0.9482
 5548SOL    HW228107   3.170   2.114   2.525 -1.4507  0.6252  0.6009
 5549SOL     OW28108   2.789   2.379   2.825 -0.5911 -0.2382 -0.0219
 5549SOL    HW128109   2.806   2.298   2.777  1.8530 -0.5795  1.4565
 5549SOL    HW228110   2.822   2.443   2.762  0.2176  0.3783  1.0277
 5550SOL     OW28111   2.429   0.534   7.768 -0.2913 -0.3971 -0.0319
 5550SOL    HW128112   2.503   0.473   7.774 -0.9553 -1.2328 -0.3793
 5550SOL    HW228113   2.476   0.612   7.739  0.7413 -1.0576 -0.1282
 5551SOL     OW28114   1.704   4.267  11.452  0.3777 -0.4724  0.0209
 5551SOL    HW128115   1.720   4.240  11.362  2.5338  0.9071 -0.0245
 5551SOL    HW228116   1.736   4.357  11.445 -0.2815 -0.0912  1.6693
 5552SOL     OW28117   0.336   4.638  17.424  0.4299 -0.6631 -0.0285
 5552SOL    HW128118   0.369   4.725  17.447  0.2268 -0.8696  1.0286
 5552SOL    HW228119   0.334   4.591  17.507  0.7531 -0.9100 -0.1589
 5553SOL     OW28120   4.472   4.097   6.901  0.0681 -0.0163 -0.2702
 5553SOL    HW128121   4.425   4.050   6.969 -3.3141 -1.3086 -3.5048
 5553SOL    HW228122   4.542   4.035   6.880  1.9238  1.3165  1.9562
 5554SOL     OW28123   4.346   1.237  16.064  0.2206 -0.1362  0.1427
 5554SOL    HW128124   4.424   1.289  16.083 -1.4164  1.5731  2.1673
 5554SOL    HW228125   4.272   1.282  16.104  1.6736  1.2864  1.2377
 5555SOL     OW28126   4.310   2.031   6.237 -0.1679  0.0964  0.3356
 5555SOL    HW128127   4.239   2.008   6.296  0.1271 -2.1486 -0.1892
 5555SOL    HW228128   4.344   1.947   6.207  0.0856  0.7125 -1.1274
 5556SOL     OW28129   3.384   3.929   2.519 -0.0286 -0.0593 -0.1173
 5556SOL    HW128130   3.426   3.872   2.584 -0.7310  1.4175  1.6405
 5556SOL    HW228131   3.451   3.922   2.452  0.4567  0.2842  0.3329
 5557SOL     OW28132   1.940   4.171   8.928 -0.2635 -0.2293 -0.5217
 5557SOL    HW128133   1.957   4.189   9.021  0.1938 -0.6653 -0.5247
 5557SOL    HW228134   2.019   4.123   8.906  1.8399  2.6956  0.5557
 5558SOL     OW28135   1.399   1.275   0.007 -0.6154  0.3676  0.6145
 5558SOL    HW128136   1.467   1.257  17.648  0.6264  3.2099  1.1171
 5558SOL    HW228137   1.448   1.262   0.088 -0.9876 -0.7640  0.6583
 5559SOL     OW28138   1.073   0.142  16.314 -0.5597  0.8312 -0.5984
 5559SOL    HW128139   1.060   0.172  16.404 -0.1542  1.4341 -0.7396
 5559SOL    HW228140   1.033   0.055  16.315  1.6770 -0.1720  1.5924
 5560SOL     OW28141   1.076   1.094   7.395 -0.3586 -0.3361  0.4576
 5560SOL    HW128142   1.106   1.003   7.398  0.3534 -0.1153 -0.0550
 5560SOL    HW228143   1.157   1.141   7.416 -1.6686  1.5105  1.4213
 5561SOL     OW28144   3.213   3.563   4.253  0.0667  0.3492  0.7834
 5561SOL    HW128145   3.275   3.492   4.268 -0.2842 -0.2624 -0.6648
 5561SOL    HW228146   3.196   3.600   4.339  2.7258 -0.1749  1.5242
 5562SOL     OW28147   2.991   2.121  16.001 -0.4448 -0.3994 -0.3183
 5562SOL    HW128148   2.948   2.153  16.080 -0.7835 -0.8206 -0.3281
 5562SOL    HW228149   2.909   2.116  15.951 -0.4572  1.9462 -0.5079
 5563SOL     OW28150   4.522   0.233   2.854  0.3453  0.1885 -0.8334
 5563SOL    HW128151   4.438   0.247   2.811  0.4770 -1.1519 -1.5169
 5563SOL    HW228152   4.505   0.148   2.895  1.6427  0.8229  1.0288
 5564SOL     OW28153   0.912   0.556   5.915 -0.1903  0.2440 -0.2037
 5564SOL    HW128154   0.956   0.530   5.997 -0.4418  0.8483  0.1183
 5564SOL    HW228155   0.949   0.643   5.904  1.9041 -0.8498 -1.6662
 5565SOL     OW28156   4.176   0.779   2.530  0.6309  0.5718  0.2830
 5565SOL    HW128157   4.256   0.768   2.581  1.5118  1.2371 -0.9583
 5565SOL    HW228158   4.204   0.739   2.447  0.6993 -1.7483  1.4295
 5566SOL     OW28159   4.691   2.370   1.841  0.4437  0.0677  0.2823
 5566SOL    HW128160   4.657   2.450   1.882  0.2225 -0.3536  0.9283
 5566SOL    HW228161   0.023   2.327   1.904  0.1972 -3.2802 -1.7406
 5567SOL     OW28162   0.186   1.423   2.101 -0.0311 -0.4481 -0.6625
 5567SOL    HW128163   0.098   1.458   2.086 -0.6678 -1.7276  0.1090
 5567SOL    HW228164   0.212   1.373   2.024  0.2235 -1.7075  0.2417
 5568SOL     OW28165   1.754   0.940   5.626  0.7227  0.0164  0.5148
 5568SOL    HW128166   1.685   0.960   5.689 -1.3242 -0.3992 -1.5688
 5568SOL    HW228167   1.822   0.994   5.665  0.7702 -0.6435  1.3513
 5569SOL     OW28168   0.275   2.440  13.422 -0.5771 -0.6130 -0.5486
 5569SOL    HW128169   0.324   2.506  13.471 -1.0147 -1.3278  0.8475
 5569SOL    HW228170   0.352   2.383  13.418 -0.4346 -0.3217 -1.7276
 5570SOL     OW28171   1.334   0.818   3.293 -0.3949  0.1054  0.3815
 5570SOL    HW128172   1.312   0.889   3.353 -1.1781 -0.5523  0.8631
 5570SOL    HW228173   1.301   0.849   3.208 -1.4011  1.0703  1.1223
 5571SOL     OW28174   1.513   0.005   7.199 -0.7995  1.0259 -0.6422
 5571SOL    HW128175   1.543   4.693   7.282 -1.2491  0.8183 -0.5714
 5571SOL    HW228176   1.513   4.654   7.142 -3.0989 -0.2850  1.1086
 5572SOL     OW28177   1.758   1.305   4.398  0.1715 -0.0860  0.0471
 5572SOL    HW128178   1.725   1.368   4.334  1.8292  0.6576 -0.0569
 5572SOL    HW228179   1.677   1.284   4.444  0.0368  0.6691  0.1527
 5573SOL     OW28180   2.954   2.010   9.300 -0.5457  0.3800  0.0922
 5573SOL    HW128181   2.904   1.937   9.265 -1.4611  0.8955  0.3285
 5573SOL    HW228182   2.893   2.075   9.334 -0.6218  0.1182  0.4414
 5574SOL     OW28183   3.995   3.225   5.593 -0.1335 -0.0434  0.0773
 5574SOL    HW128184   3.919   3.174   5.620  0.6007 -0.9682  0.3934
 5574SOL    HW228185   3.969   3.264   5.509  0.9455 -0.2062 -0.3226
 5575SOL     OW28186   4.191   4.326   2.779 -0.2090 -0.4491  0.5520
 5575SOL    HW128187   4.120   4.286   2.829 -0.5358 -0.2145  0.2800
 5575SOL    HW228188   4.257   4.258   2.767 -0.4472 -0.8894  1.8069
 5576SOL     OW28189   0.541   2.917   7.730  0.3579 -0.3894  0.2769
 5576SOL    HW128190   0.619   2.873   7.695  1.3356  1.0829  0.5706
 5576SOL    HW228191   0.562   2.918   7.824 -0.9515 -1.4446  0.5804
 5577SOL     OW28192   3.554   0.145  12.060 -0.1149  0.2832 -0.5747
 5577SOL    HW128193   3.510   0.189  12.133 -0.1771  1.2410 -1.1950
 5577SOL    HW228194   3.526   0.054  12.069  0.9956 -0.2879 -2.8619
 5578SOL     OW28195   0.130   2.447   7.001  0.5382  0.4711 -0.2550
 5578SOL    HW128196   0.158   2.496   6.923  0.1764 -0.0886 -0.7347
 5578SOL    HW228197   0.153   2.358   6.974  0.4690  0.1720  0.6984
 5579SOL     OW28198   1.697   3.714   0.695 -0.4261 -0.3746 -0.1875
 5579SOL    HW128199   1.704   3.803   0.729 -3.1618 -0.0509 -0.4273
 5579SOL    HW228200   1.618   3.726   0.641 -0.4952 -2.9341 -0.6406
 5580SOL     OW28201   3.266   4.128  12.048 -0.2787 -0.8010  0.1246
 5580SOL    HW128202   3.258   4.033  12.042  0.6720 -1.0405  2.6628
 5580SOL    HW228203   3.266   4.133  12.144 -1.0340  0.1946  0.0787
 5581SOL     OW28204   2.493   2.471   7.620 -0.2398 -0.0813 -0.6053
 5581SOL    HW128205   2.414   2.509   7.582  0.5771  2.4971  0.2617
 5581SOL    HW228206   2.462   2.432   7.701  0.3489  0.3245 -0.1842
 5582SOL     OW28207   0.297   2.541   5.790  0.0571 -0.2291  0.0957
 5582SOL    HW128208   0.253   2.625   5.788 -0.3683 -0.4677 -0.3549
 5582SOL    HW228209   0.387   2.565   5.767 -0.8811  1.0197 -2.1787
 5583SOL     OW28210   1.141   3.844   1.464 -0.5293  0.7134 -0.0288
 5583SOL    HW128211   1.143   3.763   1.513  0.6036  0.6829 -0.1247
 5583SOL    HW228212   1.047   3.843   1.443 -0.2619  2.0274 -1.3384
 5584SOL     OW28213   1.045   3.359   3.455  0.0402 -0.0414  0.5518
 5584SOL    HW128214   1.113   3.385   3.393  0.0530 -0.0774  0.5508
 5584SOL    HW228215   0.971   3.412   3.425  0.1574  0.4750  1.1796
 5585SOL     OW28216   1.673   2.725   3.219  0.2330  0.0662  0.1265
 5585SOL    HW128217   1.599   2.785   3.209 -1.1784 -2.1327 -2.7470
 5585SOL    HW228218   1.714   2.745   3.134 -1.4620  0.2638 -0.6425
 5586SOL     OW28219   0.938   2.204   4.010 -0.4827 -0.2793  0.2146
 5586SOL    HW128220   0.994   2.196   3.933 -0.8039 -0.2613 -0.0211
 5586SOL    HW228221   0.989   2.262   4.066  1.4397 -0.9243 -0.8982
 5587SOL     OW28222   4.548   3.189   6.623  0.1726  0.4074 -0.4302
 5587SOL    HW128223   4.456   3.184   6.597 -0.0690 -0.5447  0.6362
 5587SOL    HW228224   4.591   3.152   6.546  0.7025 -0.6045  0.3476
 5588SOL     OW28225   3.743   3.044   2.570 -0.3560 -0.0575 -0.2940
 5588SOL    HW128226   3.683   3.027   2.498 -0.2095  0.6633 -0.5812
 5588SOL    HW228227   3.826   3.026   2.526 -0.1018 -0.9530  0.5299
 5589SOL     OW28228   0.207   4.307   5.065  0.2962 -0.0797 -0.2115
 5589SOL    HW128229   0.258   4.272   4.992  1.2330  0.9794 -0.0670
 5589SOL    HW228230   0.269   4.366   5.108  0.1056 -0.0930  0.0788
 5590SOL     OW28231   0.739   2.540   5.077 -0.0471  0.1013  1.3195
 5590SOL    HW128232   0.791   2.619   5.094  2.1371 -0.5923 -2.1731
 5590SOL    HW228233   0.702   2.560   4.991 -1.6725 -0.1050  1.9829
 5591SOL     OW28234   1.226   1.127   1.931 -0.2397  0.1678 -0.2317
 5591SOL    HW128235   1.282   1.126   1.852  1.0560  1.8425  0.6615
 5591SOL    HW228236   1.272   1.070   1.993 -1.9749 -2.0278 -0.9688
 5592SOL     OW28237   4.007   2.677   1.604 -0.1594 -0.8551 -0.0367
 5592SOL    HW128238   4.025   2.700   1.513 -0.7620 -0.9181 -0.1759
 5592SOL    HW228239   3.929   2.622   1.593  0.9891 -2.1219 -1.7928
 5593SOL     OW28240   1.792   0.673   2.411  0.6792  0.1293  0.4624
 5593SOL    HW128241   1.788   0.578   2.416  0.9640  0.0921 -0.0991
 5593SOL    HW228242   1.786   0.692   2.317 -1.4027 -1.9762  0.1800
 5594SOL     OW28243   1.784   3.863   3.909 -0.3571  0.2052 -0.4173
 5594SOL    HW128244   1.866   3.821   3.883  1.3434  2.5652  1.1649
 5594SOL    HW228245   1.775   3.933   3.843 -0.9240  0.7488  0.2352
 5595SOL     OW28246   1.679   3.834   4.760  0.8184  0.4844 -0.0270
 5595SOL    HW128247   1.664   3.903   4.824  0.3182 -0.3313  0.7318
 5595SOL    HW228248   1.664   3.883   4.679 -1.5275  0.2936  0.2996
 5596SOL     OW28249   3.983   4.488   7.523 -0.0363  0.1395 -0.3870
 5596SOL    HW128250   3.942   4.427   7.462 -1.6947 -0.8556  1.6849
 5596SOL    HW228251   3.903   4.507   7.573 -0.0170 -2.4630  0.6188
 5597SOL     OW28252   4.516   1.114   7.058  0.3610 -0.1989  0.1936
 5597SOL    HW128253   4.555   1.066   6.986 -1.8632 -1.1194 -0.4102
 5597SOL    HW228254   4.423   1.092   7.052  0.0974  0.3919  2.1220
 5598SOL     OW28255   0.898   3.088   8.401  0.2687  0.1605 -0.0115
 5598SOL    HW128256   0.866   3.125   8.483  0.2029  1.6910 -0.7192
 5598SOL    HW228257   0.984   3.128   8.387  0.2116 -0.5286 -2.3986
 5599SOL     OW28258   0.576   4.509   5.046  0.2201  0.1348  0.5801
 5599SOL    HW128259   0.663   4.549   5.042 -0.5164  1.8847  2.1150
 5599SOL    HW228260   0.583   4.432   4.990 -2.1347  0.1552  0.2818
 5600SOL     OW28261   2.149   0.835   2.198 -0.4845 -0.4038 -0.0285
 5600SOL    HW128262   2.123   0.866   2.285 -1.1056  1.7467 -0.9704
 5600SOL    HW228263   2.236   0.874   2.188 -0.6851 -0.0440 -0.3427
 5601SOL     OW28264   3.590   4.028   1.522 -0.1327 -0.2337 -0.2790
 5601SOL    HW128265   3.555   4.116   1.511 -0.1399 -0.2994 -0.7960
 5601SOL    HW228266   3.677   4.034   1.483  0.2836  0.9434  0.8261
 5602SOL     OW28267   4.171   2.303   5.250  0.5523  0.5939  0.2410
 5602SOL    HW128268   4.105   2.358   5.207 -0.2237 -0.6388 -0.1517
 5602SOL    HW228269   4.215   2.376   5.293  0.5747 -0.1448  1.4526
 5603SOL     OW28270   2.956   0.030  13.209  0.8105 -0.0697 -0.4544
 5603SOL    HW128271   2.906   4.675  13.205  0.5040  0.1598 -1.3287
 5603SOL    HW228272   2.892   0.101  13.220 -0.0596 -0.8019 -0.8005
 5604SOL     OW28273   2.364   2.913   5.675 -0.0200 -0.0863  0.5913
 5604SOL    HW128274   2.403   2.900   5.761 -0.2324 -0.2311  0.6649
 5604SOL    HW228275   2.281   2.866   5.667 -1.0208  1.7303  0.2945
 5605SOL     OW28276   4.589   2.380   6.837 -0.3641  0.2843 -0.6924
 5605SOL    HW128277   4.651   2.390   6.910 -2.1776 -0.0274  0.8831
 5605SOL    HW228278   4.514   2.379   6.897 -0.6001  3.2427 -0.9312
 5606SOL     OW28279   1.241   3.601   0.183 -0.1133 -0.3737  0.2222
 5606SOL    HW128280   1.307   3.536   0.207 -0.0149 -0.9615 -1.5855
 5606SOL    HW228281   1.270   3.624   0.095 -2.1043 -0.9848 -0.5985
 5607SOL     OW28282   3.646   2.977   5.889 -0.4648  0.3931  0.2859
 5607SOL    HW128283   3.565   2.953   5.844 -0.9898  0.2863  1.2824
 5607SOL    HW228284   3.613   2.985   5.979  0.8477  3.4871  0.4720
 5608SOL     OW28285   1.585   3.884   9.415 -0.0719 -0.1397  0.0238
 5608SOL    HW128286   1.548   3.836   9.489 -0.9512  0.6998  0.1311
 5608SOL    HW228287   1.596   3.813   9.352  1.6811  0.8821 -0.8489
 5609SOL     OW28288   3.118   2.703   6.162 -0.0682 -0.6901 -0.0811
 5609SOL    HW128289   3.175   2.777   6.181  0.4397 -1.1465  0.1980
 5609SOL    HW228290   3.036   2.751   6.169  0.4657  0.4614 -1.8008
 5610SOL     OW28291   3.434   0.609   7.035  0.0791  0.5118  0.0689
 5610SOL    HW128292   3.490   0.582   7.107 -0.4074  0.4578  0.4240
 5610SOL    HW228293   3.467   0.697   7.016 -0.8374  1.2532  2.0069
 5611SOL     OW28294   2.178   0.273   2.686 -0.2436  0.3108 -0.3321
 5611SOL    HW128295   2.226   0.191   2.699 -1.9232 -0.6376 -0.0160
 5611SOL    HW228296   2.089   0.249   2.714  0.5900 -1.5589  0.6789
 5612SOL     OW28297   4.499   1.682  13.316 -0.2075  0.0997 -0.0438
 5612SOL    HW128298   4.421   1.663  13.262  1.5120 -0.9861 -2.1668
 5612SOL    HW228299   4.532   1.594  13.332  0.5480  0.5450  0.8106
 5613SOL     OW28300   4.495   3.257   8.085 -0.4428  0.1605 -0.0572
 5613SOL    HW128301   4.532   3.169   8.090  2.3338  1.2861 -0.6899
 5613SOL    HW228302   4.502   3.282   8.177  0.8545  2.0865 -0.6945
 5614SOL     OW28303   2.368   0.005   2.838  0.1594 -0.3893 -0.1986
 5614SOL    HW128304   2.404   4.706   2.923  0.1167  2.0814  0.5648
 5614SOL    HW228305   2.299   4.665   2.836 -0.0114 -0.2104 -0.2321
 5615SOL     OW28306   2.229   0.832  11.645 -0.3574 -0.0625  0.0683
 5615SOL    HW128307   2.322   0.831  11.665 -0.4793  1.0202  0.7169
 5615SOL    HW228308   2.222   0.908  11.588 -0.6968 -1.0403 -1.1881
 5616SOL     OW28309   1.439   0.778   5.081  0.4488  0.1557  0.1351
 5616SOL    HW128310   1.348   0.789   5.051 -0.4595 -3.0037  1.7025
 5616SOL    HW228311   1.425   0.739   5.167 -0.0162 -3.7014 -1.6831
 5617SOL     OW28312   4.430   0.838   1.998  0.3488 -0.5253  0.0991
 5617SOL    HW128313   4.398   0.904   2.060 -0.1201 -1.6861  1.1051
 5617SOL    HW228314   4.524   0.852   1.998  0.4803 -1.4259 -0.7089
 5618SOL     OW28315   0.890   3.306  15.581 -0.6677  0.4781  0.0333
 5618SOL    HW128316   0.821   3.368  15.557  0.2129  1.1992 -0.6389
 5618SOL    HW228317   0.867   3.222  15.542  2.2330 -0.5184  0.5346
 5619SOL     OW28318   1.820   2.991   4.188  0.3014  0.4525  0.0619
 5619SOL    HW128319   1.902   3.040   4.186 -0.3559  1.5961  0.8900
 5619SOL    HW228320   1.823   2.939   4.269  0.7261 -0.6525 -0.6720
 5620SOL     OW28321   1.797   2.801   7.965 -0.2390 -0.5359  0.0011
 5620SOL    HW128322   1.798   2.795   8.061 -3.6851  0.5549  0.0957
 5620SOL    HW228323   1.822   2.893   7.968  0.9087 -0.8652  0.8516
 5621SOL     OW28324   0.679   1.186  16.812 -0.1289 -0.5285  0.3991
 5621SOL    HW128325   0.733   1.197  16.734 -0.9232 -1.8095 -0.3481
 5621SOL    HW228326   0.614   1.123  16.780 -1.5473  0.8972  0.4567
 5622SOL     OW28327   0.932   3.945   4.321  0.6221 -0.2960 -0.4551
 5622SOL    HW128328   0.843   3.980   4.319  1.0604  0.8250 -0.3996
 5622SOL    HW228329   0.979   4.027   4.304  0.7502 -0.1179  0.7886
 5623SOL     OW28330   2.942   1.515   8.299  0.5728 -0.3796  0.1243
 5623SOL    HW128331   2.981   1.500   8.213  1.1162  0.4268  0.2352
 5623SOL    HW228332   2.959   1.435   8.349  0.3547 -0.1343  0.5879
 5624SOL     OW28333   1.792   4.066  16.050  0.5319  0.4405 -0.7490
 5624SOL    HW128334   1.715   4.074  15.993  1.7868  1.7664 -2.2299
 5624SOL    HW228335   1.769   3.999  16.115 -2.5240 -0.4458 -2.7173
 5625SOL     OW28336   0.027   3.368   3.423 -0.6222 -0.2808  0.1153
 5625SOL    HW128337   4.657   3.371   3.422 -0.6243 -0.8703 -0.5795
 5625SOL    HW228338   0.050   3.461   3.426 -0.0896 -0.3959 -0.3649
 5626SOL     OW28339   2.607   3.209   5.698 -0.5677 -0.2039 -0.3813
 5626SOL    HW128340   2.532   3.157   5.724 -0.5178  0.4937  1.1574
 5626SOL    HW228341   2.586   3.236   5.608  1.7698  0.9148 -0.6080
 5627SOL     OW28342   3.707   1.703   4.852 -0.1850 -0.7563  0.2704
 5627SOL    HW128343   3.773   1.768   4.828 -1.5874  0.6189  0.1742
 5627SOL    HW228344   3.700   1.719   4.946 -0.3309  0.7243  0.0021
 5628SOL     OW28345   1.188   0.094   4.174 -0.2194  0.1267  0.3703
 5628SOL    HW128346   1.239   0.169   4.146 -0.2722  0.0898  0.1785
 5628SOL    HW228347   1.223   0.082   4.263  0.0373 -0.6723  0.1623
 5629SOL     OW28348   2.004   1.667  12.767  0.0162 -0.0501  0.3041
 5629SOL    HW128349   1.931   1.679  12.706 -1.3220 -1.1279  1.6934
 5629SOL    HW228350   1.966   1.600  12.823 -1.1294 -0.1194 -0.5608
 5630SOL     OW28351   2.864   3.856   9.222  0.0078  0.2744 -0.3790
 5630SOL    HW128352   2.853   3.761   9.224 -0.6810  0.4084  3.2798
 5630SOL    HW228353   2.958   3.873   9.228 -0.0155 -0.2235  1.2872
 5631SOL     OW28354   3.353   0.353   2.743 -0.2950 -0.1651 -0.1807
 5631SOL    HW128355   3.347   0.340   2.649  1.4288 -0.7591 -0.2119
 5631SOL    HW228356   3.357   0.267   2.785 -0.1933  0.3557  0.8731
 5632SOL     OW28357   3.343   2.037   6.054 -0.4163  0.4750 -0.1171
 5632SOL    HW128358   3.371   1.997   6.136  2.9046  0.0907 -1.4263
 5632SOL    HW228359   3.409   2.106   6.043 -0.9386  1.3094  2.0434
 5633SOL     OW28360   4.696   1.758   2.110  0.4956 -0.1587 -0.8244
 5633SOL    HW128361   4.676   1.754   2.203  3.0193 -0.7321 -0.3069
 5633SOL    HW228362   4.633   1.816   2.067  1.1974  0.4516 -1.0336
 5634SOL     OW28363   1.479   4.340   3.162  0.3328  0.4148  0.0566
 5634SOL    HW128364   1.463   4.393   3.240  0.0181  1.1078 -0.4794
 5634SOL    HW228365   1.426   4.262   3.182  1.5554 -0.4657 -0.1716
 5635SOL     OW28366   2.267   1.819  10.039  0.1975 -0.1691  0.6742
 5635SOL    HW128367   2.358   1.841  10.056  0.2918 -1.6225  1.9939
 5635SOL    HW228368   2.242   1.763  10.112 -1.5382  0.3587  0.5082
 5636SOL     OW28369   3.093   3.487   6.193 -0.1866  0.1760  0.1630
 5636SOL    HW128370   3.009   3.496   6.238  0.8710  2.3989  1.7072
 5636SOL    HW228371   3.127   3.576   6.177  1.3613 -0.2456  1.0770
 5637SOL     OW28372   4.618   3.675   1.838  0.3534  0.6757  0.3106
 5637SOL    HW128373   4.595   3.764   1.863 -0.0001  0.6813 -0.0379
 5637SOL    HW228374   4.572   3.621   1.902 -0.0432  0.4199 -0.1964
 5638SOL     OW28375   4.621   2.340   8.326 -0.7313  0.0164  0.4748
 5638SOL    HW128376   4.635   2.431   8.353 -0.8680  0.4021 -0.7875
 5638SOL    HW228377   4.576   2.307   8.404 -0.4255  1.3226  1.2047
 5639SOL     OW28378   0.041   3.079   9.397  0.3669  0.2212 -0.4242
 5639SOL    HW128379   4.721   3.159   9.421  0.1531  0.0872 -0.3818
 5639SOL    HW228380   0.133   3.100   9.407  0.4065  0.2766 -0.9013
 5640SOL     OW28381   2.337   4.088   9.769 -0.3309 -0.1182 -0.0880
 5640SOL    HW128382   2.421   4.059   9.733 -0.2005 -1.8182  1.6177
 5640SOL    HW228383   2.320   4.019   9.833  4.1351 -0.6844  0.4971
 5641SOL     OW28384   0.178   2.910   0.468 -0.0208 -0.4883 -0.0175
 5641SOL    HW128385   0.088   2.888   0.493  0.0804 -2.2740 -1.2096
 5641SOL    HW228386   0.231   2.866   0.534 -0.1429 -0.6434 -0.0236
 5642SOL     OW28387   2.536   3.149   7.726  0.5073  0.2710  0.3533
 5642SOL    HW128388   2.567   3.116   7.641  0.8058 -1.1049  0.9951
 5642SOL    HW228389   2.447   3.176   7.703 -0.2486 -0.2284  2.7636
 5643SOL     OW28390   4.174   2.222   2.970  0.3377 -0.1405  0.3767
 5643SOL    HW128391   4.142   2.133   2.985 -0.4354  0.0919  0.1157
 5643SOL    HW228392   4.266   2.206   2.991 -0.3260 -0.6121  3.0535
 5644SOL     OW28393   2.453   2.104   2.534  0.3475 -0.2932  0.2145
 5644SOL    HW128394   2.379   2.164   2.537  0.3646 -0.2560 -0.0648
 5644SOL    HW228395   2.405   2.023   2.520 -0.9029  0.4114  0.4222
 5645SOL     OW28396   3.440   3.728  17.423 -0.1744 -0.2473 -0.2250
 5645SOL    HW128397   3.450   3.720  17.518 -0.0993  0.9936 -0.1247
 5645SOL    HW228398   3.355   3.686  17.408 -0.7165 -0.4772  3.4674
 5646SOL     OW28399   3.361   0.256   3.382  0.3437  0.2554  0.3557
 5646SOL    HW128400   3.371   0.195   3.455 -0.7332  1.3787  1.4450
 5646SOL    HW228401   3.268   0.242   3.364  0.2787  0.9116  0.1910
 5647SOL     OW28402   3.112   2.511   7.115 -0.3022 -0.0829 -0.0608
 5647SOL    HW128403   3.207   2.510   7.104 -0.0914 -1.7689  1.8943
 5647SOL    HW228404   3.103   2.428   7.161 -1.9717  0.2110  0.1284
 5648SOL     OW28405   0.600   0.027   3.853  0.1438  0.2098  0.6935
 5648SOL    HW128406   0.533   0.094   3.836 -0.8773 -1.0811 -0.3437
 5648SOL    HW228407   0.658   0.033   3.777  3.0771 -0.1195  2.9063
 5649SOL     OW28408   4.252   1.211  13.789  0.2082 -0.2058 -0.2079
 5649SOL    HW128409   4.282   1.296  13.757  1.4462 -0.9807 -1.1670
 5649SOL    HW228410   4.310   1.195  13.863  0.0117 -0.5352 -0.1259
 5650SOL     OW28411   0.197   3.924   6.009 -0.0348 -0.1679  0.2211
 5650SOL    HW128412   0.168   3.987   5.943 -1.0710 -0.0356  0.7890
 5650SOL    HW228413   0.113   3.879   6.017 -0.8803  1.5324  1.0224
 5651SOL     OW28414   2.127   3.546   8.194  0.0086  0.1805 -0.0914
 5651SOL    HW128415   2.099   3.499   8.115  0.5181  3.4860 -2.2601
 5651SOL    HW228416   2.159   3.470   8.243 -0.7373 -0.0087  0.0907
 5652SOL     OW28417   0.693   1.206   6.225  0.0136  0.5152 -0.0762
 5652SOL    HW128418   0.749   1.248   6.159  0.6840 -1.0963 -0.5308
 5652SOL    HW228419   0.760   1.187   6.290  1.3111  0.6574 -1.3608
 5653SOL     OW28420   2.578   2.585  12.734 -0.0650  0.2705 -0.2344
 5653SOL    HW128421   2.665   2.579  12.695 -0.3998  0.2614 -0.9666
 5653SOL    HW228422   2.596   2.667  12.782  0.6891 -0.2123  0.3039
 5654SOL     OW28423   3.669   2.015   8.682  0.5461 -0.7794 -0.0390
 5654SOL    HW128424   3.667   1.965   8.600 -2.2775  0.8705 -0.9950
 5654SOL    HW228425   3.747   2.068   8.672  1.2065 -1.9806 -1.2021
 5655SOL     OW28426   3.093   2.589   1.275 -0.0255 -0.2977  0.5158
 5655SOL    HW128427   3.158   2.609   1.207 -1.8475 -0.3648 -1.2596
 5655SOL    HW228428   3.023   2.568   1.213  1.7068 -1.1033 -1.1948
 5656SOL     OW28429   1.926   1.391  11.836 -0.4353 -0.7332 -0.5389
 5656SOL    HW128430   1.949   1.415  11.746  0.8154 -1.6497 -0.4546
 5656SOL    HW228431   1.837   1.428  11.841  0.1599  0.4771  0.9069
 5657SOL     OW28432   0.893   1.693  13.851 -0.3133  0.2004  0.1390
 5657SOL    HW128433   0.980   1.715  13.884 -0.3341  1.1876 -0.4789
 5657SOL    HW228434   0.843   1.692  13.932  0.9029 -1.6467  0.8749
 5658SOL     OW28435   1.365   3.489   3.412 -0.0248 -0.1922  0.5248
 5658SOL    HW128436   1.374   3.552   3.340 -0.9649 -1.1094 -0.4049
 5658SOL    HW228437   1.392   3.410   3.364  0.9906  0.4914 -0.0366
 5659SOL     OW28438   0.396   4.464  10.651  0.1728  0.0582  0.0663
 5659SOL    HW128439   0.385   4.407  10.727 -3.2767  1.0848  0.3267
 5659SOL    HW228440   0.491   4.472  10.661  0.0821  1.3079 -0.1025
 5660SOL     OW28441   3.879   1.346   8.035  0.5094  0.2484 -0.1764
 5660SOL    HW128442   3.923   1.267   8.066  1.5451  0.4556 -1.1258
 5660SOL    HW228443   3.788   1.335   8.065 -0.2829  2.9970 -1.6499
 5661SOL     OW28444   4.094   0.749   4.160 -0.4600 -0.1874 -0.2008
 5661SOL    HW128445   4.007   0.716   4.135  0.0804 -0.4978 -1.6853
 5661SOL    HW228446   4.067   0.838   4.183  0.9041  0.2768 -0.4132
 5662SOL     OW28447   3.507   1.770   7.049 -0.1044 -0.0752  0.2940
 5662SOL    HW128448   3.582   1.719   7.017 -0.6216 -0.5620 -0.1438
 5662SOL    HW228449   3.551   1.824   7.115  1.3959 -0.9796  0.0476
 5663SOL     OW28450   3.625   1.728  12.791 -0.2577 -0.3215 -0.1357
 5663SOL    HW128451   3.555   1.767  12.737 -1.6168 -1.1419  1.0273
 5663SOL    HW228452   3.695   1.794  12.793 -1.1726  0.6484  0.0539
 5664SOL     OW28453   4.081   3.225  10.260  0.1450 -0.5635 -0.5269
 5664SOL    HW128454   4.051   3.293  10.201  1.7401  1.8173  1.3809
 5664SOL    HW228455   4.161   3.201  10.214  1.7368  2.5204  0.6448
 5665SOL     OW28456   1.360   1.369   1.169  0.3102  0.0554  0.4322
 5665SOL    HW128457   1.396   1.439   1.224 -0.3408  2.1241 -1.8129
 5665SOL    HW228458   1.349   1.422   1.091  0.1545 -0.6435 -0.0262
 5666SOL     OW28459   2.340   3.713   3.494 -0.7048  0.2155  0.5667
 5666SOL    HW128460   2.422   3.752   3.462 -1.5865  3.0914  1.8423
 5666SOL    HW228461   2.291   3.795   3.496 -1.3305 -0.0657 -2.8062
 5667SOL     OW28462   2.789   2.839  15.829  0.7516 -0.1219 -0.4536
 5667SOL    HW128463   2.833   2.910  15.875 -1.0747 -0.4067  1.7356
 5667SOL    HW228464   2.854   2.806  15.767  0.5992 -0.2139 -0.5650
 5668SOL     OW28465   1.633   0.127   1.291  0.6216  0.2977 -0.2696
 5668SOL    HW128466   1.575   0.192   1.330 -0.3549  0.2364 -1.5964
 5668SOL    HW228467   1.578   0.080   1.228  1.2674 -0.2386 -0.4382
 5669SOL     OW28468   1.360   3.210  16.571  0.3755 -0.1173  0.5766
 5669SOL    HW128469   1.426   3.268  16.535  0.0988 -0.5981 -0.7083
 5669SOL    HW228470   1.411   3.132  16.590 -0.9509 -0.7745  1.4962
 5670SOL     OW28471   2.071   4.099   3.817 -0.2475 -0.0548 -0.0801
 5670SOL    HW128472   2.024   4.042   3.877  0.0440 -0.7768 -0.5380
 5670SOL    HW228473   2.081   4.172   3.877  1.5838 -1.7597  1.6898
 5671SOL     OW28474   4.471   1.455   1.495 -0.5692 -0.1554  0.1347
 5671SOL    HW128475   4.537   1.386   1.488  0.4079  0.9559 -1.4245
 5671SOL    HW228476   4.514   1.531   1.455 -1.1536  0.0373 -0.1298
 5672SOL     OW28477   2.756   1.881   3.928 -0.3430 -0.1435  0.4315
 5672SOL    HW128478   2.750   1.836   3.844  0.8159 -1.2808  0.9536
 5672SOL    HW228479   2.675   1.932   3.929 -0.1967  0.0610  1.6929
 5673SOL     OW28480   4.298   4.385  11.139  0.2175 -0.0268 -0.3705
 5673SOL    HW128481   4.375   4.399  11.194 -0.7334  2.8364  0.1987
 5673SOL    HW228482   4.333   4.319  11.079  1.8352  0.8322 -0.3611
 5674SOL     OW28483   3.289   0.764  11.780 -0.2206 -0.1856  0.0816
 5674SOL    HW128484   3.300   0.837  11.841 -0.9536 -0.6992  0.8454
 5674SOL    HW228485   3.241   0.800  11.705 -1.2900 -2.0448 -0.1257
 5675SOL     OW28486   2.901   0.914   2.229  0.9163  0.6494  0.4804
 5675SOL    HW128487   2.920   1.005   2.203 -0.6255  2.0522  4.1938
 5675SOL    HW228488   2.888   0.885   2.139  0.2408 -1.8027  1.3916
 5676SOL     OW28489   0.738   1.601   2.189 -0.0022 -0.0620 -0.1249
 5676SOL    HW128490   0.808   1.626   2.250 -0.9974 -2.0154  1.7998
 5676SOL    HW228491   0.698   1.686   2.168 -2.7493 -1.6800 -1.3550
 5677SOL     OW28492   0.887   3.374   5.249 -0.2504  0.0539  0.1895
 5677SOL    HW128493   0.800   3.333   5.256 -0.1652  0.4438  3.3524
 5677SOL    HW228494   0.875   3.416   5.164 -1.9434 -1.5665 -0.3906
 5678SOL     OW28495   3.189   3.547   6.878  0.7011  0.3521  0.3065
 5678SOL    HW128496   3.266   3.497   6.854 -0.4977 -1.7416  0.8573
 5678SOL    HW228497   3.153   3.474   6.929 -1.1681 -0.2969 -1.9210
 5679SOL     OW28498   3.263   3.466   3.312 -0.0936 -0.4488  0.7040
 5679SOL    HW128499   3.313   3.538   3.274 -2.8926  0.1102 -1.9228
 5679SOL    HW228500   3.290   3.465   3.404  0.6612 -0.6204  0.4800
 5680SOL     OW28501   0.682   1.214   8.453 -0.3182 -0.0135 -0.0447
 5680SOL    HW128502   0.768   1.254   8.456 -0.7466  0.9467 -0.5618
 5680SOL    HW228503   0.697   1.127   8.491  2.8747  0.3336 -0.5358
 5681SOL     OW28504   2.303   0.847   6.580 -0.6329  0.1714  0.3648
 5681SOL    HW128505   2.259   0.763   6.566 -0.1173  0.1119 -0.8493
 5681SOL    HW228506   2.315   0.876   6.490  0.1172  0.6070  0.6061
 5682SOL     OW28507   4.027   3.145  17.224  0.2712  0.3077  0.8581
 5682SOL    HW128508   4.117   3.176  17.210  0.4411 -0.4570  0.3085
 5682SOL    HW228509   4.051   3.057  17.253  1.0982 -0.0118 -0.8127
 5683SOL     OW28510   4.026   1.734   5.640 -0.1481  0.3937 -0.2472
 5683SOL    HW128511   4.101   1.724   5.699 -0.1821  1.0579 -0.0875
 5683SOL    HW228512   3.964   1.669   5.671 -0.6040  1.8370  1.9054
 5684SOL     OW28513   2.499   2.637  16.044 -0.0107 -0.3699 -0.5798
 5684SOL    HW128514   2.501   2.547  16.011 -0.6655  0.0458 -1.7533
 5684SOL    HW228515   2.417   2.666  16.003  0.0096  0.3428 -0.1089
 5685SOL     OW28516   1.620   3.263   0.854  0.1195 -0.0928 -0.1803
 5685SOL    HW128517   1.662   3.349   0.856 -2.7642  1.2304  2.2182
 5685SOL    HW228518   1.670   3.225   0.781  0.6880 -1.4815  0.9273
 5686SOL     OW28519   1.551   4.627   7.449  0.2608  0.1569  0.5964
 5686SOL    HW128520   1.620   4.562   7.433  1.4351  2.0685 -2.0100
 5686SOL    HW228521   1.482   4.569   7.481 -1.8360  1.9022 -0.7859
 5687SOL     OW28522   1.792   3.085   7.833  0.9039  0.3693 -0.3590
 5687SOL    HW128523   1.799   3.158   7.773 -1.9990  2.8065  2.2267
 5687SOL    HW228524   1.876   3.041   7.821  2.7997  3.0559  3.0353
 5688SOL     OW28525   3.542   2.911   1.949 -0.1630  0.7535  0.7014
 5688SOL    HW128526   3.616   2.852   1.933 -1.0918 -0.8835  2.4539
 5688SOL    HW228527   3.578   2.966   2.018  0.0020  1.4799  0.0362
 5689SOL     OW28528   2.653   3.254   3.248  0.1122 -0.0753 -0.4371
 5689SOL    HW128529   2.582   3.276   3.307 -1.8164  1.4685 -3.3158
 5689SOL    HW228530   2.603   3.239   3.167 -1.3165  1.6206  0.1279
 5690SOL     OW28531   4.599   4.264   1.205 -0.1113 -0.5631  0.5130
 5690SOL    HW128532   4.563   4.230   1.287  1.1515 -0.7080  1.0045
 5690SOL    HW228533   4.639   4.182   1.174 -0.9947 -0.9345  0.3296
 5691SOL     OW28534   0.172   2.490   2.405 -1.6158  0.5915 -0.1723
 5691SOL    HW128535   0.235   2.472   2.335 -0.2768 -1.1668  1.4708
 5691SOL    HW228536   0.203   2.437   2.479  0.4164  1.1517 -0.6305
 5692SOL     OW28537   2.270   1.357   8.514  0.3049 -0.2817  0.1771
 5692SOL    HW128538   2.317   1.391   8.439 -0.7900  1.0233  0.0731
 5692SOL    HW228539   2.239   1.271   8.485 -1.0914  0.9822 -2.0324
 5693SOL     OW28540   3.795   3.211  14.813 -0.1078  0.0045  0.1770
 5693SOL    HW128541   3.872   3.213  14.757 -0.7657 -0.5398 -0.7431
 5693SOL    HW228542   3.834   3.190  14.898  0.2436  1.2320  0.3115
 5694SOL     OW28543   1.214   4.116   2.439 -0.5559  0.1936  0.8344
 5694SOL    HW128544   1.286   4.065   2.477 -0.2016  0.0456 -0.0302
 5694SOL    HW228545   1.169   4.160   2.512 -1.0166 -0.0967  0.7278
 5695SOL     OW28546   0.831   3.792   7.436  0.0677  0.4544 -0.0223
 5695SOL    HW128547   0.918   3.822   7.410  0.5946 -0.1251  1.0763
 5695SOL    HW228548   0.782   3.872   7.453  1.1291  1.0109  0.3911
 5696SOL     OW28549   3.026   1.420   5.860 -0.2499  0.3888  0.0770
 5696SOL    HW128550   2.940   1.384   5.839 -1.1296  2.4344  0.1210
 5696SOL    HW228551   3.004   1.513   5.854 -1.4175  0.1641  0.7096
 5697SOL     OW28552   1.341   4.565   5.051 -1.0228 -0.3894  0.3212
 5697SOL    HW128553   1.342   4.474   5.079  0.9489 -0.2397  0.7570
 5697SOL    HW228554   1.406   4.565   4.980  1.5988  1.8307  2.7363
 5698SOL     OW28555   1.741   1.094   8.525 -0.2724  0.3494 -0.0187
 5698SOL    HW128556   1.721   1.111   8.433  1.9872 -2.2082 -0.9743
 5698SOL    HW228557   1.799   1.167   8.548 -1.5458  1.0331  1.0304
 5699SOL     OW28558   2.723   0.317   4.696 -0.3686  0.0551 -0.5942
 5699SOL    HW128559   2.635   0.293   4.726  1.3370 -2.4301  2.4135
 5699SOL    HW228560   2.764   0.358   4.772 -0.9247  0.9560 -0.7834
 5700SOL     OW28561   1.518   0.185   7.525 -0.1947 -0.2498 -0.6713
 5700SOL    HW128562   1.532   0.106   7.473  0.3434 -0.4179 -0.2663
 5700SOL    HW228563   1.522   0.150   7.614  0.5364  0.8038 -0.2851
 5701SOL     OW28564   0.075   0.793   4.436 -0.3889  0.8825  0.0462
 5701SOL    HW128565   0.004   0.777   4.500 -1.0392  1.4152 -0.5379
 5701SOL    HW228566   0.043   0.752   4.356  0.2957  0.3400  0.0536
 5702SOL     OW28567   4.218   1.767  15.761 -1.0553  0.1567 -0.4044
 5702SOL    HW128568   4.128   1.801  15.760 -0.9246  0.5050 -0.8963
 5702SOL    HW228569   4.238   1.730  15.847  1.9756  0.8544 -0.8013
 5703SOL     OW28570   1.127   0.114  15.384 -0.3758  0.5503  0.1033
 5703SOL    HW128571   1.070   0.046  15.349 -2.1397  2.8977 -1.5651
 5703SOL    HW228572   1.056   0.164  15.424 -0.3581 -0.0531  0.8805
 5704SOL     OW28573   4.002   4.278  11.204 -0.2885 -0.1750 -0.0246
 5704SOL    HW128574   4.073   4.215  11.216  1.4092  2.1123  2.0660
 5704SOL    HW228575   4.005   4.333  11.282 -0.0303 -2.8526  1.8227
 5705SOL     OW28576   4.061   3.033   2.832 -0.2734  0.4991  0.3846
 5705SOL    HW128577   4.027   2.967   2.894  0.1127  1.9151  2.0818
 5705SOL    HW228578   4.094   2.984   2.757 -2.8418 -3.5573  1.8704
 5706SOL     OW28579   2.298   2.263   9.305  0.6478  0.4062 -0.3518
 5706SOL    HW128580   2.232   2.202   9.274  0.0809  0.0735  1.5144
 5706SOL    HW228581   2.259   2.350   9.293  2.7718  1.0376 -2.8584
 5707SOL     OW28582   1.480   1.371   9.865 -0.0973 -0.2524 -0.2303
 5707SOL    HW128583   1.416   1.390   9.934 -0.4679 -0.6191 -0.4691
 5707SOL    HW228584   1.483   1.278   9.888  1.4259  0.0571  0.7696
 5708SOL     OW28585   1.187   2.107   8.814  0.3853 -0.1177 -0.1756
 5708SOL    HW128586   1.167   2.103   8.907 -1.7342 -1.2224 -0.6774
 5708SOL    HW228587   1.166   2.194   8.779 -1.0678 -0.6280 -0.5504
 5709SOL     OW28588   2.284   2.391  16.769  0.3463 -0.6945  0.1687
 5709SOL    HW128589   2.308   2.453  16.838 -1.3532  2.4011 -2.0599
 5709SOL    HW228590   2.290   2.449  16.693  1.2031 -2.8333 -1.4069
 5710SOL     OW28591   4.481   2.974   7.334  0.3454  0.0588 -0.1936
 5710SOL    HW128592   4.554   2.980   7.273 -0.0867  1.2659 -0.5944
 5710SOL    HW228593   4.517   2.899   7.381  1.7365  1.8177  1.5376
 5711SOL     OW28594   2.342   3.921   1.547 -0.0769 -0.1999 -0.0970
 5711SOL    HW128595   2.419   3.895   1.497  0.3636  2.7813 -0.9827
 5711SOL    HW228596   2.309   3.991   1.490 -2.7610  0.8991  2.7544
 5712SOL     OW28597   3.485   4.353   7.619  0.7221 -0.0405  0.1084
 5712SOL    HW128598   3.476   4.283   7.684  1.9125 -1.0814 -0.8477
 5712SOL    HW228599   3.427   4.420   7.656  1.3426 -0.7829  2.4224
 5713SOL     OW28600   2.634   0.375   0.986  0.3421  0.2884  0.0493
 5713SOL    HW128601   2.543   0.355   1.011  0.4522  3.3596  2.9872
 5713SOL    HW228602   2.669   0.409   1.068  2.5460 -0.7951 -0.4549
 5714SOL     OW28603   4.395   4.450   2.643  0.3047 -0.4742  0.0299
 5714SOL    HW128604   4.318   4.411   2.685  0.1248 -0.1450 -0.0018
 5714SOL    HW228605   4.452   4.470   2.717 -0.7640  0.7514  0.5149
 5715SOL     OW28606   0.328   2.577   6.535 -0.0872 -0.3144 -0.1095
 5715SOL    HW128607   0.332   2.656   6.480 -2.2570 -0.2623 -0.1739
 5715SOL    HW228608   0.387   2.517   6.489  0.4586  0.8954 -0.9777
 5716SOL     OW28609   0.269   3.431   4.668  0.2204  0.1143 -0.5532
 5716SOL    HW128610   0.224   3.392   4.743  1.4900 -0.7296 -0.2248
 5716SOL    HW228611   0.240   3.376   4.596  1.4585 -1.9450  0.5189
 5717SOL     OW28612   4.597   1.450   2.891  0.8207 -0.3503  0.2251
 5717SOL    HW128613   4.601   1.539   2.856  0.9905  0.0198  1.1905
 5717SOL    HW228614   4.689   1.428   2.901  1.2268  1.0506 -0.3443
 5718SOL     OW28615   0.653   4.512  10.716  0.1277  0.0548 -0.4571
 5718SOL    HW128616   0.742   4.484  10.695 -0.3716 -1.1694 -0.9078
 5718SOL    HW228617   0.658   4.594  10.765  3.0358 -0.8379  0.7476
 5719SOL     OW28618   2.179   0.228  12.509  0.3217  0.0034 -0.2708
 5719SOL    HW128619   2.236   0.158  12.479  1.6915  0.6320  0.8747
 5719SOL    HW228620   2.182   0.215  12.604  0.4264 -0.9212 -0.3989
 5720SOL     OW28621   2.378   0.882   3.573  0.2579 -0.1551 -0.0757
 5720SOL    HW128622   2.382   0.929   3.490  0.0281  0.0183  0.0107
 5720SOL    HW228623   2.466   0.903   3.606  0.3018  0.0313 -0.3083
 5721SOL     OW28624   3.401   0.508   4.032  0.1434  0.2196 -0.2791
 5721SOL    HW128625   3.349   0.562   4.091  0.5282  0.8371 -0.5087
 5721SOL    HW228626   3.483   0.558   4.022 -0.6685  1.3929 -1.0002
 5722SOL     OW28627   4.081   1.662   8.484 -0.5664 -0.0194 -0.1191
 5722SOL    HW128628   4.118   1.728   8.543 -1.4549  1.9462 -1.7449
 5722SOL    HW228629   4.153   1.601   8.465 -0.5029 -0.1410  0.4837
 5723SOL     OW28630   3.290   1.884   3.123  0.6399  0.1080  0.1364
 5723SOL    HW128631   3.316   1.974   3.143 -1.3601  0.6443  0.3045
 5723SOL    HW228632   3.282   1.882   3.028 -0.6282 -0.8083  0.2729
 5724SOL     OW28633   1.105   3.718   7.280  0.0341  0.5523  0.5693
 5724SOL    HW128634   1.016   3.741   7.254 -0.7415 -1.7921  1.0618
 5724SOL    HW228635   1.153   3.800   7.275 -2.7155  2.1389  0.0665
 5725SOL     OW28636   3.570   0.915   7.004 -0.3434 -0.2888 -0.5270
 5725SOL    HW128637   3.605   0.980   6.944  1.9087 -0.2497  0.8502
 5725SOL    HW228638   3.653   0.876   7.031 -0.1463  1.4152  1.3152
 5726SOL     OW28639   2.719   1.852   3.342 -0.1487  0.1134 -0.7050
 5726SOL    HW128640   2.786   1.893   3.396  0.2624  0.8660 -1.7881
 5726SOL    HW228641   2.740   1.897   3.260  0.9001  0.3861 -0.2865
 5727SOL     OW28642   0.631   1.856   2.034  0.2459 -0.4829 -0.2625
 5727SOL    HW128643   0.683   1.935   2.047  1.1043 -1.0849 -0.0157
 5727SOL    HW228644   0.668   1.827   1.951  1.4055  0.8365 -0.2034
 5728SOL     OW28645   1.334   0.000   0.314  0.3439  0.7517  0.5154
 5728SOL    HW128646   1.261   4.676   0.351 -0.8048 -0.1083 -2.9093
 5728SOL    HW228647   1.278   0.069   0.278  0.1139 -1.5135 -3.4539
 5729SOL     OW28648   0.525   2.864  16.650 -0.3588  0.0392 -0.8727
 5729SOL    HW128649   0.572   2.916  16.716  1.0836 -3.6905  1.0380
 5729SOL    HW228650   0.446   2.912  16.625 -1.5290 -1.7004 -0.5066
 5730SOL     OW28651   3.373   0.142   3.654 -0.1284 -0.0678 -0.2549
 5730SOL    HW128652   3.345   0.106   3.738 -4.2166 -0.3665 -1.7503
 5730SOL    HW228653   3.404   0.229   3.681  1.0732 -1.0994  1.7068
 5731SOL     OW28654   0.692   0.411  17.103  0.0074 -0.3299  0.2150
 5731SOL    HW128655   0.691   0.365  17.019 -0.7491 -0.9208  0.5602
 5731SOL    HW228656   0.768   0.467  17.087  1.1321 -2.2085 -1.0166
 5732SOL     OW28657   2.424   1.418   9.608  0.7140  0.1486 -0.0680
 5732SOL    HW128658   2.502   1.379   9.648  1.3297  0.0614 -1.3581
 5732SOL    HW228659   2.397   1.349   9.548 -0.1358 -0.1842  0.7020
 5733SOL     OW28660   4.209   1.869  10.942  0.3963  0.0649 -0.0552
 5733SOL    HW128661   4.220   1.813  11.019 -0.2047  0.9141  0.6447
 5733SOL    HW228662   4.280   1.930  10.958  1.2668 -0.9412 -0.0696
 5734SOL     OW28663   0.556   1.452  10.365  0.2978 -0.0772 -0.7053
 5734SOL    HW128664   0.488   1.519  10.351  1.1882  1.0190  0.1785
 5734SOL    HW228665   0.507   1.402  10.430  1.2140  0.0227  0.0590
 5735SOL     OW28666   3.932   0.574   2.131 -0.0487 -0.1141  0.4792
 5735SOL    HW128667   3.843   0.540   2.126  0.6541 -2.0176  0.9627
 5735SOL    HW228668   3.922   0.642   2.065 -1.7990  1.1876  2.0810
 5736SOL     OW28669   4.335   2.716   0.174 -0.2674  0.1505  0.0674
 5736SOL    HW128670   4.396   2.776   0.129 -1.7064  1.7925  0.3020
 5736SOL    HW228671   4.391   2.659   0.226 -1.2454  1.0308  2.0913
 5737SOL     OW28672   2.353   4.498   9.671  0.1164 -0.1576 -0.3184
 5737SOL    HW128673   2.407   4.429   9.634 -1.4552 -3.1233  2.9531
 5737SOL    HW228674   2.428   4.546   9.709 -0.8992 -0.9304  2.6781
 5738SOL     OW28675   2.495   2.100  12.268  0.0726 -0.0125  0.5268
 5738SOL    HW128676   2.576   2.111  12.217 -0.1158 -2.3957 -0.2978
 5738SOL    HW228677   2.508   2.165  12.336 -3.3998  2.1920 -0.9021
 5739SOL     OW28678   3.119   0.442   7.928 -0.1395  0.5306 -0.2825
 5739SOL    HW128679   3.154   0.494   8.001  2.3928 -0.1976 -0.9966
 5739SOL    HW228680   3.165   0.468   7.849  1.1310 -1.0099 -0.0359
 5740SOL     OW28681   4.118   2.568   0.168  0.1481  0.3827 -0.1825
 5740SOL    HW128682   4.198   2.621   0.174  0.5764 -0.1133 -1.5101
 5740SOL    HW228683   4.141   2.506   0.098 -1.4582 -0.8036  0.3475
 5741SOL     OW28684   0.817   1.037  10.842  0.1954  0.7946  0.1213
 5741SOL    HW128685   0.859   0.964  10.888 -2.0782 -0.4242  0.3120
 5741SOL    HW228686   0.865   1.044  10.760 -1.4392 -1.6415 -1.0377
 5742SOL     OW28687   2.253   3.474   6.630 -0.1238  0.5410 -0.0655
 5742SOL    HW128688   2.280   3.385   6.606 -0.1460 -0.3113  3.1253
 5742SOL    HW228689   2.194   3.450   6.701 -0.2078 -1.9458 -0.9720
 5743SOL     OW28690   3.831   1.938   3.999 -0.2370  0.3686 -0.4956
 5743SOL    HW128691   3.755   1.880   4.005  0.2308 -0.0050  1.5876
 5743SOL    HW228692   3.805   1.993   4.072  0.2190 -3.1246  2.2801
 5744SOL     OW28693   0.678   2.188   1.496 -0.3328  0.2353 -0.0613
 5744SOL    HW128694   0.629   2.106   1.490  0.0129 -0.0191  0.6125
 5744SOL    HW228695   0.638   2.232   1.571 -3.0007 -2.1056 -0.0960
 5745SOL     OW28696   4.570   3.943   1.862  0.0779 -0.3911  0.5417
 5745SOL    HW128697   4.640   3.983   1.913  0.9001 -1.4881  0.2771
 5745SOL    HW228698   4.494   3.992   1.895 -2.2010 -1.9476 -2.2982
 5746SOL     OW28699   4.357   1.164   7.355  0.3938  0.0875  0.3238
 5746SOL    HW128700   4.303   1.128   7.425  1.1732 -0.3270  0.7061
 5746SOL    HW228701   4.300   1.219   7.301  0.3393  1.2676  1.5908
 5747SOL     OW28702   0.224   3.200   8.924 -0.3701 -0.3605 -0.0867
 5747SOL    HW128703   0.174   3.157   8.854 -0.1290 -1.0520  0.1725
 5747SOL    HW228704   0.214   3.140   8.997  0.1779  0.7844  0.9250
 5748SOL     OW28705   3.056   2.308   0.493 -0.1579 -0.5493 -0.5382
 5748SOL    HW128706   3.015   2.252   0.559  0.4941  0.0880  0.4083
 5748SOL    HW228707   3.129   2.344   0.544  0.1155  2.1125 -2.8283
 5749SOL     OW28708   4.629   3.637   6.753  0.6634  0.3296 -0.4036
 5749SOL    HW128709   4.692   3.598   6.813  2.7154  1.6925 -1.6364
 5749SOL    HW228710   4.555   3.628   6.812  1.2738  1.9761  0.6201
 5750SOL     OW28711   4.343   1.948   0.402  0.1574 -0.2175 -0.0162
 5750SOL    HW128712   4.280   1.923   0.334  2.2021  1.6594 -2.5943
 5750SOL    HW228713   4.415   1.888   0.382 -0.5779 -1.1716  0.2071
 5751SOL     OW28714   3.197   0.068   2.099  0.1248  0.6306 -0.5686
 5751SOL    HW128715   3.237   0.069   2.012 -0.5682 -1.7368 -0.9081
 5751SOL    HW228716   3.222   4.706   2.126  1.6930  1.4050  0.5189
 5752SOL     OW28717   4.062   2.647  17.478 -0.9919  0.1892  0.4236
 5752SOL    HW128718   4.090   2.584  17.411 -2.0633 -0.3242  0.4669
 5752SOL    HW228719   4.074   2.590  17.554  1.1505  1.2430  0.8741
 5753SOL     OW28720   1.439   1.061   2.142  0.2868  0.0767  0.3087
 5753SOL    HW128721   1.432   0.970   2.168  0.3817 -0.2726 -0.8656
 5753SOL    HW228722   1.471   1.099   2.224 -0.4087 -0.9727  1.0508
 5754SOL     OW28723   3.098   4.236   2.800  0.0579  0.2527 -0.1762
 5754SOL    HW128724   3.123   4.186   2.878  1.8652 -0.0941 -0.9796
 5754SOL    HW228725   3.151   4.201   2.729 -3.5382 -0.0680 -2.6669
 5755SOL     OW28726   2.403   2.179   5.920 -0.2309  0.2453  0.4044
 5755SOL    HW128727   2.324   2.233   5.917  0.2112  0.8190 -1.0756
 5755SOL    HW228728   2.460   2.212   5.850  1.7299 -0.8512  1.4858
 5756SOL     OW28729   3.423   1.335  10.044 -0.4438 -0.8834 -0.2488
 5756SOL    HW128730   3.400   1.264   9.984  0.2018  0.6245 -2.2651
 5756SOL    HW228731   3.505   1.301  10.080 -0.5729  0.2186  1.0669
 5757SOL     OW28732   2.413   2.321   5.069  0.4978  0.0439 -0.1311
 5757SOL    HW128733   2.508   2.320   5.073  0.5901 -1.8018 -2.8501
 5757SOL    HW228734   2.387   2.357   5.155  0.2043  2.1264 -1.0900
 5758SOL     OW28735   1.596   1.534  15.215  0.6180  0.3685 -0.2412
 5758SOL    HW128736   1.562   1.487  15.292  0.8487  0.4488 -0.0900
 5758SOL    HW228737   1.603   1.466  15.149  0.4144  0.3500 -0.2445
 5759SOL     OW28738   4.342   1.641  15.990  0.1216 -0.7301 -0.7220
 5759SOL    HW128739   4.295   1.594  16.059  2.4389 -1.6267  0.2215
 5759SOL    HW228740   4.370   1.564  15.940  0.8475 -1.2756  0.5401
 5760SOL     OW28741   2.726   0.015   2.359  0.1273  0.0548 -0.0219
 5760SOL    HW128742   2.680   4.679   2.303 -1.4876 -0.5695  1.9912
 5760SOL    HW228743   2.810   4.695   2.365 -0.8606 -1.8921 -1.3334
 5761SOL     OW28744   1.773   0.539   9.330  0.2554 -0.2380  0.0876
 5761SOL    HW128745   1.812   0.622   9.305 -0.9642  0.1712 -0.4933
 5761SOL    HW228746   1.844   0.484   9.297 -0.7622 -0.6570 -1.3859
 5762SOL     OW28747   3.676   0.523   8.954 -0.0313  0.4165 -0.0693
 5762SOL    HW128748   3.657   0.598   9.009 -0.5799 -0.7011  1.2545
 5762SOL    HW228749   3.591   0.488   8.928  0.4320 -1.1171  0.4419
 5763SOL     OW28750   1.292   0.049   6.317 -0.6360  0.0162 -0.1335
 5763SOL    HW128751   1.312   0.101   6.239  0.3792 -1.5608 -0.9560
 5763SOL    HW228752   1.219   0.101   6.349 -0.7026 -0.2515  0.1558
 5764SOL     OW28753   2.983   3.237   6.852 -0.4135  0.1692  0.0004
 5764SOL    HW128754   3.024   3.270   6.932 -2.9173 -0.4407  1.5180
 5764SOL    HW228755   2.969   3.317   6.800  2.2047  1.5810  1.4682
 5765SOL     OW28756   1.480   3.912   3.234 -0.1559 -0.1940 -0.1076
 5765SOL    HW128757   1.523   3.870   3.309 -1.3526  0.5206  0.9914
 5765SOL    HW228758   1.477   4.003   3.264 -0.4871 -0.2557  0.0531
 5766SOL     OW28759   3.938   2.373   5.460 -0.6760  0.1194 -0.0016
 5766SOL    HW128760   3.934   2.468   5.448 -0.4394  0.2839  1.1772
 5766SOL    HW228761   4.031   2.359   5.481 -0.5353  0.1010 -0.6282
 5767SOL     OW28762   2.143   0.617   1.308 -0.1174  0.6350  0.0033
 5767SOL    HW128763   2.064   0.575   1.342  0.7416  0.0551  1.2608
 5767SOL    HW228764   2.191   0.538   1.285  0.3998  0.6689  0.9693
 5768SOL     OW28765   2.153   0.731   8.601  0.1695 -0.2587  0.5223
 5768SOL    HW128766   2.094   0.656   8.609  0.3716 -0.4046  0.6345
 5768SOL    HW228767   2.134   0.782   8.680  0.6775 -0.2535  0.6430
 5769SOL     OW28768   3.104   4.027   8.903  0.0251 -0.4075 -0.1868
 5769SOL    HW128769   3.085   4.103   8.849  1.9605 -0.2515 -0.6460
 5769SOL    HW228770   3.114   4.072   8.987  1.7044 -1.6325  0.2769
 5770SOL     OW28771   0.173   2.780   5.527  0.4791 -0.1844  0.4012
 5770SOL    HW128772   0.169   2.860   5.475  1.0790  0.2799  1.0751
 5770SOL    HW228773   0.267   2.765   5.524  0.3668 -1.0574  1.0367
 5771SOL     OW28774   4.491   1.012   1.455 -0.4803  0.2626  0.1504
 5771SOL    HW128775   4.516   0.996   1.546  3.4172  0.2510 -0.8939
 5771SOL    HW228776   4.578   1.032   1.422 -0.3095 -2.0009 -0.7799
 5772SOL     OW28777   2.935   0.805  12.325 -0.0222  0.2655 -0.3247
 5772SOL    HW128778   2.989   0.730  12.351 -2.1542 -1.6802 -1.4664
 5772SOL    HW228779   2.848   0.765  12.331  0.3878 -0.3951  1.0701
 5773SOL     OW28780   3.521   4.175   4.254 -0.2028  0.0641 -0.2319
 5773SOL    HW128781   3.437   4.151   4.293  0.0354 -0.7860 -0.2430
 5773SOL    HW228782   3.551   4.245   4.312  3.2439 -0.6911 -1.0914
 5774SOL     OW28783   1.228   1.818   8.358 -0.8148 -0.1714  0.3251
 5774SOL    HW128784   1.310   1.861   8.383 -1.3516  0.9782  0.1021
 5774SOL    HW228785   1.219   1.759   8.433 -0.6658  0.3056  0.7167
 5775SOL     OW28786   4.354   1.571   3.353  0.1355 -0.1762 -0.5470
 5775SOL    HW128787   4.421   1.625   3.312 -0.1372  1.2355  0.8822
 5775SOL    HW228788   4.292   1.554   3.282 -1.4296  0.7809  0.6035
 5776SOL     OW28789   0.765   0.989   6.704  0.1937  0.6109 -0.7149
 5776SOL    HW128790   0.719   0.905   6.706 -0.2055  0.9171  2.2539
 5776SOL    HW228791   0.764   1.015   6.796 -2.9272  0.9324 -0.8618
 5777SOL     OW28792   0.438   3.272  12.237  0.0352  0.0806  0.1024
 5777SOL    HW128793   0.392   3.333  12.295  0.7189 -0.5722  1.3252
 5777SOL    HW228794   0.495   3.236  12.305  0.9508  2.0102  0.3536
 5778SOL     OW28795   3.105   4.129  16.877 -0.0032 -0.1399 -0.3743
 5778SOL    HW128796   3.011   4.123  16.890 -0.0599  2.6792  0.6764
 5778SOL    HW228797   3.115   4.195  16.809 -0.0228  0.4320  0.1727
 5779SOL     OW28798   4.506   1.634  12.066  0.9804  0.2906 -0.1131
 5779SOL    HW128799   4.446   1.699  12.028  3.5300  3.1123  0.6956
 5779SOL    HW228800   4.559   1.695  12.117  0.9676 -0.3613  0.6641
 5780SOL     OW28801   2.655   0.249   5.784 -0.1504  0.2562 -0.0732
 5780SOL    HW128802   2.708   0.223   5.860  3.5144  0.6521 -2.4977
 5780SOL    HW228803   2.572   0.206   5.801 -1.0293  1.6456 -0.8403
 5781SOL     OW28804   1.940   2.204   1.995  0.0717  0.4804  0.2620
 5781SOL    HW128805   1.909   2.285   1.953 -1.8149  0.2072  1.1170
 5781SOL    HW228806   1.874   2.175   2.058  1.9133 -1.6268  1.1713
 5782SOL     OW28807   1.580   1.705   6.218 -0.2166  0.2620  0.1024
 5782SOL    HW128808   1.637   1.766   6.171  1.4188 -1.3846 -0.0464
 5782SOL    HW228809   1.501   1.713   6.165  0.9620  1.6687 -1.4374
 5783SOL     OW28810   0.461   1.270   2.390  0.6198 -0.7539  0.1510
 5783SOL    HW128811   0.488   1.320   2.313 -0.0217  1.9350  1.6529
 5783SOL    HW228812   0.366   1.286   2.387  0.5707 -0.6620  2.1563
 5784SOL     OW28813   0.377   0.024  16.079 -0.2524  0.4048  0.8334
 5784SOL    HW128814   0.439   0.046  16.148  2.9784 -1.3512 -1.5102
 5784SOL    HW228815   0.378   0.105  16.028  0.1644  0.1935  0.5069
 5785SOL     OW28816   3.731   4.068  16.387  0.2145 -0.0388 -0.1100
 5785SOL    HW128817   3.775   4.136  16.336 -2.4579 -0.6094 -3.1622
 5785SOL    HW228818   3.711   4.008  16.315 -1.6181  1.9718 -1.2728
 5786SOL     OW28819   2.495   3.945   4.539  0.1452 -0.0671 -0.0001
 5786SOL    HW128820   2.531   3.939   4.451  1.0459 -1.0954  0.4445
 5786SOL    HW228821   2.511   3.863   4.585 -2.3070 -0.7530 -0.3609
 5787SOL     OW28822   0.673   3.155   1.680 -0.1027 -0.7091  0.9859
 5787SOL    HW128823   0.718   3.240   1.689  1.7275 -1.6971  1.1564
 5787SOL    HW228824   0.584   3.182   1.700  0.6721  2.1583  0.6098
 5788SOL     OW28825   4.233   4.331   4.426 -0.4502 -0.3104  0.0793
 5788SOL    HW128826   4.161   4.270   4.409 -1.0053  0.3003  0.2649
 5788SOL    HW228827   4.307   4.271   4.422  0.0998  0.4582 -1.1314
 5789SOL     OW28828   2.653   4.025  12.929 -0.5267  0.2275 -0.3736
 5789SOL    HW128829   2.640   4.039  12.835  2.5098 -1.0979 -0.9804
 5789SOL    HW228830   2.729   3.967  12.928  0.3934  1.4326  0.8108
 5790SOL     OW28831   1.215   0.451   5.452 -0.0347 -0.6149 -0.0665
 5790SOL    HW128832   1.263   0.370   5.471  0.7271  0.5062  2.7256
 5790SOL    HW228833   1.136   0.437   5.504 -0.1983  0.8568  0.0940
 5791SOL     OW28834   0.036   4.592  16.956 -0.2712  0.1866 -0.0153
 5791SOL    HW128835   0.106   4.647  16.919 -1.9338  1.8323 -0.6784
 5791SOL    HW228836   4.702   4.594  16.882  0.6804  0.9165 -0.7782
 5792SOL     OW28837   2.609   0.672  12.815 -0.3475  0.5599  0.7456
 5792SOL    HW128838   2.543   0.606  12.837  2.0683 -1.5897  1.4242
 5792SOL    HW228839   2.641   0.648  12.728  2.0017  0.0524  1.7534
 5793SOL     OW28840   3.022   4.458   5.983  0.6944 -0.1398 -0.4415
 5793SOL    HW128841   3.085   4.458   6.054 -1.7575  1.5885  1.7283
 5793SOL    HW228842   3.061   4.405   5.914  1.9719  1.4773 -0.9537
 5794SOL     OW28843   2.496   0.246   7.376 -0.0420  0.2725  0.7001
 5794SOL    HW128844   2.559   0.204   7.434 -0.5954  0.5419  1.4911
 5794SOL    HW228845   2.465   0.162   7.342  2.4762 -0.8155  1.0510
 5795SOL     OW28846   3.503   3.315   2.018  0.1643  0.1278  0.3986
 5795SOL    HW128847   3.534   3.234   2.059  0.4670  0.7789  1.4477
 5795SOL    HW228848   3.563   3.377   2.058 -1.0782  1.2780  0.4680
 5796SOL     OW28849   3.674   4.445   2.940 -0.3900  0.2130  0.2035
 5796SOL    HW128850   3.641   4.517   2.993 -1.7563 -0.7343  0.6438
 5796SOL    HW228851   3.598   4.430   2.883 -0.0084 -0.3246 -0.1692
 5797SOL     OW28852   0.676   2.978   7.947  0.5508 -0.4667  0.0945
 5797SOL    HW128853   0.715   2.908   7.895  0.0913 -0.4829 -0.2341
 5797SOL    HW228854   0.748   3.041   7.943  1.0505 -1.0111  0.6271
 5798SOL     OW28855   4.413   0.360  13.373 -0.4177 -0.4251 -0.4991
 5798SOL    HW128856   4.492   0.322  13.413 -0.2794 -0.3254 -0.6784
 5798SOL    HW228857   4.374   0.417  13.439  1.7660  0.3330  0.1427
 5799SOL     OW28858   3.665   0.607  11.630  0.2228 -0.5955  0.2633
 5799SOL    HW128859   3.703   0.681  11.679  1.5406 -0.9417 -0.2267
 5799SOL    HW228860   3.695   0.619  11.540 -0.9891  0.6415  0.0253
 5800SOL     OW28861   3.487   3.407   9.210 -0.2513 -0.3535 -0.5145
 5800SOL    HW128862   3.475   3.480   9.149  2.0603 -0.6164 -1.2980
 5800SOL    HW228863   3.413   3.358   9.174 -2.1038  0.9333  1.5707
 5801SOL     OW28864   2.020   2.784   0.791  0.8186  0.5556 -0.1013
 5801SOL    HW128865   2.076   2.828   0.856 -1.1678  3.4810 -0.3798
 5801SOL    HW228866   1.987   2.708   0.840  0.7064  0.8671  0.3048
 5802SOL     OW28867   3.926   3.829   6.932 -0.1753  0.1635 -0.3154
 5802SOL    HW128868   3.906   3.787   6.848  1.2778 -1.1541 -0.0096
 5802SOL    HW228869   3.897   3.762   6.994 -0.5219  0.7019  0.0984
 5803SOL     OW28870   0.385   3.879   3.161  0.3775 -0.5971  0.5788
 5803SOL    HW128871   0.440   3.957   3.154 -1.3738  0.6633  0.9544
 5803SOL    HW228872   0.427   3.828   3.092 -0.3532 -3.3922  2.1921
 5804SOL     OW28873   1.859   4.190   6.154  0.2495  0.1229 -0.4628
 5804SOL    HW128874   1.945   4.224   6.177  0.6913 -0.6423 -0.9735
 5804SOL    HW228875   1.856   4.109   6.205  2.8970  0.2944 -0.0516
 5805SOL     OW28876   1.050   3.999   6.951 -0.2273 -0.2197 -0.0151
 5805SOL    HW128877   0.978   3.948   6.913 -2.2223  0.9910  2.0952
 5805SOL    HW228878   0.990   4.063   6.990 -0.1331 -1.1448  1.6678
 5806SOL     OW28879   1.256   1.526   6.965  0.1723 -0.4262  0.0058
 5806SOL    HW128880   1.301   1.586   6.905 -2.8214  0.2538 -1.5827
 5806SOL    HW228881   1.220   1.467   6.899  1.7028 -0.0371 -1.1665
 5807SOL     OW28882   3.597   2.273   3.121 -0.1379  0.3362 -0.0571
 5807SOL    HW128883   3.669   2.215   3.147 -1.3604 -1.2867 -0.2726
 5807SOL    HW228884   3.644   2.319   3.052  1.2041  1.8432  1.8533
 5808SOL     OW28885   3.950   2.764  10.786  0.2582  0.7333  0.4517
 5808SOL    HW128886   3.955   2.669  10.773 -1.1505  0.8598 -0.8616
 5808SOL    HW228887   3.866   2.787  10.748  0.0595 -1.8374 -0.6829
 5809SOL     OW28888   2.172   3.340   5.399  0.4376  0.2929 -0.2057
 5809SOL    HW128889   2.216   3.401   5.459 -1.3001  2.8918 -1.5425
 5809SOL    HW228890   2.209   3.256   5.425  0.9296  0.5126 -0.2062
 5810SOL     OW28891   2.628   0.266   8.533  0.1409  0.5507 -0.0073
 5810SOL    HW128892   2.538   0.275   8.564  0.2861  2.7575 -0.2338
 5810SOL    HW228893   2.656   0.187   8.581  0.6302 -0.0972 -1.3666
 5811SOL     OW28894   2.579   2.018   5.389  0.3926  0.0181 -0.0697
 5811SOL    HW128895   2.665   1.979   5.405  0.0369 -0.6511  0.2247
 5811SOL    HW228896   2.554   2.045   5.477 -0.6327 -0.4112 -0.2344
 5812SOL     OW28897   4.572   0.411   2.472 -0.0340  0.3532  0.5831
 5812SOL    HW128898   4.668   0.403   2.472 -0.1102 -0.5176 -0.0612
 5812SOL    HW228899   4.548   0.318   2.468 -0.8245  0.5143  1.5462
 5813SOL     OW28900   3.522   2.306   2.724 -0.1543 -0.3932  0.5210
 5813SOL    HW128901   3.518   2.295   2.629  0.7068 -0.2803  0.4719
 5813SOL    HW228902   3.540   2.219   2.760  0.8674 -0.3539  0.0981
 5814SOL     OW28903   2.476   0.660  13.698  0.2318 -0.1242 -0.4169
 5814SOL    HW128904   2.402   0.707  13.660 -0.3196 -0.5188  0.1710
 5814SOL    HW228905   2.440   0.573  13.683  0.8852 -0.2220 -1.4125
 5815SOL     OW28906   0.735   0.155  16.450  0.1261 -0.1878 -0.2417
 5815SOL    HW128907   0.773   0.068  16.435 -3.1532 -1.6830  0.1175
 5815SOL    HW228908   0.675   0.140  16.523  3.1740 -2.3203  1.8615
 5816SOL     OW28909   4.557   0.139   3.214 -0.1347  0.1692  0.0958
 5816SOL    HW128910   4.492   0.204   3.237 -0.5151  1.1895 -3.8013
 5816SOL    HW228911   4.521   0.099   3.135  1.5433  0.3812 -0.7983
 5817SOL     OW28912   4.355   2.791  12.787 -0.6842  0.1357  0.0122
 5817SOL    HW128913   4.336   2.786  12.880  0.1101 -2.0346  0.0611
 5817SOL    HW228914   4.397   2.877  12.783 -1.2287  0.4853  1.9774
 5818SOL     OW28915   3.951   2.039   2.532 -0.4919 -0.3912 -0.1231
 5818SOL    HW128916   3.934   1.946   2.543 -1.3763 -0.1815  0.2871
 5818SOL    HW228917   3.909   2.057   2.448  0.7120 -1.4372 -0.9277
 5819SOL     OW28918   0.490   2.825   2.236  0.2463 -0.2764  0.0204
 5819SOL    HW128919   0.453   2.884   2.302 -0.0040  0.2218 -0.5554
 5819SOL    HW228920   0.548   2.891   2.198 -0.1291  1.1023  1.8489
 5820SOL     OW28921   0.086   3.915  12.575  0.0187 -0.0990 -0.3646
 5820SOL    HW128922   0.117   4.005  12.561  0.3373 -0.4246 -1.8444
 5820SOL    HW228923   0.165   3.872  12.609  0.3501 -0.3357 -1.4323
 5821SOL     OW28924   3.385   2.019  16.599 -0.1795  0.6775  0.0893
 5821SOL    HW128925   3.358   2.039  16.689  0.5802  1.8468  0.0612
 5821SOL    HW228926   3.339   2.086  16.549 -0.0234 -0.4405 -1.5473
 5822SOL     OW28927   0.293   1.588   3.456  0.0059  0.5412  0.3042
 5822SOL    HW128928   0.205   1.553   3.443  0.3313 -0.0504 -0.2630
 5822SOL    HW228929   0.315   1.565   3.546 -0.1713  1.0993  0.4949
 5823SOL     OW28930   0.608   3.814  12.737  0.3464 -0.0818 -0.4233
 5823SOL    HW128931   0.689   3.772  12.766 -0.5483 -0.3491  1.6988
 5823SOL    HW228932   0.620   3.824  12.642  1.1828  1.7575 -0.1322
 5824SOL     OW28933   1.799   0.971   5.093 -0.1647  0.2909 -0.3064
 5824SOL    HW128934   1.745   1.036   5.049 -0.3536 -0.4432 -1.1546
 5824SOL    HW228935   1.779   1.002   5.181  1.7151  4.0502 -1.2065
 5825SOL     OW28936   2.355   3.869   6.194 -0.6706  0.3609 -0.0144
 5825SOL    HW128937   2.420   3.803   6.167 -1.1116 -0.1371  0.1364
 5825SOL    HW228938   2.337   3.839   6.283 -0.4568 -1.8484 -0.7159
 5826SOL     OW28939   1.397   2.556  14.669 -0.0387  0.1918 -0.1275
 5826SOL    HW128940   1.384   2.473  14.716 -0.4538 -1.8551 -3.9012
 5826SOL    HW228941   1.313   2.603  14.679  0.0427  0.4903 -0.9032
 5827SOL     OW28942   4.138   4.568   2.040 -0.2734  1.0332 -0.3548
 5827SOL    HW128943   4.156   4.548   1.948 -0.3877 -0.1362 -0.1255
 5827SOL    HW228944   4.044   4.566   2.057  0.1959  0.1497  2.2244
 5828SOL     OW28945   2.011   2.655   1.519  0.3182 -0.1323 -0.2511
 5828SOL    HW128946   2.087   2.656   1.461  0.1980  0.6335 -0.3878
 5828SOL    HW228947   2.028   2.576   1.570 -1.1842  1.1888  2.3337
 5829SOL     OW28948   4.696   1.363  15.708 -0.1692 -0.6592 -0.1610
 5829SOL    HW128949   4.724   1.305  15.637 -0.7782  0.3921 -1.2549
 5829SOL    HW228950   4.701   1.450  15.669  0.7250 -1.2838 -1.4293
 5830SOL     OW28951   2.155   2.185   5.191 -0.0124  0.1558  0.1418
 5830SOL    HW128952   2.226   2.248   5.185  0.7627 -0.5335  2.1188
 5830SOL    HW228953   2.191   2.113   5.138 -0.9901  0.0517 -0.3901
 5831SOL     OW28954   1.368   4.698  10.695  0.0452  0.0089  0.0711
 5831SOL    HW128955   1.285   4.725  10.736  0.0387  0.2927 -0.1303
 5831SOL    HW228956   1.430   0.012  10.755 -2.5328  1.1105  2.0143
 5832SOL     OW28957   2.097   3.337   4.871 -0.2220 -0.2785 -0.1923
 5832SOL    HW128958   2.133   3.419   4.836 -0.5389 -0.4800 -0.9917
 5832SOL    HW228959   2.101   3.352   4.966  1.4560  1.2417 -0.5119
 5833SOL     OW28960   1.095   2.054   8.323  0.3994 -0.5460  0.1933
 5833SOL    HW128961   1.108   1.961   8.305 -0.3465 -0.3534 -1.3774
 5833SOL    HW228962   1.089   2.040   8.417 -2.4579  0.4732  0.1390
 5834SOL     OW28963   1.993   2.058  11.210  0.0740 -0.0913  0.1600
 5834SOL    HW128964   1.901   2.035  11.198  0.1619  1.1423 -2.8830
 5834SOL    HW228965   2.041   1.975  11.200  2.5257  1.6021 -2.2794
 5835SOL     OW28966   1.953   1.612  13.446  0.2461  0.2497 -0.1694
 5835SOL    HW128967   1.965   1.599  13.540  1.5762  1.7210 -0.1444
 5835SOL    HW228968   2.018   1.679  13.427 -0.5419  0.4774 -2.0812
 5836SOL     OW28969   2.141   3.058   6.596  0.1945  0.6588 -0.1867
 5836SOL    HW128970   2.157   2.972   6.556 -0.6357  0.4101  0.0252
 5836SOL    HW228971   2.226   3.099   6.580 -0.9195  3.1736  0.4479
 5837SOL     OW28972   4.545   1.435   3.901 -0.5161  0.1062  0.4711
 5837SOL    HW128973   4.572   1.458   3.990  2.1592 -0.4617 -0.2067
 5837SOL    HW228974   4.568   1.518   3.859  1.2475 -0.6960 -0.1328
 5838SOL     OW28975   0.044   0.405   9.426 -0.2729  0.6455  0.5364
 5838SOL    HW128976   0.008   0.365   9.347  0.1707  0.0302  0.6471
 5838SOL    HW228977   0.120   0.441   9.381 -0.6374  0.0890 -0.5177
 5839SOL     OW28978   4.302   1.184   8.280 -0.6728  0.2621  0.1082
 5839SOL    HW128979   4.348   1.114   8.235 -0.7689  0.5405 -0.4161
 5839SOL    HW228980   4.250   1.139   8.347  0.5112  0.3971  1.1192
 5840SOL     OW28981   4.094   0.355   0.347 -0.1996 -0.1656 -0.8638
 5840SOL    HW128982   4.079   0.366   0.253  0.1409  1.0669 -0.7711
 5840SOL    HW228983   4.108   0.448   0.368  3.9760 -0.8938 -0.4818
 5841SOL     OW28984   1.585   1.478   5.015  0.5552 -0.3114 -0.0089
 5841SOL    HW128985   1.658   1.477   5.077  0.3072  0.8414  0.2928
 5841SOL    HW228986   1.620   1.422   4.946  2.5333 -0.4465  1.1115
 5842SOL     OW28987   0.816   2.742   0.613  0.1683 -0.0076  0.1005
 5842SOL    HW128988   0.909   2.762   0.608  0.3854 -0.2892  2.8137
 5842SOL    HW228989   0.802   2.688   0.535 -1.1358 -1.2272  1.1710
 5843SOL     OW28990   1.800   4.093   5.369  0.2433 -0.3808 -0.2095
 5843SOL    HW128991   1.856   4.165   5.342  1.1547 -0.5753  1.1600
 5843SOL    HW228992   1.823   4.023   5.308  2.1566  0.8684 -0.9034
 5844SOL     OW28993   2.815   2.728   9.268  0.1098  0.4291  0.7548
 5844SOL    HW128994   2.852   2.640   9.266 -1.6534 -0.3626  2.0720
 5844SOL    HW228995   2.733   2.726   9.318  0.5520  1.4994  1.5316
 5845SOL     OW28996   0.154   3.633   1.898  0.2225  0.2563 -0.2785
 5845SOL    HW128997   0.061   3.641   1.878  0.2376 -1.2339 -0.9550
 5845SOL    HW228998   0.187   3.665   1.814 -0.1396  3.6498  0.9081
 5846SOL     OW28999   2.127   0.753   4.262 -0.5864  0.3508  0.1075
 5846SOL    HW129000   2.183   0.714   4.195 -1.2820  2.0060 -1.4188
 5846SOL    HW229001   2.181   0.828   4.288  0.9383 -0.4576 -0.7007
 5847SOL     OW29002   4.668   3.602   2.275 -0.2617 -0.4528 -0.4942
 5847SOL    HW129003   0.022   3.553   2.290  1.5750  2.5601 -0.4825
 5847SOL    HW229004   4.701   3.672   2.219  0.4274 -0.0347  0.4353
 5848SOL     OW29005   4.322   2.091  14.527 -0.3357  0.3587  0.5871
 5848SOL    HW129006   4.276   2.114  14.446  0.2013  0.7422  0.3894
 5848SOL    HW229007   4.405   2.074  14.483 -0.8019  0.3656 -0.2958
 5849SOL     OW29008   2.429   2.706  13.997 -0.0494  0.6939  0.0983
 5849SOL    HW129009   2.408   2.669  13.911 -0.5892  1.2300  0.0051
 5849SOL    HW229010   2.346   2.742  14.027  0.2880  0.5916  1.1365
 5850SOL     OW29011   0.273   1.573   6.335 -0.3258 -0.9268  0.3149
 5850SOL    HW129012   0.310   1.514   6.269  1.4390  0.8310 -0.2810
 5850SOL    HW229013   0.239   1.512   6.400  0.5478  0.3337  1.9657
 5851SOL     OW29014   0.890   3.075   5.350  0.3567  0.3481  0.6542
 5851SOL    HW129015   0.916   3.166   5.364 -1.2966  1.2605 -2.1806
 5851SOL    HW229016   0.938   3.025   5.416  0.8769 -0.1789 -0.1157
 5852SOL     OW29017   0.831   3.827   6.834 -0.3011  0.1862  0.5456
 5852SOL    HW129018   0.773   3.757   6.803 -0.9510  0.6552  0.7041
 5852SOL    HW229019   0.786   3.909   6.814  1.4039  1.3016  1.3231
 5853SOL     OW29020   0.036   4.639   7.639 -0.2160  0.5951 -0.1886
 5853SOL    HW129021   4.709   4.587   7.579 -2.7380  0.4251  2.1711
 5853SOL    HW229022   4.698   4.698   7.678 -0.8448 -0.6959  0.7370
 5854SOL     OW29023   1.774   2.654  13.272  0.1697  0.0306 -0.1099
 5854SOL    HW129024   1.700   2.645  13.332  0.3192 -2.1277 -0.2379
 5854SOL    HW229025   1.779   2.567  13.232  1.2719  0.4137 -0.8131
 5855SOL     OW29026   3.027   2.884   4.216 -0.1340  0.3955 -0.0345
 5855SOL    HW129027   2.952   2.936   4.186  0.4378  0.0986 -1.9336
 5855SOL    HW229028   3.072   2.857   4.136  1.5010  0.5585  0.8358
 5856SOL     OW29029   0.295   2.670   3.902  0.5499  0.1871 -0.4434
 5856SOL    HW129030   0.274   2.578   3.922 -0.3247  0.8315  1.5657
 5856SOL    HW229031   0.266   2.678   3.811 -3.1643  1.1029  0.8190
 5857SOL     OW29032   0.541   4.609   9.195 -0.5947 -0.0759  0.0832
 5857SOL    HW129033   0.566   4.675   9.260  0.8218 -2.8382  2.3121
 5857SOL    HW229034   0.457   4.644   9.163 -0.5729  1.5989  1.8372
 5858SOL     OW29035   0.168   2.715  16.895 -0.0195  0.0201 -0.2511
 5858SOL    HW129036   0.149   2.624  16.913  0.3109  0.1002  0.5085
 5858SOL    HW229037   0.083   2.743  16.862  0.2327 -0.4152 -1.2538
 5859SOL     OW29038   0.299   1.415   7.407 -0.2046  0.8185 -0.3103
 5859SOL    HW129039   0.346   1.489   7.368  0.7977 -0.3364 -1.3216
 5859SOL    HW229040   0.277   1.450   7.493  0.7173 -1.2128  0.7506
 5860SOL     OW29041   2.844   2.048   1.998  0.0693 -0.1668  0.1296
 5860SOL    HW129042   2.751   2.050   1.978  0.3938 -1.5198 -1.5427
 5860SOL    HW229043   2.855   1.959   2.032 -0.5054  0.7174  2.6263
 5861SOL     OW29044   1.850   2.865   9.007 -0.6852  0.2817  0.0605
 5861SOL    HW129045   1.900   2.945   9.021 -0.5935  0.1124  0.7081
 5861SOL    HW229046   1.767   2.897   8.974 -0.2417  0.1482 -1.1924
 5862SOL     OW29047   2.711   3.222  13.443  0.1569 -0.4266  0.1985
 5862SOL    HW129048   2.680   3.312  13.429  0.7930 -0.2206  0.1153
 5862SOL    HW229049   2.645   3.178  13.495 -1.2805  0.0088 -1.2469
 5863SOL     OW29050   4.644   0.189   4.309 -0.2032  0.2712  0.0384
 5863SOL    HW129051   4.700   0.266   4.325 -1.2898  1.3110 -1.1827
 5863SOL    HW229052   4.557   0.224   4.290 -0.3800 -1.4535 -2.4326
 5864SOL     OW29053   4.608   3.172   2.811  0.1497  0.1653 -0.2551
 5864SOL    HW129054   4.578   3.260   2.787  1.1680  0.9590  1.2877
 5864SOL    HW229055   4.550   3.116   2.761 -0.7173 -0.9356  1.9668
 5865SOL     OW29056   1.195   3.859   3.300 -0.1542 -0.1943  0.6576
 5865SOL    HW129057   1.288   3.875   3.314  0.0083  1.5302 -2.3088
 5865SOL    HW229058   1.165   3.886   3.388  1.1942  1.9491  0.4662
 5866SOL     OW29059   0.627   4.294   9.540 -0.3663  0.0224 -0.1731
 5866SOL    HW129060   0.599   4.315   9.629 -2.4821  2.4897 -1.4094
 5866SOL    HW229061   0.707   4.244   9.555 -0.2596 -0.3002 -1.7681
 5867SOL     OW29062   2.829   1.775   9.212  0.6239 -0.1166  0.0911
 5867SOL    HW129063   2.746   1.726   9.219 -0.3521  1.2970 -1.4942
 5867SOL    HW229064   2.900   1.712   9.216  2.3606  1.9196  1.1240
 5868SOL     OW29065   4.606   0.920   6.276  0.3402 -0.1265 -0.1216
 5868SOL    HW129066   4.543   0.952   6.211 -0.7872 -0.2763  0.9034
 5868SOL    HW229067   4.557   0.868   6.339  1.1969 -0.4964  0.2405
 5869SOL     OW29068   3.601   3.797   6.576  0.0090 -0.1099 -0.0655
 5869SOL    HW129069   3.582   3.856   6.503 -0.7279 -1.3129 -0.8370
 5869SOL    HW229070   3.515   3.768   6.608  0.4175 -0.7344  0.4760
 5870SOL     OW29071   2.314   3.829   1.055  0.1337  0.0576 -0.5084
 5870SOL    HW129072   2.342   3.745   1.091  0.2298 -0.6379 -2.2348
 5870SOL    HW229073   2.338   3.884   1.130 -0.0116 -2.1164  1.1239
 5871SOL     OW29074   2.380   1.825  17.263  0.3399 -0.1615 -0.0956
 5871SOL    HW129075   2.323   1.880  17.317 -0.6573 -2.5502  1.2844
 5871SOL    HW229076   2.463   1.848  17.306  0.1779  0.8399 -0.3281
 5872SOL     OW29077   1.560   2.459   2.517  0.3322  0.2178 -0.1552
 5872SOL    HW129078   1.522   2.409   2.589 -2.2458  1.2568 -0.7963
 5872SOL    HW229079   1.643   2.414   2.503 -0.7508 -1.0219 -2.5237
 5873SOL     OW29080   4.319   2.078   5.119 -0.3215 -0.0254  0.2783
 5873SOL    HW129081   4.372   2.024   5.177  0.8873  1.9022  0.9461
 5873SOL    HW229082   4.271   2.142   5.171 -1.1181 -0.6403  0.3178
 5874SOL     OW29083   4.487   4.140   8.296 -0.3233  0.2267 -0.0927
 5874SOL    HW129084   4.501   4.056   8.253  1.1747  0.1303  0.5578
 5874SOL    HW229085   4.529   4.195   8.229 -0.6931 -0.6546 -1.0397
 5875SOL     OW29086   3.641   0.521   7.685 -0.0037  0.1810  0.3084
 5875SOL    HW129087   3.583   0.491   7.756  0.4937 -2.0697 -0.2216
 5875SOL    HW229088   3.663   0.440   7.637 -1.4456  0.0208 -0.0846
 5876SOL     OW29089   0.682   0.460   4.581 -0.2399 -0.5921  0.2243
 5876SOL    HW129090   0.676   0.539   4.528  1.1583  0.0665  1.0541
 5876SOL    HW229091   0.702   0.394   4.515  0.1987 -0.2313 -0.0038
 5877SOL     OW29092   4.723   3.213  16.881  0.5762 -0.7788 -0.2474
 5877SOL    HW129093   4.686   3.270  16.949  0.6967 -0.7940 -0.1681
 5877SOL    HW229094   0.040   3.276  16.824  1.3111  0.8382  2.0842
 5878SOL     OW29095   4.379   1.822   0.913  0.3302  0.0651 -0.1075
 5878SOL    HW129096   4.321   1.751   0.942  0.2047  0.1187 -0.2243
 5878SOL    HW229097   4.370   1.823   0.818  0.2315  2.8527 -0.0857
 5879SOL     OW29098   3.910   4.705   8.325 -0.3216  0.6307 -0.4250
 5879SOL    HW129099   3.993   0.013   8.360  0.3235 -1.8558  0.5408
 5879SOL    HW229100   3.948   4.641   8.265 -0.1646  0.1849  0.1412
 5880SOL     OW29101   4.009   0.155  13.364 -0.4261 -0.2085  0.1802
 5880SOL    HW129102   4.049   0.175  13.449 -0.0762  2.3878 -0.5996
 5880SOL    HW229103   4.086   0.143  13.308 -0.3704 -0.0082  0.2171
 5881SOL     OW29104   1.450   4.358  11.610  0.2812 -0.0915 -0.4037
 5881SOL    HW129105   1.503   4.322  11.539 -1.4530  1.0433 -2.2827
 5881SOL    HW229106   1.506   4.321  11.678 -1.2697  0.1166  0.9800
 5882SOL     OW29107   1.248   3.958   4.814 -0.0733  0.1148 -0.1805
 5882SOL    HW129108   1.210   3.871   4.817  0.1156  0.0278 -0.2935
 5882SOL    HW229109   1.281   3.978   4.901  2.2288 -0.4870 -0.9021
 5883SOL     OW29110   1.983   4.721  15.351  0.1312 -0.4034 -0.6558
 5883SOL    HW129111   2.026   0.077  15.372 -2.1029  0.4302  0.6636
 5883SOL    HW229112   1.927   4.704  15.427  1.3342  1.1838  0.5687
 5884SOL     OW29113   0.862   4.586   1.959 -0.0734 -0.4618  0.0640
 5884SOL    HW129114   0.772   4.569   1.931 -0.5306 -0.8424  1.8044
 5884SOL    HW229115   0.882   4.494   1.972 -1.6501 -0.6906  0.8360
 5885SOL     OW29116   1.020   3.890   8.839 -0.1523  0.5379 -0.3834
 5885SOL    HW129117   1.113   3.905   8.856  0.0193 -0.9667 -0.0257
 5885SOL    HW229118   1.018   3.802   8.802 -1.2296  1.1769 -1.8426
 5886SOL     OW29119   3.232   1.100   5.683 -0.0536  0.2760  1.2150
 5886SOL    HW129120   3.159   1.098   5.621  1.0357 -0.1585 -0.0616
 5886SOL    HW229121   3.242   1.195   5.692 -1.4192  0.5176  0.1494
 5887SOL     OW29122   0.200   1.973   2.415 -0.3658  0.0296  0.1798
 5887SOL    HW129123   0.143   1.914   2.366 -2.2125  1.8203  0.1782
 5887SOL    HW229124   0.282   1.980   2.365 -0.1548  0.1876  0.5459
 5888SOL     OW29125   1.080   2.333  10.613  0.5259  0.5003  0.4929
 5888SOL    HW129126   1.043   2.292  10.691 -1.6425 -1.1999 -1.4223
 5888SOL    HW229127   1.164   2.289  10.609 -0.6566 -1.7426  0.4454
 5889SOL     OW29128   1.115   2.968   4.505 -0.1486 -0.4698 -0.0894
 5889SOL    HW129129   1.168   2.891   4.484 -0.0653 -0.0971 -1.2212
 5889SOL    HW229130   1.173   3.040   4.478  1.8036 -1.2153  2.1188
 5890SOL     OW29131   3.278   2.965   0.339  0.4676  0.0542 -0.2744
 5890SOL    HW129132   3.224   3.024   0.287  0.5884  1.3875  1.0949
 5890SOL    HW229133   3.317   3.027   0.401 -0.1466 -2.4103  2.6212
 5891SOL     OW29134   1.529   3.503   9.392  0.0363 -0.1938 -0.0766
 5891SOL    HW129135   1.556   3.502   9.300  2.1602 -0.4458  0.5638
 5891SOL    HW229136   1.435   3.523   9.397  0.4987  1.5212  1.5345
 5892SOL     OW29137   0.654   1.604   8.740  0.5214 -0.2821  0.4377
 5892SOL    HW129138   0.606   1.547   8.680  1.2731  0.5330 -0.9177
 5892SOL    HW229139   0.618   1.585   8.827  0.6939  1.0305  0.7899
 5893SOL     OW29140   0.248   3.935  13.702  0.7883  0.2508 -0.0140
 5893SOL    HW129141   0.206   3.878  13.767 -0.7072 -0.6257 -1.7481
 5893SOL    HW229142   0.342   3.922  13.713  0.3875 -3.0626 -0.3621
 5894SOL     OW29143   0.125   3.690  12.914  0.2978 -0.2206 -0.6580
 5894SOL    HW129144   0.119   3.633  12.990  1.7475 -0.1059 -0.4516
 5894SOL    HW229145   0.036   3.686  12.879  0.2589  0.5120 -0.6574
 5895SOL     OW29146   3.173   1.770   7.242 -0.2925  0.6355 -0.4961
 5895SOL    HW129147   3.263   1.757   7.272 -0.4638  0.9181  0.1397
 5895SOL    HW229148   3.155   1.721   7.162  0.6861  0.3649 -0.5410
 5896SOL     OW29149   1.120   4.676   8.978 -0.0091  0.0532 -0.0195
 5896SOL    HW129150   1.128   4.622   9.057 -0.6853  0.7397  0.5267
 5896SOL    HW229151   1.135   4.622   8.901 -0.9474  0.2101 -0.3150
 5897SOL     OW29152   4.669   2.128   2.433  0.1313 -0.4490 -0.1110
 5897SOL    HW129153   4.695   2.169   2.351  1.3024  1.0793  1.0200
 5897SOL    HW229154   0.019   2.069   2.433 -0.5433 -1.3254 -0.2597
 5898SOL     OW29155   0.826   2.493   5.873  0.0488 -0.7044 -0.4072
 5898SOL    HW129156   0.778   2.550   5.813 -2.1151 -2.4805 -0.3751
 5898SOL    HW229157   0.910   2.537   5.862  0.3146 -0.2827  3.1757
 5899SOL     OW29158   4.638   4.230  16.844 -0.0159 -0.8811 -0.0647
 5899SOL    HW129159   4.568   4.286  16.812  0.5804  0.8033  1.6223
 5899SOL    HW229160   4.599   4.142  16.848 -1.3208 -0.2258  1.2012
 5900SOL     OW29161   3.291   2.293   0.673  0.1159 -0.3163  0.2811
 5900SOL    HW129162   3.384   2.309   0.660 -0.1659  1.7819  0.8551
 5900SOL    HW229163   3.259   2.383   0.666 -0.3087 -0.2933  2.6118
 5901SOL     OW29164   3.721   0.629   6.728  0.0504  0.5317 -0.1165
 5901SOL    HW129165   3.725   0.537   6.755  1.0388  0.6430  0.1218
 5901SOL    HW229166   3.630   0.653   6.746 -0.2979 -0.2155 -0.8506
 5902SOL     OW29167   2.061   0.849   7.544  0.2145  0.5119 -0.1721
 5902SOL    HW129168   2.001   0.804   7.604  0.7279 -0.4912 -0.3959
 5902SOL    HW229169   2.141   0.839   7.597 -0.9330 -1.9222  1.1152
 5903SOL     OW29170   3.198   4.039  12.312 -0.3677 -0.4390 -0.2898
 5903SOL    HW129171   3.228   3.949  12.323 -0.1665 -0.3840 -0.3948
 5903SOL    HW229172   3.260   4.098  12.355  2.7721 -2.9702 -1.3338
 5904SOL     OW29173   2.827   4.617   7.349 -0.2517  0.2630  0.3317
 5904SOL    HW129174   2.872   4.546   7.395  0.3308 -0.2408 -1.0003
 5904SOL    HW229175   2.899   4.679   7.339 -0.7779  0.3426 -2.9126
 5905SOL     OW29176   3.075   3.146   5.515 -0.3121 -0.0987  0.0608
 5905SOL    HW129177   2.983   3.133   5.494 -0.5837  1.3095  0.3970
 5905SOL    HW229178   3.063   3.236   5.543 -2.7940  1.0654 -4.7070
 5906SOL     OW29179   2.534   0.014   6.107 -0.2384  0.1492  0.6273
 5906SOL    HW129180   2.525   4.657   6.152  1.0411 -0.3052  0.0247
 5906SOL    HW229181   2.454   0.015   6.054  0.8232  0.9863 -0.9799
 5907SOL     OW29182   0.738   3.552  13.482  0.1374 -0.0281 -0.0496
 5907SOL    HW129183   0.686   3.629  13.509 -1.4306 -1.0014 -0.2790
 5907SOL    HW229184   0.815   3.590  13.440 -0.5505  2.2654  0.7209
 5908SOL     OW29185   3.827   2.047   7.937 -0.1552 -0.1238  0.0960
 5908SOL    HW129186   3.816   2.004   8.022  1.1361  2.0606  1.3585
 5908SOL    HW229187   3.790   1.981   7.878  2.4850 -0.6814 -0.9170
 5909SOL     OW29188   0.325   3.723   8.557  0.6287  0.1992  0.3013
 5909SOL    HW129189   0.256   3.784   8.531  1.0344  0.7555  0.5193
 5909SOL    HW229190   0.280   3.640   8.539  1.5945 -0.1790 -0.4024
 5910SOL     OW29191   0.718   2.300   4.831  0.0526  0.3682  0.2174
 5910SOL    HW129192   0.687   2.391   4.829  2.0049  1.0876  2.1256
 5910SOL    HW229193   0.708   2.265   4.743  2.1887 -1.1859  0.6036
 5911SOL     OW29194   2.548   2.723   5.966  0.6047 -0.0745  0.1685
 5911SOL    HW129195   2.633   2.700   5.929  0.2152  3.0415 -2.6497
 5911SOL    HW229196   2.551   2.819   5.969  1.3355 -0.1493  1.6323
 5912SOL     OW29197   3.561   2.500  14.573  0.3656 -0.1169  0.6097
 5912SOL    HW129198   3.519   2.585  14.565  0.2395 -0.2768 -0.4630
 5912SOL    HW229199   3.624   2.504  14.501  1.2418  0.2078  1.3921
 5913SOL     OW29200   3.230   0.107   4.376  0.7516 -0.4541 -0.5649
 5913SOL    HW129201   3.149   0.153   4.397  0.9496 -0.5061  0.3213
 5913SOL    HW229202   3.296   0.176   4.373  0.6880 -0.3798 -0.2527
 5914SOL     OW29203   3.435   0.255   5.908 -0.0120  0.4730 -0.1991
 5914SOL    HW129204   3.525   0.273   5.936  0.2923 -1.7985  0.3080
 5914SOL    HW229205   3.427   0.166   5.941 -1.0359  0.4515 -0.4935
 5915SOL     OW29206   1.916   4.341  11.675 -0.7673 -0.3123  0.1070
 5915SOL    HW129207   1.883   4.356  11.586  0.9052  0.8445 -0.3240
 5915SOL    HW229208   1.985   4.276  11.661 -0.0292  0.3166  0.8316
 5916SOL     OW29209   3.996   1.272   6.053 -0.4898 -0.5548 -0.5973
 5916SOL    HW129210   4.000   1.339   5.984  2.3587 -0.5209 -0.3907
 5916SOL    HW229211   3.903   1.272   6.076 -0.3888  1.3777 -0.1476
 5917SOL     OW29212   4.234   0.458   2.642 -0.2126  0.3184 -0.2779
 5917SOL    HW129213   4.307   0.519   2.655  1.4925 -1.5196 -1.2241
 5917SOL    HW229214   4.286   0.378   2.650 -1.6032 -0.6003 -0.4740
 5918SOL     OW29215   1.847   2.560   2.572  0.3738 -0.8485  0.8166
 5918SOL    HW129216   1.753   2.563   2.588  0.4094  0.1896  0.8280
 5918SOL    HW229217   1.870   2.651   2.553  2.1630 -1.4829 -0.0844
 5919SOL     OW29218   4.284   2.967   5.628  0.2190  0.3790  0.3144
 5919SOL    HW129219   4.288   3.062   5.638 -1.1956  0.3389  1.2513
 5919SOL    HW229220   4.302   2.943   5.719 -0.7915 -0.9134  0.1773
 5920SOL     OW29221   1.820   4.187   3.353  0.0858 -0.4900 -0.4443
 5920SOL    HW129222   1.784   4.271   3.379 -2.8821 -1.6677 -0.7652
 5920SOL    HW229223   1.748   4.124   3.355 -0.2389  0.0060  2.3517
 5921SOL     OW29224   1.007   0.471   3.279  0.2914  0.2582  0.5276
 5921SOL    HW129225   0.991   0.404   3.345 -3.2567 -0.6255 -1.2398
 5921SOL    HW229226   1.098   0.494   3.297  0.1391  0.8311  0.5822
 5922SOL     OW29227   1.081   4.421  17.072  0.1483  1.0620  0.1481
 5922SOL    HW129228   1.171   4.395  17.090 -1.2960 -1.2116  4.1851
 5922SOL    HW229229   1.037   4.338  17.052  0.5546  1.2169 -1.3609
 5923SOL     OW29230   0.278   2.997   7.967 -0.3492  0.4962  0.2160
 5923SOL    HW129231   0.344   3.049   7.922 -0.2621  1.4933  1.4958
 5923SOL    HW229232   0.245   3.072   8.017  1.1705  0.7598  0.8334
 5924SOL     OW29233   0.034   4.376   7.177  0.2356 -0.0167 -0.2460
 5924SOL    HW129234   0.111   4.433   7.170 -0.1845  0.4496 -1.0378
 5924SOL    HW229235   0.076   4.292   7.159  0.5894 -0.3928  2.3866
 5925SOL     OW29236   3.223   1.685   5.038  0.5407 -0.0324 -0.0612
 5925SOL    HW129237   3.185   1.701   4.951 -0.5415  1.2496  0.6500
 5925SOL    HW229238   3.297   1.642   4.995  0.3961  0.7446 -1.0925
 5926SOL     OW29239   2.748   1.172   0.474  0.0525 -0.1090 -0.0745
 5926SOL    HW129240   2.703   1.174   0.559  0.1072  1.5006 -0.0798
 5926SOL    HW229241   2.736   1.265   0.457 -0.4293  0.4301  3.1721
 5927SOL     OW29242   4.163   0.606   8.120  0.1163 -0.0458 -0.5544
 5927SOL    HW129243   4.240   0.571   8.166  0.4303  0.5119 -0.6579
 5927SOL    HW229244   4.094   0.596   8.186  0.9253  1.1057  0.4643
 5928SOL     OW29245   0.101   2.400   7.447  0.0456 -0.0729  0.0470
 5928SOL    HW129246   0.127   2.333   7.384 -1.4008 -0.5472 -0.0461
 5928SOL    HW229247   0.020   2.362   7.481 -0.8147  0.3954 -1.4813
 5929SOL     OW29248   3.047   4.499   7.905  0.3273  0.9317  0.4846
 5929SOL    HW129249   2.965   4.451   7.917  0.9895 -0.3949 -0.3618
 5929SOL    HW229250   3.029   4.575   7.961 -1.2718  0.2943  0.8534
 5930SOL     OW29251   4.696   4.279  13.313 -0.2498 -0.2428 -0.1096
 5930SOL    HW129252   4.716   4.188  13.331  2.3105  0.5718  1.1232
 5930SOL    HW229253   4.694   4.313  13.403 -0.0447 -1.0703  0.2076
 5931SOL     OW29254   3.327   3.775  12.268 -0.4808  0.0369  0.3988
 5931SOL    HW129255   3.386   3.759  12.343 -2.4160 -0.1019  1.8847
 5931SOL    HW229256   3.305   3.691  12.229  0.7352 -0.9220  1.7484
 5932SOL     OW29257   3.614   2.039  12.687  0.0872  0.3793 -0.3762
 5932SOL    HW129258   3.582   2.093  12.759  1.2529 -0.0150  0.4408
 5932SOL    HW229259   3.558   1.961  12.692 -1.2119  1.3939  0.8099
 5933SOL     OW29260   3.549   2.184   0.331  0.8963  0.6940  0.0285
 5933SOL    HW129261   3.485   2.141   0.275 -1.0886  3.3552  0.2323
 5933SOL    HW229262   3.527   2.147   0.417 -1.4551  0.6368 -0.5955
 5934SOL     OW29263   3.261   2.793   4.025 -0.2963 -0.4642 -0.2151
 5934SOL    HW129264   3.227   2.707   4.049  2.9182 -2.0191 -1.3227
 5934SOL    HW229265   3.246   2.778   3.932 -1.3022  0.8444 -0.2697
 5935SOL     OW29266   0.340   3.037  13.965 -1.0548 -0.1262 -0.0543
 5935SOL    HW129267   0.423   3.050  13.919 -1.4744  2.9443  0.1040
 5935SOL    HW229268   0.295   2.977  13.905 -1.1393  0.6670 -0.7710
 5936SOL     OW29269   2.383   1.495   5.841 -0.7246  0.0280  0.0000
 5936SOL    HW129270   2.396   1.404   5.866  2.0106  0.4510  0.0993
 5936SOL    HW229271   2.399   1.493   5.747 -1.0801  0.4862 -0.0721
 5937SOL     OW29272   3.201   2.544  10.894  0.0397  0.9788 -0.2080
 5937SOL    HW129273   3.190   2.483  10.967 -3.1753  1.6945 -0.0899
 5937SOL    HW229274   3.114   2.583  10.884 -0.7542 -1.0193 -1.0761
 5938SOL     OW29275   0.828   4.591   8.016 -0.3703  0.4349 -0.0216
 5938SOL    HW129276   0.907   4.557   7.974  0.5531 -0.5632  2.5111
 5938SOL    HW229277   0.848   4.603   8.108  0.1541  0.5920 -0.1579
 5939SOL     OW29278   4.589   1.079  14.176  1.7934 -0.0480  0.3205
 5939SOL    HW129279   4.639   1.061  14.255  1.1562 -0.9151  0.5237
 5939SOL    HW229280   4.665   1.117  14.132  0.2200  0.1804 -2.2383
 5940SOL     OW29281   2.503   2.012   5.098 -0.3054  0.2438 -0.1561
 5940SOL    HW129282   2.558   2.088   5.081  0.4582 -0.4004 -0.5627
 5940SOL    HW229283   2.508   2.010   5.194 -0.5526 -1.9470 -0.1877
 5941SOL     OW29284   0.884   3.339  16.016 -0.1121  0.0106 -0.3832
 5941SOL    HW129285   0.919   3.419  15.977  0.7712  0.2701  0.9449
 5941SOL    HW229286   0.961   3.283  16.003 -0.4819 -0.3782 -0.8775
 5942SOL     OW29287   1.268   4.082   1.393  0.8001  0.3105  0.0232
 5942SOL    HW129288   1.211   4.055   1.321 -0.4324  0.7349  0.8355
 5942SOL    HW229289   1.257   4.001   1.443 -0.6387  0.5145  0.0411
 5943SOL     OW29290   1.404   4.315   4.164 -0.1551  0.6300  0.1082
 5943SOL    HW129291   1.379   4.402   4.133  0.5756  1.3829  1.6162
 5943SOL    HW229292   1.385   4.331   4.257 -0.4015 -1.2848  0.3867
 5944SOL     OW29293   0.049   4.686   6.052  0.0136  0.3239  0.6047
 5944SOL    HW129294   0.112   4.668   6.122  0.5621  0.9783  0.2832
 5944SOL    HW229295   4.709   0.013   6.097  0.4035  0.2307  1.2913
 5945SOL     OW29296   2.162   4.620   2.231  0.0767  0.0036  0.5665
 5945SOL    HW129297   2.240   4.589   2.185  0.6202 -0.8551  2.0687
 5945SOL    HW229298   2.097   4.552   2.213 -0.4244  0.7246 -0.3536
 5946SOL     OW29299   1.305   0.276   3.042  0.2563  0.3521  0.4528
 5946SOL    HW129300   1.229   0.333   3.047  1.0192  1.0983  3.9477
 5946SOL    HW229301   1.275   0.193   3.079 -3.4893  1.7184  0.3687
 5947SOL     OW29302   0.326   3.896  11.955 -0.7734 -0.4092 -0.1132
 5947SOL    HW129303   0.408   3.864  11.994 -0.6907  1.0738  0.9240
 5947SOL    HW229304   0.266   3.822  11.947 -2.7498  0.9818  1.8565
 5948SOL     OW29305   3.649   3.820  10.258 -0.4139 -0.1448 -0.4057
 5948SOL    HW129306   3.573   3.764  10.242 -0.6097 -0.3465  1.2541
 5948SOL    HW229307   3.724   3.774  10.222  0.4875  0.1514  1.1047
 5949SOL     OW29308   0.614   2.953  13.162  0.3226  0.4065 -0.6229
 5949SOL    HW129309   0.706   2.954  13.187 -0.7727 -0.3076  3.4199
 5949SOL    HW229310   0.623   2.960  13.067  3.6351 -1.4753 -0.4243
 5950SOL     OW29311   3.233   1.496  10.735  0.2730 -0.2403 -0.0719
 5950SOL    HW129312   3.300   1.504  10.667  0.9222  0.8276  0.6918
 5950SOL    HW229313   3.288   1.513  10.811  0.1355 -0.1286  0.0005
 5951SOL     OW29314   4.631   1.614  15.617 -0.3685 -0.2682  0.8060
 5951SOL    HW129315   4.541   1.636  15.590 -0.6389  0.5592  2.4027
 5951SOL    HW229316   4.670   1.636  15.533  0.0969 -0.3034  1.0173
 5952SOL     OW29317   0.134   3.410   3.940 -0.1408  0.0037 -0.2731
 5952SOL    HW129318   0.079   3.331   3.941 -2.7905  1.8298 -0.8023
 5952SOL    HW229319   0.115   3.459   3.860  1.6489 -0.5752 -1.0531
 5953SOL     OW29320   4.513   1.243  12.738  0.0105 -0.4343  0.4212
 5953SOL    HW129321   4.534   1.279  12.652 -0.2429  0.4841  0.7513
 5953SOL    HW229322   4.503   1.149  12.723  1.0875 -0.4765 -0.0536
 5954SOL     OW29323   3.919   3.050  15.324  0.1315 -0.2382 -0.1358
 5954SOL    HW129324   3.840   3.048  15.378  0.0344  0.3091 -0.2488
 5954SOL    HW229325   3.986   3.066  15.391 -0.3872 -1.4853  0.6663
 5955SOL     OW29326   0.303   0.108  12.403  0.4380 -0.6659  0.2548
 5955SOL    HW129327   0.396   0.091  12.389  0.3371 -0.6860 -0.3897
 5955SOL    HW229328   0.284   0.047  12.475 -0.6531 -0.9099 -0.2446
 5956SOL     OW29329   3.163   0.393   8.739  0.0340 -0.4362  0.0871
 5956SOL    HW129330   3.088   0.343   8.706 -0.3432 -0.5944  1.1748
 5956SOL    HW229331   3.156   0.477   8.692 -0.9496 -1.0794 -0.9369
 5957SOL     OW29332   2.207   2.005   4.393  0.3341  0.2127  0.3960
 5957SOL    HW129333   2.242   2.014   4.482  0.3831 -0.5720  0.4530
 5957SOL    HW229334   2.146   2.079   4.388  0.2417  0.0395 -1.1436
 5958SOL     OW29335   3.928   2.508  16.298  0.0245  0.2527 -0.0144
 5958SOL    HW129336   3.846   2.494  16.250  1.0425 -0.4259 -1.5513
 5958SOL    HW229337   3.930   2.432  16.357 -2.1322  0.2497  0.0455
 5959SOL     OW29338   3.852   3.779   6.657  0.0058  0.1006 -0.1695
 5959SOL    HW129339   3.887   3.845   6.597 -0.3242  1.0252  0.6520
 5959SOL    HW229340   3.758   3.770   6.641 -0.0358 -0.2174  0.2491
 5960SOL     OW29341   4.624   1.713   2.803  0.7662 -0.1705  0.1717
 5960SOL    HW129342   4.598   1.740   2.891 -1.3449 -0.4774 -0.3461
 5960SOL    HW229343   4.624   1.798   2.759  0.8447  0.2187  0.9330
 5961SOL     OW29344   4.580   3.454   2.490 -0.4462 -0.3439 -0.0997
 5961SOL    HW129345   4.582   3.523   2.423 -1.1314 -0.5267 -0.3006
 5961SOL    HW229346   4.543   3.387   2.432  2.4779 -0.1938 -2.1403
 5962SOL     OW29347   4.037   0.656   6.641 -0.3077 -0.6409  0.1290
 5962SOL    HW129348   4.006   0.696   6.560 -0.8580 -1.4169 -0.0399
 5962SOL    HW229349   3.995   0.570   6.630  0.3190 -1.3052  2.8263
 5963SOL     OW29350   2.841   1.822  10.094  0.5420 -0.0466 -0.3700
 5963SOL    HW129351   2.768   1.883  10.107  1.1770  0.7438 -0.4760
 5963SOL    HW229352   2.818   1.791  10.006 -0.3718 -0.2662 -0.0467
 5964SOL     OW29353   3.923   0.601   3.999 -0.3019 -0.6399  0.0207
 5964SOL    HW129354   4.006   0.555   3.992 -0.8472 -1.3960 -1.5543
 5964SOL    HW229355   3.919   0.625   3.906 -0.2326 -3.2216 -0.6284
 5965SOL     OW29356   2.216   0.164   7.195  0.8102 -0.1791 -0.2913
 5965SOL    HW129357   2.273   0.115   7.255 -0.4271  1.0422  1.8747
 5965SOL    HW229358   2.193   0.244   7.241  1.1544  0.1306 -0.6631
 5966SOL     OW29359   3.583   1.629   9.948  0.1062  0.4321 -0.6310
 5966SOL    HW129360   3.622   1.696   9.891  1.0891  0.6493  0.2801
 5966SOL    HW229361   3.644   1.627  10.022 -1.1710 -2.1427  0.3491
 5967SOL     OW29362   1.798   2.189   0.278 -0.2790  0.0526  0.1167
 5967SOL    HW129363   1.752   2.136   0.344 -1.5338  2.6424  1.3100
 5967SOL    HW229364   1.843   2.253   0.333  0.2112 -1.4034  1.4160
 5968SOL     OW29365   0.791   0.916   3.145 -0.0670 -0.1288  0.1032
 5968SOL    HW129366   0.862   0.968   3.184  1.0013 -1.7594  0.3287
 5968SOL    HW229367   0.805   0.824   3.169  0.5903 -0.5403 -1.8255
 5969SOL     OW29368   0.622   1.224  16.531  0.3889 -0.5502  0.0221
 5969SOL    HW129369   0.592   1.182  16.451  1.6737  1.2033 -1.3938
 5969SOL    HW229370   0.540   1.260  16.567  1.8842 -0.3224  3.2120
 5970SOL     OW29371   0.690   4.713  10.914  0.5147 -0.4340  0.2742
 5970SOL    HW129372   0.742   4.651  10.967  0.8040  0.7466  1.3721
 5970SOL    HW229373   0.759   0.052  10.908 -0.0913 -0.1498 -3.2502
 5971SOL     OW29374   3.524   0.498  12.379  0.2012  0.6301  0.1535
 5971SOL    HW129375   3.446   0.514  12.327  0.1021  1.5166  0.5801
 5971SOL    HW229376   3.588   0.467  12.315  1.6876  3.3438  0.3249
 5972SOL     OW29377   0.767   3.335  13.649 -0.4138 -0.2466 -0.4542
 5972SOL    HW129378   0.823   3.305  13.578 -0.8534 -1.5021 -0.2666
 5972SOL    HW229379   0.747   3.424  13.620  2.3525  0.6106  0.3199
 5973SOL     OW29380   0.465   3.377   5.476 -0.1206 -0.0637  0.0446
 5973SOL    HW129381   0.506   3.422   5.550 -0.8147 -0.7803  0.8657
 5973SOL    HW229382   0.469   3.448   5.412  2.5588 -2.3187 -2.2968
 5974SOL     OW29383   3.554   3.372   3.218 -0.1829 -1.0940  0.9864
 5974SOL    HW129384   3.616   3.315   3.171  0.6009 -0.4775  1.2809
 5974SOL    HW229385   3.604   3.453   3.212 -0.2165 -1.0551  1.2600
 5975SOL     OW29386   1.197   0.415   4.461 -0.5691 -0.2695  0.0569
 5975SOL    HW129387   1.245   0.431   4.542 -1.1154  2.3900 -0.1370
 5975SOL    HW229388   1.181   0.502   4.425 -0.3163 -0.7878 -1.3035
 5976SOL     OW29389   1.235   2.749   6.640 -0.1283  0.2510  0.0947
 5976SOL    HW129390   1.142   2.741   6.618  0.1023  1.0855 -1.1493
 5976SOL    HW229391   1.273   2.816   6.584  1.5329 -0.9157 -0.1679
 5977SOL     OW29392   1.479   1.252   7.846 -0.1163  0.2647 -0.3692
 5977SOL    HW129393   1.430   1.329   7.876 -1.2536 -1.2333  1.6659
 5977SOL    HW229394   1.475   1.265   7.751 -0.8866  1.0808 -0.2247
 5978SOL     OW29395   3.599   2.426  14.186 -0.1136 -0.4551  0.2450
 5978SOL    HW129396   3.653   2.364  14.137  1.6266  1.7146 -0.5822
 5978SOL    HW229397   3.635   2.402  14.271 -0.5062  0.9635  0.8212
 5979SOL     OW29398   0.190   3.919   8.885 -0.3067 -0.5914 -0.1811
 5979SOL    HW129399   0.191   3.862   8.961  1.3224  2.2044  1.9061
 5979SOL    HW229400   0.100   3.896   8.864 -0.4794  0.9840 -1.1544
 5980SOL     OW29401   3.850   3.332   0.073 -0.2498 -0.0442  0.6991
 5980SOL    HW129402   3.917   3.268   0.048 -1.3315 -1.0817  0.4840
 5980SOL    HW229403   3.896   3.404   0.030  0.6045 -0.3229  1.1460
 5981SOL     OW29404   0.063   0.060   5.397  0.6202  0.4427 -0.9368
 5981SOL    HW129405   0.069   0.020   5.310 -1.7305  1.2850 -1.4909
 5981SOL    HW229406   0.133   0.125   5.390  1.7366 -0.6097  0.5837
 5982SOL     OW29407   4.436   0.495  11.048  0.3380 -0.0666 -0.0619
 5982SOL    HW129408   4.530   0.498  11.068  0.1881 -3.6701  1.1413
 5982SOL    HW229409   4.428   0.402  11.026 -0.6425  0.0704 -0.2637
 5983SOL     OW29410   3.024   4.135  11.896 -0.1204  0.1516 -0.1566
 5983SOL    HW129411   3.099   4.146  11.956  1.5848  0.2711 -2.3145
 5983SOL    HW229412   3.037   4.221  11.856 -1.2767  0.3766 -0.0317
 5984SOL     OW29413   4.475   0.082   5.337 -0.1244  0.5858  0.0043
 5984SOL    HW129414   4.489   0.159   5.393 -0.7550  0.3301  0.5148
 5984SOL    HW229415   4.558   0.081   5.290 -0.3571  1.3409 -0.4225
 5985SOL     OW29416   1.277   4.379   5.828  0.3337  0.1879 -0.0424
 5985SOL    HW129417   1.285   4.412   5.917  0.0334  0.3237 -0.0661
 5985SOL    HW229418   1.208   4.439   5.799  0.5531  1.2036  1.5346
 5986SOL     OW29419   2.903   3.024   6.664 -0.1936  0.5432  0.1463
 5986SOL    HW129420   2.940   3.075   6.736  0.4092  2.3230 -1.4278
 5986SOL    HW229421   2.971   3.027   6.597 -0.5070 -2.0036 -0.2765
 5987SOL     OW29422   0.340   4.465   8.382 -0.2239 -0.0423  0.1703
 5987SOL    HW129423   0.395   4.390   8.362  0.2650  0.2485  0.4182
 5987SOL    HW229424   0.336   4.462   8.478  2.6873  1.0567  0.3366
 5988SOL     OW29425   0.636   3.318   3.809 -0.3274 -0.1504 -0.1338
 5988SOL    HW129426   0.620   3.282   3.722 -0.1977 -0.3012 -0.0937
 5988SOL    HW229427   0.691   3.251   3.849 -0.0481 -0.0100 -0.2875
 5989SOL     OW29428   4.309   1.529  13.138 -0.1096 -0.5937 -0.1208
 5989SOL    HW129429   4.385   1.485  13.175  0.0737 -0.2421 -0.0860
 5989SOL    HW229430   4.311   1.490  13.050  2.1326 -3.0653  1.0322
 5990SOL     OW29431   3.243   2.934  15.270 -0.2081  0.2899  0.1299
 5990SOL    HW129432   3.169   2.909  15.325 -0.0472 -0.6280 -0.0560
 5990SOL    HW229433   3.200   2.981  15.198 -1.8705 -2.3261 -0.6045
 5991SOL     OW29434   0.877   1.792   8.053  0.4335  0.2738  0.3196
 5991SOL    HW129435   0.877   1.700   8.080 -1.5318 -0.1007 -1.0295
 5991SOL    HW229436   0.832   1.830   8.128  2.7927  0.2382  1.7814
 5992SOL     OW29437   4.533   3.532  17.631 -0.9610  0.4418  0.5228
 5992SOL    HW129438   4.577   3.600  17.684 -0.6897  1.7261 -1.3495
 5992SOL    HW229439   4.461   3.579  17.588 -0.1001 -0.1167 -1.5077
 5993SOL     OW29440   2.561   1.019  14.451 -0.1986 -0.0527  0.3741
 5993SOL    HW129441   2.568   0.935  14.496  0.8399 -0.2882 -0.2368
 5993SOL    HW229442   2.597   1.075  14.520  0.8248  0.7034 -0.7824
 5994SOL     OW29443   1.917   4.511   8.277  0.5150 -0.1104 -0.2735
 5994SOL    HW129444   1.834   4.463   8.277  1.1602 -1.2203  0.3712
 5994SOL    HW229445   1.975   4.470   8.213  0.0449 -1.7514  0.3414
 5995SOL     OW29446   2.502   3.008   9.065 -0.0789  0.1339 -0.0980
 5995SOL    HW129447   2.470   3.094   9.091  2.5229  1.0222  0.1195
 5995SOL    HW229448   2.477   2.946   9.134  1.0572 -0.0661  0.1312
 5996SOL     OW29449   2.437   0.697   4.456 -0.7938 -0.5784  0.3585
 5996SOL    HW129450   2.459   0.739   4.539 -0.1143  2.5720 -1.3990
 5996SOL    HW229451   2.479   0.752   4.391 -3.2087  2.2419  1.1668
 5997SOL     OW29452   2.869   2.144   7.732 -0.6467  0.2142 -0.5414
 5997SOL    HW129453   2.809   2.072   7.751  0.2972 -0.2668  0.6068
 5997SOL    HW229454   2.820   2.225   7.747 -1.2997 -0.9371  3.6162
 5998SOL     OW29455   0.036   4.437   5.674  0.6145 -0.1486  0.1349
 5998SOL    HW129456   0.014   4.523   5.639 -3.3423 -1.2738 -0.1611
 5998SOL    HW229457   0.042   4.460   5.766 -0.4419 -1.7591  0.6166
 5999SOL     OW29458   2.152   2.832   6.398 -0.5023  0.0967  0.0727
 5999SOL    HW129459   2.246   2.812   6.400 -0.3525  0.8327  0.1778
 5999SOL    HW229460   2.119   2.795   6.316 -1.5403 -2.5614  1.7099
 6000SOL     OW29461   3.344   4.329   6.972  0.5025  0.7391  0.4170
 6000SOL    HW129462   3.419   4.383   6.996  2.0784 -1.5613  0.7188
 6000SOL    HW229463   3.333   4.283   7.056 -1.4385  1.3129  0.4816
 6001SOL     OW29464   3.748   3.923   2.101 -0.0671  0.2475  0.3962
 6001SOL    HW129465   3.736   3.988   2.032 -0.2229  0.0461  0.2335
 6001SOL    HW229466   3.796   3.859   2.049  1.4377  0.9196  0.9504
 6002SOL     OW29467   0.498   1.015   6.215 -0.2314  0.9857  0.2545
 6002SOL    HW129468   0.567   0.955   6.186 -1.3497  0.6050 -1.5938
 6002SOL    HW229469   0.557   1.090   6.229  0.0006  0.9508 -0.5198
 6003SOL     OW29470   0.113   1.100   4.757  0.0323 -0.6770 -0.8069
 6003SOL    HW129471   0.124   1.082   4.664  1.6294  1.1634 -0.9725
 6003SOL    HW229472   0.042   1.165   4.757  0.3099 -0.3676 -1.6469
 6004SOL     OW29473   2.864   4.410   1.021  0.1391  0.2731 -0.5082
 6004SOL    HW129474   2.947   4.457   1.011 -0.1799  0.9068 -0.1638
 6004SOL    HW229475   2.834   4.404   0.930  0.5638  1.0645 -0.6968
 6005SOL     OW29476   0.565   1.094   4.240 -0.6141 -0.4359 -0.3967
 6005SOL    HW129477   0.619   1.151   4.185 -0.9732  2.7257  2.4992
 6005SOL    HW229478   0.483   1.092   4.191 -1.6493  4.4917  1.1212
 6006SOL     OW29479   2.491   1.340  13.929 -0.3632 -0.0765  0.0572
 6006SOL    HW129480   2.401   1.356  13.957 -0.2240 -0.4150  0.6792
 6006SOL    HW229481   2.536   1.425  13.932 -0.1706 -0.1092 -1.7111
 6007SOL     OW29482   2.580   3.438   6.955 -0.0669  0.1801  0.0041
 6007SOL    HW129483   2.559   3.512   6.897  0.4817  0.3627  0.0358
 6007SOL    HW229484   2.507   3.454   7.015  1.0721  1.4146  1.0667
 6008SOL     OW29485   3.885   0.740  14.812  0.0590  0.0273 -0.6608
 6008SOL    HW129486   3.918   0.767  14.726  2.8828  2.3054  1.1320
 6008SOL    HW229487   3.910   0.817  14.862  0.7109 -1.2266  0.9551
 6009SOL     OW29488   2.196   3.312  17.590 -0.5257  0.2835 -0.0859
 6009SOL    HW129489   2.147   3.363  17.655  0.2323  0.1348  0.5898
 6009SOL    HW229490   2.168   3.344  17.504 -2.1021 -0.5205  0.1251
 6010SOL     OW29491   3.078   0.644  13.101 -0.3694 -0.0548 -0.1834
 6010SOL    HW129492   2.983   0.653  13.100 -0.7244 -3.6294  1.0764
 6010SOL    HW229493   3.081   0.550  13.083  2.1269  0.4689 -2.5199
 6011SOL     OW29494   0.402   2.087   2.041  0.1126  0.4543 -0.1208
 6011SOL    HW129495   0.413   2.011   1.984  0.4116  0.1578  0.3255
 6011SOL    HW229496   0.445   2.054   2.120  0.6080 -0.2900 -0.6947
 6012SOL     OW29497   1.903   2.532   2.127 -0.1474 -0.2397  0.2359
 6012SOL    HW129498   1.862   2.526   2.041  0.1207  0.2903  0.0734
 6012SOL    HW229499   1.851   2.598   2.172 -1.3810 -1.7937  1.0953
 6013SOL     OW29500   1.915   1.117  11.784  0.6223 -0.2712 -0.0019
 6013SOL    HW129501   1.962   1.198  11.805 -0.8492  0.2131  1.4434
 6013SOL    HW229502   1.834   1.122  11.834  0.5380  0.3507 -0.1930
 6014SOL     OW29503   0.381   2.386   3.687  0.2979 -0.6949 -0.0209
 6014SOL    HW129504   0.419   2.464   3.646 -0.2555 -0.5396 -0.2295
 6014SOL    HW229505   0.326   2.419   3.759  1.7429 -0.4903  0.9913
 6015SOL     OW29506   4.094   1.018  14.637 -0.4156 -0.0446 -0.7558
 6015SOL    HW129507   4.051   1.019  14.722 -1.4944  0.5232 -1.3081
 6015SOL    HW229508   4.086   0.927  14.609 -0.2443  0.2756 -1.8502
 6016SOL     OW29509   3.771   0.305   7.601 -0.7944  0.2590  0.2703
 6016SOL    HW129510   3.759   0.317   7.507 -1.3307  2.1969  0.5881
 6016SOL    HW229511   3.841   0.239   7.600  1.0620  2.2834 -1.7274
 6017SOL     OW29512   3.984   1.836   4.795  0.5373 -0.2481 -0.5884
 6017SOL    HW129513   4.070   1.851   4.757  0.9826 -2.6606 -0.5407
 6017SOL    HW229514   4.015   1.841   4.885 -0.5630 -2.6411 -0.0885
 6018SOL     OW29515   1.991   1.949   7.486 -0.3843 -0.1648  0.6005
 6018SOL    HW129516   1.918   2.010   7.493 -0.0408  0.4166 -0.7694
 6018SOL    HW229517   2.050   1.968   7.559 -1.1456 -1.3097  1.5225
 6019SOL     OW29518   4.694   1.353   3.631 -0.0557 -0.2142 -0.2231
 6019SOL    HW129519   4.663   1.277   3.680  0.3987  0.6392  1.3829
 6019SOL    HW229520   4.614   1.406   3.634  0.3285  0.3659 -0.1996
 6020SOL     OW29521   1.056   2.285  15.703  0.1105  0.0635 -0.6286
 6020SOL    HW129522   1.055   2.330  15.618 -0.5712  1.3473  0.0513
 6020SOL    HW229523   0.969   2.248  15.718  2.0138 -3.1725  2.2250
 6021SOL     OW29524   3.834   0.563   3.528 -0.4368  0.1091  0.1753
 6021SOL    HW129525   3.858   0.470   3.520 -0.9708  0.2890 -3.7252
 6021SOL    HW229526   3.773   0.568   3.454 -1.9017 -2.3418  1.2314
 6022SOL     OW29527   3.786   2.215   6.029  0.3171  0.3979 -0.2117
 6022SOL    HW129528   3.782   2.216   6.125 -0.1122  0.0166 -0.2238
 6022SOL    HW229529   3.871   2.257   6.031  0.3136  0.3347  1.6657
 6023SOL     OW29530   3.517   2.239   6.017 -0.0671 -0.4485  0.3417
 6023SOL    HW129531   3.613   2.238   6.010 -0.1719  1.8608 -1.2805
 6023SOL    HW229532   3.499   2.300   6.088 -1.8408 -1.7012  0.9550
 6024SOL     OW29533   3.179   3.757   1.170 -0.3371  0.2977 -0.6172
 6024SOL    HW129534   3.246   3.722   1.229  0.2396  1.4787 -0.5858
 6024SOL    HW229535   3.120   3.798   1.232  0.6601  0.0593  0.5035
 6025SOL     OW29536   2.924   0.182   6.793  0.1769  0.9006  0.0219
 6025SOL    HW129537   2.946   0.200   6.702 -0.7373  1.7109 -0.0454
 6025SOL    HW229538   2.946   0.265   6.835 -0.9594  1.5816 -0.7289
 6026SOL     OW29539   2.082   0.003   5.532  0.4600 -0.1343  0.0384
 6026SOL    HW129540   2.076   0.038   5.442  2.1997 -0.3161 -0.1504
 6026SOL    HW229541   2.004   0.047   5.565  1.1735  0.1649  1.3117
 6027SOL     OW29542   0.049   2.216   7.736 -0.3158 -0.1577 -0.1768
 6027SOL    HW129543   0.086   2.302   7.755  0.3019 -0.2086 -1.1453
 6027SOL    HW229544   0.136   2.181   7.718 -0.9060  0.1288 -3.6271
 6028SOL     OW29545   3.855   0.656  15.452  0.0691  0.0968  0.3733
 6028SOL    HW129546   3.768   0.616  15.444 -0.0996  0.6266 -0.4127
 6028SOL    HW229547   3.862   0.679  15.360  0.9664  1.5078  0.7937
 6029SOL     OW29548   0.846   1.076   5.243 -0.0809 -0.4357  0.1771
 6029SOL    HW129549   0.781   1.133   5.284  1.3867  0.4511  1.2468
 6029SOL    HW229550   0.822   0.990   5.276  1.1696 -0.1140  1.8871
 6030SOL     OW29551   3.189   0.586   8.195 -0.0831  0.0579 -0.8779
 6030SOL    HW129552   3.108   0.535   8.206  0.3731 -0.6021 -0.5069
 6030SOL    HW229553   3.161   0.661   8.248  2.2552 -2.1857  3.6167
 6031SOL     OW29554   1.130   1.485   5.769 -0.4111  0.1478 -0.0808
 6031SOL    HW129555   1.162   1.505   5.857 -1.3647 -1.2708  0.5839
 6031SOL    HW229556   1.047   1.440   5.783  0.5788 -1.6710 -0.0466
 6032SOL     OW29557   0.839   1.165   6.475  0.3272 -0.7772 -0.1997
 6032SOL    HW129558   0.922   1.194   6.512 -0.7211  0.6442  1.0381
 6032SOL    HW229559   0.805   1.133   6.559 -0.0886 -1.0484 -0.4655
 6033SOL     OW29560   0.193   3.510   5.192 -0.0447 -0.2610  0.8258
 6033SOL    HW129561   0.100   3.524   5.178 -0.1798 -0.2790  1.7647
 6033SOL    HW229562   0.204   3.584   5.251 -2.4130 -1.7848  3.1426
 6034SOL     OW29563   3.415   3.560   7.932  0.1619  0.0152 -0.0778
 6034SOL    HW129564   3.509   3.568   7.915  0.5708 -1.9269  1.2180
 6034SOL    HW229565   3.403   3.473   7.971  2.8108  0.0756  0.8939
 6035SOL     OW29566   0.979   4.256  12.375  0.5670 -0.2026 -0.1786
 6035SOL    HW129567   1.067   4.271  12.340  0.7951 -2.2909 -0.4598
 6035SOL    HW229568   1.006   4.257  12.467  0.6551  0.8219 -0.2086
 6036SOL     OW29569   2.308   3.685   4.210  0.7059 -0.0351 -0.3529
 6036SOL    HW129570   2.302   3.603   4.160 -0.3056  1.1353 -2.1711
 6036SOL    HW229571   2.272   3.752   4.152  1.7828  0.7651 -0.0864
 6037SOL     OW29572   2.178   3.588   4.794 -0.3694 -0.5046  0.6386
 6037SOL    HW129573   2.091   3.590   4.755 -0.9163  1.8207  2.0201
 6037SOL    HW229574   2.229   3.656   4.751  0.2420 -2.8968 -2.4965
 6038SOL     OW29575   2.500   3.032   6.796 -0.3094 -0.4971  0.2598
 6038SOL    HW129576   2.590   3.060   6.780 -0.0312 -2.1743 -1.0968
 6038SOL    HW229577   2.509   2.937   6.800  1.1761 -0.3091  1.2457
 6039SOL     OW29578   2.381   1.247   2.875  0.1035  0.2315  0.4619
 6039SOL    HW129579   2.301   1.266   2.827  0.2699 -0.2430 -0.0056
 6039SOL    HW229580   2.410   1.170   2.828 -1.0514  0.5530 -0.7606
 6040SOL     OW29581   2.232   3.611   0.612 -0.1268  0.6231  0.2495
 6040SOL    HW129582   2.189   3.525   0.610  0.9201  0.0669  1.2691
 6040SOL    HW229583   2.291   3.616   0.687 -0.7671 -0.3067  0.8060
 6041SOL     OW29584   2.514   2.877   3.279 -0.0301  0.2860  0.2740
 6041SOL    HW129585   2.543   2.932   3.352  0.5288 -1.5285  1.4374
 6041SOL    HW229586   2.444   2.932   3.245 -0.4272 -1.3754 -1.6234
 6042SOL     OW29587   2.312   2.119   3.121  0.4278 -0.2964  0.3254
 6042SOL    HW129588   2.256   2.168   3.181  0.3831 -0.2094  0.2144
 6042SOL    HW229589   2.305   2.028   3.148  3.0815 -0.6180 -0.0509
 6043SOL     OW29590   0.916   1.996   6.457  0.3270  0.3017  0.0779
 6043SOL    HW129591   0.961   1.925   6.503 -0.5187 -0.1167  0.2619
 6043SOL    HW229592   0.822   1.989   6.472  0.5261 -2.9176 -0.0196
 6044SOL     OW29593   1.103   1.933   3.628  0.1800  0.7278  0.3079
 6044SOL    HW129594   1.195   1.950   3.648  0.1153  0.6435  0.6712
 6044SOL    HW229595   1.079   1.889   3.710  0.5818  2.7065  1.4836
 6045SOL     OW29596   4.027   0.500  16.568 -0.1009 -0.1552 -0.5253
 6045SOL    HW129597   3.969   0.500  16.491 -1.9212  2.8947  0.8525
 6045SOL    HW229598   3.990   0.575  16.616 -1.3192 -0.6059 -0.7424
 6046SOL     OW29599   1.802   0.921   3.976  0.3110 -0.8855  0.0553
 6046SOL    HW129600   1.843   0.867   3.908 -0.8124 -1.4172 -0.1995
 6046SOL    HW229601   1.830   0.873   4.054  0.8140  0.4241  0.6692
 6047SOL     OW29602   3.301   4.387  10.743 -0.4486 -0.1256  0.1673
 6047SOL    HW129603   3.332   4.379  10.652  2.9301 -1.7433  1.4528
 6047SOL    HW229604   3.251   4.306  10.753  0.5387 -0.8817 -1.0311
 6048SOL     OW29605   2.695   1.890   2.997  0.3092  0.0368 -0.5943
 6048SOL    HW129606   2.679   1.795   2.997  0.3354  0.0378 -3.3497
 6048SOL    HW229607   2.623   1.922   2.943 -1.3720 -2.6044  0.0981
 6049SOL     OW29608   3.533   1.374   9.171 -0.5321 -0.5814 -0.0592
 6049SOL    HW129609   3.446   1.396   9.204  0.0907 -0.1670  1.2970
 6049SOL    HW229610   3.552   1.442   9.107 -1.0324  0.9879  1.4654
 6050SOL     OW29611   3.244   3.403  11.330  0.0136 -0.0911 -0.5269
 6050SOL    HW129612   3.285   3.422  11.414  0.0055 -2.2964 -0.0289
 6050SOL    HW229613   3.215   3.491  11.304  0.5783 -0.7624 -3.4258
 6051SOL     OW29614   2.544   3.777   6.459  0.3139  0.5584 -0.3700
 6051SOL    HW129615   2.456   3.743   6.441  0.8461  0.0295 -1.9817
 6051SOL    HW229616   2.532   3.863   6.498  1.8503 -0.2723  1.9264
 6052SOL     OW29617   2.815   1.458   2.247 -0.5325  0.6572 -0.4455
 6052SOL    HW129618   2.767   1.496   2.173 -1.8214 -1.8425 -0.8647
 6052SOL    HW229619   2.798   1.530   2.309 -0.0974 -1.4059  2.0302
 6053SOL     OW29620   2.567   2.163   1.070  0.0334 -0.2808  0.3250
 6053SOL    HW129621   2.551   2.112   1.149 -1.1875  0.7173  0.7124
 6053SOL    HW229622   2.646   2.119   1.037  0.6441  0.7369  0.4581
 6054SOL     OW29623   3.243   0.229   9.786 -0.1008  0.3530 -0.0565
 6054SOL    HW129624   3.218   0.195   9.700  0.5363  1.0658 -0.5222
 6054SOL    HW229625   3.238   0.324   9.772  0.3321  0.5601  1.2012
 6055SOL     OW29626   4.274   3.240   5.684 -0.0482  0.2905 -0.4020
 6055SOL    HW129627   4.279   3.300   5.610  0.1583 -0.3604 -0.9130
 6055SOL    HW229628   4.183   3.219   5.662 -0.1232 -0.2152  0.3812
 6056SOL     OW29629   0.318   2.585   0.489  0.0485  0.4563  0.2591
 6056SOL    HW129630   0.358   2.654   0.437  0.7490  1.0913  1.6423
 6056SOL    HW229631   0.378   2.512   0.480  0.3596  0.7208  0.2077
 6057SOL     OW29632   4.151   4.409   6.792 -0.1915  0.1392  0.0997
 6057SOL    HW129633   4.177   4.366   6.874  0.0630  0.9354  0.4383
 6057SOL    HW229634   4.108   4.488   6.826 -1.0867 -1.1666  2.0536
 6058SOL     OW29635   1.051   4.228   7.259  0.1082  0.1633  0.0793
 6058SOL    HW129636   1.120   4.229   7.192 -0.3456  0.5712 -0.3811
 6058SOL    HW229637   0.975   4.237   7.202 -1.3513 -0.6128  1.8918
 6059SOL     OW29638   0.784   3.678   3.162 -0.1231 -0.1558  0.6117
 6059SOL    HW129639   0.723   3.687   3.235 -1.4307  1.5276 -0.6900
 6059SOL    HW229640   0.855   3.641   3.215 -0.1875  1.2384  1.6651
 6060SOL     OW29641   1.704   2.832  16.578  0.6190 -0.4682  0.1523
 6060SOL    HW129642   1.751   2.912  16.558  1.3100 -1.0254 -0.4598
 6060SOL    HW229643   1.623   2.872  16.609 -0.1614 -1.2707 -0.8640
 6061SOL     OW29644   4.611   3.681  12.765 -0.9077 -0.2809 -0.7083
 6061SOL    HW129645   4.576   3.741  12.699 -0.8114  1.0266  0.4399
 6061SOL    HW229646   4.574   3.720  12.844  0.5406 -0.9242  0.2819
 6062SOL     OW29647   3.824   0.628   4.348  0.6055  0.0807  0.4514
 6062SOL    HW129648   3.877   0.685   4.404 -2.6565  3.3220  0.2328
 6062SOL    HW229649   3.746   0.685   4.348  0.0311 -0.7062  0.9723
 6063SOL     OW29650   3.542   1.170   5.182 -0.4580 -0.5356 -0.0323
 6063SOL    HW129651   3.607   1.160   5.112  0.1440 -1.4611  0.6598
 6063SOL    HW229652   3.554   1.260   5.211  0.7371 -0.8627  0.4925
 6064SOL     OW29653   0.509   4.504   7.045 -0.1896  0.3448 -0.0694
 6064SOL    HW129654   0.429   4.498   7.096 -1.0021 -0.1474 -1.3917
 6064SOL    HW229655   0.526   4.410   7.044 -0.3646  0.3047  2.3485
 6065SOL     OW29656   1.133   2.099   0.653  0.0866 -0.2444 -0.2945
 6065SOL    HW129657   1.129   2.041   0.577 -1.0663 -0.3322 -0.1550
 6065SOL    HW229658   1.217   2.146   0.652  0.6425 -1.2115  0.6274
 6066SOL     OW29659   2.833   1.410   6.268 -0.0120  0.6234  0.4023
 6066SOL    HW129660   2.915   1.455   6.246 -0.2049  1.5727  1.5782
 6066SOL    HW229661   2.857   1.327   6.309  4.2084  2.7450  2.2688
 6067SOL     OW29662   1.143   0.929   7.021 -0.3057 -0.0833 -0.0931
 6067SOL    HW129663   1.169   0.842   7.052 -0.1318  0.7310  2.0588
 6067SOL    HW229664   1.182   0.935   6.934 -1.2851  1.0289 -0.4579
 6068SOL     OW29665   0.226   3.679   3.969 -0.8459  0.6660 -0.1808
 6068SOL    HW129666   0.190   3.591   3.959 -0.7990  0.5363  0.7219
 6068SOL    HW229667   0.209   3.699   4.062  1.5071  1.2888  0.1286
 6069SOL     OW29668   3.633   2.735   4.595  0.3640 -0.3679 -0.7819
 6069SOL    HW129669   3.625   2.708   4.503 -3.0677 -0.3543 -0.4928
 6069SOL    HW229670   3.687   2.815   4.588 -0.4010  0.1166 -1.1452
 6070SOL     OW29671   0.515   2.706  12.418  0.0207 -0.1829  0.3901
 6070SOL    HW129672   0.551   2.795  12.428 -2.3571  0.6856  1.2799
 6070SOL    HW229673   0.593   2.651  12.416 -0.2989 -0.5815 -0.9639
 6071SOL     OW29674   2.611   1.045   1.740  0.1908 -0.5958  0.2256
 6071SOL    HW129675   2.679   1.112   1.739  0.0520 -0.4514  0.5015
 6071SOL    HW229676   2.648   0.979   1.798  1.1115  0.6354  1.0392
 6072SOL     OW29677   2.720   1.754  12.931 -0.3899 -0.3273 -0.0326
 6072SOL    HW129678   2.635   1.710  12.938  0.5792 -2.3321 -1.2051
 6072SOL    HW229679   2.683   1.837  12.900 -1.9149 -1.1339 -0.3888
 6073SOL     OW29680   2.427   1.877   2.372  0.0528  0.0297 -0.0789
 6073SOL    HW129681   2.449   1.800   2.424 -2.0353 -0.4388  0.0862
 6073SOL    HW229682   2.506   1.894   2.320 -0.8038  2.1083 -0.7246
 6074SOL     OW29683   0.128   0.449   8.090  0.4790  0.2662 -0.0415
 6074SOL    HW129684   0.053   0.502   8.063 -0.6815 -0.1859  2.2994
 6074SOL    HW229685   0.199   0.509   8.065 -0.6559  1.1709 -1.1029
 6075SOL     OW29686   1.856   2.224  15.966  0.0476  0.5818  0.2005
 6075SOL    HW129687   1.941   2.258  15.940  0.3448 -0.7370 -0.5474
 6075SOL    HW229688   1.853   2.139  15.922 -0.8002  0.3462  0.7100
 6076SOL     OW29689   0.884   4.193   7.019  0.0582  0.1020  0.0318
 6076SOL    HW129690   0.906   4.283   6.993 -1.5038  0.6851  0.7331
 6076SOL    HW229691   0.790   4.194   7.040 -0.0169 -0.4839 -0.2801
 6077SOL     OW29692   0.143   0.712  17.631 -0.7444 -0.0436 -0.7503
 6077SOL    HW129693   0.097   0.639  17.671 -0.2543 -0.4979 -1.0248
 6077SOL    HW229694   0.099   0.718  17.546 -1.5334 -1.1185 -0.4113
 6078SOL     OW29695   1.936   3.704   2.089 -0.4092 -0.0720 -0.1055
 6078SOL    HW129696   1.870   3.634   2.094 -1.2631  0.6187 -1.6377
 6078SOL    HW229697   1.907   3.738   2.004 -1.6493 -0.0396  0.3285
 6079SOL     OW29698   4.425   1.043   4.831  0.4484 -0.0907 -0.0910
 6079SOL    HW129699   4.497   1.103   4.812  0.3309  0.5817  1.5553
 6079SOL    HW229700   4.396   1.039   4.740  1.6761  2.5664 -0.5921
 6080SOL     OW29701   1.683   1.607   9.232 -0.1667 -0.1196 -0.1194
 6080SOL    HW129702   1.642   1.591   9.316  1.0342  0.6084  0.6158
 6080SOL    HW229703   1.671   1.702   9.227 -1.4041 -0.3790 -2.0554
 6081SOL     OW29704   2.254   0.793   1.716  0.2409 -0.0699  0.4525
 6081SOL    HW129705   2.319   0.731   1.748  0.8039  1.0190  1.4072
 6081SOL    HW229706   2.193   0.787   1.790 -0.1636 -1.5967 -0.0075
 6082SOL     OW29707   0.392   0.409  10.477  0.2080  0.4915  0.0565
 6082SOL    HW129708   0.392   0.425  10.571  2.0657 -2.0819  0.4688
 6082SOL    HW229709   0.395   0.499  10.443  0.2317  0.0981 -0.9981
 6083SOL     OW29710   3.189   3.829   7.359  0.2218 -0.5565 -0.0992
 6083SOL    HW129711   3.267   3.839   7.414  0.2255  1.2931 -0.4351
 6083SOL    HW229712   3.128   3.845   7.431 -1.2127  0.7309 -1.6098
 6084SOL     OW29713   4.354   1.869   2.713  0.4411  0.5904  0.3026
 6084SOL    HW129714   4.323   1.938   2.654  1.4548  1.1316  0.3892
 6084SOL    HW229715   4.285   1.868   2.779  1.3061 -0.6754  1.1839
 6085SOL     OW29716   2.017   1.912  16.615  0.1105  0.1255 -0.0221
 6085SOL    HW129717   1.935   1.959  16.628 -0.6860 -1.0352 -0.8169
 6085SOL    HW229718   2.065   1.932  16.695  2.2338  2.5043 -1.8560
 6086SOL     OW29719   2.000   3.678  16.072  0.2286  0.0891  0.7574
 6086SOL    HW129720   2.096   3.674  16.077  0.3112  0.3044 -0.8317
 6086SOL    HW229721   1.966   3.589  16.083 -2.8082  1.0601 -1.0769
 6087SOL     OW29722   3.867   3.742   4.057  0.0767  0.5512 -0.1880
 6087SOL    HW129723   3.912   3.754   4.141  1.1106 -2.3826 -0.3014
 6087SOL    HW229724   3.841   3.832   4.040  2.6774  1.6425  1.5951
 6088SOL     OW29725   1.886   2.536  15.624  0.4336  0.1562  0.0518
 6088SOL    HW129726   1.921   2.539  15.713 -2.4131 -0.8202  1.2175
 6088SOL    HW229727   1.932   2.466  15.577 -0.7236 -1.3032  1.0663
 6089SOL     OW29728   2.840   4.046   2.186  0.1332  0.3132  0.3828
 6089SOL    HW129729   2.755   4.066   2.147 -0.4298 -0.4484  1.2048
 6089SOL    HW229730   2.864   4.122   2.238 -1.7796  1.0602  0.1575
 6090SOL     OW29731   1.185   3.691  16.891  0.0950 -0.2949  0.4639
 6090SOL    HW129732   1.108   3.716  16.839 -0.6292  1.4786  2.3713
 6090SOL    HW229733   1.236   3.642  16.827  1.4246 -0.4776  1.6673
 6091SOL     OW29734   3.043   3.740   9.556  0.1011 -0.4387  0.2263
 6091SOL    HW129735   3.103   3.710   9.624 -0.5157  0.7439  1.2799
 6091SOL    HW229736   3.062   3.686   9.479 -0.1520  2.0479 -1.5683
 6092SOL     OW29737   2.871   1.751   2.105  0.6726  0.2559  0.1997
 6092SOL    HW129738   2.810   1.701   2.051  0.4349 -1.0615  1.6740
 6092SOL    HW229739   2.946   1.699   2.073  0.7998  0.6015 -0.0562
 6093SOL     OW29740   0.786   2.097   2.081  0.1876  0.6958  0.1745
 6093SOL    HW129741   0.833   2.071   2.160 -1.0829 -0.2919  0.6057
 6093SOL    HW229742   0.849   2.128   2.016 -0.6849 -0.0163 -1.0090
 6094SOL     OW29743   2.577   0.236   5.314 -0.0883 -0.2102 -0.4304
 6094SOL    HW129744   2.657   0.188   5.290  0.5636  0.1465  1.0189
 6094SOL    HW229745   2.610   0.323   5.333  0.5613 -0.3100 -1.1093
 6095SOL     OW29746   3.247   3.699   8.787 -0.0826 -0.1451 -1.0112
 6095SOL    HW129747   3.223   3.768   8.724  1.3069  1.9126  0.7030
 6095SOL    HW229748   3.191   3.634   8.744 -0.3570 -1.6455  1.6091
 6096SOL     OW29749   2.321   2.925  12.133 -0.2461  0.3197  0.7470
 6096SOL    HW129750   2.306   2.831  12.126 -2.7457  0.7077  0.8828
 6096SOL    HW229751   2.348   2.940  12.224 -0.5642 -0.3662  0.9577
 6097SOL     OW29752   3.976   1.671   7.627  0.0291  0.8695  0.0417
 6097SOL    HW129753   3.996   1.673   7.721 -0.8028 -1.2765  0.2455
 6097SOL    HW229754   3.887   1.706   7.628 -0.7787 -1.1363 -3.5917
 6098SOL     OW29755   0.771   1.065   8.104 -0.2865  0.2412 -0.2458
 6098SOL    HW129756   0.753   1.003   8.034  1.9566 -1.6433  0.8681
 6098SOL    HW229757   0.694   1.049   8.159  0.5674  2.6350  1.7025
 6099SOL     OW29758   1.254   0.633   4.694 -0.1054  0.1185 -0.5636
 6099SOL    HW129759   1.317   0.704   4.679 -0.9579  1.0615  0.2644
 6099SOL    HW229760   1.186   0.665   4.634  0.7442  1.7199 -0.6829
 6100SOL     OW29761   0.932   4.419  12.849 -0.0327  0.8088 -0.3867
 6100SOL    HW129762   0.975   4.490  12.896  0.8272  0.5173 -0.7282
 6100SOL    HW229763   0.847   4.459  12.830 -0.0682  1.2150  0.6561
 6101SOL     OW29764   0.325   2.523  17.195 -0.3440 -0.6155  0.1986
 6101SOL    HW129765   0.403   2.541  17.143  0.6348 -0.2699  1.8088
 6101SOL    HW229766   0.294   2.608  17.226 -0.4908 -0.6842  0.2413
 6102SOL     OW29767   2.967   1.383   8.636 -0.1134  0.5119 -0.0908
 6102SOL    HW129768   3.041   1.325   8.620 -1.9429 -0.9337 -3.3695
 6102SOL    HW229769   2.882   1.342   8.620 -0.4761  0.5604  1.6672
 6103SOL     OW29770   2.533   1.390   3.794  0.4486 -0.5002 -0.1157
 6103SOL    HW129771   2.544   1.442   3.874 -0.8856  0.1498 -0.3572
 6103SOL    HW229772   2.443   1.412   3.769  1.0982 -0.4045 -2.3405
 6104SOL     OW29773   1.016   1.348   4.826  0.1081 -1.0698  0.8435
 6104SOL    HW129774   1.110   1.338   4.813  0.2708 -1.0940  2.0423
 6104SOL    HW229775   1.018   1.368   4.919  0.6091  1.1315  0.3567
 6105SOL     OW29776   1.829   2.559  16.097 -0.3141 -0.2981  0.3366
 6105SOL    HW129777   1.752   2.509  16.069 -1.2147  0.5471  1.3080
 6105SOL    HW229778   1.823   2.523  16.185 -1.3290  0.8685  0.7447
 6106SOL     OW29779   3.876   1.360   3.897  0.2307 -0.1257  0.0231
 6106SOL    HW129780   3.961   1.366   3.940  0.8573 -1.0497 -1.0808
 6106SOL    HW229781   3.877   1.453   3.878  0.6374  0.0560  0.9485
 6107SOL     OW29782   3.333   2.889   2.558 -0.5793 -0.2159 -0.1104
 6107SOL    HW129783   3.263   2.943   2.594 -0.2834  0.1062 -0.0139
 6107SOL    HW229784   3.291   2.803   2.552 -0.4587 -0.2674 -0.2388
 6108SOL     OW29785   2.407   1.041   3.361  0.1495 -0.1571 -0.4354
 6108SOL    HW129786   2.458   1.112   3.400  1.3096 -1.3168  0.1668
 6108SOL    HW229787   2.460   1.042   3.281  1.3645 -2.3684  0.3459
 6109SOL     OW29788   2.274   1.441  13.107  0.1687 -0.1099 -0.3172
 6109SOL    HW129789   2.344   1.500  13.137 -1.7422  1.3155  1.3262
 6109SOL    HW229790   2.273   1.375  13.176 -0.9635 -1.5926 -1.7648
 6110SOL     OW29791   1.461   2.374   5.534 -0.1758 -0.0183 -0.6536
 6110SOL    HW129792   1.538   2.407   5.579  0.1086 -3.3798  1.3239
 6110SOL    HW229793   1.497   2.299   5.486  3.3668  0.7809  0.7559
 6111SOL     OW29794   0.391   4.099   8.764 -0.7100  0.0081 -0.4604
 6111SOL    HW129795   0.435   4.112   8.849  1.0980 -1.2380 -1.1921
 6111SOL    HW229796   0.324   4.044   8.804  0.1085  0.7270  1.9245
 6112SOL     OW29797   4.480   3.216  17.288  0.1794 -0.4435  0.1178
 6112SOL    HW129798   4.558   3.196  17.338  1.0416 -2.2544 -1.9779
 6112SOL    HW229799   4.495   3.308  17.266 -1.5332  0.5267  2.9871
 6113SOL     OW29800   1.612   1.785   4.724 -0.5093 -0.4183  0.5775
 6113SOL    HW129801   1.565   1.705   4.700  1.3855 -1.9474  1.9749
 6113SOL    HW229802   1.564   1.855   4.680  0.8669  0.9398  1.2446
 6114SOL     OW29803   4.333   3.929   6.546 -0.6996 -0.2928 -0.0092
 6114SOL    HW129804   4.426   3.906   6.554 -1.0983 -1.8880  0.1727
 6114SOL    HW229805   4.326   4.002   6.608 -0.5512  1.3524 -1.9486
 6115SOL     OW29806   3.029   0.385   8.995 -0.3017 -0.1457 -0.0126
 6115SOL    HW129807   3.095   0.387   8.926 -0.0668  0.3568  0.2255
 6115SOL    HW229808   3.026   0.478   9.016  1.3417 -0.4126  1.4817
 6116SOL     OW29809   4.290   2.245  14.294  0.3191 -0.2970  0.3021
 6116SOL    HW129810   4.244   2.324  14.321  1.3518 -0.6042  2.9734
 6116SOL    HW229811   4.269   2.240  14.200 -0.1638 -0.1093  0.4037
 6117SOL     OW29812   1.909   3.396   6.168  0.0395 -0.6069  0.2583
 6117SOL    HW129813   1.867   3.472   6.208  2.1718  0.5102  0.3816
 6117SOL    HW229814   1.843   3.335   6.203 -0.6165 -0.1808 -0.2323
 6118SOL     OW29815   4.149   0.470   4.722 -0.3734 -0.4837  0.8694
 6118SOL    HW129816   4.083   0.437   4.660 -0.9472  1.6797  0.3217
 6118SOL    HW229817   4.149   0.396   4.783 -1.1974 -1.2135 -0.0108
 6119SOL     OW29818   0.547   3.834  14.233 -0.0426  0.5238  0.5032
 6119SOL    HW129819   0.496   3.910  14.260 -1.3143 -0.1123 -0.1049
 6119SOL    HW229820   0.478   3.775  14.203 -0.5425  0.9439  0.8253
 6120SOL     OW29821   0.424   0.021  14.873 -0.2251 -0.1231 -0.0030
 6120SOL    HW129822   0.389   4.706  14.793 -1.0797  3.1412 -1.3135
 6120SOL    HW229823   0.493   0.075  14.835  1.7438 -1.6085  1.4787
 6121SOL     OW29824   0.462   3.506  15.758 -0.5556 -0.2405 -0.6531
 6121SOL    HW129825   0.415   3.560  15.821  0.1043 -2.3093  1.6462
 6121SOL    HW229826   0.516   3.452  15.817 -1.3078  0.3684  0.6049
 6122SOL     OW29827   3.075   1.768  17.125  0.4277  0.1074 -0.7604
 6122SOL    HW129828   3.016   1.796  17.055 -1.5319 -0.2451  0.7447
 6122SOL    HW229829   3.107   1.852  17.158  1.3324  0.0375 -1.4838
 6123SOL     OW29830   2.711   0.759   0.981  0.4829 -0.2590  0.5415
 6123SOL    HW129831   2.782   0.717   1.030  1.9320  0.1412 -1.1949
 6123SOL    HW229832   2.757   0.834   0.944 -1.0717  0.3143 -0.2108
 6124SOL     OW29833   1.036   1.365  15.445  0.4962  0.2572  0.1912
 6124SOL    HW129834   0.943   1.372  15.425  0.1531  0.7189  1.9481
 6124SOL    HW229835   1.030   1.288  15.501 -1.3589  0.5744  0.4271
 6125SOL     OW29836   2.101   4.054   0.356 -0.2539  0.2251  0.1678
 6125SOL    HW129837   2.124   4.014   0.440 -1.5650 -0.9310 -0.0284
 6125SOL    HW229838   2.160   4.017   0.290 -0.2707  0.0906  0.2280
 6126SOL     OW29839   2.341   3.646  14.233 -0.1289 -0.2063  0.5849
 6126SOL    HW129840   2.381   3.624  14.149 -1.8915  0.4123 -0.3986
 6126SOL    HW229841   2.361   3.739  14.231 -0.9713 -0.0395  0.0073
 6127SOL     OW29842   2.666   1.077   7.649 -0.2438  0.2748 -0.1552
 6127SOL    HW129843   2.735   1.125   7.603  0.8440 -2.9099 -1.8678
 6127SOL    HW229844   2.620   1.150   7.691  2.2128  0.0599  2.9277
 6128SOL     OW29845   0.194   4.682  12.091  0.2381  0.1044 -0.2434
 6128SOL    HW129846   0.265   4.630  12.129 -0.7778 -1.7828 -0.9072
 6128SOL    HW229847   0.136   4.699  12.164  0.0239  2.6956 -1.0181
 6129SOL     OW29848   0.199   2.369  16.399  0.0702  0.3879  0.1985
 6129SOL    HW129849   0.116   2.339  16.361  0.0776  0.4196  0.1579
 6129SOL    HW229850   0.239   2.283  16.392  1.5399  1.2992 -2.4629
 6130SOL     OW29851   1.271   2.846   9.579  0.4476 -0.0393 -0.8285
 6130SOL    HW129852   1.269   2.923   9.523 -2.1927  0.7989  0.4313
 6130SOL    HW229853   1.357   2.805   9.572  0.5848 -0.2880  2.3179
 6131SOL     OW29854   2.828   0.478  15.902 -0.1319 -0.4946  0.3408
 6131SOL    HW129855   2.918   0.500  15.927 -0.7824 -0.6922  2.7910
 6131SOL    HW229856   2.789   0.560  15.872  0.0310 -0.6800 -0.4030
 6132SOL     OW29857   2.011   0.234   9.862  0.1834  0.5322 -0.3425
 6132SOL    HW129858   1.945   0.185   9.812 -0.9313  2.2658 -0.5719
 6132SOL    HW229859   2.008   0.322   9.824  1.9390  0.1794 -1.2734
 6133SOL     OW29860   4.532   0.272   7.196  0.5756 -0.2276  0.1465
 6133SOL    HW129861   4.483   0.210   7.141  0.5607  1.9307 -2.3212
 6133SOL    HW229862   4.567   0.210   7.260 -0.6122  0.1259  1.1527
 6134SOL     OW29863   2.373   3.044  14.809  0.0010  0.1728 -0.0504
 6134SOL    HW129864   2.334   3.094  14.880  1.9069 -0.0418  1.1467
 6134SOL    HW229865   2.389   3.111  14.743  1.1904  0.6308  0.6918
 6135SOL     OW29866   2.969   1.708   5.747 -0.3978 -0.5073 -0.8170
 6135SOL    HW129867   2.894   1.763   5.769 -1.0349 -0.6969 -2.5231
 6135SOL    HW229868   3.036   1.773   5.727 -0.2906 -0.5540 -0.6189
 6136SOL     OW29869   2.482   2.976   1.144  0.0899 -0.3630  0.0001
 6136SOL    HW129870   2.459   2.886   1.164  1.5760 -1.0092 -1.1558
 6136SOL    HW229871   2.571   2.960   1.112  0.5933 -0.7570  1.5931
 6137SOL     OW29872   0.838   0.111   0.337  0.5604  0.0035 -0.1521
 6137SOL    HW129873   0.778   0.061   0.392  1.4778 -1.6784 -0.6732
 6137SOL    HW229874   0.898   0.145   0.403  0.0753  0.5431  0.0102
 6138SOL     OW29875   3.151   3.773   5.923  0.3042  0.0416  0.2216
 6138SOL    HW129876   3.164   3.778   6.018 -0.6254  1.1532  0.2824
 6138SOL    HW229877   3.060   3.799   5.911  0.5452  1.2037  0.9658
 6139SOL     OW29878   0.559   4.650   7.949  0.5099 -1.0469  0.6307
 6139SOL    HW129879   0.554   4.610   7.862 -0.0297  0.7418 -0.1555
 6139SOL    HW229880   0.648   4.622   7.972  0.6358  0.2442  1.7002
 6140SOL     OW29881   2.497   0.828   5.443  0.1581  0.3750 -0.6054
 6140SOL    HW129882   2.521   0.920   5.437 -1.0442  0.6037 -2.0032
 6140SOL    HW229883   2.573   0.787   5.485 -0.4447  0.6548  0.7719
 6141SOL     OW29884   1.827   2.528   4.675  0.0047  0.3806  0.0471
 6141SOL    HW129885   1.824   2.569   4.588  1.5805  2.0878  0.8024
 6141SOL    HW229886   1.916   2.551   4.699  0.2432  0.7671 -1.2176
 6142SOL     OW29887   0.099   1.096   6.799  0.9046 -0.2647 -0.1359
 6142SOL    HW129888   0.020   1.049   6.828  1.4001 -0.5377  0.7475
 6142SOL    HW229889   0.154   1.024   6.767 -1.3168 -1.0334 -2.2658
 6143SOL     OW29890   3.743   2.755  11.146 -0.0175 -0.2431 -0.2172
 6143SOL    HW129891   3.675   2.794  11.200  1.5021  0.2671  1.3120
 6143SOL    HW229892   3.790   2.828  11.107  0.4059  0.7649  2.2481
 6144SOL     OW29893   2.032   2.577   3.353  0.4382  0.3600  0.5643
 6144SOL    HW129894   1.956   2.540   3.309 -0.4458  1.5404  1.1125
 6144SOL    HW229895   1.995   2.665   3.356 -1.0764 -0.3049  1.3489
 6145SOL     OW29896   1.209   4.656   8.385  0.0482 -0.0975 -0.1479
 6145SOL    HW129897   1.281   4.717   8.369 -1.2343  0.8092 -2.4784
 6145SOL    HW229898   1.207   4.625   8.294  1.1656  0.8698 -0.4934
 6146SOL     OW29899   2.604   2.349  13.061  0.6829 -0.2251  0.1152
 6146SOL    HW129900   2.532   2.289  13.044  0.5525 -0.5975  2.0415
 6146SOL    HW229901   2.645   2.300  13.132 -0.7811  0.3259  1.3394
 6147SOL     OW29902   2.655   1.961   4.796  0.0451  0.2659 -0.3596
 6147SOL    HW129903   2.698   2.035   4.838 -0.8820  0.4063  0.3528
 6147SOL    HW229904   2.704   1.949   4.714  1.2169 -2.5710  0.7459
 6148SOL     OW29905   3.242   1.128   7.376 -0.2544  0.1907  0.2014
 6148SOL    HW129906   3.244   1.063   7.306  3.6063  0.9513 -0.3962
 6148SOL    HW229907   3.218   1.202   7.320  0.0578 -0.2705 -0.5354
 6149SOL     OW29908   3.341   3.007   7.689  0.0245  0.0270  0.5102
 6149SOL    HW129909   3.375   2.978   7.774 -1.0930 -0.5499  0.7587
 6149SOL    HW229910   3.412   3.062   7.655  0.9819  0.0554  2.5376
 6150SOL     OW29911   2.151   1.514  10.473 -0.1610  0.1996  0.1194
 6150SOL    HW129912   2.235   1.555  10.495  0.5704 -2.5225  2.3235
 6150SOL    HW229913   2.094   1.554  10.538 -0.5618 -2.1205  1.1918
 6151SOL     OW29914   3.552   3.005   7.862  0.3345 -0.2424  0.1484
 6151SOL    HW129915   3.566   3.085   7.912 -1.9884  0.9767 -1.1339
 6151SOL    HW229916   3.625   3.000   7.800  1.2984  1.2576  1.1648
 6152SOL     OW29917   3.605   0.147  11.751 -0.4300 -0.1098 -0.0589
 6152SOL    HW129918   3.600   0.146  11.847  1.5043  1.8282  0.0598
 6152SOL    HW229919   3.644   0.233  11.739  1.1416 -0.6165  1.4627
 6153SOL     OW29920   4.038   2.504  11.440  0.1024  0.5486  0.3260
 6153SOL    HW129921   3.985   2.458  11.505  1.1082 -0.3261  0.5332
 6153SOL    HW229922   4.108   2.545  11.491  0.9765 -0.3825 -0.1013
 6154SOL     OW29923   4.115   1.493   2.382  0.3161  0.1995 -0.3610
 6154SOL    HW129924   4.058   1.525   2.313 -1.2679  0.4959  1.0739
 6154SOL    HW229925   4.128   1.402   2.355 -0.6029  0.5871 -2.0851
 6155SOL     OW29926   0.659   3.593   5.558 -0.4253  0.4087 -0.2736
 6155SOL    HW129927   0.614   3.634   5.632 -1.4094 -2.2153  0.6101
 6155SOL    HW229928   0.597   3.603   5.486 -2.0473 -0.2900  1.0226
 6156SOL     OW29929   4.675   2.063   7.941 -0.1627  0.5478 -0.9768
 6156SOL    HW129930   4.697   2.124   7.871 -1.6423  1.8288 -0.3416
 6156SOL    HW229931   4.712   2.107   8.017  1.4551  0.3443 -1.6624
 6157SOL     OW29932   1.787   4.612   7.092 -0.0065  0.2342 -0.4169
 6157SOL    HW129933   1.765   4.702   7.113  0.9709  0.2842  0.4302
 6157SOL    HW229934   1.830   4.620   7.007 -1.2176 -0.0896 -1.0630
 6158SOL     OW29935   3.477   0.637   4.554  0.2908  0.1154  0.0947
 6158SOL    HW129936   3.399   0.581   4.552 -0.7470  1.5120  1.0168
 6158SOL    HW229937   3.461   0.686   4.474 -1.9839  0.7397  0.9229
 6159SOL     OW29938   1.733   4.547   9.599 -0.4580  0.2834  0.0761
 6159SOL    HW129939   1.640   4.568   9.597 -0.8554 -1.5608 -0.6078
 6159SOL    HW229940   1.760   4.580   9.513  0.5688 -0.8289 -0.0204
 6160SOL     OW29941   3.963   1.678   7.068 -0.1606 -0.0695 -0.3118
 6160SOL    HW129942   3.948   1.666   7.162  0.6263 -0.8442 -0.2853
 6160SOL    HW229943   3.979   1.772   7.065  2.2738 -0.5269 -1.7282
 6161SOL     OW29944   4.094   2.603  16.931 -0.2512  0.1231 -0.0133
 6161SOL    HW129945   4.068   2.686  16.890 -0.7765  0.1513  0.3729
 6161SOL    HW229946   4.086   2.549  16.853  0.4647 -0.1155  0.0857
 6162SOL     OW29947   0.196   3.997   6.633  0.4497  0.0527 -0.3884
 6162SOL    HW129948   0.104   4.018   6.619  0.8952  0.1640 -3.1525
 6162SOL    HW229949   0.203   3.918   6.688 -1.4654  0.0550 -0.1459
 6163SOL     OW29950   1.045   3.267   4.929 -0.1796 -0.1831  0.0509
 6163SOL    HW129951   0.984   3.327   4.887 -0.1877  0.0512  0.3981
 6163SOL    HW229952   0.979   3.198   4.932  0.8780 -1.2252 -0.7134
 6164SOL     OW29953   1.777   3.000   6.138  0.0196 -0.8139 -0.5943
 6164SOL    HW129954   1.799   3.078   6.188 -0.7974 -0.1824 -1.2232
 6164SOL    HW229955   1.851   2.938   6.139  0.6773 -0.0518 -1.9141
 6165SOL     OW29956   3.964   2.106  14.267 -0.1136 -0.4312  0.5033
 6165SOL    HW129957   4.017   2.028  14.282  0.8373 -0.2270 -1.7707
 6165SOL    HW229958   3.880   2.079  14.303 -0.2100 -1.4256 -0.4967
 6166SOL     OW29959   2.208   0.165   6.750  0.0002  0.2203 -0.9416
 6166SOL    HW129960   2.237   0.256   6.739  0.5150  0.5389  2.8075
 6166SOL    HW229961   2.288   0.126   6.785 -0.6786  1.9004  2.4842
 6167SOL     OW29962   0.256   0.992   2.474 -0.2854 -0.1340  0.4717
 6167SOL    HW129963   0.196   0.917   2.464 -1.9879  1.4669 -1.3831
 6167SOL    HW229964   0.248   1.037   2.390 -2.2493  1.7423  1.6740
 6168SOL     OW29965   3.259   0.688   4.191  0.4620 -0.1763 -0.1294
 6168SOL    HW129966   3.168   0.709   4.172  0.3053 -0.2697  0.5207
 6168SOL    HW229967   3.291   0.778   4.194 -0.9289  0.3647 -1.5597
 6169SOL     OW29968   0.208   2.998   6.484  0.0980  0.0755  1.0012
 6169SOL    HW129969   0.114   3.016   6.483  0.3764  1.4454  0.1410
 6169SOL    HW229970   0.223   3.023   6.393  1.5864 -0.7116  1.0372
 6170SOL     OW29971   0.626   1.362  10.667 -0.0971  0.1305  0.8408
 6170SOL    HW129972   0.536   1.378  10.640 -0.0833 -0.9302  0.1624
 6170SOL    HW229973   0.653   1.452  10.687  0.4516  0.0138  0.6214
 6171SOL     OW29974   3.359   4.616   5.673 -0.5839 -0.1838 -0.0759
 6171SOL    HW129975   3.428   4.603   5.608 -0.7820  0.2045 -0.3611
 6171SOL    HW229976   3.409   4.597   5.752 -5.0788 -2.8679  2.1389
 6172SOL     OW29977   4.700   4.357  15.462  0.2031 -0.8423  0.4512
 6172SOL    HW129978   0.039   4.406  15.412  0.1248 -1.0546  0.1385
 6172SOL    HW229979   4.690   4.424  15.530  0.1450  0.8121 -1.1822
 6173SOL     OW29980   3.960   2.537   2.962 -0.5125 -0.0052 -0.3928
 6173SOL    HW129981   3.909   2.462   2.933 -0.5972  0.8043 -2.3695
 6173SOL    HW229982   3.918   2.595   2.899 -0.9002  0.2675  0.1185
 6174SOL     OW29983   2.729   2.437   4.910 -0.4241  0.5971 -0.1262
 6174SOL    HW129984   2.780   2.504   4.956  0.9303 -0.0703 -0.6742
 6174SOL    HW229985   2.656   2.482   4.868  0.2587 -0.3615 -2.3426
 6175SOL     OW29986   2.132   3.925   8.830 -0.3217  0.2055  0.2466
 6175SOL    HW129987   2.227   3.913   8.828 -0.5041 -0.6310 -2.9757
 6175SOL    HW229988   2.102   3.906   8.919 -2.5216  0.9799 -0.3505
 6176SOL     OW29989   0.810   1.395   4.312  0.3986 -0.0072 -0.4190
 6176SOL    HW129990   0.778   1.341   4.384 -2.0789  0.3906 -1.2163
 6176SOL    HW229991   0.746   1.386   4.242  1.0785 -0.1042 -1.0242
 6177SOL     OW29992   3.827   2.173   2.766 -0.4576  0.7318 -0.0309
 6177SOL    HW129993   3.896   2.115   2.734 -0.6961  1.0801 -1.1562
 6177SOL    HW229994   3.857   2.259   2.738  0.6272  0.7414  1.1275
 6178SOL     OW29995   4.504   4.678   9.147  0.6276 -0.5213  0.6543
 6178SOL    HW129996   4.428   4.632   9.180  0.1894 -1.6096 -1.8432
 6178SOL    HW229997   4.474   0.042   9.145 -0.4082 -0.9210 -1.5342
 6179SOL     OW29998   0.032   4.186  10.571  0.4430 -0.0070  0.5046
 6179SOL    HW129999   0.077   4.267  10.549 -0.8671  0.0983 -1.8245
 6179SOL    HW230000   4.671   4.205  10.537 -0.2699 -0.7872  1.8760
 6180SOL     OW30001   1.545   0.051  12.201  0.0451 -0.2130 -0.1006
 6180SOL    HW130002   1.500   4.693  12.211  0.7654 -0.7341 -1.3656
 6180SOL    HW230003   1.473   0.109  12.179 -0.0023 -0.4960 -0.6835
 6181SOL     OW30004   1.611   2.986   0.604  0.2937 -0.4434  0.2961
 6181SOL    HW130005   1.668   3.046   0.652  0.0353  0.1899 -0.1909
 6181SOL    HW230006   1.654   2.985   0.518  0.3122  0.8730  0.2989
 6182SOL     OW30007   1.735   1.103   1.743 -0.5066  0.3952 -0.6278
 6182SOL    HW130008   1.787   1.026   1.764  0.2944  0.9852 -0.4271
 6182SOL    HW230009   1.766   1.154   1.818  0.7241  0.8538 -1.4342
 6183SOL     OW30010   0.410   2.008   4.436  0.3586  0.1605 -0.0696
 6183SOL    HW130011   0.370   2.092   4.462 -0.1965  0.2509 -1.2036
 6183SOL    HW230012   0.352   1.944   4.477  0.3641  0.1113 -0.1393
 6184SOL     OW30013   0.275   2.502   4.468  0.1444 -0.3427 -0.4386
 6184SOL    HW130014   0.260   2.510   4.562  0.4716  1.0111 -0.4999
 6184SOL    HW230015   0.308   2.591   4.451  1.5383 -0.8490 -0.3978
 6185SOL     OW30016   3.726   2.316  14.392  0.4633  0.8005  0.6921
 6185SOL    HW130017   3.818   2.342  14.406  0.7165  2.1725 -3.7131
 6185SOL    HW230018   3.728   2.225  14.419 -2.0111  0.9910  1.4647
 6186SOL     OW30019   0.980   0.149   2.291  0.4695  0.1485  0.2797
 6186SOL    HW130020   0.951   0.089   2.223 -0.3982  1.5372 -0.5611
 6186SOL    HW230021   0.933   0.227   2.260  1.3016  0.5785  0.1059
 6187SOL     OW30022   2.967   1.183  17.254  0.2054  0.2233  0.3539
 6187SOL    HW130023   3.027   1.144  17.317  0.0157  1.0184  1.0168
 6187SOL    HW230024   2.982   1.276  17.270  1.8311  0.2233 -1.2610
 6188SOL     OW30025   2.705   1.547   4.212  0.6583  0.2067 -0.0751
 6188SOL    HW130026   2.631   1.499   4.175 -0.5599  1.5575  0.6125
 6188SOL    HW230027   2.663   1.631   4.233  1.7795  0.8774 -0.5539
 6189SOL     OW30028   4.031   0.092   6.623  0.2724  0.2182 -0.0545
 6189SOL    HW130029   4.060   0.075   6.533  2.9579  0.1323  0.8280
 6189SOL    HW230030   3.958   0.031   6.635  1.4334 -1.2639 -0.5058
 6190SOL     OW30031   1.839   3.072   5.829 -0.1223 -0.5352 -0.6372
 6190SOL    HW130032   1.781   3.065   5.754 -0.2910  1.5969 -0.7020
 6190SOL    HW230033   1.796   3.039   5.908  1.5587  1.1620  0.9905
 6191SOL     OW30034   2.617   2.236  12.476  0.1841  0.5651 -0.2180
 6191SOL    HW130035   2.600   2.216  12.568  0.0598 -0.0045 -0.3654
 6191SOL    HW230036   2.713   2.230  12.485 -0.0002 -0.1477  1.3539
 6192SOL     OW30037   1.614   1.541   8.025  0.4381 -0.5106 -0.1341
 6192SOL    HW130038   1.666   1.531   7.946 -0.4517 -0.7955 -0.6891
 6192SOL    HW230039   1.656   1.614   8.070 -0.1051  0.0472 -0.5182
 6193SOL     OW30040   3.829   3.827  16.495  0.5758  0.2048  0.5772
 6193SOL    HW130041   3.774   3.789  16.564 -0.7676  0.8767 -0.1239
 6193SOL    HW230042   3.796   3.915  16.477 -1.5147 -0.5851  0.5156
 6194SOL     OW30043   0.565   3.126   7.172 -0.2388 -0.3352 -0.0511
 6194SOL    HW130044   0.641   3.090   7.128  0.6605  1.8162 -0.2452
 6194SOL    HW230045   0.519   3.043   7.184 -1.9414  0.6379  0.1722
 6195SOL     OW30046   1.892   3.908  14.247  0.1002 -0.0738  0.6188
 6195SOL    HW130047   1.880   3.981  14.186 -0.1967  0.6156  1.5103
 6195SOL    HW230048   1.961   3.952  14.296 -1.6849  0.7079  2.4019
 6196SOL     OW30049   1.011   2.670   4.145  0.1934  0.0654 -0.0521
 6196SOL    HW130050   1.061   2.668   4.226  3.4515 -2.4876 -2.1588
 6196SOL    HW230051   1.038   2.755   4.109 -0.6012 -0.0149 -0.8468
 6197SOL     OW30052   2.898   0.469   1.557  0.3285  0.4219  0.4586
 6197SOL    HW130053   2.835   0.406   1.522 -1.4940  0.8625  2.9633
 6197SOL    HW230054   2.851   0.483   1.639  0.7366  0.9807  0.5965
 6198SOL     OW30055   1.446   2.431   3.329 -0.6029  0.7489  0.0300
 6198SOL    HW130056   1.456   2.478   3.247  0.9498  2.2940  1.0939
 6198SOL    HW230057   1.411   2.502   3.383 -1.3088 -0.4487  1.1618
 6199SOL     OW30058   4.154   0.011   3.583 -0.0175 -0.7258 -0.0223
 6199SOL    HW130059   4.184   4.704   3.667  0.0990  1.6735  0.8919
 6199SOL    HW230060   4.065   0.039   3.602  0.2630  0.2883 -0.2041
 6200SOL     OW30061   3.455   4.060   4.580  0.1981  0.5446 -0.0367
 6200SOL    HW130062   3.401   4.062   4.659  0.8422 -1.2102  0.4508
 6200SOL    HW230063   3.429   4.147   4.550  0.0599 -0.4214 -2.7045
 6201SOL     OW30064   0.884   3.748  13.353  0.3771 -0.3725 -0.0629
 6201SOL    HW130065   0.877   3.811  13.425 -0.1898  0.2379 -0.6534
 6201SOL    HW230066   0.921   3.796  13.280  1.0690 -0.8100 -0.0014
 6202SOL     OW30067   0.052   3.117   8.692  0.5649  0.3063 -0.2226
 6202SOL    HW130068   0.013   3.047   8.641  0.6905  0.5130 -0.5984
 6202SOL    HW230069   4.696   3.157   8.720 -1.0278 -2.7263 -0.5542
 6203SOL     OW30070   3.224   3.596   5.025  0.0022  0.2814 -0.3953
 6203SOL    HW130071   3.285   3.628   5.091  0.7323 -0.4850 -0.6847
 6203SOL    HW230072   3.277   3.531   4.978 -0.1049 -0.7643  0.9258
 6204SOL     OW30073   0.814   4.131   4.934  0.1319  0.0330  0.3097
 6204SOL    HW130074   0.780   4.052   4.891  0.9052 -1.2128  1.9767
 6204SOL    HW230075   0.908   4.116   4.922  0.0250 -0.6454  0.2803
 6205SOL     OW30076   2.389   2.905   4.333  0.5785  0.3169 -0.3356
 6205SOL    HW130077   2.465   2.877   4.383  0.5105  1.9834  0.7111
 6205SOL    HW230078   2.395   2.993   4.369  0.6795  0.4213 -0.6096
 6206SOL     OW30079   4.053   2.402   1.181  0.0643 -0.4387 -0.5300
 6206SOL    HW130080   4.112   2.440   1.116 -2.1940  3.2409 -0.3963
 6206SOL    HW230081   4.037   2.316   1.141  0.6625 -0.1044 -1.4880
 6207SOL     OW30082   3.553   3.436   7.205 -0.0246  0.5986 -0.7421
 6207SOL    HW130083   3.522   3.513   7.252 -3.7610 -1.3463  0.0009
 6207SOL    HW230084   3.599   3.383   7.271  0.6435 -0.2113 -1.8631
 6208SOL     OW30085   2.435   4.246   3.709 -0.6357  0.4296 -0.0405
 6208SOL    HW130086   2.414   4.211   3.622  1.2996 -2.6666  0.7464
 6208SOL    HW230087   2.348   4.241   3.749 -0.4394  2.4274  0.6265
 6209SOL     OW30088   4.222   2.061   2.552  0.2862  0.3402  0.2809
 6209SOL    HW130089   4.255   2.150   2.540 -0.6119  1.0121  2.8230
 6209SOL    HW230090   4.129   2.062   2.529  0.6677 -1.4670 -1.3496
 6210SOL     OW30091   4.369   3.865   4.401  0.6138 -0.1992  0.1088
 6210SOL    HW130092   4.380   3.912   4.318  0.3927  2.8297  1.7782
 6210SOL    HW230093   4.410   3.924   4.465 -0.1374 -0.0320  0.4458
 6211SOL     OW30094   2.469   3.143  13.565 -0.0626  0.5331 -0.0250
 6211SOL    HW130095   2.412   3.187  13.627  0.2961 -1.2504  1.5681
 6211SOL    HW230096   2.410   3.072  13.540 -1.2545  2.2388 -2.0651
 6212SOL     OW30097   1.669   3.621  12.622  0.6084  0.3797  0.1812
 6212SOL    HW130098   1.758   3.588  12.612 -0.0258 -1.3551  0.1029
 6212SOL    HW230099   1.636   3.574  12.698 -0.0902  0.8642  0.1756
 6213SOL     OW30100   3.008   4.315   5.213 -0.0407 -0.7341 -0.3769
 6213SOL    HW130101   3.096   4.337   5.180  0.3674 -1.7669  0.0195
 6213SOL    HW230102   3.006   4.395   5.266 -3.3617  0.8017 -2.8431
 6214SOL     OW30103   3.295   0.350   7.345 -0.1279  0.1268 -0.2707
 6214SOL    HW130104   3.245   0.308   7.415 -1.6978  0.9337 -0.9042
 6214SOL    HW230105   3.343   0.423   7.385  0.0658  0.4137 -1.0275
 6215SOL     OW30106   3.462   2.386   8.832  0.7078 -0.7616 -0.2564
 6215SOL    HW130107   3.370   2.361   8.823 -0.0671  1.1010  2.4267
 6215SOL    HW230108   3.469   2.459   8.769 -0.9960 -0.8025 -0.5158
 6216SOL     OW30109   0.090   3.076   6.005 -0.7692 -0.6483 -0.1809
 6216SOL    HW130110   0.036   3.012   5.959  0.3290 -1.5259 -0.2435
 6216SOL    HW230111   0.022   3.132   6.042 -0.0485 -0.6174  1.1128
 6217SOL     OW30112   2.541   1.952  13.103 -0.8914  0.3581 -0.8336
 6217SOL    HW130113   2.494   2.033  13.082 -0.5240  0.6847 -0.4061
 6217SOL    HW230114   2.584   1.944  13.017 -1.3319  0.2366 -1.0395
 6218SOL     OW30115   3.968   1.481   8.887 -0.3143  0.0679 -0.3853
 6218SOL    HW130116   4.046   1.528   8.858  0.0890 -1.6127 -2.0485
 6218SOL    HW230117   3.923   1.562   8.913  1.3018  0.4555  1.1990
 6219SOL     OW30118   4.599   2.336  14.183  0.5838 -0.0099 -0.7647
 6219SOL    HW130119   4.598   2.338  14.087 -1.6497  1.0322 -0.7078
 6219SOL    HW230120   4.691   2.353  14.206 -0.3385  2.2396  1.2280
 6220SOL     OW30121   0.924   3.740  13.057  0.6878  0.0813 -0.2731
 6220SOL    HW130122   0.901   3.771  12.969 -0.3304 -0.6301 -0.2572
 6220SOL    HW230123   1.003   3.697  13.026  1.4531  2.2918 -1.4159
 6221SOL     OW30124   3.860   0.034   3.548  0.0381  0.4157 -1.0789
 6221SOL    HW130125   3.787   0.031   3.610  0.3984  0.3071 -0.6503
 6221SOL    HW230126   3.846   4.671   3.515 -1.9339  0.5024 -0.4803
 6222SOL     OW30127   4.613   2.207  15.148  0.0189  0.0510  0.5782
 6222SOL    HW130128   4.593   2.280  15.207 -0.7764  0.8565 -0.7158
 6222SOL    HW230129   4.614   2.254  15.065  1.4126 -0.2640  0.4091
 6223SOL     OW30130   3.855   1.458   4.592 -0.1157 -0.2126 -0.1701
 6223SOL    HW130131   3.881   1.409   4.513 -1.2376  2.4022 -2.1776
 6223SOL    HW230132   3.941   1.474   4.632  0.5330 -1.7171 -0.9737
 6224SOL     OW30133   0.976   0.355   5.680  0.2751  0.2156 -0.4290
 6224SOL    HW130134   0.882   0.376   5.683  0.5371  1.5107 -1.2715
 6224SOL    HW230135   1.019   0.425   5.731 -0.0017  1.0628 -1.3565
 6225SOL     OW30136   0.355   4.404  16.761  0.1350 -0.7796 -0.3709
 6225SOL    HW130137   0.410   4.328  16.744 -0.0453 -1.3351  1.5274
 6225SOL    HW230138   0.298   4.366  16.827  1.6268 -2.2768  0.0357
 6226SOL     OW30139   3.079   0.313   3.609 -0.8497 -0.5143  0.3393
 6226SOL    HW130140   3.147   0.378   3.625 -2.4930  1.1485  0.5820
 6226SOL    HW230141   3.021   0.313   3.685 -1.7869  1.2917 -0.3667
 6227SOL     OW30142   3.005   4.068   1.707 -0.0389 -0.1836  0.0018
 6227SOL    HW130143   3.019   3.978   1.735 -0.4839  0.2702  1.6886
 6227SOL    HW230144   2.918   4.082   1.744 -0.3764 -3.3595  0.3970
 6228SOL     OW30145   3.788   0.327   9.180 -0.0780 -0.2421  0.9580
 6228SOL    HW130146   3.748   0.245   9.151 -1.5872  0.6553  0.5482
 6228SOL    HW230147   3.729   0.384   9.130  0.8763  0.1007  0.2078
 6229SOL     OW30148   1.594   3.237  11.607 -0.0269  0.3213 -0.1323
 6229SOL    HW130149   1.575   3.257  11.515 -1.1860  2.1752  0.5104
 6229SOL    HW230150   1.689   3.241  11.607 -0.0569  1.1534  0.6780
 6230SOL     OW30151   3.502   0.117  11.415 -0.1050 -0.1050 -0.3337
 6230SOL    HW130152   3.442   0.166  11.471 -1.2845 -0.4038 -1.3346
 6230SOL    HW230153   3.440   0.054  11.378  1.4516 -1.5588 -0.4940
 6231SOL     OW30154   0.967   1.467   4.018 -0.4112  0.2065 -0.0053
 6231SOL    HW130155   0.974   1.386   4.069 -2.7605 -0.2773 -0.4723
 6231SOL    HW230156   1.047   1.514   4.042 -0.4247  1.0212 -1.6245
 6232SOL     OW30157   4.086   3.407   8.066  0.1205 -0.5739 -0.5550
 6232SOL    HW130158   4.125   3.435   8.149  2.5751 -1.0906 -1.5200
 6232SOL    HW230159   4.157   3.359   8.023 -0.9098 -1.1312 -1.6642
 6233SOL     OW30160   3.101   0.362  14.134  0.5313 -0.2335 -0.2802
 6233SOL    HW130161   3.111   0.445  14.181 -2.0273  0.0019 -0.1532
 6233SOL    HW230162   3.046   0.377  14.057  1.0868  1.5800 -0.3323
 6234SOL     OW30163   0.023   3.056  16.599  0.4657 -0.2076 -0.1597
 6234SOL    HW130164   0.017   3.151  16.603 -1.2059 -0.2917 -0.6515
 6234SOL    HW230165   0.035   3.042  16.505  1.4469 -0.2099 -0.0338
 6235SOL     OW30166   0.788   1.382   3.315 -0.0977  0.0721  0.1110
 6235SOL    HW130167   0.746   1.302   3.348 -0.2174 -0.4863 -1.3627
 6235SOL    HW230168   0.832   1.421   3.390 -0.1403  0.1277  0.1071
 6236SOL     OW30169   0.841   1.814   2.758 -0.0124 -0.2080  0.3007
 6236SOL    HW130170   0.903   1.881   2.730 -1.4964  1.4363  0.9605
 6236SOL    HW230171   0.836   1.835   2.851  0.7886  0.7359  0.1272
 6237SOL     OW30172   2.624   1.275  16.185  0.5169 -0.4287  0.2626
 6237SOL    HW130173   2.608   1.284  16.279 -2.2881 -0.6291 -0.1969
 6237SOL    HW230174   2.686   1.202  16.186 -1.3062 -1.9858  0.4691
 6238SOL     OW30175   2.444   1.323  11.252  0.0214  0.0643  0.2179
 6238SOL    HW130176   2.443   1.271  11.171  0.7678  2.9780 -1.6678
 6238SOL    HW230177   2.422   1.410  11.218 -1.2596  0.2002  1.4075
 6239SOL     OW30178   0.834   4.406   2.548 -0.1870 -0.2556 -0.1361
 6239SOL    HW130179   0.790   4.463   2.611  1.6607  0.4364  0.5581
 6239SOL    HW230180   0.866   4.472   2.487 -2.4325  0.3340 -0.6646
 6240SOL     OW30181   2.363   3.121  15.847  0.6912  0.1398  0.4462
 6240SOL    HW130182   2.270   3.102  15.857  0.5803  0.3178 -0.2714
 6240SOL    HW230183   2.379   3.079  15.763  0.3069  0.4301  0.2271
 6241SOL     OW30184   1.588   2.176  11.222 -0.0782 -0.6210  0.3234
 6241SOL    HW130185   1.630   2.196  11.305 -3.9256  0.2581  2.0706
 6241SOL    HW230186   1.661   2.138  11.172 -0.4166 -0.5868 -0.2018
 6242SOL     OW30187   4.274   1.413   6.813  0.0689 -0.6137 -0.0610
 6242SOL    HW130188   4.364   1.405   6.846  0.2592 -0.5485 -0.5589
 6242SOL    HW230189   4.236   1.467   6.882  0.9621 -1.4064  1.0562
 6243SOL     OW30190   0.575   4.015   7.823  0.0238 -0.2141 -0.0201
 6243SOL    HW130191   0.668   4.029   7.801  0.2794 -3.1127 -0.8727
 6243SOL    HW230192   0.552   3.925   7.802  0.0488 -0.4523  0.9866
 6244SOL     OW30193   2.814   3.399  10.262 -0.2532 -0.1356 -0.0073
 6244SOL    HW130194   2.878   3.453  10.308 -0.6245 -0.4007  0.8403
 6244SOL    HW230195   2.867   3.376  10.187 -3.1114  2.0435 -2.7042
 6245SOL     OW30196   2.295   2.329  15.141  0.2500 -0.2644  0.3041
 6245SOL    HW130197   2.213   2.326  15.091 -0.7406  1.8881  1.8224
 6245SOL    HW230198   2.289   2.399  15.205 -0.5113 -0.2725  0.2476
 6246SOL     OW30199   0.822   2.346  11.031  0.5435  0.8608  0.0826
 6246SOL    HW130200   0.883   2.413  11.062  1.3114  0.4998 -0.6649
 6246SOL    HW230201   0.817   2.301  11.116  2.1948  2.0431  0.7986
 6247SOL     OW30202   2.409   0.695   9.183 -0.5779 -0.0909  0.1644
 6247SOL    HW130203   2.494   0.660   9.212 -0.5133 -0.1945 -0.1469
 6247SOL    HW230204   2.435   0.752   9.110  0.0434 -1.1959 -0.4862
 6248SOL     OW30205   1.522   1.060   8.023  0.4759  0.7884  0.3120
 6248SOL    HW130206   1.503   1.125   7.955 -0.5162 -0.4839 -0.6375
 6248SOL    HW230207   1.470   1.097   8.093  1.4464  1.2546  0.7865
 6249SOL     OW30208   3.311   0.797   2.427  0.3300 -0.5942 -0.0781
 6249SOL    HW130209   3.325   0.788   2.521 -1.8766  0.7936  0.3860
 6249SOL    HW230210   3.378   0.733   2.400  0.8266 -1.0585  2.3145
 6250SOL     OW30211   3.719   0.768  11.406  0.1807  0.3695 -0.3478
 6250SOL    HW130212   3.797   0.786  11.458 -0.3290 -0.4435  0.6809
 6250SOL    HW230213   3.716   0.841  11.344  0.7922  1.3962  0.8288
 6251SOL     OW30214   4.111   0.901   7.940  0.0990  0.1807 -0.4484
 6251SOL    HW130215   4.040   0.859   7.987 -0.2670 -0.3396 -1.4818
 6251SOL    HW230216   4.158   0.823   7.912 -1.3949 -0.6878 -0.4842
 6252SOL     OW30217   1.895   3.106   0.332  0.0806 -0.1152  0.2146
 6252SOL    HW130218   1.931   3.194   0.329 -0.0666 -0.0405  0.5947
 6252SOL    HW230219   1.802   3.129   0.343  0.5065  1.1597  1.1589
 6253SOL     OW30220   1.299   4.570  12.621 -0.1342  0.2570  0.1499
 6253SOL    HW130221   1.309   4.559  12.526  2.2928  1.0220  0.3176
 6253SOL    HW230222   1.391   4.571  12.646  0.2406 -0.3945 -1.2194
 6254SOL     OW30223   0.707   4.157   7.233  0.6072 -0.2671 -0.6327
 6254SOL    HW130224   0.733   4.241   7.270  0.1332 -1.0480  1.4916
 6254SOL    HW230225   0.687   4.119   7.318 -0.7535  1.1616 -0.3353
 6255SOL     OW30226   4.246   0.350   2.211 -0.3233 -0.5680 -0.0456
 6255SOL    HW130227   4.273   0.260   2.231 -0.2377 -0.7846 -1.1305
 6255SOL    HW230228   4.245   0.338   2.116 -3.5438 -0.1905 -0.0540
 6256SOL     OW30229   2.059   2.690  13.435 -0.3621  0.1681 -0.2953
 6256SOL    HW130230   2.064   2.617  13.374 -2.8348  0.2391 -0.5771
 6256SOL    HW230231   2.081   2.762  13.376 -0.0345 -0.1558 -0.5744
 6257SOL     OW30232   2.077   2.607   7.247 -0.4216  0.2674  0.1102
 6257SOL    HW130233   2.112   2.635   7.332  1.2341 -1.8756  0.1489
 6257SOL    HW230234   1.989   2.642   7.255 -0.3698  0.4451 -0.1033
 6258SOL     OW30235   4.457   0.701   7.168 -0.1645  0.8302 -0.0693
 6258SOL    HW130236   4.478   0.717   7.075  0.6082  1.6520  0.2381
 6258SOL    HW230237   4.374   0.746   7.182 -0.8336 -0.7492  1.0510
 6259SOL     OW30238   0.053   1.572   2.647  0.4398 -0.5565  0.2038
 6259SOL    HW130239   0.016   1.624   2.718 -1.4682 -1.5349 -0.0803
 6259SOL    HW230240   0.146   1.591   2.663  0.5202 -1.9919  1.4668
 6260SOL     OW30241   1.500   0.684   6.721  0.1494  0.1721 -0.2093
 6260SOL    HW130242   1.578   0.739   6.715  0.0447  0.4145  0.7312
 6260SOL    HW230243   1.476   0.657   6.810  0.2728 -0.5862 -0.4072
 6261SOL     OW30244   1.441   4.697   9.633 -0.1777  0.2716 -0.5670
 6261SOL    HW130245   1.384   0.021   9.574 -0.9134  0.5174  0.3510
 6261SOL    HW230246   1.486   0.043   9.676 -0.7292 -0.0350  0.5274
 6262SOL     OW30247   3.992   4.177   4.312  0.0631 -0.2323 -0.2900
 6262SOL    HW130248   3.937   4.223   4.249 -0.0676  2.1116  1.5276
 6262SOL    HW230249   4.014   4.099   4.261  0.2364 -0.2268 -0.2257
 6263SOL     OW30250   3.166   3.849   2.072 -0.0749  0.3298 -0.0850
 6263SOL    HW130251   3.081   3.824   2.037 -0.8012  0.1725  1.7926
 6263SOL    HW230252   3.148   3.868   2.164 -0.0397  0.9920 -0.2149
 6264SOL     OW30253   0.509   3.427   2.335 -0.1824  0.6191 -0.3335
 6264SOL    HW130254   0.437   3.388   2.383  0.2087 -0.7424 -0.8729
 6264SOL    HW230255   0.473   3.439   2.247  0.8304 -0.9540 -0.9657
 6265SOL     OW30256   2.473   3.133   4.489 -0.5527  0.1914 -0.0317
 6265SOL    HW130257   2.401   3.190   4.517  0.3274  0.8347  0.9032
 6265SOL    HW230258   2.528   3.148   4.566 -0.7397  1.2683 -0.1074
 6266SOL     OW30259   1.310   0.167   8.970  0.3614  0.0541  0.5145
 6266SOL    HW130260   1.299   0.208   8.884  0.6861  1.4861  1.1620
 6266SOL    HW230261   1.240   0.101   8.975 -0.0693  0.4486 -0.1486
 6267SOL     OW30262   1.021   1.240   4.166 -0.3376 -0.1829 -0.0788
 6267SOL    HW130263   1.107   1.240   4.209 -0.1980 -1.0439 -0.3574
 6267SOL    HW230264   0.963   1.249   4.242 -0.0674  0.7780  0.0160
 6268SOL     OW30265   1.987   0.493   7.361  0.6286 -0.0986  0.0428
 6268SOL    HW130266   2.017   0.468   7.448 -1.1992 -0.5466  0.5496
 6268SOL    HW230267   2.068   0.493   7.310  0.2445 -1.7585 -0.5672
 6269SOL     OW30268   0.775   1.616  16.215  0.1434  0.0993 -1.1607
 6269SOL    HW130269   0.778   1.555  16.288 -0.5673  1.3675 -0.0847
 6269SOL    HW230270   0.755   1.688  16.274 -1.6027 -0.9342 -0.5177
 6270SOL     OW30271   1.964   0.933   5.963  0.1011 -0.6001 -0.1978
 6270SOL    HW130272   2.037   0.873   5.947 -1.0504 -1.8783 -0.7707
 6270SOL    HW230273   1.951   0.961   5.872  1.3719  0.8805  0.0962
 6271SOL     OW30274   4.011   1.376   7.800 -0.0343  0.7823  0.0592
 6271SOL    HW130275   3.956   1.404   7.874  1.4861  3.7164  0.0643
 6271SOL    HW230276   4.095   1.357   7.841 -0.6087 -2.3697 -0.2587
 6272SOL     OW30277   1.796   4.370   3.650 -0.6982 -0.1292  0.3116
 6272SOL    HW130278   1.756   4.426   3.717 -0.8879  0.5353 -0.3543
 6272SOL    HW230279   1.736   4.382   3.577 -0.8957  1.1383  0.6906
 6273SOL     OW30280   3.405   0.859   1.342 -0.0669  0.1332 -0.2697
 6273SOL    HW130281   3.367   0.935   1.385 -0.0155  0.1953 -0.3353
 6273SOL    HW230282   3.348   0.791   1.379  1.0898  0.1740  1.5690
 6274SOL     OW30283   4.087   1.927  10.682 -0.7976 -0.5389 -0.0811
 6274SOL    HW130284   4.126   1.923  10.770  2.7051  2.5445 -1.4733
 6274SOL    HW230285   4.055   1.837  10.673  1.4815 -1.0469 -3.0939
 6275SOL     OW30286   3.972   4.516   2.499  0.2685  0.3310 -0.3235
 6275SOL    HW130287   4.009   4.524   2.411 -2.0693 -1.0382 -1.4702
 6275SOL    HW230288   3.967   4.421   2.515 -0.0711  0.3884 -0.0811
 6276SOL     OW30289   4.304   0.596  16.722 -0.2382 -0.1256 -0.6122
 6276SOL    HW130290   4.386   0.604  16.772  0.3488 -0.6161 -1.4843
 6276SOL    HW230291   4.247   0.558  16.789  1.6921  1.8951  2.1828
 6277SOL     OW30292   2.476   2.174   7.851  0.0555  0.1565 -0.0850
 6277SOL    HW130293   2.415   2.141   7.917  1.5590  0.6589  1.5334
 6277SOL    HW230294   2.457   2.268   7.858 -0.9795 -0.0112 -0.5700
 6278SOL     OW30295   1.987   1.074   4.901  0.2663 -0.4531  0.1166
 6278SOL    HW130296   1.941   1.033   4.974 -2.2729  1.0407 -0.6180
 6278SOL    HW230297   2.062   1.106   4.951 -1.1802  0.4700  1.6749
 6279SOL     OW30298   1.583   0.942   7.744  0.6082 -0.2285 -0.2543
 6279SOL    HW130299   1.581   0.990   7.827 -0.4223  0.6188 -0.7702
 6279SOL    HW230300   1.495   0.965   7.715  1.5105  2.9394 -0.4073
 6280SOL     OW30301   4.236   0.110   5.563  0.2180 -0.1772  0.0887
 6280SOL    HW130302   4.210   0.018   5.560  0.4156 -0.1987 -1.1574
 6280SOL    HW230303   4.162   0.156   5.603 -1.2152 -0.5763 -2.0918
 6281SOL     OW30304   3.633   3.292  16.364  0.3498 -0.1755  0.0797
 6281SOL    HW130305   3.703   3.344  16.325  1.0358 -1.6781 -0.7182
 6281SOL    HW230306   3.680   3.208  16.364  0.1188 -0.3048 -0.2626
 6282SOL     OW30307   2.139   2.793   5.608  0.2134  0.3037 -0.2978
 6282SOL    HW130308   2.188   2.722   5.567  0.1203  0.7146 -1.1070
 6282SOL    HW230309   2.090   2.749   5.679  0.6928 -1.6464 -1.1639
 6283SOL     OW30310   3.621   0.875   5.668  0.1981  0.4135  0.0791
 6283SOL    HW130311   3.553   0.876   5.600  0.3039  1.0723 -0.0191
 6283SOL    HW230312   3.572   0.913   5.741  1.4999  1.0617  0.6127
 6284SOL     OW30313   3.712   2.287   3.980  0.0137  0.1168  0.4549
 6284SOL    HW130314   3.732   2.346   4.053 -0.5085  0.4547  0.3258
 6284SOL    HW230315   3.800   2.255   3.962 -0.8461 -0.6821 -2.2288
 6285SOL     OW30316   4.462   4.204   6.662 -0.2903  0.4616 -0.1522
 6285SOL    HW130317   4.474   4.194   6.756 -1.1549 -2.8420 -0.4019
 6285SOL    HW230318   4.538   4.153   6.637 -1.9347 -1.2406 -1.6563
 6286SOL     OW30319   0.425   0.439  11.018  0.3263 -0.4771  0.2696
 6286SOL    HW130320   0.357   0.469  11.078  1.0207  3.7251 -1.0489
 6286SOL    HW230321   0.456   0.365  11.071  0.8275 -1.9141 -2.0151
 6287SOL     OW30322   1.641   3.420   3.137  0.0177 -0.3686  0.1327
 6287SOL    HW130323   1.585   3.495   3.156 -1.4001 -1.0657 -1.2326
 6287SOL    HW230324   1.577   3.348   3.136 -1.1191  0.6476 -0.0174
 6288SOL     OW30325   1.960   0.523   4.748 -0.0530  0.0950  0.0143
 6288SOL    HW130326   1.873   0.561   4.761  0.0156  0.5759 -0.9270
 6288SOL    HW230327   1.941   0.445   4.695 -2.4229  1.4450 -1.1063
 6289SOL     OW30328   3.981   4.501   5.066  0.5233  0.2781  0.2613
 6289SOL    HW130329   4.057   4.494   5.007 -0.3540 -1.5547 -0.6718
 6289SOL    HW230330   3.910   4.501   5.001 -1.1458 -0.5221  2.1077
 6290SOL     OW30331   4.151   2.211   4.314 -0.2841 -0.1805  0.1981
 6290SOL    HW130332   4.130   2.203   4.407 -2.7740 -1.2670 -0.4402
 6290SOL    HW230333   4.237   2.169   4.318 -0.0553  0.2869  0.1860
 6291SOL     OW30334   4.125   2.290   9.883 -0.0305  0.2286 -0.2791
 6291SOL    HW130335   4.087   2.359   9.828 -3.7732 -1.7519 -0.1536
 6291SOL    HW230336   4.093   2.213   9.836 -0.0296 -0.8819  1.5350
 6292SOL     OW30337   2.638   2.154   3.363  0.2133 -0.0968 -0.6228
 6292SOL    HW130338   2.666   2.095   3.293  0.6829  0.2279 -0.7042
 6292SOL    HW230339   2.586   2.220   3.316  1.4453  0.9324 -0.5288
 6293SOL     OW30340   1.404   0.734  15.259 -0.1586  0.5083 -0.5561
 6293SOL    HW130341   1.391   0.760  15.350  2.9088 -1.2268  0.3785
 6293SOL    HW230342   1.334   0.673  15.239 -1.0065  0.9031  1.2336
 6294SOL     OW30343   3.640   2.839   4.846  0.2352  0.1564 -0.2614
 6294SOL    HW130344   3.626   2.794   4.762 -1.5642 -3.0383  1.7318
 6294SOL    HW230345   3.715   2.785   4.869  1.1270  1.1513 -0.8525
 6295SOL     OW30346   2.159   4.020   8.571 -0.4348  0.1612  0.1128
 6295SOL    HW130347   2.239   4.070   8.585  1.1918 -1.7350 -2.4604
 6295SOL    HW230348   2.152   3.973   8.654  1.1346 -1.0844 -0.4629
 6296SOL     OW30349   1.761   0.520  16.608 -0.0359  0.0247  0.1592
 6296SOL    HW130350   1.770   0.510  16.514 -1.6902  3.5617 -0.4040
 6296SOL    HW230351   1.824   0.458  16.643 -1.2290 -1.8159 -0.9562
 6297SOL     OW30352   4.659   3.425   5.807  0.0096  0.4373  0.0697
 6297SOL    HW130353   4.580   3.466   5.842 -0.4724 -0.7418  0.3877
 6297SOL    HW230354   4.724   3.451   5.872 -0.0643 -1.8428  1.0762
 6298SOL     OW30355   0.742   4.621   3.209  0.3133 -0.1971 -0.1739
 6298SOL    HW130356   0.772   4.711   3.218 -0.5114 -0.1158  1.6227
 6298SOL    HW230357   0.830   4.582   3.204 -0.2320 -1.3815 -0.4597
 6299SOL     OW30358   1.569   4.455   9.144 -0.1924  0.3805 -0.2985
 6299SOL    HW130359   1.513   4.404   9.085 -0.3841  0.2800 -0.0351
 6299SOL    HW230360   1.617   4.509   9.082  0.9757  1.9644  1.9968
 6300SOL     OW30361   2.217   2.849   0.616 -0.0286  0.1810  0.8894
 6300SOL    HW130362   2.142   2.813   0.663 -0.7332  0.9284  0.3581
 6300SOL    HW230363   2.202   2.796   0.538  0.6393 -0.8056  1.4410
 6301SOL     OW30364   1.342   2.653   3.454 -0.0327  0.1968 -0.2671
 6301SOL    HW130365   1.353   2.661   3.549  2.4068  0.3442 -0.5627
 6301SOL    HW230366   1.273   2.718   3.446  0.1892  0.6108  1.1769
 6302SOL     OW30367   4.478   3.269  17.679 -0.1572  0.1034  0.1546
 6302SOL    HW130368   4.486   3.359  17.650  0.6902 -0.1302 -0.3327
 6302SOL    HW230369   4.491   3.267   0.068 -1.7828  0.0275  0.3830
 6303SOL     OW30370   1.227   2.142   2.418  0.1271  0.2099 -0.2218
 6303SOL    HW130371   1.252   2.234   2.414  3.0121 -0.5311  0.7134
 6303SOL    HW230372   1.263   2.109   2.335  2.4347 -0.3346  1.0075
 6304SOL     OW30373   3.515   4.453   1.287 -0.6155  0.0267  0.0299
 6304SOL    HW130374   3.569   4.525   1.253  1.5698 -1.7195 -0.1511
 6304SOL    HW230375   3.435   4.463   1.235  0.1180  0.3080 -1.0394
 6305SOL     OW30376   2.527   1.790  16.242 -0.0964 -0.3186 -0.0911
 6305SOL    HW130377   2.445   1.826  16.274  1.5950  1.1651  2.4927
 6305SOL    HW230378   2.500   1.700  16.225  0.1027 -0.6933  1.6414
 6306SOL     OW30379   2.424   0.862   8.597 -0.4678 -0.1377 -0.4873
 6306SOL    HW130380   2.423   0.864   8.692  0.2579 -1.4284 -0.4411
 6306SOL    HW230381   2.363   0.792   8.573  0.1939 -0.9825  0.2623
 6307SOL     OW30382   3.083   3.957   3.480  0.3138 -0.2560  0.0754
 6307SOL    HW130383   3.004   4.008   3.496  0.3984 -0.2681  0.5556
 6307SOL    HW230384   3.051   3.914   3.401 -2.2614 -2.4044  2.2603
 6308SOL     OW30385   4.325   1.664  12.388  0.1841 -0.2892  0.0568
 6308SOL    HW130386   4.403   1.718  12.400  0.2823 -0.4116 -0.0227
 6308SOL    HW230387   4.341   1.594  12.452 -1.6940 -0.7180  0.0399
 6309SOL     OW30388   3.092   1.278   8.379  0.3081  0.5006  0.0870
 6309SOL    HW130389   3.157   1.276   8.450  0.2248  0.2187  0.1561
 6309SOL    HW230390   3.121   1.209   8.319 -0.5787 -0.0357  0.2856
 6310SOL     OW30391   1.782   3.172  15.584  0.0522 -0.3078 -0.0648
 6310SOL    HW130392   1.838   3.212  15.518  0.4475  2.5527  2.0172
 6310SOL    HW230393   1.699   3.215  15.564 -0.5675 -1.3199  0.3256
 6311SOL     OW30394   0.375   3.435   1.463 -0.3951 -0.1267  0.1388
 6311SOL    HW130395   0.403   3.522   1.491 -1.4703 -0.4693  2.2813
 6311SOL    HW230396   0.286   3.439   1.498 -0.3914 -1.2037  0.2801
 6312SOL     OW30397   4.449   0.086  12.945 -0.0792 -0.5718  0.3010
 6312SOL    HW130398   4.411   0.170  12.972 -0.9505 -1.6638  2.4890
 6312SOL    HW230399   4.377   0.022  12.952 -0.6552 -0.1365 -1.7595
 6313SOL     OW30400   3.742   4.299   7.616  0.2794 -0.0084  0.0931
 6313SOL    HW130401   3.759   4.265   7.704 -0.8643 -1.1046 -0.1038
 6313SOL    HW230402   3.646   4.301   7.614  0.1734 -3.9630  1.0261
 6314SOL     OW30403   4.390   3.631  12.545  0.5598  0.1714  0.2206
 6314SOL    HW130404   4.480   3.662  12.537  0.1299  1.3287 -0.2767
 6314SOL    HW230405   4.369   3.621  12.452  0.3215 -1.5554  0.4639
 6315SOL     OW30406   2.630   2.694   8.474  0.6368 -0.2805 -0.3395
 6315SOL    HW130407   2.608   2.704   8.567  0.0922  1.4977 -0.6538
 6315SOL    HW230408   2.672   2.608   8.470  0.2882 -0.4361 -0.5946
 6316SOL     OW30409   0.097   0.245   6.266 -0.1273 -0.7969  0.7732
 6316SOL    HW130410   0.190   0.226   6.250 -0.4452 -0.1897 -1.8155
 6316SOL    HW230411   0.078   0.190   6.342 -1.6503  0.2683  1.1585
 6317SOL     OW30412   0.472   1.249  15.405 -0.7567  0.3654 -0.0333
 6317SOL    HW130413   0.545   1.235  15.344 -0.2713  0.2215  0.5832
 6317SOL    HW230414   0.455   1.161  15.439 -2.0782  0.6840  0.1279
 6318SOL     OW30415   1.700   2.389   8.156  0.0711 -0.2994  0.0358
 6318SOL    HW130416   1.746   2.412   8.237 -1.6472  0.7715  0.7080
 6318SOL    HW230417   1.756   2.328   8.107  1.4202  0.5710  0.4821
 6319SOL     OW30418   1.521   2.449   0.771 -0.1861  0.3602  0.1258
 6319SOL    HW130419   1.546   2.399   0.848 -1.8251  0.6955  0.8801
 6319SOL    HW230420   1.442   2.403   0.743 -0.3567  0.3967  0.5465
 6320SOL     OW30421   1.924   3.548  16.373 -0.4466  0.4921  0.5851
 6320SOL    HW130422   1.996   3.607  16.394 -0.6700  1.2322 -0.7409
 6320SOL    HW230423   1.902   3.575  16.284  1.7235 -0.2637 -0.1775
 6321SOL     OW30424   3.645   0.586   7.222  0.7065 -0.0300 -0.5288
 6321SOL    HW130425   3.656   0.653   7.290 -1.9997 -2.6557  2.4982
 6321SOL    HW230426   3.675   0.632   7.144  0.1782 -1.7843 -1.7772
 6322SOL     OW30427   1.754   3.976  10.974  0.6286  0.0823  0.3422
 6322SOL    HW130428   1.740   4.062  10.933  1.5746  0.6030  1.1260
 6322SOL    HW230429   1.811   4.004  11.046  2.7493 -2.6441 -0.3137
 6323SOL     OW30430   3.448   0.004  13.590  1.0262  0.0068  0.7592
 6323SOL    HW130431   3.383   0.037  13.653  1.6634  1.9779  0.3945
 6323SOL    HW230432   3.405   0.032  13.509  0.0223 -0.3558  1.1685
 6324SOL     OW30433   3.671   2.270   4.717  0.8887  0.0019  0.3018
 6324SOL    HW130434   3.607   2.314   4.773  1.0568  0.6701 -0.0302
 6324SOL    HW230435   3.745   2.326   4.744 -0.5246  1.6881  0.7025
 6325SOL     OW30436   4.479   2.713   6.036 -0.0238  0.6135 -0.6319
 6325SOL    HW130437   4.501   2.762   6.114  1.3102 -2.3665  0.8600
 6325SOL    HW230438   4.509   2.628   6.070 -2.5946 -0.1877 -0.3554
 6326SOL     OW30439   0.467   4.032   8.510  0.2684 -0.0793  0.3315
 6326SOL    HW130440   0.404   4.075   8.452  1.1307  1.3054  0.4151
 6326SOL    HW230441   0.434   4.052   8.598 -1.0532 -2.9636  0.4988
 6327SOL     OW30442   4.090   2.114  13.747 -0.1475  0.1187 -0.2273
 6327SOL    HW130443   4.168   2.103  13.802 -0.1213  2.7819  0.2957
 6327SOL    HW230444   4.027   2.144  13.812 -0.3191  0.5561 -0.5943
 6328SOL     OW30445   0.949   0.740   2.853  0.1578 -0.2839  0.2771
 6328SOL    HW130446   0.880   0.676   2.840  0.4824 -0.6658  0.4506
 6328SOL    HW230447   1.015   0.704   2.793  0.9523  0.9445  0.4083
 6329SOL     OW30448   3.174   3.891   3.858  1.0045 -0.0256  0.6021
 6329SOL    HW130449   3.162   3.985   3.868  1.1873  0.1498 -0.7916
 6329SOL    HW230450   3.089   3.861   3.889  0.4523  1.7575  0.7990
 6330SOL     OW30451   3.360   3.207   0.165  0.3798  0.5251 -0.5193
 6330SOL    HW130452   3.313   3.284   0.133  2.5202  1.8094 -0.5979
 6330SOL    HW230453   3.443   3.239   0.201  0.2868 -0.0476  0.1987
 6331SOL     OW30454   4.233   1.936   7.887  0.2844  0.3229  0.4518
 6331SOL    HW130455   4.208   1.926   7.795 -1.3706  0.2845  0.9065
 6331SOL    HW230456   4.282   1.857   7.911 -1.3026 -0.9627 -0.5500
 6332SOL     OW30457   2.309   2.607   0.916  0.3228 -0.0791  0.0191
 6332SOL    HW130458   2.250   2.649   0.854 -1.7704 -1.8345  0.8448
 6332SOL    HW230459   2.287   2.515   0.904 -0.0162 -0.0794  0.6525
 6333SOL     OW30460   3.016   0.815   8.206  0.6244  0.3140  0.1991
 6333SOL    HW130461   3.002   0.833   8.113 -0.0536  0.7004  0.3740
 6333SOL    HW230462   2.929   0.813   8.247  0.5402 -1.6858 -0.0884
 6334SOL     OW30463   3.018   2.427   6.476  0.2070 -0.1629  0.3769
 6334SOL    HW130464   2.987   2.459   6.561 -0.3698  0.5190 -0.0913
 6334SOL    HW230465   3.105   2.465   6.462  0.4519 -0.7690  0.2773
 6335SOL     OW30466   2.027   4.229   5.899 -0.4389 -0.0712  0.3305
 6335SOL    HW130467   1.937   4.221   5.930  0.3573 -1.6127  2.2427
 6335SOL    HW230468   2.044   4.137   5.879  0.3924  0.5944 -2.0382
 6336SOL     OW30469   4.673   0.786   8.483 -0.2012  0.0315 -0.6911
 6336SOL    HW130470   4.688   0.731   8.406 -1.6744  1.4218 -1.9801
 6336SOL    HW230471   0.036   0.781   8.516 -0.2380 -0.0242 -0.6001
 6337SOL     OW30472   0.658   2.963   8.347  0.1210  0.1706  0.4207
 6337SOL    HW130473   0.649   2.921   8.432  1.4305 -1.4173 -0.2248
 6337SOL    HW230474   0.731   3.020   8.371 -0.8279  0.7496  1.9260
 6338SOL     OW30475   1.391   3.678   3.899  0.1828  0.0842  0.5003
 6338SOL    HW130476   1.390   3.652   3.807 -0.0200  0.9856  0.2501
 6338SOL    HW230477   1.299   3.667   3.926  0.3350  0.4424  1.1775
 6339SOL     OW30478   1.698   4.053   4.946  0.0630  0.3151  0.2015
 6339SOL    HW130479   1.685   4.053   5.041  0.0745 -2.2692  0.1914
 6339SOL    HW230480   1.785   4.092   4.960 -0.4797  2.1252 -1.3943
 6340SOL     OW30481   2.763   2.778   7.660 -0.0219  0.1951  0.8267
 6340SOL    HW130482   2.687   2.790   7.604 -0.2298  0.7433  1.2274
 6340SOL    HW230483   2.790   2.869   7.667 -0.8562  0.3776  1.6357
 6341SOL     OW30484   1.382   3.719  15.097  0.3281  0.3600  0.2293
 6341SOL    HW130485   1.321   3.649  15.122  0.2484 -0.7377 -3.0909
 6341SOL    HW230486   1.440   3.694  15.168  0.0631  0.6371  0.5460
 6342SOL     OW30487   3.292   2.686   4.508 -0.4228 -0.4159  0.5047
 6342SOL    HW130488   3.371   2.646   4.471 -0.9345 -0.8102 -0.1557
 6342SOL    HW230489   3.280   2.769   4.461 -0.4765 -0.3698  0.5980
 6343SOL     OW30490   1.510   2.361   2.777  0.8570 -0.5775  0.7385
 6343SOL    HW130491   1.515   2.266   2.765 -1.4469 -0.7712  1.3211
 6343SOL    HW230492   1.443   2.370   2.845  2.1423  0.8130  1.8118
 6344SOL     OW30493   3.786   1.488   2.134 -0.3972  0.5830 -0.3791
 6344SOL    HW130494   3.853   1.555   2.142  1.6214 -1.3907 -0.9068
 6344SOL    HW230495   3.761   1.495   2.041  0.0500  0.3356 -0.5175
 6345SOL     OW30496   0.695   2.655   0.846  0.3896 -0.1702 -0.0100
 6345SOL    HW130497   0.748   2.708   0.787 -0.6705  0.3833 -0.4727
 6345SOL    HW230498   0.624   2.616   0.796 -0.6248  0.9559  0.5336
 6346SOL     OW30499   3.214   3.747  15.750 -0.6447  0.1147  0.1080
 6346SOL    HW130500   3.149   3.685  15.783  2.5940 -1.2656  3.7278
 6346SOL    HW230501   3.186   3.760  15.659 -2.1814  1.2326  0.7186
 6347SOL     OW30502   0.376   2.191  11.858 -0.3810  0.0899  0.0781
 6347SOL    HW130503   0.439   2.195  11.929  0.0843  0.6745 -0.3656
 6347SOL    HW230504   0.367   2.096  11.854  1.9769 -0.2212  2.1989
 6348SOL     OW30505   2.720   3.336   8.972 -0.2455 -0.0873 -0.0586
 6348SOL    HW130506   2.724   3.249   9.010 -3.1126 -0.8082 -1.4682
 6348SOL    HW230507   2.695   3.386   9.050  4.7589 -0.8394  2.0622
 6349SOL     OW30508   1.708   3.926   4.180 -0.0536 -0.3648 -0.7733
 6349SOL    HW130509   1.706   3.901   4.087  0.8970 -2.4662 -0.2255
 6349SOL    HW230510   1.614   3.945   4.187 -0.5644 -2.4224 -2.0188
 6350SOL     OW30511   3.016   2.046   4.978 -0.0479  0.3151 -0.6511
 6350SOL    HW130512   3.096   2.062   4.928  2.0425  0.2146  2.6975
 6350SOL    HW230513   2.957   2.110   4.938  0.1447  1.2819  0.6199
 6351SOL     OW30514   2.052   2.814   4.276  0.1599  0.0862  0.1003
 6351SOL    HW130515   2.077   2.899   4.311 -1.5458  0.8923 -0.6598
 6351SOL    HW230516   2.126   2.791   4.221  1.4028 -0.3203  1.9415
 6352SOL     OW30517   1.371   2.301   6.323  0.0866 -0.0917 -0.2766
 6352SOL    HW130518   1.288   2.307   6.369  0.4216  0.6339  0.2304
 6352SOL    HW230519   1.368   2.384   6.277 -0.1589  0.1556  0.1876
 6353SOL     OW30520   0.130   1.491   4.578 -0.1351 -0.1008 -0.1081
 6353SOL    HW130521   0.088   1.544   4.511  1.4663  0.9076 -0.3301
 6353SOL    HW230522   0.222   1.515   4.568 -0.0739 -1.3461 -2.5001
 6354SOL     OW30523   4.394   1.181   6.246 -0.5073 -0.2854  0.3740
 6354SOL    HW130524   4.351   1.111   6.198 -0.0887  1.5765 -2.7456
 6354SOL    HW230525   4.331   1.207   6.313  0.2578  1.0230  0.5937
 6355SOL     OW30526   4.342   0.491   5.801 -0.0860  0.2625  0.3783
 6355SOL    HW130527   4.379   0.540   5.727  1.3325 -0.9819  0.2633
 6355SOL    HW230528   4.404   0.418   5.802 -0.1559  0.1589 -1.8081
 6356SOL     OW30529   3.498   2.570   4.753 -0.2078 -0.2585 -0.3820
 6356SOL    HW130530   3.404   2.585   4.742 -0.7971 -2.7372  1.1655
 6356SOL    HW230531   3.536   2.632   4.691 -0.6254  1.4727  1.0728
 6357SOL     OW30532   0.794   4.709  16.822  0.5144  0.6367 -0.1964
 6357SOL    HW130533   0.878   4.662  16.820  1.3419  2.0907  0.7375
 6357SOL    HW230534   0.763   4.676  16.906 -0.5449 -0.4828 -1.0316
 6358SOL     OW30535   3.334   2.361  11.123  0.5459  0.6940 -0.1698
 6358SOL    HW130536   3.396   2.432  11.136  1.2859 -0.3513  2.0560
 6358SOL    HW230537   3.373   2.313  11.050  1.2923 -0.7982  1.2162
 6359SOL     OW30538   2.353   0.438   8.022  0.5427  0.3874 -0.3998
 6359SOL    HW130539   2.290   0.506   8.047  1.1963  1.6451 -2.1422
 6359SOL    HW230540   2.384   0.479   7.941 -0.4153  0.0178 -0.9562
 6360SOL     OW30541   4.722   3.250   7.353 -0.4802 -0.0779  0.2296
 6360SOL    HW130542   4.667   3.215   7.423 -0.3090  1.2903  1.0446
 6360SOL    HW230543   0.062   3.296   7.403 -0.7860 -0.9526  1.4633
 6361SOL     OW30544   3.843   3.249  11.576 -0.3484 -0.4643  0.1998
 6361SOL    HW130545   3.828   3.162  11.538 -2.1671  0.9635 -2.2794
 6361SOL    HW230546   3.913   3.241  11.641 -0.6179 -1.0669  0.4225
 6362SOL     OW30547   2.376   0.905   0.927 -0.2027  0.2845 -0.1652
 6362SOL    HW130548   2.456   0.953   0.949 -1.2652  2.1720 -0.3588
 6362SOL    HW230549   2.406   0.817   0.906  1.6650  0.9537 -0.3090
 6363SOL     OW30550   4.042   2.594   5.290  0.5180 -0.2867  0.6963
 6363SOL    HW130551   4.100   2.669   5.303  0.0137 -0.1356  2.1022
 6363SOL    HW230552   3.961   2.643   5.277  0.0592 -1.1741  0.2377
 6364SOL     OW30553   3.520   2.304   0.056  0.1713  0.1809  0.0938
 6364SOL    HW130554   3.523   2.309   0.151  0.2016 -1.4969  0.1854
 6364SOL    HW230555   3.488   2.391   0.035 -1.0806 -0.0288  1.1784
 6365SOL     OW30556   0.381   0.803   0.008  0.6391 -0.2979  0.0942
 6365SOL    HW130557   0.433   0.731  17.679  0.2060 -1.3116  1.5783
 6365SOL    HW230558   0.297   0.785  17.672  0.5342 -0.7301  0.4957
 6366SOL     OW30559   3.211   4.610  10.410 -0.2465 -0.5844  0.6196
 6366SOL    HW130560   3.300   4.620  10.377 -1.2854 -2.0403 -2.5807
 6366SOL    HW230561   3.159   4.663  10.349 -1.1959  1.8073  3.4567
 6367SOL     OW30562   4.036   2.699   1.337 -0.5394 -0.3569  0.2174
 6367SOL    HW130563   4.064   2.612   1.306  1.6490  0.2826  0.3980
 6367SOL    HW230564   4.065   2.755   1.265 -1.1041 -1.0331 -0.5470
 6368SOL     OW30565   3.766   1.479  13.523 -0.8133 -0.6610  0.3659
 6368SOL    HW130566   3.838   1.539  13.540 -0.4402 -0.8991 -0.4112
 6368SOL    HW230567   3.794   1.393  13.554  3.4933  1.0162  1.1265
 6369SOL     OW30568   3.756   3.394   9.900  0.5961  0.5815 -0.2312
 6369SOL    HW130569   3.683   3.349   9.858 -0.2181 -0.3764  2.1936
 6369SOL    HW230570   3.711   3.448   9.965  4.0284 -0.4270  3.0096
 6370SOL     OW30571   2.557   0.059   7.062 -0.4974 -0.5080 -0.1764
 6370SOL    HW130572   2.554   0.026   7.151 -0.6091  0.0593  0.0335
 6370SOL    HW230573   2.649   0.045   7.040  0.2612  1.7861  1.4722
 6371SOL     OW30574   4.667   1.983  13.241 -0.5639 -0.5490  0.0505
 6371SOL    HW130575   4.662   1.918  13.171  0.0202  0.2849 -0.7601
 6371SOL    HW230576   4.642   2.057  13.185 -1.7287 -0.1712  1.0753
 6372SOL     OW30577   1.935   1.847   8.562  0.0294 -0.3192  0.3381
 6372SOL    HW130578   1.973   1.782   8.504  0.6196  1.3524 -1.1501
 6372SOL    HW230579   1.974   1.836   8.649  1.5161  1.7006 -0.0723
 6373SOL     OW30580   2.409   3.331   0.683  0.1163  0.1963 -0.2922
 6373SOL    HW130581   2.391   3.341   0.590  0.3719  1.3011 -0.2250
 6373SOL    HW230582   2.463   3.408   0.704 -0.4569  0.3775  0.5254
 6374SOL     OW30583   0.625   0.290   6.068 -0.2322 -0.2372  0.8076
 6374SOL    HW130584   0.535   0.267   6.044 -1.0468  3.4101  0.3591
 6374SOL    HW230585   0.658   0.315   5.981  0.0866 -1.5930  0.5380
 6375SOL     OW30586   2.328   4.285  10.502 -0.3697  0.0573  0.6057
 6375SOL    HW130587   2.320   4.369  10.457  1.5188  0.1530  0.4378
 6375SOL    HW230588   2.385   4.311  10.575  1.0845 -0.7168 -0.2450
 6376SOL     OW30589   4.070   4.107   4.020  0.1487 -0.7038  0.0063
 6376SOL    HW130590   4.139   4.062   4.070 -1.6369 -3.7231 -0.2746
 6376SOL    HW230591   4.110   4.098   3.934  0.5071  0.9120 -0.0069
 6377SOL     OW30592   4.359   1.465   4.266  0.3345 -0.4696 -0.1175
 6377SOL    HW130593   4.289   1.400   4.278 -0.4094  0.4866  0.6835
 6377SOL    HW230594   4.358   1.514   4.348 -1.0824 -0.7374  0.0271
 6378SOL     OW30595   1.830   0.937   4.691 -0.0431  0.3593 -0.1671
 6378SOL    HW130596   1.896   0.869   4.675  1.5380  1.5298  1.3558
 6378SOL    HW230597   1.872   0.985   4.762 -0.9970 -0.8668  1.2222
 6379SOL     OW30598   0.776   0.857   1.889 -0.6280 -0.7012 -0.0367
 6379SOL    HW130599   0.795   0.940   1.846 -1.5185 -0.0184  0.8864
 6379SOL    HW230600   0.855   0.843   1.942 -0.1272  1.7229 -0.1135
 6380SOL     OW30601   3.474   2.239  10.935 -0.0016 -0.2710  0.0956
 6380SOL    HW130602   3.470   2.274  10.847 -1.1553  2.2109  1.1556
 6380SOL    HW230603   3.442   2.149  10.922  0.2418 -0.5596  1.4740
 6381SOL     OW30604   3.135   1.187   7.743 -0.3093  0.1034 -0.2205
 6381SOL    HW130605   3.149   1.093   7.745  0.2708  0.1860 -0.3838
 6381SOL    HW230606   3.168   1.210   7.830 -0.0666 -0.1470 -0.2456
 6382SOL     OW30607   3.450   4.615   7.800 -0.5644  0.4143 -0.1015
 6382SOL    HW130608   3.529   4.568   7.829 -0.3489  1.3620  0.8581
 6382SOL    HW230609   3.401   4.616   7.882 -0.9527 -1.0641 -0.3037
 6383SOL     OW30610   1.982   2.867   0.396  0.2008  0.7200 -0.5381
 6383SOL    HW130611   1.983   2.944   0.340  2.7305 -0.9238 -2.7294
 6383SOL    HW230612   2.062   2.817   0.381  0.8390  0.5759  3.2211
 6384SOL     OW30613   2.174   0.538  17.656  0.4217  0.1511 -0.2667
 6384SOL    HW130614   2.220   0.600   0.006 -0.1752  1.1729 -0.9120
 6384SOL    HW230615   2.194   0.456  17.701  0.3117 -1.5798 -3.3273
 6385SOL     OW30616   4.202   0.877   6.411  0.2634 -0.2079  0.0031
 6385SOL    HW130617   4.139   0.807   6.393  1.2731 -1.4320  1.1895
 6385SOL    HW230618   4.234   0.912   6.327  3.1628 -1.2960  0.6357
 6386SOL     OW30619   3.056   1.206   6.218 -0.7813 -0.1901 -0.4925
 6386SOL    HW130620   3.051   1.214   6.122 -0.0539 -2.3339 -0.6995
 6386SOL    HW230621   3.145   1.173   6.230 -0.5341  0.7632  0.2362
 6387SOL     OW30622   0.968   2.524  11.191 -0.4241 -0.4824 -0.2305
 6387SOL    HW130623   1.051   2.564  11.217 -0.1695 -1.8923  1.1537
 6387SOL    HW230624   0.913   2.601  11.179  1.8090  0.8019 -2.3599
 6388SOL     OW30625   2.418   1.093   4.557  0.1915  0.5628  0.5859
 6388SOL    HW130626   2.498   1.067   4.510 -0.8456 -1.6432  0.0490
 6388SOL    HW230627   2.413   1.185   4.531  0.6571  0.9713  1.9464
 6389SOL     OW30628   2.944   0.316   6.525 -0.3196 -0.2640  1.0155
 6389SOL    HW130629   2.984   0.245   6.476 -3.1886 -2.1768  1.4606
 6389SOL    HW230630   2.948   0.384   6.457 -0.8799  0.2029  1.4529
 6390SOL     OW30631   0.913   2.843   6.282 -0.1648 -0.0867 -0.3239
 6390SOL    HW130632   0.836   2.792   6.259  0.6003 -0.7563 -1.3722
 6390SOL    HW230633   0.912   2.906   6.210  0.9406 -0.4618 -0.6697
 6391SOL     OW30634   1.514   4.283   7.090 -0.2949 -0.3883 -0.2225
 6391SOL    HW130635   1.504   4.209   7.030 -0.1109 -0.5745 -0.0228
 6391SOL    HW230636   1.463   4.256   7.167  1.0690  1.6025  1.3745
 6392SOL     OW30637   2.623   4.208   7.303  0.5135  0.2730  0.2476
 6392SOL    HW130638   2.693   4.201   7.368 -0.3725 -0.7532  1.0763
 6392SOL    HW230639   2.562   4.139   7.328  0.9709 -0.1641  0.1560
 6393SOL     OW30640   1.848   0.478   2.726 -0.2650  0.5496 -0.0434
 6393SOL    HW130641   1.791   0.424   2.781  1.3170 -0.9724  0.0857
 6393SOL    HW230642   1.818   0.441   2.644 -0.5159 -0.9968  0.7549
 6394SOL     OW30643   4.536   3.209   0.238 -0.8495 -0.4727 -0.0682
 6394SOL    HW130644   4.616   3.157   0.234 -1.4981 -1.3833 -1.6388
 6394SOL    HW230645   4.480   3.161   0.299 -0.5061  1.0240  1.4058
 6395SOL     OW30646   3.424   2.647   1.628 -0.8806 -0.0489 -0.2072
 6395SOL    HW130647   3.366   2.723   1.624  1.1414  1.5006 -0.2114
 6395SOL    HW230648   3.432   2.623   1.535  2.5543  2.3902 -0.5246
 6396SOL     OW30649   3.021   4.615  15.728 -0.0453 -0.4643  0.1724
 6396SOL    HW130650   3.049   4.542  15.674 -1.1747 -0.6412 -0.1630
 6396SOL    HW230651   3.077   4.688  15.700 -1.4581  0.8569  0.7964
 6397SOL     OW30652   2.031   4.597  14.846 -0.4365  0.0946 -0.3789
 6397SOL    HW130653   2.085   4.676  14.839  0.0686  0.1713  4.3467
 6397SOL    HW230654   2.080   4.521  14.815 -1.0576 -0.8867  1.0517
 6398SOL     OW30655   1.778   2.019   2.700  0.1127 -0.8294 -0.0190
 6398SOL    HW130656   1.777   1.948   2.636 -1.3766 -0.5670 -0.2754
 6398SOL    HW230657   1.715   2.082   2.667 -1.6671 -2.5442  0.1017
 6399SOL     OW30658   3.424   4.497  15.563 -0.1343 -0.0535 -0.0681
 6399SOL    HW130659   3.394   4.475  15.652 -1.3120  1.4343 -0.1067
 6399SOL    HW230660   3.410   4.409  15.527 -1.2999 -0.1819  0.6936
 6400SOL     OW30661   2.259   2.761   2.729  0.3968  0.4633 -0.1687
 6400SOL    HW130662   2.290   2.807   2.807  0.7974  0.0892 -0.1114
 6400SOL    HW230663   2.325   2.774   2.661  2.8196 -2.0303  1.7514
 6401SOL     OW30664   3.488   1.212   8.696 -0.1647 -0.5731  0.3107
 6401SOL    HW130665   3.551   1.206   8.768 -0.3910 -2.1090  0.3936
 6401SOL    HW230666   3.493   1.119   8.673  1.4655 -0.3684 -0.1866
 6402SOL     OW30667   1.526   1.063  17.253  0.1172 -0.1061  0.5369
 6402SOL    HW130668   1.601   1.005  17.239 -0.9844 -1.1377 -1.3234
 6402SOL    HW230669   1.474   1.039  17.176  0.7539 -1.7735  0.6261
 6403SOL     OW30670   0.168   3.833  13.951  0.4995  0.0462 -0.7426
 6403SOL    HW130671   0.102   3.879  14.003  0.5698 -0.3678 -0.2809
 6403SOL    HW230672   0.149   3.741  13.967 -0.6043  0.6914  1.6419
 6404SOL     OW30673   1.168   3.429  14.258  0.5454  0.1196  0.1279
 6404SOL    HW130674   1.174   3.417  14.353 -0.9401  2.4040  0.5166
 6404SOL    HW230675   1.194   3.521  14.246  0.5451  0.0642 -0.3048
 6405SOL     OW30676   3.099   1.312   2.523  0.7672 -0.1169 -0.4784
 6405SOL    HW130677   3.087   1.379   2.456  0.1493  1.2836  1.0279
 6405SOL    HW230678   3.018   1.312   2.574 -0.1117 -1.5011 -1.8839
 6406SOL     OW30679   2.470   0.207   4.836 -0.3965  0.0592 -0.1872
 6406SOL    HW130680   2.384   0.218   4.796 -0.8405 -2.1554  0.1794
 6406SOL    HW230681   2.467   0.275   4.903  1.4206 -0.1422  0.1033
 6407SOL     OW30682   4.028   1.930  13.061 -0.0447  0.4562  0.2676
 6407SOL    HW130683   3.971   1.987  13.112 -0.5347  2.0688 -2.1023
 6407SOL    HW230684   4.076   1.988  13.003 -1.2015 -0.4625 -1.6096
 6408SOL     OW30685   4.486   3.817  12.974 -0.3735 -0.3875  0.2318
 6408SOL    HW130686   4.470   3.909  12.956 -0.5389 -0.6842 -1.2240
 6408SOL    HW230687   4.512   3.818  13.065 -0.4931  0.7068  0.2531
 6409SOL     OW30688   0.739   0.479   6.432 -0.1459 -0.2187  0.3088
 6409SOL    HW130689   0.800   0.536   6.478 -1.2435  0.9726  0.3020
 6409SOL    HW230690   0.657   0.524   6.453 -1.2867 -1.6266 -1.1479
 6410SOL     OW30691   1.890   0.472  13.228 -0.3133 -0.3669  0.1367
 6410SOL    HW130692   1.916   0.540  13.166 -0.6535 -0.9210 -0.6217
 6410SOL    HW230693   1.940   0.495  13.306  2.7596 -0.3152 -1.8729
 6411SOL     OW30694   1.053   3.708   6.718  0.0981 -0.3487  0.2088
 6411SOL    HW130695   0.970   3.728   6.761 -0.7384  0.8118 -1.9627
 6411SOL    HW230696   1.097   3.793   6.711  0.0802 -0.3623 -0.0717
 6412SOL     OW30697   1.843   2.694   4.429  0.2466 -0.7448  0.2739
 6412SOL    HW130698   1.910   2.737   4.376  0.3023 -0.2841  0.7152
 6412SOL    HW230699   1.764   2.695   4.374  0.2590  0.0098  0.2728
 6413SOL     OW30700   3.147   2.710   8.983  0.1513 -0.5315 -0.6152
 6413SOL    HW130701   3.224   2.758   8.953  0.8088 -0.6581  0.8716
 6413SOL    HW230702   3.188   2.641   9.036  1.5585 -0.0685 -1.1080
 6414SOL     OW30703   1.679   1.721   1.154  0.0458 -0.3594  0.1796
 6414SOL    HW130704   1.666   1.665   1.077  2.0822 -1.4660  0.6389
 6414SOL    HW230705   1.650   1.659   1.221  2.1800 -1.2390  0.2770
 6415SOL     OW30706   1.852   1.390   8.774  0.1039  0.3081  0.5306
 6415SOL    HW130707   1.790   1.461   8.790  1.6385  1.7921 -0.1648
 6415SOL    HW230708   1.937   1.434   8.769  0.4849 -0.6808 -1.5344
 6416SOL     OW30709   3.591   0.326   1.408 -0.2269 -0.1341  0.1072
 6416SOL    HW130710   3.678   0.294   1.386 -0.8921 -0.4950 -1.9528
 6416SOL    HW230711   3.577   0.412   1.368  0.4994 -0.2601 -0.4143
 6417SOL     OW30712   0.086   3.779  15.874 -0.4277 -0.5191 -0.9769
 6417SOL    HW130713   4.721   3.773  15.900  0.0551 -1.9325  0.3926
 6417SOL    HW230714   0.080   3.836  15.796 -0.4834 -0.2456 -0.7725
 6418SOL     OW30715   4.375   2.157  13.536  0.9647 -0.1895 -0.2231
 6418SOL    HW130716   4.379   2.094  13.608  1.4553  0.0872 -0.0097
 6418SOL    HW230717   4.463   2.180  13.509  1.0769 -0.7005 -0.2955
 6419SOL     OW30718   1.385   3.124   5.572  0.1477 -0.3254  0.0192
 6419SOL    HW130719   1.393   3.103   5.665 -0.4009  0.4433  0.2394
 6419SOL    HW230720   1.362   3.038   5.537  1.4028 -0.7451  0.2318
 6420SOL     OW30721   1.817   3.028   1.461  0.3327 -0.5459 -0.3652
 6420SOL    HW130722   1.760   3.101   1.439  0.4436 -0.0103  1.1051
 6420SOL    HW230723   1.756   2.955   1.452  1.4474 -1.2630 -2.0155
 6421SOL     OW30724   4.082   4.057   6.847 -0.0431 -0.0386 -0.5478
 6421SOL    HW130725   4.016   3.994   6.877  0.7025  1.1216  3.5369
 6421SOL    HW230726   4.148   4.034   6.913 -2.3401 -1.5727  1.2414
 6422SOL     OW30727   0.276   1.133   4.229 -0.4897 -0.0756  0.5781
 6422SOL    HW130728   0.314   1.200   4.287 -2.0447  1.5453 -0.3108
 6422SOL    HW230729   0.192   1.177   4.219 -0.9381 -1.2764 -1.0283
 6423SOL     OW30730   0.870   4.411   3.838 -0.3225 -0.4262  0.0402
 6423SOL    HW130731   0.810   4.362   3.782 -0.5607  1.0883 -1.0384
 6423SOL    HW230732   0.811   4.463   3.892  1.6778  0.8913  0.9337
 6424SOL     OW30733   0.390   1.932   5.457  0.2554  0.3250 -0.0609
 6424SOL    HW130734   0.421   1.871   5.524 -1.7834 -0.3195  0.2871
 6424SOL    HW230735   0.308   1.961   5.497  1.8449  1.8012  2.1244
 6425SOL     OW30736   1.812   2.152   3.285  0.3839  0.5254 -0.0309
 6425SOL    HW130737   1.748   2.180   3.350  3.3685 -0.0067  3.1412
 6425SOL    HW230738   1.877   2.127   3.351  1.0388  1.4867 -0.3183
 6426SOL     OW30739   1.485   2.166   0.368 -0.5064 -0.1918  0.0255
 6426SOL    HW130740   1.459   2.113   0.293 -0.4923 -1.7934  1.1468
 6426SOL    HW230741   1.563   2.124   0.405 -0.5099 -1.2388 -1.1510
 6427SOL     OW30742   0.172   3.657   6.626  0.3976 -0.7383  0.5973
 6427SOL    HW130743   0.085   3.667   6.664  0.7639 -0.5882  1.3817
 6427SOL    HW230744   0.220   3.714   6.684 -1.1281  1.3239 -0.1704
 6428SOL     OW30745   2.349   2.455  11.502  0.5151 -0.2883 -0.7029
 6428SOL    HW130746   2.439   2.488  11.508  1.7108 -3.7428  0.0445
 6428SOL    HW230747   2.364   2.374  11.453 -1.9236 -0.3957 -1.2845
 6429SOL     OW30748   4.458   1.765   4.929 -0.2481 -0.0839 -0.2217
 6429SOL    HW130749   4.438   1.787   4.837 -2.6327 -0.2915  0.2571
 6429SOL    HW230750   4.514   1.838   4.957 -0.4392  0.0226 -0.1186
 6430SOL     OW30751   0.136   0.765   2.429  0.1551 -0.4706 -0.4248
 6430SOL    HW130752   0.081   0.757   2.351  1.4035  1.3105 -1.5077
 6430SOL    HW230753   0.219   0.731   2.395  1.2059  2.7576 -1.1234
 6431SOL     OW30754   1.217   3.715  16.342  0.0081  0.2341  0.1689
 6431SOL    HW130755   1.271   3.703  16.264 -1.0167 -1.4811 -0.2699
 6431SOL    HW230756   1.175   3.629  16.345  1.5844 -0.5974 -1.1864
 6432SOL     OW30757   4.276   4.590   3.181  0.1398 -0.1261 -0.3146
 6432SOL    HW130758   4.181   4.592   3.187  0.0349 -0.7998 -1.6954
 6432SOL    HW230759   4.300   4.592   3.273 -2.5411  2.1688  0.3103
 6433SOL     OW30760   2.512   1.655   9.929 -0.0902  0.0214  0.4021
 6433SOL    HW130761   2.564   1.672   9.850  0.1520  2.0964  1.0243
 6433SOL    HW230762   2.534   1.727   9.987  1.2868 -1.8500  2.2190
 6434SOL     OW30763   3.989   2.101   0.150 -0.3579 -0.1918 -0.1397
 6434SOL    HW130764   3.977   2.196   0.149 -1.7905 -0.3811 -2.5067
 6434SOL    HW230765   3.902   2.078   0.117  0.5079 -1.6374 -1.4203
 6435SOL     OW30766   3.330   2.023  16.863 -0.3835  0.3940  0.1582
 6435SOL    HW130767   3.314   2.011  16.957  0.3856 -1.2482  0.0770
 6435SOL    HW230768   3.331   2.118  16.849 -1.4693  0.3696 -0.0351
 6436SOL     OW30769   2.842   2.348   3.083 -0.1941 -0.1648 -0.1828
 6436SOL    HW130770   2.844   2.363   2.989 -2.8869  1.5537  0.0434
 6436SOL    HW230771   2.752   2.376   3.098 -0.6155 -1.7146  0.2495
 6437SOL     OW30772   2.756   2.375   1.036 -0.6224 -0.6534  0.4412
 6437SOL    HW130773   2.837   2.337   1.003  0.0249  0.0670  1.1789
 6437SOL    HW230774   2.700   2.357   0.961 -0.3822 -0.0125  0.1031
 6438SOL     OW30775   3.874   0.787   5.767  0.0493 -0.2210 -0.6268
 6438SOL    HW130776   3.781   0.762   5.766  0.2194 -1.0146  1.8418
 6438SOL    HW230777   3.881   0.880   5.746  0.5176  0.8156  3.9822
 6439SOL     OW30778   4.210   4.617   9.145 -0.0892 -0.6290  0.2021
 6439SOL    HW130779   4.116   4.639   9.144  0.3491  1.2507  0.5298
 6439SOL    HW230780   4.215   4.522   9.155 -3.9463 -0.7249  1.6693
 6440SOL     OW30781   3.061   4.723  16.314  0.3040  0.2069  0.2557
 6440SOL    HW130782   3.153   4.722  16.288 -0.0930 -0.1507 -1.1771
 6440SOL    HW230783   3.031   0.024  16.227 -1.5830 -3.5520 -0.2867
 6441SOL     OW30784   2.751   2.124  12.211 -0.4021 -0.2697  0.5118
 6441SOL    HW130785   2.837   2.139  12.170 -0.9624  1.6664  0.0657
 6441SOL    HW230786   2.771   2.117  12.305  1.5821 -0.7186  0.0744
 6442SOL     OW30787   2.275   0.558   6.830  0.0593  0.1355 -0.7419
 6442SOL    HW130788   2.281   0.652   6.814  1.3584  0.0893 -0.5000
 6442SOL    HW230789   2.271   0.549   6.925  2.6382 -1.6255 -0.8026
 6443SOL     OW30790   1.042   0.366   8.730 -0.9382 -0.0634  0.0874
 6443SOL    HW130791   0.979   0.300   8.700  1.0712 -1.3880 -1.2292
 6443SOL    HW230792   1.121   0.320   8.703 -2.6086 -3.1960  0.5709
 6444SOL     OW30793   0.126   0.526   6.840  0.0998  0.2201 -0.3328
 6444SOL    HW130794   0.132   0.443   6.791  0.6827 -0.6445  1.2049
 6444SOL    HW230795   0.075   0.498   6.915  0.1854 -0.2884 -0.4640
 6445SOL     OW30796   4.593   0.470   6.561  0.6403 -0.3711  0.0454
 6445SOL    HW130797   4.640   0.414   6.622  2.3632  1.9254  0.8181
 6445SOL    HW230798   4.652   0.455   6.486 -1.9588 -1.7875 -1.7366
 6446SOL     OW30799   3.595   2.508   1.786 -0.4327  0.6341 -0.5098
 6446SOL    HW130800   3.533   2.474   1.851 -0.2600  2.8788  0.8122
 6446SOL    HW230801   3.531   2.536   1.720 -0.7503  0.5389 -0.2396
 6447SOL     OW30802   0.476   4.439  12.725 -0.0655  0.1537 -0.5296
 6447SOL    HW130803   0.420   4.428  12.648  0.4520 -0.6772 -0.7784
 6447SOL    HW230804   0.434   4.379  12.786  0.8117 -1.0213 -1.0941
 6448SOL     OW30805   3.747   0.341   2.375 -0.1942  0.1756  0.7342
 6448SOL    HW130806   3.797   0.260   2.381 -1.0973 -0.4979 -0.7653
 6448SOL    HW230807   3.814   0.409   2.378  2.3720 -2.2449 -1.2727
 6449SOL     OW30808   1.004   1.234   6.726  0.1152  0.5285  0.7298
 6449SOL    HW130809   1.062   1.226   6.802  1.1382 -0.9147 -0.2200
 6449SOL    HW230810   0.921   1.257   6.767  0.1745  0.1335  1.0699
 6450SOL     OW30811   2.449   1.062   1.470  0.1028 -0.2778 -0.0430
 6450SOL    HW130812   2.452   1.086   1.562 -0.6585 -0.7760  0.1165
 6450SOL    HW230813   2.465   0.967   1.472 -0.2068 -0.2976  1.4244
 6451SOL     OW30814   4.537   3.490   2.026  0.0392 -1.1373 -0.0480
 6451SOL    HW130815   4.520   3.492   2.120  0.1978 -1.7246 -0.0074
 6451SOL    HW230816   4.603   3.422   2.019  0.6033 -0.4396 -1.5432
 6452SOL     OW30817   1.859   1.177   3.987  0.9707 -0.1639 -0.0725
 6452SOL    HW130818   1.829   1.087   3.973 -0.5856 -0.2565  3.9673
 6452SOL    HW230819   1.916   1.186   3.910 -1.7424  3.3617 -1.6805
 6453SOL     OW30820   2.064   4.382  17.599 -0.6432  0.0207  0.1552
 6453SOL    HW130821   2.058   4.293  17.565 -2.0164  0.2503 -0.1794
 6453SOL    HW230822   2.158   4.389  17.618 -1.1471 -2.2471  3.4005
 6454SOL     OW30823   3.859   0.056   5.901 -0.4936  0.0770  0.0647
 6454SOL    HW130824   3.779   0.091   5.863 -1.0715  0.9926  2.0797
 6454SOL    HW230825   3.902   0.020   5.824  0.2580  0.6049  0.2341
 6455SOL     OW30826   1.598   1.361   8.209  0.4117  0.5603  0.0695
 6455SOL    HW130827   1.604   1.409   8.126  0.5147 -1.2339 -0.9579
 6455SOL    HW230828   1.584   1.438   8.264 -3.7220 -1.1026  1.3515
 6456SOL     OW30829   4.262   3.235  17.113  0.3643 -0.0876 -0.5119
 6456SOL    HW130830   4.278   3.200  17.026  1.9051  0.7152 -0.5637
 6456SOL    HW230831   4.346   3.209  17.152  1.3585 -2.0319 -3.9599
 6457SOL     OW30832   2.300   3.686   3.026 -0.3301 -0.5433  0.0054
 6457SOL    HW130833   2.297   3.749   3.098  0.0288 -0.3142 -0.1813
 6457SOL    HW230834   2.264   3.603   3.058  0.7125 -1.1745 -0.4484
 6458SOL     OW30835   1.077   1.198   5.290 -0.2104  0.1669 -0.5382
 6458SOL    HW130836   0.986   1.187   5.265 -0.0620  0.3186 -1.1526
 6458SOL    HW230837   1.064   1.276   5.344  1.1190 -0.4932  0.7275
 6459SOL     OW30838   3.081   0.908   4.584 -0.2583  0.3773 -0.1322
 6459SOL    HW130839   3.092   0.814   4.596 -1.1112  0.2267 -0.5682
 6459SOL    HW230840   3.044   0.920   4.497  0.2753 -2.9851 -0.7915
 6460SOL     OW30841   4.128   2.646   2.080  0.5097 -0.0554 -0.0229
 6460SOL    HW130842   4.070   2.672   2.009 -1.7400 -3.0809  0.6855
 6460SOL    HW230843   4.211   2.645   2.033 -0.1632 -0.8000 -1.1789
 6461SOL     OW30844   0.686   1.873   7.237  0.3435  0.8336  0.0180
 6461SOL    HW130845   0.705   1.780   7.237  1.1062  0.9883  0.3542
 6461SOL    HW230846   0.616   1.876   7.303  0.1863  0.0255 -0.1134
 6462SOL     OW30847   3.287   1.246   9.431  0.0717  0.1967 -0.2363
 6462SOL    HW130848   3.270   1.272   9.522 -1.7991  0.9067 -0.7924
 6462SOL    HW230849   3.241   1.162   9.440 -1.0376  0.8217 -0.0089
 6463SOL     OW30850   3.012   3.594   2.657 -0.3671 -0.1101  0.1622
 6463SOL    HW130851   3.077   3.580   2.589 -1.1548 -1.3217 -0.3424
 6463SOL    HW230852   3.075   3.595   2.729  1.1824  0.0340 -1.1919
 6464SOL     OW30853   1.433   4.001   4.270 -0.6213 -0.1460  0.5755
 6464SOL    HW130854   1.458   4.085   4.309  0.5410  0.8068 -2.1934
 6464SOL    HW230855   1.409   3.954   4.349 -2.1808 -0.6575 -0.2187
 6465SOL     OW30856   2.450   3.316  16.619  0.5648  0.0291 -0.5892
 6465SOL    HW130857   2.482   3.335  16.531  0.0347  1.7655 -0.4176
 6465SOL    HW230858   2.443   3.405  16.654 -1.2782 -0.1800 -0.4170
 6466SOL     OW30859   2.663   4.521   7.979 -0.5507 -0.2680  0.2835
 6466SOL    HW130860   2.669   4.555   7.889 -1.1301  1.6411  0.9656
 6466SOL    HW230861   2.741   4.466   7.989  0.7069  1.4518 -0.1528
 6467SOL     OW30862   3.752   0.956   4.731 -0.3590 -0.1030 -0.0049
 6467SOL    HW130863   3.758   1.005   4.813  1.4634  0.7060 -0.6093
 6467SOL    HW230864   3.822   1.005   4.687  0.5319  0.7599  2.3691
 6468SOL     OW30865   3.887   2.216   3.039 -0.1939  0.2634 -0.2558
 6468SOL    HW130866   3.857   2.208   2.949 -1.6359  1.6001  0.1095
 6468SOL    HW230867   3.950   2.143   3.037 -0.5039 -0.0514  1.5998
 6469SOL     OW30868   2.273   1.915   2.120  0.1898 -0.3044  0.4211
 6469SOL    HW130869   2.203   1.867   2.076 -0.5388  2.2667 -1.2671
 6469SOL    HW230870   2.335   1.919   2.047  1.6104 -2.3561  1.5303
 6470SOL     OW30871   3.024   3.052   2.132  0.6241 -0.5098  0.1745
 6470SOL    HW130872   3.116   3.029   2.147  1.0165 -0.3557 -2.0218
 6470SOL    HW230873   3.033   3.138   2.174 -3.0755 -0.6932  1.2696
 6471SOL     OW30874   2.500   3.704   7.863  0.1707 -0.3633 -0.1790
 6471SOL    HW130875   2.587   3.678   7.895 -0.1092  0.3247  1.1226
 6471SOL    HW230876   2.520   3.668   7.776 -0.0842  2.9880 -1.6223
 6472SOL     OW30877   2.342   1.635   6.073  0.2363 -0.6941  0.0351
 6472SOL    HW130878   2.371   1.593   5.992 -1.2131  0.6106 -1.1659
 6472SOL    HW230879   2.381   1.723   6.068 -1.9398  0.2085 -0.8385
 6473SOL     OW30880   1.714   2.147  16.181  0.0471 -0.7533 -0.0092
 6473SOL    HW130881   1.679   2.062  16.152 -2.7368  0.6370 -0.7401
 6473SOL    HW230882   1.787   2.170  16.124  0.4011  0.4761  0.9353
 6474SOL     OW30883   3.811   0.065   1.416 -0.7225 -0.2683  0.1804
 6474SOL    HW130884   3.830   0.006   1.343 -1.0233 -1.1417  0.8107
 6474SOL    HW230885   3.833   0.154   1.386  1.6461 -0.7712  0.4612
 6475SOL     OW30886   3.939   2.947   5.131  0.4936 -0.1890  0.2404
 6475SOL    HW130887   3.996   2.886   5.177  0.3639 -0.9876 -0.6759
 6475SOL    HW230888   3.975   2.946   5.043  0.2000  0.1494  0.1150
 6476SOL     OW30889   3.323   1.892   2.550  0.5128 -0.8197 -1.0045
 6476SOL    HW130890   3.362   1.910   2.464 -0.5196 -2.3867 -1.8047
 6476SOL    HW230891   3.390   1.840   2.594  1.1854  0.7545 -0.1304
 6477SOL     OW30892   0.710   4.294   8.988 -0.4452  0.6908 -0.7210
 6477SOL    HW130893   0.790   4.241   8.986  0.6492  2.3222 -0.1973
 6477SOL    HW230894   0.723   4.368   9.047 -1.6257  0.0409  0.3501
 6478SOL     OW30895   2.924   2.616  10.230  0.8180 -0.1974  0.2203
 6478SOL    HW130896   2.884   2.529  10.226  0.8405 -0.1721 -0.5690
 6478SOL    HW230897   2.854   2.680  10.211 -0.6262 -1.3728  1.6055
 6479SOL     OW30898   0.222   2.897   8.813 -0.1692  0.0705  0.2157
 6479SOL    HW130899   0.166   2.898   8.735  1.8573 -2.2839 -1.2592
 6479SOL    HW230900   0.159   2.865   8.878  0.1000  0.8119  0.8297
 6480SOL     OW30901   4.473   4.026   3.397  0.0977 -0.9418 -0.4829
 6480SOL    HW130902   4.466   4.089   3.468 -1.3721 -1.9141  0.2439
 6480SOL    HW230903   4.558   3.985   3.410  0.0731 -0.3439  1.5036
 6481SOL     OW30904   2.194   0.224   8.107  0.1397  0.2375 -0.1997
 6481SOL    HW130905   2.135   0.298   8.088 -0.5572 -0.0292  0.9593
 6481SOL    HW230906   2.274   0.275   8.099  1.1352 -1.3813 -0.4957
 6482SOL     OW30907   0.937   4.725  12.552 -0.6183  0.0523  0.4930
 6482SOL    HW130908   1.000   4.696  12.486  0.2136 -0.1230  1.3677
 6482SOL    HW230909   0.999   0.023  12.621  0.1294 -1.1144  0.2423
 6483SOL     OW30910   3.126   0.310   5.388  0.5906  0.3797  0.2953
 6483SOL    HW130911   3.147   0.321   5.481  1.3172  0.4864  0.1136
 6483SOL    HW230912   3.178   0.381   5.353  0.5094  0.0628 -0.4539
 6484SOL     OW30913   1.744   2.969   3.918  0.0444 -0.6404 -0.1767
 6484SOL    HW130914   1.750   2.976   4.014  0.9645 -0.5825 -0.2369
 6484SOL    HW230915   1.791   3.046   3.886  1.0348 -1.4825 -0.7454
 6485SOL     OW30916   2.903   0.227   7.196  0.2994  0.1414 -0.4906
 6485SOL    HW130917   2.903   0.273   7.112 -1.5346 -0.9923 -1.1160
 6485SOL    HW230918   2.811   0.230   7.222  1.2304 -0.4261  2.9575
 6486SOL     OW30919   3.682   0.737  13.031  0.4194  0.0336  0.2855
 6486SOL    HW130920   3.739   0.704  13.100 -2.4735  2.2603  3.6989
 6486SOL    HW230921   3.749   0.755  12.964 -0.2296  1.2893 -0.0287
 6487SOL     OW30922   2.911   4.114   2.509  0.0331  0.0625  0.0521
 6487SOL    HW130923   2.957   4.131   2.591  2.0564 -1.0123 -0.8717
 6487SOL    HW230924   2.969   4.052   2.465  0.8700 -0.8238  2.4538
 6488SOL     OW30925   4.310   2.350   6.501  0.0578  0.4128  0.3975
 6488SOL    HW130926   4.215   2.342   6.501  0.1145 -0.2605 -2.0933
 6488SOL    HW230927   4.321   2.413   6.572  0.7752  0.7907 -0.0457
 6489SOL     OW30928   0.022   3.824   5.540 -0.3161 -0.2347  0.0232
 6489SOL    HW130929   4.721   3.854   5.626 -0.1497 -0.3669  0.1220
 6489SOL    HW230930   4.705   3.896   5.493  0.5754  1.5571  1.9155
 6490SOL     OW30931   0.549   1.748  13.786 -0.2062 -0.7274 -0.0501
 6490SOL    HW130932   0.459   1.768  13.758 -0.0129 -1.8124 -1.4522
 6490SOL    HW230933   0.569   1.829  13.833  0.3187  0.1170 -1.7507
 6491SOL     OW30934   3.471   2.777   0.274 -0.3533 -0.1425  0.5247
 6491SOL    HW130935   3.382   2.811   0.270 -0.5291 -0.6065  0.4882
 6491SOL    HW230936   3.499   2.803   0.186 -0.0556 -1.5367  0.2115
 6492SOL     OW30937   0.039   0.554  12.303  0.3657  0.1750 -0.1790
 6492SOL    HW130938   4.683   0.508  12.290  1.4105 -1.4938 -0.7699
 6492SOL    HW230939   0.098   0.482  12.284 -2.5158 -2.1037 -0.4519
 6493SOL     OW30940   1.316   2.951   7.400 -1.0206 -0.0556 -0.0065
 6493SOL    HW130941   1.323   3.010   7.476  0.7721 -1.9578  1.3167
 6493SOL    HW230942   1.236   2.900   7.411 -1.8379  0.6514 -2.8854
 6494SOL     OW30943   2.715   2.068   7.158 -0.2095  0.7410  0.4989
 6494SOL    HW130944   2.792   2.034   7.203  0.5610  2.2432  0.2988
 6494SOL    HW230945   2.744   2.148   7.114 -0.3519  0.8193  0.5469
 6495SOL     OW30946   2.997   0.700   1.451  0.6624  0.1169 -0.1452
 6495SOL    HW130947   2.951   0.618   1.469  4.0418 -1.5889  0.7363
 6495SOL    HW230948   2.934   0.767   1.476  2.0259  1.2214  0.3530
 6496SOL     OW30949   3.054   2.281   7.253  0.7686  0.4847  0.5245
 6496SOL    HW130950   3.047   2.328   7.336  1.3032  0.0308  0.8293
 6496SOL    HW230951   3.143   2.251   7.272  1.3030  1.9125  0.2690
 6497SOL     OW30952   4.700   2.731   8.131  0.0827 -0.3363  0.3600
 6497SOL    HW130953   0.069   2.743   8.129 -0.3877  3.4511  0.5492
 6497SOL    HW230954   4.692   2.717   8.225 -0.0972 -0.0032  0.3948
 6498SOL     OW30955   4.519   4.459   7.062 -0.4113  0.3009  0.3749
 6498SOL    HW130956   4.479   4.500   7.138 -1.3001  0.2517 -0.0605
 6498SOL    HW230957   4.583   4.398   7.097  1.6905  2.2756 -0.0638
 6499SOL     OW30958   1.363   3.634  12.008 -0.0424 -1.0360  0.4781
 6499SOL    HW130959   1.292   3.648  11.945 -0.7338 -0.5630  1.3612
 6499SOL    HW230960   1.324   3.597  12.087 -0.4794 -0.7795  0.3822
 6500SOL     OW30961   1.298   1.732   2.283 -0.4532 -0.3976  0.2104
 6500SOL    HW130962   1.332   1.734   2.193 -1.4481 -0.3718 -0.1654
 6500SOL    HW230963   1.219   1.682   2.262 -1.0268  0.7584 -0.3815
 6501SOL     OW30964   1.313   2.313   7.388  0.0322  0.2687 -0.0065
 6501SOL    HW130965   1.248   2.294   7.456  0.4753  1.7058  0.8103
 6501SOL    HW230966   1.375   2.376   7.424 -0.7450  0.5843  0.7942
 6502SOL     OW30967   0.985   1.362  13.414 -0.2669  0.4140 -0.0096
 6502SOL    HW130968   0.931   1.426  13.367 -0.3703  0.4863  0.2095
 6502SOL    HW230969   1.009   1.423  13.484 -0.6457  0.5389  0.0117
 6503SOL     OW30970   3.629   0.754   9.116 -0.2245  0.3877  0.2382
 6503SOL    HW130971   3.652   0.686   9.179  3.2484  1.3935  0.0172
 6503SOL    HW230972   3.648   0.837   9.159  0.0737  0.1030  0.6496
 6504SOL     OW30973   0.547   4.663  12.480  0.5830  0.0943 -0.5689
 6504SOL    HW130974   0.610   4.591  12.478  0.8338  0.3803 -2.7077
 6504SOL    HW230975   0.477   4.622  12.532 -0.4623  0.5271 -1.6404
 6505SOL     OW30976   2.983   4.516  16.702 -0.0530 -0.0341 -0.3132
 6505SOL    HW130977   2.935   4.449  16.751 -0.6198  0.1503 -0.6134
 6505SOL    HW230978   3.063   4.497  16.751 -1.4331  0.1879  2.0468
 6506SOL     OW30979   1.017   2.128  17.157 -0.1229  1.0142 -0.3343
 6506SOL    HW130980   0.953   2.136  17.087  0.9921  0.0985 -1.4461
 6506SOL    HW230981   0.981   2.181  17.228  0.7433 -0.9864  1.5871
 6507SOL     OW30982   3.437   3.988  13.122  0.1186  0.0755 -0.1637
 6507SOL    HW130983   3.505   3.961  13.060  0.2229  0.3576 -0.1684
 6507SOL    HW230984   3.487   3.970  13.202  2.1115  0.6388 -1.2981
 6508SOL     OW30985   4.603   4.527   2.472 -0.0066  0.3731  0.6464
 6508SOL    HW130986   4.636   4.438   2.488 -1.9779 -0.0971  2.0947
 6508SOL    HW230987   4.524   4.516   2.525 -0.3499  0.9001  0.2457
 6509SOL     OW30988   2.128   0.476   2.518  0.4721  0.4815  0.3052
 6509SOL    HW130989   2.046   0.505   2.559  1.1000  1.8927  0.5288
 6509SOL    HW230990   2.166   0.409   2.575 -0.5731 -1.6259 -1.4622
 6510SOL     OW30991   2.231   3.273   6.099 -0.3633 -0.2353  0.0973
 6510SOL    HW130992   2.193   3.356   6.072  0.8009  1.2998  3.1891
 6510SOL    HW230993   2.161   3.247   6.159 -1.2503 -1.0638 -1.3150
 6511SOL     OW30994   0.821   4.518  13.322  0.0915 -0.5511  0.0571
 6511SOL    HW130995   0.827   4.490  13.414  3.0357 -0.9307 -0.2664
 6511SOL    HW230996   0.807   4.612  13.339 -0.6017 -0.2824 -2.0220
 6512SOL     OW30997   2.157   0.002   2.519  0.1468 -0.0837 -0.4897
 6512SOL    HW130998   2.153   4.666   2.592 -3.7482  0.6603 -0.0988
 6512SOL    HW230999   2.170   4.670   2.444  0.1695  0.4511 -0.9020
 6513SOL     OW31000   0.583   2.891   3.593  0.1718  0.6778 -0.2205
 6513SOL    HW131001   0.545   2.870   3.508 -0.7794 -1.4953  0.7393
 6513SOL    HW231002   0.576   2.809   3.641  0.6160  1.4405  1.1690
 6514SOL     OW31003   0.508   2.493  16.977  0.1723 -0.8397 -0.2394
 6514SOL    HW131004   0.456   2.413  16.965 -0.5266 -0.5723  1.0313
 6514SOL    HW231005   0.501   2.521  16.886 -0.8617 -2.3981 -0.6468
 6515SOL     OW31006   4.390   2.570   4.895 -0.1823 -0.1244  0.1299
 6515SOL    HW131007   4.344   2.604   4.972  0.1855  0.6889 -0.0008
 6515SOL    HW231008   4.419   2.484   4.926 -1.6014 -0.2176  1.2040
 6516SOL     OW31009   4.077   3.242   2.155  0.5633 -0.1606 -0.1944
 6516SOL    HW131010   4.105   3.282   2.237  1.4252 -1.5441  0.1837
 6516SOL    HW231011   4.158   3.214   2.113  1.3596  2.4483 -0.4072
 6517SOL     OW31012   4.273   4.595   7.150  0.1655  0.2491  0.0207
 6517SOL    HW131013   4.272   4.641   7.066  1.2186 -1.4495 -0.8963
 6517SOL    HW231014   4.245   4.505   7.133 -0.0927  0.5425 -1.0761
 6518SOL     OW31015   1.053   1.522  10.264  0.7504  0.8044  0.0232
 6518SOL    HW131016   1.118   1.477  10.318 -0.9460 -1.3497  0.3014
 6518SOL    HW231017   0.982   1.466  10.296  1.5544  0.4320  1.1946
 6519SOL     OW31018   0.153   4.141   3.911  0.1779 -0.4683  0.0060
 6519SOL    HW131019   0.227   4.180   3.956  0.1996 -0.0622 -0.3725
 6519SOL    HW231020   0.184   4.114   3.824  1.5197 -2.2638  1.0497
 6520SOL     OW31021   2.548   3.073   7.156 -0.3866  0.3177  0.3659
 6520SOL    HW131022   2.583   2.990   7.189 -0.9220 -0.3988 -0.8744
 6520SOL    HW231023   2.611   3.089   7.086 -0.9088 -1.3569 -0.4688
 6521SOL     OW31024   1.101   0.775  14.575 -0.0921  0.2065 -0.1467
 6521SOL    HW131025   1.156   0.751  14.649  0.4459 -0.1676 -0.6606
 6521SOL    HW231026   1.044   0.841  14.612 -0.5937 -1.5315  2.1564
 6522SOL     OW31027   3.503   3.963   5.722  0.0027  0.1572 -0.2206
 6522SOL    HW131028   3.573   3.899   5.710  0.1820 -0.1053  2.2451
 6522SOL    HW231029   3.516   4.023   5.648 -3.2592  0.8969 -0.1735
 6523SOL     OW31030   1.060   2.955   4.768  0.2385  0.1841  0.0188
 6523SOL    HW131031   0.974   2.914   4.765 -0.3599  1.4737 -0.3678
 6523SOL    HW231032   1.092   2.953   4.678  1.5290  1.1556  0.4541
 6524SOL     OW31033   1.680   1.271   0.872 -0.5316 -0.1055 -0.0367
 6524SOL    HW131034   1.601   1.223   0.898 -0.2588  0.0778  1.1258
 6524SOL    HW231035   1.688   1.257   0.777  0.4546  0.8536 -0.0857
 6525SOL     OW31036   4.634   4.512   8.885 -0.5934 -0.3892  0.1506
 6525SOL    HW131037   4.706   4.535   8.944 -0.7954 -2.2932  1.1571
 6525SOL    HW231038   4.562   4.557   8.929 -1.3589 -0.5351 -0.9565
 6526SOL     OW31039   1.389   0.827   2.267 -0.7245 -0.4935 -0.2490
 6526SOL    HW131040   1.394   0.740   2.307  4.1583 -0.2649 -0.3506
 6526SOL    HW231041   1.373   0.878   2.347 -0.8709  2.3915 -2.0963
 6527SOL     OW31042   2.154   2.550   8.974  0.3710  0.9478 -0.3754
 6527SOL    HW131043   2.114   2.591   9.051 -0.0523 -3.4538  1.7624
 6527SOL    HW231044   2.073   2.525   8.930 -0.0221 -0.5201  1.1715
 6528SOL     OW31045   0.620   4.454   5.981 -0.3163  0.1603  0.0762
 6528SOL    HW131046   0.668   4.419   5.905 -0.2894 -2.0752  1.1154
 6528SOL    HW231047   0.565   4.526   5.952 -1.4037 -1.9096 -3.0272
 6529SOL     OW31048   2.851   0.050  10.549 -0.2608 -0.1232 -0.1996
 6529SOL    HW131049   2.897   0.014  10.473 -0.7558 -1.7351  0.2535
 6529SOL    HW231050   2.768   0.002  10.555 -0.9985  1.0696 -0.7979
 6530SOL     OW31051   4.126   4.066   3.445  0.6174 -0.2820  0.8506
 6530SOL    HW131052   4.101   4.015   3.368 -2.2875  0.1200  1.4943
 6530SOL    HW231053   4.202   4.107   3.405  1.1527 -0.3710  1.7918
 6531SOL     OW31054   3.606   0.771   1.081  0.1310  0.2287  0.4162
 6531SOL    HW131055   3.690   0.797   1.042  0.0460  0.8130  0.6154
 6531SOL    HW231056   3.557   0.854   1.082 -1.4009 -0.7321  3.0875
 6532SOL     OW31057   2.703   2.828  14.419 -0.2837  0.4289  0.0321
 6532SOL    HW131058   2.740   2.776  14.491 -0.4840 -1.6734 -1.3961
 6532SOL    HW231059   2.780   2.873  14.386 -0.0940  0.2170  0.1825
 6533SOL     OW31060   2.691   4.479   9.490 -0.8348  0.0942  0.2244
 6533SOL    HW131061   2.753   4.467   9.418  0.0563  3.1683  0.4646
 6533SOL    HW231062   2.748   4.508   9.562  2.2840 -1.9810 -1.4099
 6534SOL     OW31063   0.459   0.972   5.232 -0.3537  0.4722 -0.0326
 6534SOL    HW131064   0.516   0.923   5.292 -1.1301  1.0361  1.1733
 6534SOL    HW231065   0.420   0.897   5.186  0.2962  0.5671 -0.7311
 6535SOL     OW31066   3.085   1.373   3.786 -0.2466 -0.0358  0.4323
 6535SOL    HW131067   3.174   1.362   3.752  0.4920  0.0216  2.3484
 6535SOL    HW231068   3.037   1.354   3.705 -2.2756  2.9256  0.9608
 6536SOL     OW31069   2.135   1.189   1.372  0.0639  0.3196 -0.3299
 6536SOL    HW131070   2.213   1.245   1.370 -0.1284  0.5900 -0.2916
 6536SOL    HW231071   2.104   1.202   1.283 -0.9058  0.1275 -0.0157
 6537SOL     OW31072   0.172   4.003   2.584  0.1194  0.4433  0.4639
 6537SOL    HW131073   0.265   4.024   2.582  0.4188 -0.7994  1.1982
 6537SOL    HW231074   0.187   3.911   2.606  1.2897  1.1888  2.7552
 6538SOL     OW31075   3.281   4.313   2.370  0.5787 -0.5752 -0.4409
 6538SOL    HW131076   3.212   4.372   2.400  1.7803  0.5082  0.1819
 6538SOL    HW231077   3.307   4.363   2.293 -1.1001  0.5946 -0.2456
 6539SOL     OW31078   4.462   0.332   3.977 -0.6991 -0.0100 -0.0210
 6539SOL    HW131079   4.487   0.286   4.056  1.9795  1.5502  0.0530
 6539SOL    HW231080   4.527   0.309   3.910  1.8620 -1.4042  2.9805
 6540SOL     OW31081   2.709   3.963  15.877  0.2669 -0.3406 -0.0007
 6540SOL    HW131082   2.622   3.986  15.845  0.4005 -0.6889 -0.6125
 6540SOL    HW231083   2.748   4.051  15.879  0.9110 -0.6417  0.6910
 6541SOL     OW31084   4.193   3.505   1.924 -0.0314 -0.2869 -0.9972
 6541SOL    HW131085   4.199   3.539   1.834 -0.4025  0.1460 -0.8566
 6541SOL    HW231086   4.245   3.425   1.912 -0.6955 -0.8938  0.2130
 6542SOL     OW31087   1.462   1.960   5.864  0.5213 -0.0778  0.7203
 6542SOL    HW131088   1.417   2.018   5.925 -0.3038 -0.2051  0.2259
 6542SOL    HW231089   1.393   1.897   5.842  1.0875  0.0509 -1.5085
 6543SOL     OW31090   0.889   0.457   2.790  0.1865 -1.2566 -0.2820
 6543SOL    HW131091   0.945   0.402   2.735  0.7160 -0.3265 -0.6803
 6543SOL    HW231092   0.805   0.427   2.757 -0.7873  0.2900  0.8100
 6544SOL     OW31093   3.048   0.074   1.726  0.8729 -0.1284  0.0122
 6544SOL    HW131094   2.975   0.078   1.788 -1.3735 -3.3038 -2.3829
 6544SOL    HW231095   3.014   0.114   1.646 -4.5662 -0.3060  2.2250
 6545SOL     OW31096   3.280   0.101   1.846 -0.3215 -0.2585 -0.0967
 6545SOL    HW131097   3.192   0.108   1.807 -0.5199  0.3918  0.4627
 6545SOL    HW231098   3.331   0.092   1.766  0.2419  1.1937  0.0918
 6546SOL     OW31099   2.732   4.266   4.302 -0.5012 -0.0220  0.0105
 6546SOL    HW131100   2.721   4.357   4.330  2.3552  0.5603 -0.7844
 6546SOL    HW231101   2.679   4.262   4.223 -0.2520  1.2153 -0.2210
 6547SOL     OW31102   3.042   3.866   4.655 -0.2476 -0.6832  0.5093
 6547SOL    HW131103   2.963   3.835   4.700 -2.1541 -0.5414 -2.7777
 6547SOL    HW231104   3.078   3.926   4.721 -0.1387  0.4217 -0.5462
 6548SOL     OW31105   3.601   3.602   0.703  0.2715  0.0535 -0.3442
 6548SOL    HW131106   3.680   3.577   0.654  1.3191 -1.2476  2.0282
 6548SOL    HW231107   3.633   3.638   0.785  1.2398 -0.9406 -0.2915
 6549SOL     OW31108   2.257   2.844   7.025 -0.1844  0.2154 -0.4047
 6549SOL    HW131109   2.221   2.832   6.937 -1.1422  1.2173 -0.1417
 6549SOL    HW231110   2.195   2.790   7.074 -0.9522 -0.5669 -2.2178
 6550SOL     OW31111   1.966   0.560   7.623 -0.1556  0.4322  0.2529
 6550SOL    HW131112   1.924   0.623   7.681  3.4067  1.2889  1.9231
 6550SOL    HW231113   1.970   0.481   7.676 -0.6509  1.6191  2.0387
 6551SOL     OW31114   0.633   3.608   4.821 -0.1396  0.8345  0.6987
 6551SOL    HW131115   0.575   3.535   4.842  0.8669  0.2723  1.5151
 6551SOL    HW231116   0.600   3.628   4.734 -0.4502 -0.7327  0.4698
 6552SOL     OW31117   1.501   3.767  12.831 -0.0944  0.3203 -0.4055
 6552SOL    HW131118   1.535   3.678  12.845 -1.5359 -0.2747 -0.6906
 6552SOL    HW231119   1.444   3.776  12.908  1.8407  0.9861  0.9555
 6553SOL     OW31120   0.145   2.214   4.533 -0.0449  0.2744  0.5857
 6553SOL    HW131121   0.210   2.209   4.603 -0.2987  1.0289  0.8736
 6553SOL    HW231122   0.201   2.262   4.471  0.3426 -1.4935 -0.4574
 6554SOL     OW31123   3.719   0.544   3.301  0.2706  0.4597 -0.5785
 6554SOL    HW131124   3.748   0.564   3.212 -0.5229 -2.1657 -1.4320
 6554SOL    HW231125   3.675   0.468   3.264 -1.3830  1.1125  0.0580
 6555SOL     OW31126   4.454   2.490   5.248  0.6371  0.4983  0.1036
 6555SOL    HW131127   4.548   2.469   5.248  0.5237  0.0147  1.9698
 6555SOL    HW231128   4.431   2.484   5.340 -2.7443  0.2836 -0.7574
 6556SOL     OW31129   3.057   0.597   2.654 -0.0179 -0.1862  0.0755
 6556SOL    HW131130   3.065   0.651   2.576  0.7570 -0.0760  0.2245
 6556SOL    HW231131   3.014   0.516   2.626  1.3470 -0.4787 -1.2357
 6557SOL     OW31132   1.655   0.015   3.708 -0.2950 -0.1001 -0.3286
 6557SOL    HW131133   1.614   0.093   3.670 -1.1970 -0.6851 -0.5628
 6557SOL    HW231134   1.594   4.715   3.777 -0.6341  1.0710 -0.1782
 6558SOL     OW31135   3.618   2.479   2.247  0.8225  0.5417  0.0679
 6558SOL    HW131136   3.587   2.460   2.336 -0.2995  0.4278 -0.3381
 6558SOL    HW231137   3.674   2.403   2.233  0.0318  0.1936 -1.1630
 6559SOL     OW31138   0.648   0.526   8.489  0.9299 -0.4173 -0.0608
 6559SOL    HW131139   0.602   0.602   8.452 -2.2477 -1.6195  1.3963
 6559SOL    HW231140   0.737   0.560   8.494 -0.1168  2.3252  0.0333
 6560SOL     OW31141   3.171   4.112   6.682 -0.1941  0.2409  0.0972
 6560SOL    HW131142   3.138   4.109   6.772 -0.7928  1.3224 -0.0821
 6560SOL    HW231143   3.264   4.089   6.686 -0.2259  0.1059  0.0503
 6561SOL     OW31144   2.331   3.690   2.454 -0.5069  0.3625  0.1875
 6561SOL    HW131145   2.388   3.717   2.383 -0.4289 -0.1531  0.0513
 6561SOL    HW231146   2.272   3.631   2.406 -0.0853 -0.1460  0.2950
 6562SOL     OW31147   4.537   4.501   3.604  0.2004 -0.8874  0.0836
 6562SOL    HW131148   4.528   4.542   3.690  0.5046 -0.3846 -0.1268
 6562SOL    HW231149   4.632   4.501   3.596  0.1960 -0.8361  0.0342
 6563SOL     OW31150   1.008   2.977   0.519 -0.0900  0.0060  0.2133
 6563SOL    HW131151   1.052   2.957   0.602  1.3914  0.1604 -0.5481
 6563SOL    HW231152   0.940   3.040   0.546 -0.7125 -0.8773  0.7116
 6564SOL     OW31153   0.076   4.205  12.640  0.3952 -0.5508 -0.6728
 6564SOL    HW131154   0.034   4.283  12.676 -0.6505 -0.9110 -1.1198
 6564SOL    HW231155   0.152   4.205  12.698 -0.3553 -2.1051  0.2827
 6565SOL     OW31156   1.801   1.546  11.129 -0.2214 -0.0355  0.1087
 6565SOL    HW131157   1.772   1.635  11.109  1.0603  0.7525  1.7461
 6565SOL    HW231158   1.721   1.493  11.119  1.1618 -1.9032 -1.0228
 6566SOL     OW31159   4.105   4.263   2.116 -0.1847 -0.0182 -0.6586
 6566SOL    HW131160   4.144   4.345   2.145 -1.0992 -0.0654  0.7214
 6566SOL    HW231161   4.013   4.281   2.137 -0.0977  1.2625 -1.3611
 6567SOL     OW31162   1.454   1.911   5.582 -0.5823  0.6751  0.1609
 6567SOL    HW131163   1.480   1.960   5.660 -3.2607 -0.1276  1.5312
 6567SOL    HW231164   1.360   1.914   5.597 -1.1913 -1.9338 -3.2020
 6568SOL     OW31165   4.021   4.587  17.083  0.5527  0.1988 -0.7024
 6568SOL    HW131166   3.936   4.543  17.089  0.7802 -0.0095  0.9367
 6568SOL    HW231167   4.050   4.563  16.995 -4.5755  0.4768 -2.4802
 6569SOL     OW31168   2.424   4.598   7.809 -0.2888 -0.4665 -0.4502
 6569SOL    HW131169   2.435   4.503   7.806 -3.9393 -0.8973  0.0559
 6569SOL    HW231170   2.350   4.604   7.869  1.8145  0.4997  2.0305
 6570SOL     OW31171   4.564   1.809  15.921 -0.1883 -0.3610  0.5830
 6570SOL    HW131172   4.569   1.849  15.834 -1.5584 -4.6586 -1.4780
 6570SOL    HW231173   4.475   1.775  15.925 -1.3585  2.5696 -0.4591
 6571SOL     OW31174   2.715   2.812  10.170  0.3056 -0.0649 -0.2603
 6571SOL    HW131175   2.624   2.810  10.198  0.1532  1.0538 -0.6567
 6571SOL    HW231176   2.739   2.891  10.219  1.1153 -1.0684  0.9709
 6572SOL     OW31177   2.205   4.340   0.395  0.4141 -0.2321  0.0192
 6572SOL    HW131178   2.174   4.250   0.387 -1.1574  0.6431 -3.5318
 6572SOL    HW231179   2.280   4.331   0.454  0.5764  0.1962 -0.1248
 6573SOL     OW31180   3.652   1.287   1.920 -0.0867 -0.2494 -0.8193
 6573SOL    HW131181   3.646   1.369   1.871  0.8455  1.5931  2.1049
 6573SOL    HW231182   3.725   1.309   1.978 -0.0523  0.4440 -1.1245
 6574SOL     OW31183   3.111   4.320   6.445  0.1009 -0.3713  0.2994
 6574SOL    HW131184   3.100   4.380   6.372  1.4674  1.5864  1.7146
 6574SOL    HW231185   3.171   4.257   6.406 -0.9335 -2.1888  1.6158
 6575SOL     OW31186   0.169   0.361   5.370 -0.9264 -0.5115  0.8085
 6575SOL    HW131187   0.148   0.388   5.281 -0.3023 -2.1598  0.1627
 6575SOL    HW231188   0.221   0.437   5.397 -2.6583  1.1020 -0.4121
 6576SOL     OW31189   2.651   3.220   4.286  0.5878  0.7190  0.2868
 6576SOL    HW131190   2.600   3.298   4.265 -0.7376 -0.1669  0.1841
 6576SOL    HW231191   2.592   3.185   4.352 -0.0861  2.9038  0.8383
 6577SOL     OW31192   4.184   3.993   8.105  0.2782 -0.0019 -0.0319
 6577SOL    HW131193   4.191   4.002   8.200  1.4233 -0.8359 -0.0479
 6577SOL    HW231194   4.265   3.955   8.072 -0.7475 -2.3515  0.1416
 6578SOL     OW31195   2.607   2.129   4.429  0.2262  0.5819  1.1200
 6578SOL    HW131196   2.593   2.099   4.340  2.8545  1.4719  0.4039
 6578SOL    HW231197   2.686   2.082   4.455  0.1406  0.1864  0.6638
 6579SOL     OW31198   4.724   1.976   8.741  0.2396 -0.7462  0.0178
 6579SOL    HW131199   4.675   1.946   8.664 -0.5967  1.2075 -0.2046
 6579SOL    HW231200   0.075   1.920   8.728  1.0749 -0.3039  2.9520
 6580SOL     OW31201   1.645   2.400  15.941  0.1294  0.0341 -0.0358
 6580SOL    HW131202   1.563   2.354  15.962  0.2134 -0.5311 -0.9786
 6580SOL    HW231203   1.708   2.328  15.939 -2.5106 -2.1760 -3.8245
 6581SOL     OW31204   2.333   0.319  16.730  0.1763  0.5218  0.0673
 6581SOL    HW131205   2.256   0.278  16.691  2.0189 -0.9027 -2.1100
 6581SOL    HW231206   2.379   0.236  16.740 -1.0625 -0.7581 -4.4825
 6582SOL     OW31207   1.993   4.273   5.328  0.2934  0.0134 -0.1319
 6582SOL    HW131208   1.964   4.347   5.275  0.9427 -0.8553 -1.7120
 6582SOL    HW231209   2.016   4.314   5.411 -0.1401  2.5268 -1.2582
 6583SOL     OW31210   3.531   0.738   2.051  0.1202 -0.2594 -0.0753
 6583SOL    HW131211   3.536   0.675   2.124 -1.5050  0.4706  0.6697
 6583SOL    HW231212   3.609   0.792   2.063 -0.9006  1.4553 -1.1639
 6584SOL     OW31213   3.448   4.033   0.545 -0.0073 -0.2915  0.1356
 6584SOL    HW131214   3.408   3.985   0.617  1.0551  0.0359  0.9521
 6584SOL    HW231215   3.537   4.030   0.581  0.1759  0.4633 -0.2436
 6585SOL     OW31216   3.763   0.235  11.494 -0.0569  0.2534 -0.2118
 6585SOL    HW131217   3.758   0.300  11.564 -0.4253  1.0949 -1.0140
 6585SOL    HW231218   3.669   0.223  11.478 -0.0694  0.3064 -0.1748
 6586SOL     OW31219   4.629   0.312   9.198  0.0624  0.1272 -0.8338
 6586SOL    HW131220   4.554   0.285   9.250  0.9291  0.0098  0.3695
 6586SOL    HW231221   4.684   0.233   9.201 -3.1624 -2.0522  0.2506
 6587SOL     OW31222   3.306   3.777   6.658 -0.1886  0.1896  0.5427
 6587SOL    HW131223   3.234   3.722   6.685 -1.2437  1.9917  1.4077
 6587SOL    HW231224   3.314   3.756   6.565  2.9175  2.5552  0.2458
 6588SOL     OW31225   0.686   3.953   7.054  0.6886  0.6154 -0.0128
 6588SOL    HW131226   0.611   3.905   7.089  0.2413 -0.8477 -2.9295
 6588SOL    HW231227   0.699   4.016   7.124  1.2838  0.6158 -0.1275
 6589SOL     OW31228   0.920   1.165   5.572 -0.1805  0.0458  0.1057
 6589SOL    HW131229   1.002   1.125   5.603  0.3215  1.3591  0.5026
 6589SOL    HW231230   0.855   1.098   5.594  0.9136 -0.6334  1.2770
 6590SOL     OW31231   1.835   0.807   7.740 -0.2489 -0.0553  0.0538
 6590SOL    HW131232   1.740   0.799   7.752 -0.1292 -0.9956  0.3552
 6590SOL    HW231233   1.856   0.895   7.772  2.0456  0.4371 -2.8330
 6591SOL     OW31234   0.688   3.897   2.576 -0.4528 -0.0426  0.7574
 6591SOL    HW131235   0.619   3.914   2.511  0.4475  2.1531  0.3727
 6591SOL    HW231236   0.755   3.948   2.531 -0.4781 -0.8084 -0.1596
 6592SOL     OW31237   0.533   0.749   5.894 -0.2204  0.3041  0.2297
 6592SOL    HW131238   0.557   0.745   5.801 -0.2931 -2.0962  0.3115
 6592SOL    HW231239   0.600   0.809   5.925 -0.1267  1.5993 -2.4551
 6593SOL     OW31240   0.067   3.689  15.521 -0.3159  0.8206  0.1367
 6593SOL    HW131241   0.143   3.665  15.468 -1.1875  1.5236 -1.4186
 6593SOL    HW231242   0.049   3.772  15.477  1.8584 -0.2119 -2.6840
 6594SOL     OW31243   1.033   4.289   6.331  0.3887  0.7403 -0.5810
 6594SOL    HW131244   1.037   4.294   6.235 -0.2517  0.8159 -0.5989
 6594SOL    HW231245   0.966   4.352   6.358 -1.4745 -1.3086 -0.4778
 6595SOL     OW31246   1.900   1.000  11.533  0.1702  0.0784  0.0028
 6595SOL    HW131247   1.922   1.032  11.621  1.2294 -2.4573  0.6646
 6595SOL    HW231248   1.992   0.984  11.510 -0.0439  3.0397 -2.9865
 6596SOL     OW31249   3.505   2.080  11.262 -0.0545 -0.2749 -0.0550
 6596SOL    HW131250   3.540   2.087  11.351  0.9746  2.0134 -0.6458
 6596SOL    HW231251   3.567   2.104  11.194 -0.4789  0.9890 -0.0019
 6597SOL     OW31252   0.280   2.777   6.360 -0.0918  0.5638 -0.2326
 6597SOL    HW131253   0.349   2.792   6.296 -1.9699  1.1577 -2.1044
 6597SOL    HW231254   0.258   2.860   6.402 -0.3925  1.2798 -1.8113
 6598SOL     OW31255   0.770   0.118  16.169 -0.1523 -0.3048  0.4235
 6598SOL    HW131256   0.675   0.120  16.158  0.2695  1.0285 -2.7715
 6598SOL    HW231257   0.776   0.171  16.249 -2.8200  0.6047  0.0205
 6599SOL     OW31258   4.131   0.619   0.365 -0.3024  0.0052  0.0673
 6599SOL    HW131259   4.156   0.670   0.289  0.6500  0.1771  0.4918
 6599SOL    HW231260   4.202   0.640   0.426 -0.3189  2.5872 -0.8167
 6600SOL     OW31261   2.028   1.781  11.108 -0.0064 -0.3443  0.0429
 6600SOL    HW131262   2.074   1.789  11.025 -1.9235  1.0977 -0.8828
 6600SOL    HW231263   1.937   1.792  11.080 -0.4085 -1.3189  0.9653
 6601SOL     OW31264   0.681   0.488   7.719  0.4449  0.8717  0.0824
 6601SOL    HW131265   0.760   0.533   7.749  0.6169  0.3981  0.3363
 6601SOL    HW231266   0.670   0.419   7.784 -1.1070 -0.3812 -1.5117
 6602SOL     OW31267   3.578   2.753   5.106  0.3559  0.3006  0.7951
 6602SOL    HW131268   3.616   2.788   5.025  1.7299 -2.5042  0.2056
 6602SOL    HW231269   3.485   2.754   5.085  0.4629  2.4971  0.4931
 6603SOL     OW31270   2.304   1.738   8.061 -0.4016 -0.0928  0.2682
 6603SOL    HW131271   2.378   1.723   8.001 -0.9386  1.3057 -0.7628
 6603SOL    HW231272   2.247   1.795   8.009  1.5910 -0.8948 -2.8517
 6604SOL     OW31273   1.312   0.986   6.119 -0.0601  0.2695 -0.2988
 6604SOL    HW131274   1.313   0.907   6.066  1.1048 -0.9253  1.5379
 6604SOL    HW231275   1.242   0.968   6.182  1.2382 -0.5036  0.9191
 6605SOL     OW31276   1.053   1.149  10.392 -0.0657 -0.1686  0.7332
 6605SOL    HW131277   1.134   1.153  10.341 -0.0044 -0.5279  0.8020
 6605SOL    HW231278   0.983   1.140  10.328  0.0192 -0.9842  0.7590
 6606SOL     OW31279   0.949   3.792   7.874 -0.1008 -0.4263  0.3360
 6606SOL    HW131280   0.869   3.828   7.836  1.0668  2.1789  0.2973
 6606SOL    HW231281   0.986   3.874   7.908 -1.7227 -0.0696  1.2447
 6607SOL     OW31282   2.760   4.471  16.087  0.1161 -0.3897 -0.4200
 6607SOL    HW131283   2.742   4.389  16.041 -1.8164  0.5469 -1.3477
 6607SOL    HW231284   2.847   4.500  16.060  0.4778 -2.6318 -1.7349
 6608SOL     OW31285   3.966   3.045   4.870 -0.5123  0.0084 -0.1450
 6608SOL    HW131286   3.938   3.051   4.778  1.1297 -0.1942 -0.6665
 6608SOL    HW231287   4.033   3.114   4.867 -0.5499  0.0431 -0.1927
 6609SOL     OW31288   3.945   3.591   2.897 -0.1399 -0.0770 -0.1214
 6609SOL    HW131289   3.986   3.570   2.813 -0.0921 -1.2426  0.1965
 6609SOL    HW231290   3.880   3.521   2.894 -0.4296  0.2968 -2.2621
 6610SOL     OW31291   0.156   2.785   0.818 -0.1133 -0.1747 -0.4604
 6610SOL    HW131292   0.062   2.795   0.831  0.3650  1.1537  1.9765
 6610SOL    HW231293   0.156   2.698   0.778 -2.6527  0.0435 -0.9376
 6611SOL     OW31294   4.670   3.135  17.491 -0.0173  0.3827  0.7967
 6611SOL    HW131295   4.608   3.182  17.547 -0.4013 -1.5286  2.0023
 6611SOL    HW231296   0.012   3.106  17.552 -0.4919 -1.3982  0.4785
 6612SOL     OW31297   1.139   1.072   5.687  0.1553 -0.1679  0.5032
 6612SOL    HW131298   1.141   0.976   5.691  1.2938 -0.0567  2.8714
 6612SOL    HW231299   1.135   1.101   5.778 -1.7181 -0.1504  0.4117
 6613SOL     OW31300   3.940   3.731   1.952  0.4125 -0.0017  0.4709
 6613SOL    HW131301   4.029   3.727   1.917 -0.2112  1.8555 -1.3544
 6613SOL    HW231302   3.890   3.764   1.877  0.1804 -1.0315  0.1792
 6614SOL     OW31303   2.273   3.669   5.330 -0.1159 -0.0692  0.9087
 6614SOL    HW131304   2.337   3.628   5.389  1.0348  1.4904  0.7572
 6614SOL    HW231305   2.214   3.709   5.393 -0.7562  0.3198  0.0678
 6615SOL     OW31306   4.498   2.915   1.586  0.1501 -0.4052  0.7466
 6615SOL    HW131307   4.514   2.821   1.591 -0.3237 -0.4827  0.7930
 6615SOL    HW231308   4.528   2.930   1.497  0.6043  1.6643  1.2347
 6616SOL     OW31309   2.500   3.244   6.046  0.4904  0.3186 -0.4496
 6616SOL    HW131310   2.413   3.255   6.083  1.4071  2.2834  1.1728
 6616SOL    HW231311   2.555   3.286   6.113 -1.6664  0.3158  1.3045
 6617SOL     OW31312   3.976   4.229   6.388  0.1978 -0.5188  0.3185
 6617SOL    HW131313   4.055   4.203   6.341  0.9727 -0.5050  1.5995
 6617SOL    HW231314   4.002   4.225   6.480 -1.4569  0.2035  0.8006
 6618SOL     OW31315   1.574   1.958   7.179  0.3500  0.3199 -0.5127
 6618SOL    HW131316   1.581   2.053   7.165 -0.6003  0.8694  2.9379
 6618SOL    HW231317   1.511   1.933   7.112  0.5265  0.9632 -0.9206
 6619SOL     OW31318   3.121   0.634  12.444  0.3703 -0.0000 -0.4260
 6619SOL    HW131319   3.111   0.671  12.531 -0.3032  1.7263 -1.2461
 6619SOL    HW231320   3.120   0.543  12.474  0.2891 -0.1477 -0.8810
 6620SOL     OW31321   3.005   1.238  11.641 -0.8232  0.6326  0.6203
 6620SOL    HW131322   2.994   1.143  11.638  2.1968  0.2721  1.1413
 6620SOL    HW231323   3.088   1.263  11.602 -0.9880  0.9664  0.4847
 6621SOL     OW31324   4.676   2.812   3.116 -1.0832 -0.5834  0.2544
 6621SOL    HW131325   4.706   2.762   3.192  1.1362  0.3711  0.0128
 6621SOL    HW231326   4.639   2.889   3.159 -1.6680 -0.1939 -0.9518
 6622SOL     OW31327   4.429   3.480   4.526 -0.7208  0.4829 -0.2871
 6622SOL    HW131328   4.336   3.462   4.540 -0.2229 -2.0506 -0.2131
 6622SOL    HW231329   4.432   3.487   4.431 -1.3548 -1.9591 -0.4812
 6623SOL     OW31330   4.499   1.051   5.654 -0.0018  0.2659  0.5599
 6623SOL    HW131331   4.540   1.132   5.621  2.2534 -1.3383 -0.5779
 6623SOL    HW231332   4.415   1.097   5.660 -0.5190 -0.4303 -1.4306
 6624SOL     OW31333   2.585   3.799   1.481 -0.2395  0.5201 -0.2126
 6624SOL    HW131334   2.652   3.863   1.503 -2.7450  3.4448 -1.1798
 6624SOL    HW231335   2.572   3.748   1.561  1.3146  2.4287  1.2535
 6625SOL     OW31336   4.162   3.709   4.417 -1.0097 -0.0118  0.8326
 6625SOL    HW131337   4.193   3.625   4.451 -1.4601 -0.3430  0.4167
 6625SOL    HW231338   4.235   3.770   4.408  0.2067 -1.6567 -0.2131
 6626SOL     OW31339   1.825   4.254   7.063  0.4282  0.0222 -0.5714
 6626SOL    HW131340   1.819   4.303   6.981  0.6278  0.8357 -0.0972
 6626SOL    HW231341   1.756   4.293   7.116  2.8316  3.5726 -0.0589
 6627SOL     OW31342   2.356   2.306   4.391 -0.5208 -0.2127  0.0465
 6627SOL    HW131343   2.288   2.283   4.454 -0.1403 -0.5265  0.3491
 6627SOL    HW231344   2.432   2.265   4.433  0.1616  1.3180  0.2754
 6628SOL     OW31345   1.522   2.804   8.251  0.5316 -0.9958 -0.2859
 6628SOL    HW131346   1.503   2.730   8.308 -0.7238 -0.4060  0.0646
 6628SOL    HW231347   1.617   2.796   8.242  0.3328 -1.2122 -2.2458
 6629SOL     OW31348   3.505   2.104   6.985 -0.2530  0.2835 -0.0403
 6629SOL    HW131349   3.596   2.080   7.004  0.2322  1.7580 -0.5356
 6629SOL    HW231350   3.467   2.102   7.073  0.4703  0.0313  0.2711
 6630SOL     OW31351   1.933   1.557   8.086 -0.4578 -0.3875  0.0870
 6630SOL    HW131352   1.987   1.570   8.008 -0.6504  0.3698  0.0849
 6630SOL    HW231353   1.930   1.462   8.098  1.4294 -0.2719  1.3719
 6631SOL     OW31354   1.870   2.203   5.212 -0.3473 -0.0693 -0.0638
 6631SOL    HW131355   1.849   2.294   5.235 -1.3855 -0.7713  1.7532
 6631SOL    HW231356   1.960   2.219   5.183 -0.5956 -1.1720 -1.3939
 6632SOL     OW31357   0.368   2.292  16.838 -0.0804 -0.8136 -0.1490
 6632SOL    HW131358   0.404   2.204  16.824  1.9423  0.1740 -0.9826
 6632SOL    HW231359   0.355   2.311  16.745  1.0733 -0.4581 -0.2286
 6633SOL     OW31360   3.283   0.747  13.279  0.0712 -0.2758 -0.1285
 6633SOL    HW131361   3.218   0.721  13.214  1.0412  1.3903 -1.7627
 6633SOL    HW231362   3.295   0.669  13.333  0.2358  1.0251  1.7159
 6634SOL     OW31363   4.397   1.634  16.840 -1.1427 -0.0332 -0.4040
 6634SOL    HW131364   4.465   1.614  16.904 -1.1288  3.0314  0.5169
 6634SOL    HW231365   4.413   1.726  16.819  2.0410 -0.6222 -0.5738
 6635SOL     OW31366   1.724   0.073   5.356  0.4417 -0.1301 -0.0731
 6635SOL    HW131367   1.795   0.073   5.291  2.3358  0.3777  1.9988
 6635SOL    HW231368   1.653   0.073   5.291  0.1785  3.1275  0.2629
 6636SOL     OW31369   1.622   0.014  14.895 -0.4709  0.1442 -0.1379
 6636SOL    HW131370   1.645   4.681  14.824 -0.0564  0.8820 -0.6295
 6636SOL    HW231371   1.677   4.704  14.964 -0.1870  1.5630  0.3953
 6637SOL     OW31372   0.665   1.344   3.033 -0.3426  0.6318 -0.1304
 6637SOL    HW131373   0.587   1.383   3.072  0.2074 -1.5625  3.1922
 6637SOL    HW231374   0.627   1.261   3.002  1.8951  0.2165 -1.7587
 6638SOL     OW31375   3.980   0.396   3.231 -0.6349 -0.3209  0.2394
 6638SOL    HW131376   3.963   0.490   3.220 -2.0261 -0.3352  2.2558
 6638SOL    HW231377   3.946   0.377   3.318  2.0240  0.5145  1.4695
 6639SOL     OW31378   3.534   1.758  10.761 -0.3351  0.1869  0.5165
 6639SOL    HW131379   3.534   1.669  10.725 -1.2340 -0.3173  1.7776
 6639SOL    HW231380   3.489   1.749  10.845 -1.3244  0.7270  0.0378
 6640SOL     OW31381   0.287   0.730  12.594  0.2300  0.2554  0.3011
 6640SOL    HW131382   0.281   0.716  12.688 -1.4851  3.3270  0.6581
 6640SOL    HW231383   0.300   0.825  12.595 -0.7941  0.3687  1.3844
 6641SOL     OW31384   0.636   2.364   4.131  0.1236  0.3386  0.1572
 6641SOL    HW131385   0.665   2.361   4.040  0.7750  1.3323  0.3265
 6641SOL    HW231386   0.711   2.405   4.175  0.1337 -1.3960  1.7283
 6642SOL     OW31387   4.031   0.121  11.448 -0.6933  0.3524  0.5442
 6642SOL    HW131388   3.947   0.165  11.448 -1.3114 -0.8219  2.1083
 6642SOL    HW231389   4.068   0.136  11.535 -2.6549 -1.3959  1.6478
 6643SOL     OW31390   3.491   3.252  10.679  0.4683  0.4827  0.4358
 6643SOL    HW131391   3.485   3.343  10.708 -0.1868  0.0913  1.5687
 6643SOL    HW231392   3.585   3.237  10.679  0.3320 -0.3503  0.1006
 6644SOL     OW31393   1.093   1.328   8.852 -0.3449 -0.1970 -0.4001
 6644SOL    HW131394   1.160   1.288   8.907  1.7083  2.7802 -0.7756
 6644SOL    HW231395   1.041   1.254   8.820 -1.4687  0.1670  0.5633
 6645SOL     OW31396   0.806   1.149  17.075  0.2619 -0.7073  0.0928
 6645SOL    HW131397   0.853   1.074  17.039  0.8229  0.1071 -0.8754
 6645SOL    HW231398   0.756   1.160  16.994  0.0046 -1.0730  0.2024
 6646SOL     OW31399   4.002   1.907  15.680 -0.5014  0.0008  0.2856
 6646SOL    HW131400   4.069   1.960  15.637  0.5083 -0.7453  0.9309
 6646SOL    HW231401   3.932   1.963  15.714  1.3690  1.8925  1.0278
 6647SOL     OW31402   1.364   1.468   8.694  0.5189  0.2743 -0.2942
 6647SOL    HW131403   1.326   1.389   8.656  2.5978 -1.1115  0.5338
 6647SOL    HW231404   1.350   1.446   8.786  1.3912  2.7603  0.4537
 6648SOL     OW31405   2.092   2.872  16.149  0.3713  0.4986 -0.2296
 6648SOL    HW131406   2.104   2.949  16.204 -0.3370  1.3692 -1.2845
 6648SOL    HW231407   1.996   2.874  16.156  0.2130 -0.0447 -2.1406
 6649SOL     OW31408   4.317   4.059   8.632  0.2648  0.3346  0.7529
 6649SOL    HW131409   4.290   4.086   8.720 -0.0941  0.0711  0.7201
 6649SOL    HW231410   4.401   4.106   8.633  0.6003 -0.2598 -0.0112
 6650SOL     OW31411   2.980   4.632   8.620  0.4191 -0.0583  0.3354
 6650SOL    HW131412   2.920   4.564   8.589 -0.6588  2.0440 -2.1840
 6650SOL    HW231413   3.044   4.634   8.549  0.9213 -0.3883  0.7782
 6651SOL     OW31414   2.146   0.804   8.334 -0.4358 -0.6465 -0.7634
 6651SOL    HW131415   2.143   0.779   8.426  2.1529  0.6627 -0.3372
 6651SOL    HW231416   2.135   0.897   8.352  0.7458 -0.6689  0.0903
 6652SOL     OW31417   1.821   0.127   9.701  0.5482  0.1092  0.4711
 6652SOL    HW131418   1.727   0.140   9.691  0.7584  1.0688 -0.2766
 6652SOL    HW231419   1.843   0.174   9.621  0.0659  0.6987  0.6860
 6653SOL     OW31420   4.599   4.423   4.615 -0.1801  0.2019  0.5374
 6653SOL    HW131421   4.664   4.386   4.675  1.7965  0.7027 -1.2922
 6653SOL    HW231422   4.537   4.351   4.604 -0.3153  0.2133  1.2772
 6654SOL     OW31423   4.655   3.765   3.683  0.1291 -0.4425  0.2286
 6654SOL    HW131424   4.644   3.851   3.643 -0.1298  0.7597  2.9128
 6654SOL    HW231425   4.568   3.753   3.721 -0.1192  1.8753  0.3911
 6655SOL     OW31426   3.414   3.885   1.329  0.7366  0.1902 -0.3498
 6655SOL    HW131427   3.429   3.790   1.325 -0.4346  0.0486 -1.2346
 6655SOL    HW231428   3.471   3.919   1.397 -1.1346  1.7110  0.4584
 6656SOL     OW31429   2.198   2.176   2.245 -0.3116  0.2183  0.1819
 6656SOL    HW131430   2.229   2.214   2.163 -0.5462  0.1414  0.0588
 6656SOL    HW231431   2.140   2.241   2.285 -1.8502 -1.0020 -0.0970
 6657SOL     OW31432   0.579   1.505   3.621 -0.8271  0.1459 -0.8186
 6657SOL    HW131433   0.672   1.488   3.608 -0.5043  0.2826  1.3106
 6657SOL    HW231434   0.540   1.502   3.533  0.0013  1.3779 -1.2169
 6658SOL     OW31435   1.073   1.988   4.599  0.2178 -0.1171  0.5885
 6658SOL    HW131436   1.043   1.954   4.683  0.7073 -0.3644  0.6635
 6658SOL    HW231437   1.155   1.941   4.589  1.0967  0.9891  2.7540
 6659SOL     OW31438   1.282   2.767   0.871 -0.1953  0.0636  0.7998
 6659SOL    HW131439   1.362   2.775   0.818  0.0972 -1.1215  1.0751
 6659SOL    HW231440   1.331   2.806   0.942  1.9630  1.4191 -1.4249
 6660SOL     OW31441   2.455   1.959   9.373 -0.0025  0.0340 -0.0920
 6660SOL    HW131442   2.450   2.033   9.433 -0.3866 -1.4138  1.6536
 6660SOL    HW231443   2.502   1.890   9.420  0.9859  0.8994  0.1684
 6661SOL     OW31444   0.258   0.485   7.672  0.2639 -0.1020  0.9361
 6661SOL    HW131445   0.285   0.444   7.754  0.5954 -1.0836  0.3386
 6661SOL    HW231446   0.212   0.561   7.706  2.2547  1.0376  1.0620
 6662SOL     OW31447   2.588   4.622   9.770 -0.4082 -0.4913 -0.3302
 6662SOL    HW131448   2.611   4.558   9.838 -1.3082  2.1494  2.4486
 6662SOL    HW231449   2.671   4.612   9.724  0.4540  1.5883  0.8169
 6663SOL     OW31450   0.504   3.534   0.189  0.3443 -0.5765 -0.4458
 6663SOL    HW131451   0.409   3.528   0.200  0.4257 -0.0714  0.4823
 6663SOL    HW231452   0.505   3.629   0.192  0.6521 -0.5513 -1.5065
 6664SOL     OW31453   3.989   2.290  13.136 -0.1702  0.4566  0.1217
 6664SOL    HW131454   3.962   2.209  13.180 -0.7799  0.0017 -1.0855
 6664SOL    HW231455   4.027   2.344  13.205 -1.4100 -1.9801  2.7775
 6665SOL     OW31456   0.733   0.349  13.725 -0.4155  0.1067  0.0064
 6665SOL    HW131457   0.820   0.390  13.720 -0.0056 -1.1818 -3.8200
 6665SOL    HW231458   0.714   0.385  13.811 -1.1698 -0.4996  0.0848
 6666SOL     OW31459   0.048   1.937   9.318 -0.4537  0.7938  0.7458
 6666SOL    HW131460   4.716   1.909   9.248  0.4383  0.3217  0.1890
 6666SOL    HW231461   0.037   1.866   9.381 -0.4740  0.2897  0.1757
 6667SOL     OW31462   2.766   0.907   2.988 -0.2138 -0.4283  0.6559
 6667SOL    HW131463   2.739   0.897   2.897 -1.2591  2.6986  0.6055
 6667SOL    HW231464   2.685   0.934   3.030 -0.7366 -0.4972 -0.3010
 6668SOL     OW31465   1.275   4.092   8.058 -0.0243 -0.0669 -0.1697
 6668SOL    HW131466   1.315   4.170   8.021  2.1890 -0.6373  0.9995
 6668SOL    HW231467   1.262   4.050   7.973  0.6787  1.6705 -1.1344
 6669SOL     OW31468   4.708   2.613   7.579 -0.3328 -0.9411 -0.6625
 6669SOL    HW131469   4.695   2.693   7.527  1.2233 -0.4479 -0.2928
 6669SOL    HW231470   0.039   2.567   7.516 -0.4584  0.4097 -1.7669
 6670SOL     OW31471   1.108   3.579   3.969 -0.0001 -0.2217  0.4594
 6670SOL    HW131472   1.092   3.491   3.935 -1.1336  0.5875 -1.1086
 6670SOL    HW231473   1.027   3.618   3.938  0.5900 -0.8324 -1.8520
 6671SOL     OW31474   1.289   0.933   0.625 -0.5780  0.4443  0.2439
 6671SOL    HW131475   1.281   1.006   0.686 -2.0129 -0.8180  1.5759
 6671SOL    HW231476   1.298   0.859   0.685  1.0831  1.2055  0.9479
 6672SOL     OW31477   0.801   3.365   5.793 -0.4105  0.3066 -0.5838
 6672SOL    HW131478   0.844   3.384   5.710  0.0122 -0.0418 -0.4468
 6672SOL    HW231479   0.708   3.386   5.784 -0.3992  1.2654  1.5191
 6673SOL     OW31480   0.794   1.811   8.378  0.0827 -0.5087  0.0977
 6673SOL    HW131481   0.787   1.843   8.468 -0.8134  0.1143 -0.1858
 6673SOL    HW231482   0.832   1.724   8.385  2.0141  0.2060 -1.5353
 6674SOL     OW31483   1.879   0.435   5.957 -0.2434  0.4486  0.0370
 6674SOL    HW131484   1.963   0.480   5.945 -0.2169  1.0842  2.4905
 6674SOL    HW231485   1.910   0.353   5.996 -0.7241 -0.1911 -0.9220
 6675SOL     OW31486   2.353   1.265  14.171  0.6331  0.4952  0.1733
 6675SOL    HW131487   2.296   1.299  14.102  1.1607 -2.0146 -1.4885
 6675SOL    HW231488   2.439   1.267  14.130  0.1077  0.2048 -0.9316
 6676SOL     OW31489   3.738   1.730  16.326 -0.2765  0.6212  0.2304
 6676SOL    HW131490   3.731   1.750  16.419  2.4984  4.0158 -0.2770
 6676SOL    HW231491   3.659   1.675  16.326  0.4008 -0.3582 -2.2466
 6677SOL     OW31492   3.833   0.350   6.436 -0.0591 -0.0705  0.3225
 6677SOL    HW131493   3.789   0.434   6.427 -1.4166 -0.7462  0.5803
 6677SOL    HW231494   3.804   0.309   6.355  3.0681  1.9727 -1.8210
 6678SOL     OW31495   3.260   3.277  16.628 -0.1478  0.7420  0.2414
 6678SOL    HW131496   3.353   3.297  16.620  0.0803 -0.6869 -0.6374
 6678SOL    HW231497   3.221   3.290  16.541  1.6896 -2.8959 -1.1289
 6679SOL     OW31498   2.787   0.332   8.315  0.5657  0.1900  0.2703
 6679SOL    HW131499   2.729   0.292   8.250 -0.3422 -0.2866  1.3852
 6679SOL    HW231500   2.745   0.333   8.401  1.5347  0.3516  0.7425
 6680SOL     OW31501   2.826   1.685   5.289 -0.4449  0.4189 -0.6292
 6680SOL    HW131502   2.822   1.749   5.360  0.4032  0.2584 -0.4303
 6680SOL    HW231503   2.863   1.739   5.219 -1.2245  1.5056 -0.1897
 6681SOL     OW31504   2.907   2.056   8.163 -0.5578  0.3331 -0.2131
 6681SOL    HW131505   2.883   2.146   8.142 -3.3278 -0.2587  0.4334
 6681SOL    HW231506   2.991   2.068   8.207 -0.2855  1.6134 -1.0791
 6682SOL     OW31507   3.819   3.576   3.688 -0.3118  0.0454  0.1228
 6682SOL    HW131508   3.852   3.654   3.642 -0.5961  0.3355  0.4103
 6682SOL    HW231509   3.728   3.606   3.692 -0.2095  0.2318  1.0259
 6683SOL     OW31510   1.489   2.986   6.756  0.6162  0.0300 -0.3064
 6683SOL    HW131511   1.556   3.030   6.809  0.9935 -0.9851  0.0550
 6683SOL    HW231512   1.405   3.030   6.766  0.6170 -0.0273 -0.0579
 6684SOL     OW31513   4.695   0.409   2.021  0.5884  0.6404  0.3013
 6684SOL    HW131514   4.613   0.449   2.051  0.5561  0.3527  0.5975
 6684SOL    HW231515   4.668   0.335   1.967  0.3898  0.3132  0.8480
 6685SOL     OW31516   0.403   4.551   7.481  0.6108 -0.0443 -0.3038
 6685SOL    HW131517   0.465   4.617   7.451 -0.4037  2.2250  2.5962
 6685SOL    HW231518   0.393   4.584   7.570  1.1589 -2.4324  0.6512
 6686SOL     OW31519   0.167   1.512  15.088  0.5578 -0.2755  0.1185
 6686SOL    HW131520   0.164   1.453  15.013  0.9186  2.1611 -1.8017
 6686SOL    HW231521   0.088   1.500  15.140  0.5161 -3.3648 -0.6988
 6687SOL     OW31522   2.609   3.198   4.717 -0.6446  0.5659  0.0945
 6687SOL    HW131523   2.698   3.170   4.695  0.5347  2.7857  2.1525
 6687SOL    HW231524   2.623   3.228   4.806 -1.3962  0.5566  0.2130
 6688SOL     OW31525   0.545   2.007  16.618 -0.1586  0.0808 -0.7878
 6688SOL    HW131526   0.451   2.001  16.603 -0.3259  0.2677  0.1699
 6688SOL    HW231527   0.558   1.954  16.697  0.6265 -0.3173 -1.1791
 6689SOL     OW31528   1.074   2.299   6.746  0.2409  0.0890 -0.1565
 6689SOL    HW131529   1.161   2.313   6.785  0.2552  1.2832 -0.6322
 6689SOL    HW231530   1.111   2.264   6.665  3.8820  0.1679  1.4348
 6690SOL     OW31531   4.470   4.128   2.126  0.1638  0.1356  0.1855
 6690SOL    HW131532   4.495   4.205   2.177  1.3325  1.7829 -2.8257
 6690SOL    HW231533   4.425   4.163   2.049 -0.9019  0.8582  1.1404
 6691SOL     OW31534   2.402   1.793   3.865 -0.1521 -0.1414 -0.6586
 6691SOL    HW131535   2.313   1.822   3.881  0.4979  2.1791 -1.2990
 6691SOL    HW231536   2.449   1.850   3.926 -0.9431 -0.7551  0.5329
 6692SOL     OW31537   1.920   1.994   9.650 -0.4497  0.3016 -0.3263
 6692SOL    HW131538   1.877   1.915   9.617 -1.7970  1.0796 -0.4384
 6692SOL    HW231539   1.882   1.989   9.738 -0.2121 -0.1668 -0.2467
 6693SOL     OW31540   3.175   0.136  15.989 -0.0307 -0.3414 -0.0673
 6693SOL    HW131541   3.100   0.076  15.993 -2.0807  2.0874 -2.4214
 6693SOL    HW231542   3.233   0.091  15.927 -1.2606  0.4643 -1.7967
 6694SOL     OW31543   1.141   0.653  15.180  0.1962  0.1009 -0.0789
 6694SOL    HW131544   1.106   0.704  15.107 -0.3926 -2.0089 -1.2882
 6694SOL    HW231545   1.135   0.561  15.154  1.4097 -0.0689  0.2286
 6695SOL     OW31546   3.211   2.963   6.969  0.5775 -0.2443  0.1450
 6695SOL    HW131547   3.264   2.922   7.037 -2.4211 -2.1905  1.3229
 6695SOL    HW231548   3.173   2.879   6.943  0.6864 -0.2193 -0.0951
 6696SOL     OW31549   3.001   1.343  17.510 -0.0333  0.1959  0.1589
 6696SOL    HW131550   2.994   1.276  17.578  0.8710 -1.8627 -1.7895
 6696SOL    HW231551   3.081   1.393  17.528  0.4876 -0.6266  0.1038
 6697SOL     OW31552   0.249   0.201  14.658  0.3215  0.2046  0.5207
 6697SOL    HW131553   0.333   0.234  14.690  0.5160 -0.0442  0.2564
 6697SOL    HW231554   0.259   0.108  14.640 -1.1009  0.6362 -2.5342
 6698SOL     OW31555   3.369   1.774   8.041  0.0740 -0.1046 -0.5054
 6698SOL    HW131556   3.288   1.788   7.993 -0.1299  0.8769  0.1236
 6698SOL    HW231557   3.373   1.680   8.055 -0.7804  0.1905  1.7101
 6699SOL     OW31558   1.217   0.712   8.491 -0.5230  0.4425  0.1540
 6699SOL    HW131559   1.214   0.627   8.448 -2.5237  1.5235 -1.8122
 6699SOL    HW231560   1.298   0.710   8.543  0.4586  0.0451 -1.4128
 6700SOL     OW31561   3.896   0.149   0.327 -0.0611  0.2437 -0.2495
 6700SOL    HW131562   3.954   0.225   0.330  1.1744 -0.7092 -0.1870
 6700SOL    HW231563   3.844   0.180   0.253 -1.9989  0.2000  1.0884
 6701SOL     OW31564   3.198   3.966  14.201  0.7289 -0.1747 -0.3199
 6701SOL    HW131565   3.114   3.921  14.213  0.5296  0.2473 -0.1105
 6701SOL    HW231566   3.163   4.053  14.182  1.4845 -0.4087 -2.7716
 6702SOL     OW31567   3.948   0.978   4.183  0.7331 -0.2532  0.7312
 6702SOL    HW131568   3.869   0.948   4.228 -0.5656  1.9263 -0.0645
 6702SOL    HW231569   3.921   1.028   4.106  0.9795 -2.6316 -0.9000
 6703SOL     OW31570   0.454   1.232   3.306  0.0763  0.1040  0.1998
 6703SOL    HW131571   0.464   1.303   3.243  0.5750  0.8532  1.1244
 6703SOL    HW231572   0.478   1.156   3.252 -2.1147 -2.9491  3.5438
 6704SOL     OW31573   1.671   2.365   4.809 -0.0543 -0.4962 -0.5222
 6704SOL    HW131574   1.716   2.285   4.784 -0.2302 -1.1366  1.2421
 6704SOL    HW231575   1.719   2.436   4.765 -3.2012  1.8291 -0.1739
 6705SOL     OW31576   3.118   1.930   5.684 -0.6343  0.0112  0.0730
 6705SOL    HW131577   3.146   1.993   5.750 -0.5926 -0.9347  0.9500
 6705SOL    HW231578   3.084   1.992   5.619 -0.7498 -1.2664 -1.0717
 6706SOL     OW31579   0.953   3.065  15.745  0.1136 -0.4427 -0.1962
 6706SOL    HW131580   1.012   3.019  15.684  1.4498  0.3351  0.5007
 6706SOL    HW231581   0.887   3.107  15.691 -0.4685 -0.6876  0.3243
 6707SOL     OW31582   0.757   1.979   6.778  0.2634 -0.3647 -0.2427
 6707SOL    HW131583   0.845   1.975   6.817  0.1362 -2.2674 -0.1485
 6707SOL    HW231584   0.749   1.897   6.729  2.2153 -1.0564  0.5582
 6708SOL     OW31585   0.867   1.688  15.821  0.4123 -0.5036  0.4342
 6708SOL    HW131586   0.877   1.602  15.863 -0.0540 -0.5652  0.4219
 6708SOL    HW231587   0.942   1.691  15.761  1.5075 -2.3562  1.6892
 6709SOL     OW31588   2.420   3.310   5.188  0.7109  0.2937 -0.5358
 6709SOL    HW131589   2.393   3.364   5.113  0.6892 -0.2746 -0.9382
 6709SOL    HW231590   2.359   3.237   5.179  0.5768  0.0581  2.2939
 6710SOL     OW31591   2.192   1.205   2.258 -0.1357 -0.3407 -0.2835
 6710SOL    HW131592   2.195   1.193   2.163 -1.3750  1.7065 -0.5646
 6710SOL    HW231593   2.240   1.129   2.293 -0.4856  0.2544  1.4876
 6711SOL     OW31594   0.697   4.201   8.482 -0.6998 -0.0058  0.6048
 6711SOL    HW131595   0.687   4.234   8.571 -3.3708 -0.8448  0.5984
 6711SOL    HW231596   0.611   4.159   8.478 -1.4517  1.5839 -0.1157
 6712SOL     OW31597   3.075   4.150   7.324  0.1916  0.0211 -0.1888
 6712SOL    HW131598   3.127   4.197   7.390 -1.2417  1.3178  0.0106
 6712SOL    HW231599   3.014   4.105   7.383  0.2505  0.3308  0.1083
 6713SOL     OW31600   3.341   2.923   8.369 -0.1092  0.3411 -0.0484
 6713SOL    HW131601   3.407   2.857   8.351  0.1378  0.8655 -1.0530
 6713SOL    HW231602   3.276   2.889   8.307  1.4342 -1.0587 -0.8777
 6714SOL     OW31603   2.858   1.079  11.305 -0.1631 -0.5355 -0.2121
 6714SOL    HW131604   2.786   1.131  11.339  0.2236  0.8097 -1.4747
 6714SOL    HW231605   2.809   1.015  11.254 -0.7241 -0.5219  0.3110
 6715SOL     OW31606   3.618   2.641   2.019 -0.0744  0.5574  0.2707
 6715SOL    HW131607   3.644   2.596   1.939  0.8785 -3.1853  2.7014
 6715SOL    HW231608   3.622   2.573   2.087  1.2401  0.4401  0.0834
 6716SOL     OW31609   3.266   4.360   7.801  0.4047  0.4394 -0.1454
 6716SOL    HW131610   3.188   4.415   7.808 -1.1796 -2.1279  2.2677
 6716SOL    HW231611   3.277   4.342   7.895 -1.2093 -0.6779 -0.1744
 6717SOL     OW31612   2.817   0.176   5.555  0.3768  0.1928 -0.3800
 6717SOL    HW131613   2.734   0.181   5.603  0.9791  1.6689  0.5132
 6717SOL    HW231614   2.874   0.229   5.611  0.7476 -1.8489  1.1918
 6718SOL     OW31615   1.023   1.191   3.694  0.1937 -0.0402  0.3482
 6718SOL    HW131616   1.025   1.123   3.627  0.9330  0.7587 -0.4279
 6718SOL    HW231617   1.105   1.236   3.677 -0.1181  0.4139  0.0265
 6719SOL     OW31618   4.500   3.911   8.157  0.4217 -0.1178  0.2080
 6719SOL    HW131619   4.582   3.896   8.110 -0.0623  3.7933 -1.8783
 6719SOL    HW231620   4.490   3.822   8.190 -0.0896 -0.3649 -0.5998
 6720SOL     OW31621   1.990   2.624   1.023 -0.0319  0.1197 -0.0635
 6720SOL    HW131622   2.045   2.671   1.085 -0.1037  0.2555 -0.1028
 6720SOL    HW231623   1.904   2.645   1.060 -0.3218  1.3104 -1.4160
 6721SOL     OW31624   3.682   0.373   8.532 -0.7603 -0.1237  0.0155
 6721SOL    HW131625   3.600   0.347   8.575 -1.0995 -1.5105 -1.4662
 6721SOL    HW231626   3.737   0.319   8.589 -1.7285  0.1616  1.2386
 6722SOL     OW31627   4.189   4.110   1.582  0.2692  0.3782 -0.1363
 6722SOL    HW131628   4.233   4.194   1.592 -0.2313  0.5522  0.5545
 6722SOL    HW231629   4.209   4.091   1.490 -0.7193  3.2219 -0.9375
 6723SOL     OW31630   1.403   0.996  16.729  0.2887 -0.2302  0.5359
 6723SOL    HW131631   1.423   1.078  16.683  2.2713 -0.2932  1.2532
 6723SOL    HW231632   1.418   0.928  16.663  1.6905  0.1629  0.4374
 6724SOL     OW31633   3.097   1.620   1.974  0.0488  0.3815  0.2959
 6724SOL    HW131634   3.175   1.597   2.025  1.7016  2.0782 -1.4536
 6724SOL    HW231635   3.074   1.531   1.947  2.2440 -0.4965  1.3421
 6725SOL     OW31636   0.335   3.252  14.156  0.1048 -0.0421 -0.6963
 6725SOL    HW131637   0.335   3.188  14.085  1.3091 -2.4945  1.5001
 6725SOL    HW231638   0.352   3.198  14.233  0.6900 -1.4304 -1.7982
 6726SOL     OW31639   2.346   1.421   0.758 -0.2614 -0.1635  0.1667
 6726SOL    HW131640   2.375   1.499   0.804 -1.1364 -0.9144  1.9823
 6726SOL    HW231641   2.428   1.375   0.738 -0.3291 -0.3704  0.3708
 6727SOL     OW31642   1.124   2.187   9.281  0.4405  0.1938  0.0147
 6727SOL    HW131643   1.145   2.204   9.373  1.3729 -0.4761 -0.0790
 6727SOL    HW231644   1.123   2.279   9.254 -2.5165 -0.3660 -1.7836
 6728SOL     OW31645   3.714   2.794   8.399  0.1912 -0.2113  0.5207
 6728SOL    HW131646   3.692   2.769   8.489 -1.0531  1.7532  0.7492
 6728SOL    HW231647   3.640   2.759   8.350 -0.5297  0.4778  1.1154
 6729SOL     OW31648   4.459   0.563   4.882 -0.0835 -0.2985  0.1747
 6729SOL    HW131649   4.457   0.530   4.792 -1.3812  1.6272 -0.4891
 6729SOL    HW231650   4.374   0.606   4.886 -0.3963 -0.9350  0.3951
 6730SOL     OW31651   3.480   2.999   1.446  0.2405 -0.1219  0.1069
 6730SOL    HW131652   3.405   2.955   1.405  1.0161  1.8822 -3.5182
 6730SOL    HW231653   3.545   3.012   1.377  0.0113  1.2705  0.1473
 6731SOL     OW31654   2.954   0.780   1.965 -0.2550  0.9469  0.2325
 6731SOL    HW131655   3.005   0.708   2.004 -1.1009  0.9291  1.3114
 6731SOL    HW231656   3.001   0.794   1.883 -1.4816 -0.9176 -0.8080
 6732SOL     OW31657   0.658   0.295   2.723  0.1981 -0.4666 -0.1403
 6732SOL    HW131658   0.569   0.261   2.716  0.5526 -1.2154 -1.0355
 6732SOL    HW231659   0.708   0.213   2.733  0.8036 -0.3201 -1.8336
 6733SOL     OW31660   1.134   0.997   1.130 -0.0970  0.2257 -0.3293
 6733SOL    HW131661   1.169   1.060   1.193 -1.1606  1.1817 -0.6916
 6733SOL    HW231662   1.041   1.017   1.138 -0.7021 -0.7261 -4.8894
 6734SOL     OW31663   1.065   2.001   5.399  0.2799 -1.0184 -0.1696
 6734SOL    HW131664   1.041   2.085   5.439  1.2352 -0.5526 -0.5707
 6734SOL    HW231665   1.015   1.929   5.436  1.5677 -2.0696 -0.4645
 6735SOL     OW31666   4.255   0.968   6.663  0.0593 -0.2055 -0.4143
 6735SOL    HW131667   4.322   1.036   6.652 -0.7704  0.6159 -0.4198
 6735SOL    HW231668   4.230   0.931   6.579 -0.7782  0.5025 -0.4777
 6736SOL     OW31669   3.094   0.389   4.266 -0.6445 -0.2658 -0.4041
 6736SOL    HW131670   3.019   0.447   4.250  0.4118  0.8676 -1.1732
 6736SOL    HW231671   3.058   0.331   4.334  0.6269  1.3366  1.6029
 6737SOL     OW31672   1.928   0.255  16.600 -0.1825 -0.7449  0.4905
 6737SOL    HW131673   1.864   0.184  16.612 -1.3205  0.1407 -0.3577
 6737SOL    HW231674   2.007   0.201  16.594  0.1855 -0.3719  1.8293
 6738SOL     OW31675   4.524   4.191  11.404 -0.0135  0.6463 -0.2352
 6738SOL    HW131676   4.530   4.282  11.372 -0.8980  0.3489 -1.2560
 6738SOL    HW231677   4.609   4.173  11.443  1.4479  4.5742 -1.6064
 6739SOL     OW31678   2.636   1.933  15.154  0.3123 -0.0727  0.4868
 6739SOL    HW131679   2.667   1.858  15.103 -1.2838  0.6092 -1.4780
 6739SOL    HW231680   2.545   1.941  15.126  1.5086  0.9213 -3.1243
 6740SOL     OW31681   2.984   0.080  16.599 -0.4632  0.1668  0.2013
 6740SOL    HW131682   2.955   0.171  16.595 -1.1383 -0.0862 -0.6436
 6740SOL    HW231683   3.038   0.075  16.678  0.1279  0.2258 -0.2021
 6741SOL     OW31684   2.565   1.679   3.505  0.3273  0.2470 -0.0803
 6741SOL    HW131685   2.630   1.703   3.572 -0.9116 -0.6214  1.4405
 6741SOL    HW231686   2.576   1.752   3.444 -0.0328 -0.4340 -0.9470
 6742SOL     OW31687   2.692   4.401  12.943 -0.2674  0.4313 -0.0994
 6742SOL    HW131688   2.632   4.435  12.877 -1.0228  1.6274  1.2059
 6742SOL    HW231689   2.765   4.365  12.892  1.1905  0.1780  2.1750
 6743SOL     OW31690   1.175   1.427   7.451  0.2067 -0.5587 -0.1591
 6743SOL    HW131691   1.215   1.478   7.381 -0.1735 -1.4472 -1.0159
 6743SOL    HW231692   1.252   1.414   7.506  0.6811 -0.8669 -0.8984
 6744SOL     OW31693   1.784   0.051   1.863 -0.8208 -0.3983 -0.3437
 6744SOL    HW131694   1.814   0.140   1.842 -0.4100 -0.0924  1.4655
 6744SOL    HW231695   1.724   0.047   1.789  1.9760  1.2690 -2.7018
 6745SOL     OW31696   2.057   3.328  16.464 -0.1030  0.2804 -0.1133
 6745SOL    HW131697   1.994   3.301  16.532 -0.1509  0.3560 -0.1269
 6745SOL    HW231698   2.005   3.388  16.410 -0.3170 -0.1418 -0.3710
 6746SOL     OW31699   2.853   1.906  15.371 -0.2099  0.2927 -0.5173
 6746SOL    HW131700   2.850   1.995  15.407 -0.3960  0.0529  0.0536
 6746SOL    HW231701   2.782   1.913  15.306 -1.2982 -0.6109  0.5849
 6747SOL     OW31702   3.996   4.081   5.891 -0.3050  0.3415 -0.5312
 6747SOL    HW131703   4.058   4.058   5.960 -0.4753 -0.0850 -0.5228
 6747SOL    HW231704   4.051   4.139   5.839  2.3144 -2.1544 -0.5551
 6748SOL     OW31705   3.373   4.632   2.394 -0.1767  0.3040  0.2021
 6748SOL    HW131706   3.374   4.593   2.307 -3.2704 -1.3215  0.8628
 6748SOL    HW231707   3.415   4.714   2.367 -0.0488  0.6694  1.5222
 6749SOL     OW31708   3.275   4.281   0.548  0.5032  0.0445  0.4927
 6749SOL    HW131709   3.198   4.272   0.492  1.1459 -1.2397 -0.1824
 6749SOL    HW231710   3.338   4.236   0.492  2.5546  2.1169  1.1201
 6750SOL     OW31711   4.179   3.890   1.786 -0.0808 -0.0934  0.1128
 6750SOL    HW131712   4.218   3.939   1.715 -1.6365 -1.3509 -1.6168
 6750SOL    HW231713   4.149   3.811   1.741 -3.5445  1.2482  0.0237
 6751SOL     OW31714   3.363   0.310   2.089 -0.0341 -0.1086 -0.3706
 6751SOL    HW131715   3.393   0.343   2.004 -0.9534 -0.7662 -0.9506
 6751SOL    HW231716   3.271   0.290   2.070  0.3415 -1.6987 -0.5197
 6752SOL     OW31717   3.154   1.631   3.852 -0.6453 -0.3926 -0.4390
 6752SOL    HW131718   3.114   1.555   3.810  0.0503  0.2158 -2.1940
 6752SOL    HW231719   3.220   1.586   3.904 -1.7188 -1.7479 -0.2354
 6753SOL     OW31720   2.462   2.715   7.359 -0.1150  0.6630  0.2002
 6753SOL    HW131721   2.394   2.782   7.350 -2.9212 -2.2162 -0.0869
 6753SOL    HW231722   2.536   2.760   7.399 -0.2545  0.1543  1.0443
 6754SOL     OW31723   2.555   0.838   4.224  0.0393 -0.5030 -0.3302
 6754SOL    HW131724   2.552   0.896   4.149 -0.3515  1.5239  1.2666
 6754SOL    HW231725   2.579   0.755   4.182  0.0142  0.4705 -2.2773
 6755SOL     OW31726   4.311   1.426   5.747  0.1968 -0.3480  0.2007
 6755SOL    HW131727   4.348   1.513   5.729 -0.6921  0.1464  0.7039
 6755SOL    HW231728   4.377   1.378   5.796  0.9209  0.1955 -0.2444
 6756SOL     OW31729   4.554   2.591  12.775 -0.1587  0.5327 -0.1676
 6756SOL    HW131730   4.483   2.641  12.736  0.3449  1.2628 -0.1584
 6756SOL    HW231731   4.553   2.625  12.865 -0.3079 -2.5345  0.9822
 6757SOL     OW31732   4.566   1.052   7.503  0.2795 -0.0098  0.0061
 6757SOL    HW131733   4.606   1.015   7.425 -1.7276  0.0490 -1.0629
 6757SOL    HW231734   4.488   1.095   7.468 -0.6472 -0.7901  1.1000
 6758SOL     OW31735   2.085   3.485   6.854 -0.1554  0.3627 -0.5092
 6758SOL    HW131736   2.032   3.439   6.919 -0.0083 -0.1681 -0.7731
 6758SOL    HW231737   2.137   3.551   6.901  1.0883 -1.7386  1.0248
 6759SOL     OW31738   3.239   1.014   0.761  0.2338 -0.0560  0.3271
 6759SOL    HW131739   3.159   1.048   0.801 -0.0826 -0.6249  0.1764
 6759SOL    HW231740   3.209   0.952   0.694 -1.8064  0.3153  0.8890
 6760SOL     OW31741   0.729   2.576  10.921 -0.1407  0.2049 -0.5178
 6760SOL    HW131742   0.775   2.494  10.939 -2.6908 -1.2151 -0.5910
 6760SOL    HW231743   0.767   2.634  10.987  1.0941 -0.4474 -0.6552
 6761SOL     OW31744   3.116   3.135   2.948 -0.1504  0.1938  0.7618
 6761SOL    HW131745   3.146   3.157   3.036  0.7026  1.2785  0.1778
 6761SOL    HW231746   3.070   3.216   2.925 -0.3750 -0.0387  0.3830
 6762SOL     OW31747   0.120   1.377   2.911 -0.1853 -0.0404  0.2310
 6762SOL    HW131748   0.191   1.415   2.859 -1.5706  1.0652 -0.8650
 6762SOL    HW231749   0.171   1.352   2.987 -0.0037 -1.7085 -0.4436
 6763SOL     OW31750   2.951   2.933   3.007  0.1395 -0.6561 -0.2631
 6763SOL    HW131751   2.915   2.936   2.919 -1.3772  2.8721  0.4809
 6763SOL    HW231752   2.998   3.016   3.005  0.5561 -0.8624  0.6955
 6764SOL     OW31753   3.095   2.300  15.831 -0.3009 -0.2559 -0.5005
 6764SOL    HW131754   3.054   2.383  15.856 -1.7142 -0.7742 -1.0628
 6764SOL    HW231755   3.090   2.257  15.916  1.7554 -0.1219 -0.3140
 6765SOL     OW31756   1.484   1.876  17.115 -0.3542 -0.0340  0.1323
 6765SOL    HW131757   1.452   1.881  17.025  1.4580 -2.0599 -0.6265
 6765SOL    HW231758   1.529   1.792  17.105  2.9949  1.4471  2.4191
 6766SOL     OW31759   2.474   4.147   8.219 -0.8503 -0.1687 -0.0145
 6766SOL    HW131760   2.408   4.174   8.283 -1.0663 -2.1677  0.5805
 6766SOL    HW231761   2.529   4.087   8.270 -0.2990 -0.2217 -0.6729
 6767SOL     OW31762   3.606   0.461   1.646 -0.0680 -0.1489 -0.1339
 6767SOL    HW131763   3.594   0.417   1.561  0.3458 -0.8832  0.1928
 6767SOL    HW231764   3.633   0.547   1.615 -3.2089  0.2145 -1.8865
 6768SOL     OW31765   1.121   2.950   0.749  0.7278  0.1103  0.5609
 6768SOL    HW131766   1.183   3.022   0.761  1.8709 -0.8308  0.3900
 6768SOL    HW231767   1.158   2.889   0.813 -0.9612 -1.1165  0.3556
 6769SOL     OW31768   0.340   2.583   7.595  0.4730  0.6117  0.0878
 6769SOL    HW131769   0.330   2.562   7.502  0.8736  0.7089  0.0223
 6769SOL    HW231770   0.339   2.678   7.594  1.3385  0.6610  2.8498
 6770SOL     OW31771   2.231   2.244   6.707  0.1088  0.1111 -0.2147
 6770SOL    HW131772   2.266   2.299   6.777  1.0869  1.0338 -1.4173
 6770SOL    HW231773   2.304   2.188   6.682  0.5385  1.0507 -1.0377
 6771SOL     OW31774   2.812   3.030  10.994  0.4624  0.0545 -0.0501
 6771SOL    HW131775   2.751   3.097  11.022 -0.4616 -0.5580 -0.5980
 6771SOL    HW231776   2.760   2.993  10.922  1.3794 -2.3342  0.5094
 6772SOL     OW31777   0.314   3.800   4.972  0.0224 -0.2950  0.2896
 6772SOL    HW131778   0.234   3.835   5.011  0.0781 -1.8816  1.8079
 6772SOL    HW231779   0.275   3.746   4.903  1.4307 -0.5881 -0.2902
 6773SOL     OW31780   3.429   1.664   4.247 -0.0429  0.0184  0.5154
 6773SOL    HW131781   3.418   1.623   4.333  0.4647 -1.9050 -0.3341
 6773SOL    HW231782   3.389   1.747   4.272  0.0932 -0.1370  1.2653
 6774SOL     OW31783   4.364   4.089  12.903 -0.6396  0.0604  0.0449
 6774SOL    HW131784   4.453   4.125  12.911  0.3420 -1.5869 -3.4046
 6774SOL    HW231785   4.309   4.165  12.923  0.9143  0.8856  1.2183
 6775SOL     OW31786   0.048   3.496  12.325  0.1071 -0.2303 -0.2838
 6775SOL    HW131787   0.015   3.564  12.384 -0.4791 -2.5688  2.0697
 6775SOL    HW231788   0.140   3.521  12.319  0.1174 -0.4407 -1.0677
 6776SOL     OW31789   3.963   3.251   1.870 -0.3726  0.2946  0.5603
 6776SOL    HW131790   4.002   3.239   1.957 -1.0196 -1.3307  0.6286
 6776SOL    HW231791   3.993   3.337   1.844 -2.2842  1.0772  0.9331
 6777SOL     OW31792   3.525   1.406   5.302 -0.0685 -0.2069  0.1341
 6777SOL    HW131793   3.511   1.433   5.393  0.6467  1.4111 -0.2487
 6777SOL    HW231794   3.437   1.422   5.266 -0.3437  0.1058  0.9324
 6778SOL     OW31795   2.125   2.501   9.306  0.1182  0.1742  0.2710
 6778SOL    HW131796   2.068   2.507   9.382  0.0311  0.1876  0.2053
 6778SOL    HW231797   2.120   2.591   9.274  1.5962  0.5201  1.0283
 6779SOL     OW31798   1.635   0.477   5.569 -0.0445 -0.3592  0.1941
 6779SOL    HW131799   1.597   0.390   5.558  1.3517 -1.0164  0.5402
 6779SOL    HW231800   1.710   0.471   5.509 -1.4142  0.0283 -1.5403
 6780SOL     OW31801   2.867   0.404  17.088  0.7413  0.1838  0.2234
 6780SOL    HW131802   2.856   0.354  17.007  0.3956  0.2176  0.2471
 6780SOL    HW231803   2.793   0.369  17.138  0.3043 -0.5380 -0.9110
 6781SOL     OW31804   0.257   2.983  11.521 -0.6068  0.1455  0.5859
 6781SOL    HW131805   0.348   2.958  11.533 -0.4269 -0.4481 -2.0123
 6781SOL    HW231806   0.256   2.962  11.428 -0.8221 -1.9807  1.0717
 6782SOL     OW31807   0.093   4.482  17.376  0.1596  0.4797 -0.6111
 6782SOL    HW131808   0.131   4.545  17.438  0.0988  0.6765 -0.7760
 6782SOL    HW231809   0.113   4.396  17.412  0.0542  0.1864 -1.2585
 6783SOL     OW31810   3.627   1.945   7.262 -0.0774 -0.6924 -0.1213
 6783SOL    HW131811   3.606   2.030   7.300  1.2775  0.4158 -1.8255
 6783SOL    HW231812   3.704   1.965   7.209 -1.3221  2.3009 -0.8190
 6784SOL     OW31813   0.025   1.404  12.149  0.7235 -0.0961  0.3314
 6784SOL    HW131814   0.052   1.496  12.151  3.5381 -0.8979 -1.4980
 6784SOL    HW231815   4.664   1.420  12.187  0.8241 -2.8059  1.7118
 6785SOL     OW31816   1.204   0.196  13.543 -0.0940 -0.3156 -0.1020
 6785SOL    HW131817   1.147   0.165  13.614 -1.2587  0.0926 -0.8678
 6785SOL    HW231818   1.211   0.113  13.497 -1.2259 -0.7327  0.4573
 6786SOL     OW31819   3.684   2.792   5.597 -0.4289 -0.1347  0.6397
 6786SOL    HW131820   3.675   2.868   5.539 -0.4806 -0.2514  0.4939
 6786SOL    HW231821   3.777   2.771   5.605 -0.3048  0.0350 -0.3589
 6787SOL     OW31822   2.074   0.051   9.392 -0.2379 -0.3367 -0.3045
 6787SOL    HW131823   2.105   0.122   9.449 -0.7786  1.8196 -2.6603
 6787SOL    HW231824   2.044   0.112   9.324  0.0622  2.3230  1.9056
 6788SOL     OW31825   4.646   3.515   9.166  0.0715 -0.0882 -0.0856
 6788SOL    HW131826   4.720   3.491   9.111 -0.0744 -1.2596  0.2122
 6788SOL    HW231827   4.600   3.432   9.180 -1.8266  1.0096  0.2285
 6789SOL     OW31828   0.604   1.170  13.082  0.2269  0.8022 -0.0339
 6789SOL    HW131829   0.586   1.203  12.994 -2.0443  0.9966  0.4921
 6789SOL    HW231830   0.694   1.200  13.095  1.0902 -1.1193 -1.5465
 6790SOL     OW31831   0.553   3.891  17.188 -0.1219  0.6226  0.0775
 6790SOL    HW131832   0.499   3.846  17.254  1.7203 -0.5044  0.8440
 6790SOL    HW231833   0.491   3.877  17.118  0.4819  1.7569 -0.6816
 6791SOL     OW31834   2.573   1.614   3.060 -0.5366  0.0096 -0.4191
 6791SOL    HW131835   2.663   1.601   3.090 -0.5647 -1.4223 -0.9325
 6791SOL    HW231836   2.537   1.528   3.084 -0.5411  0.3195  0.6869
 6792SOL     OW31837   3.078   0.599   5.770  0.7009  0.6400 -0.4428
 6792SOL    HW131838   3.160   0.565   5.805  1.0990  4.6541  2.4610
 6792SOL    HW231839   3.118   0.617   5.685 -0.6784  0.5120 -1.1374
 6793SOL     OW31840   2.368   0.983   1.871  0.0914 -0.0533  0.0430
 6793SOL    HW131841   2.444   1.014   1.822  0.0969 -1.0516 -0.5891
 6793SOL    HW231842   2.332   0.918   1.811  0.3926  0.1334 -0.3427
 6794SOL     OW31843   0.376   1.561   4.599 -0.5426  0.5091 -0.0468
 6794SOL    HW131844   0.439   1.526   4.663  0.4961  2.3025 -0.0947
 6794SOL    HW231845   0.433   1.589   4.527 -1.5098 -1.2124 -1.4773
 6795SOL     OW31846   0.267   4.330   3.655 -0.0285  0.5541  0.2337
 6795SOL    HW131847   0.197   4.294   3.601  0.9074 -2.3188  0.9745
 6795SOL    HW231848   0.260   4.422   3.629 -2.7226 -0.0706 -1.2840
 6796SOL     OW31849   0.876   1.802   5.605 -0.0313 -0.3976  0.1213
 6796SOL    HW131850   0.800   1.853   5.631 -0.5071 -1.0661  0.0630
 6796SOL    HW231851   0.840   1.716   5.584  0.7858 -0.7799  0.2916
 6797SOL     OW31852   0.326   3.570   5.659 -0.5724 -0.3961  0.4983
 6797SOL    HW131853   0.376   3.650   5.677 -1.6114  0.7852 -1.7545
 6797SOL    HW231854   0.335   3.510   5.733 -0.6027 -1.2285 -0.1783
 6798SOL     OW31855   4.624   4.032   6.528 -0.3974  0.3936 -0.4870
 6798SOL    HW131856   4.672   4.047   6.447  0.2006 -0.1622 -0.2312
 6798SOL    HW231857   4.586   3.945   6.521  1.6858 -0.5569  0.0598
 6799SOL     OW31858   4.044   2.796   1.856  0.2855 -0.7055  0.2203
 6799SOL    HW131859   4.040   2.772   1.763  1.7609  2.5395 -0.6804
 6799SOL    HW231860   4.130   2.837   1.853 -0.2666  0.3124 -2.2001
 6800SOL     OW31861   3.189   3.250   7.356  0.2188 -0.0215 -0.4321
 6800SOL    HW131862   3.259   3.185   7.364 -0.9630 -0.8396  3.1386
 6800SOL    HW231863   3.234   3.331   7.381 -0.6433  0.6729 -1.1143
 6801SOL     OW31864   1.523   2.824   0.968 -0.5769 -0.0342  0.4469
 6801SOL    HW131865   1.593   2.779   0.921 -1.3139 -0.7857  0.0593
 6801SOL    HW231866   1.577   2.855   1.039  0.3883 -0.6109 -0.0371
 6802SOL     OW31867   0.930   2.795   8.617 -0.3113  0.4266 -0.2514
 6802SOL    HW131868   0.856   2.844   8.582 -1.4100 -0.7061  0.4412
 6802SOL    HW231869   1.005   2.809   8.560  1.0030  0.5505  1.4864
 6803SOL     OW31870   3.442   3.841   8.969  0.7393 -0.2124 -0.7065
 6803SOL    HW131871   3.350   3.864   8.987  0.7184 -1.8075  1.3222
 6803SOL    HW231872   3.431   3.802   8.883  1.3712 -1.6297 -0.1440
 6804SOL     OW31873   2.059   1.950   9.056 -0.2890 -0.0612  0.1669
 6804SOL    HW131874   1.976   1.903   9.055 -0.6452  0.5457  1.1569
 6804SOL    HW231875   2.048   2.002   9.136  2.1563  1.3387 -0.3871
 6805SOL     OW31876   4.077   0.313   5.669  0.2961  0.5363  0.1486
 6805SOL    HW131877   4.155   0.368   5.676  0.3297  0.5940 -0.7305
 6805SOL    HW231878   4.016   0.382   5.695  1.2710  1.2555  0.5057
 6806SOL     OW31879   0.289   1.659   2.517  0.1972 -0.2106  0.1052
 6806SOL    HW131880   0.316   1.679   2.427 -4.1889  1.4028 -0.8392
 6806SOL    HW231881   0.272   1.744   2.557 -0.5672  0.0355 -0.7441
 6807SOL     OW31882   3.820   2.858   2.018 -0.4987 -0.0344 -0.7517
 6807SOL    HW131883   3.814   2.782   2.076  0.3961  0.7798  0.3944
 6807SOL    HW231884   3.845   2.817   1.935  3.1924  0.2648  0.2231
 6808SOL     OW31885   3.091   0.520   6.679 -0.0423  0.5094 -0.2843
 6808SOL    HW131886   3.050   0.444   6.637 -2.5978  1.9591 -0.3762
 6808SOL    HW231887   3.116   0.475   6.760  0.1550  1.6514  0.2846
 6809SOL     OW31888   2.534   4.424   1.444 -0.7068 -0.5479 -0.4544
 6809SOL    HW131889   2.555   4.332   1.429 -0.1668 -0.6293  0.8377
 6809SOL    HW231890   2.492   4.449   1.361  1.0976  0.2861 -1.1166
 6810SOL     OW31891   2.119   1.302   4.233 -0.0677 -0.1193  0.1559
 6810SOL    HW131892   2.032   1.283   4.198 -0.7121 -1.0912  2.2756
 6810SOL    HW231893   2.100   1.292   4.327  0.9575  0.8334  0.4752
 6811SOL     OW31894   2.145   1.047   3.289  0.7310 -0.2853  0.6430
 6811SOL    HW131895   2.123   0.958   3.263 -0.9292 -0.2348  1.8744
 6811SOL    HW231896   2.237   1.034   3.311  1.0396  0.5549 -0.1847
 6812SOL     OW31897   4.122   0.548   6.220  0.4840  0.2867  0.0920
 6812SOL    HW131898   4.140   0.481   6.285 -1.3212  1.7783  2.1146
 6812SOL    HW231899   4.213   0.576   6.209  0.4692  0.1074 -0.5070
 6813SOL     OW31900   2.494   4.304   5.342 -0.1332 -0.0978  0.1554
 6813SOL    HW131901   2.432   4.276   5.410  0.3674 -0.2109  0.5635
 6813SOL    HW231902   2.443   4.259   5.274  1.1611  0.5777 -1.2554
 6814SOL     OW31903   1.885   1.021   8.070  0.4393 -0.3262 -0.5722
 6814SOL    HW131904   1.888   0.929   8.097 -1.6378 -0.8707 -2.1583
 6814SOL    HW231905   1.906   1.019   7.977 -0.5022 -0.3942 -0.7901
 6815SOL     OW31906   4.123   3.440   6.063  0.1287 -0.5254  0.5862
 6815SOL    HW131907   4.109   3.468   6.153 -1.4998 -0.8294  0.4317
 6815SOL    HW231908   4.036   3.403   6.046  0.7461 -1.2787 -0.9241
 6816SOL     OW31909   1.432   4.069   6.409  0.2916  0.3196  0.1675
 6816SOL    HW131910   1.461   4.003   6.472 -1.9180 -1.4285 -0.6464
 6816SOL    HW231911   1.361   4.105   6.463  0.7587  1.3388  0.1127
 6817SOL     OW31912   1.483   1.128   4.771 -0.9202  0.0945  0.3082
 6817SOL    HW131913   1.398   1.085   4.771 -0.3060 -1.0939  0.9049
 6817SOL    HW231914   1.516   1.091   4.690  2.1403  0.9083  1.1745
 6818SOL     OW31915   2.426   3.249   6.622  0.1959 -0.0800  0.2487
 6818SOL    HW131916   2.430   3.184   6.692  0.0946 -0.8265 -0.4421
 6818SOL    HW231917   2.456   3.209   6.540 -0.2460 -0.4207  0.2540
 6819SOL     OW31918   2.301   2.987  13.933 -0.3994 -0.5381  0.7258
 6819SOL    HW131919   2.394   3.007  13.930 -0.3795 -0.4593  1.8170
 6819SOL    HW231920   2.290   2.968  14.026  0.2400 -2.8049  0.3437
 6820SOL     OW31921   1.977   2.567   3.628  0.1641  0.0708 -0.1958
 6820SOL    HW131922   2.012   2.478   3.633 -2.0615 -0.8727 -1.8049
 6820SOL    HW231923   1.993   2.586   3.535  2.3332 -0.0682  0.1303
 6821SOL     OW31924   0.751   2.488   8.274  0.0456 -0.1644  0.1208
 6821SOL    HW131925   0.698   2.565   8.294 -1.1980 -0.6140 -1.4481
 6821SOL    HW231926   0.827   2.531   8.234 -0.0595  1.1200  1.3078
 6822SOL     OW31927   0.935   4.039   6.365 -0.4855  0.2028  0.0147
 6822SOL    HW131928   0.945   4.016   6.272 -1.4363 -0.9485  0.1961
 6822SOL    HW231929   0.977   4.125   6.358 -1.2008  0.4693 -1.0034
 6823SOL     OW31930   3.326   1.868   8.724  0.3459 -0.2288  0.0776
 6823SOL    HW131931   3.315   1.837   8.814  2.8855  2.1277  1.1771
 6823SOL    HW231932   3.399   1.813   8.695 -0.9552 -1.2912 -1.2345
 6824SOL     OW31933   1.755   2.850   7.386  0.8022 -0.3583  0.1873
 6824SOL    HW131934   1.688   2.799   7.341  0.2965 -0.5017  1.1071
 6824SOL    HW231935   1.698   2.925   7.401  0.5542 -0.9683  2.2281
 6825SOL     OW31936   4.120   0.058   4.590 -0.1832  0.0754 -0.2782
 6825SOL    HW131937   4.026   0.038   4.593 -0.3173  0.2403 -3.7265
 6825SOL    HW231938   4.137   0.111   4.667  0.1727  0.5377 -0.6816
 6826SOL     OW31939   1.801   1.902   4.928 -0.0919 -0.5555 -0.3178
 6826SOL    HW131940   1.787   1.860   5.014  1.1369 -0.5970 -0.1401
 6826SOL    HW231941   1.758   1.834   4.876 -2.4862 -0.3629  1.3586
 6827SOL     OW31942   4.140   2.697   5.705 -0.0608  0.3272  0.1625
 6827SOL    HW131943   4.205   2.636   5.739 -0.1777  0.9676  1.5350
 6827SOL    HW231944   4.190   2.747   5.640 -0.3630 -0.4255 -0.6618
 6828SOL     OW31945   0.520   1.780   8.458  0.2498  0.3214  0.3392
 6828SOL    HW131946   0.566   1.820   8.532 -0.7688 -0.6878  1.5363
 6828SOL    HW231947   0.595   1.750   8.408 -0.8081 -2.6227  0.5172
 6829SOL     OW31948   0.258   4.038  16.772  0.3171 -0.3351 -0.3606
 6829SOL    HW131949   0.344   4.058  16.736  0.2835  0.7120  0.1754
 6829SOL    HW231950   0.252   4.112  16.831  0.0207 -0.3015 -0.4299
 6830SOL     OW31951   2.378   1.840   6.763 -0.1766 -0.0713 -0.7727
 6830SOL    HW131952   2.416   1.755   6.739 -1.3586 -0.5550 -0.9536
 6830SOL    HW231953   2.309   1.813   6.824  1.2421  0.4838  1.0815
 6831SOL     OW31954   0.056   4.463   2.987  0.5735  0.1330  0.0348
 6831SOL    HW131955   0.075   4.424   3.072  1.5310  0.7929  0.1233
 6831SOL    HW231956   0.125   4.426   2.932  2.4094  2.8214  0.5245
 6832SOL     OW31957   3.758   3.201  17.222  0.5355 -0.7813 -0.1036
 6832SOL    HW131958   3.850   3.174  17.215  1.1094  0.7896  1.2747
 6832SOL    HW231959   3.720   3.191  17.135 -0.2736  2.0898 -0.0720
 6833SOL     OW31960   4.499   2.066   0.973  0.3947  0.0705  0.0534
 6833SOL    HW131961   4.465   2.113   0.897 -0.5004 -0.8179 -0.0893
 6833SOL    HW231962   4.466   1.976   0.969  2.6948 -0.6777 -2.2975
 6834SOL     OW31963   2.456   4.283   6.839  0.1409 -0.0989  0.0292
 6834SOL    HW131964   2.499   4.331   6.768 -0.3729  0.9134  0.4022
 6834SOL    HW231965   2.516   4.233   6.894  1.3053  2.0188  0.6849
 6835SOL     OW31966   0.509   4.208   3.726  0.3299  0.5984 -0.8263
 6835SOL    HW131967   0.559   4.253   3.657  3.9289 -2.6548 -0.3112
 6835SOL    HW231968   0.423   4.249   3.715  0.7358  1.0294 -2.4279
 6836SOL     OW31969   3.011   2.217   3.340  0.0048 -0.1389 -0.7469
 6836SOL    HW131970   2.979   2.305   3.355  1.8535  0.0043  2.3960
 6836SOL    HW231971   2.930   2.173   3.312  1.7327 -3.2281 -0.8905
 6837SOL     OW31972   1.456   0.291   7.188  0.3801  0.1143  0.2665
 6837SOL    HW131973   1.484   0.208   7.225  0.3507 -0.5561 -1.2329
 6837SOL    HW231974   1.480   0.284   7.096 -1.3138 -0.6981 -0.1048
 6838SOL     OW31975   1.992   3.721   3.783  0.4473  0.2507  0.1134
 6838SOL    HW131976   2.003   3.689   3.873  2.8432  0.7155  0.0036
 6838SOL    HW231977   2.081   3.701   3.752  0.7045  1.5504 -0.0026
 6839SOL     OW31978   3.487   2.049   3.435 -0.1158  0.3851 -0.1572
 6839SOL    HW131979   3.450   2.071   3.349 -1.0059 -1.1064 -0.1573
 6839SOL    HW231980   3.463   2.122   3.491  0.0329  0.9843 -0.8815
 6840SOL     OW31981   3.161   0.394   1.556 -0.1906 -0.1489 -0.3017
 6840SOL    HW131982   3.067   0.392   1.543 -0.4545  1.1629  1.3654
 6840SOL    HW231983   3.180   0.312   1.509  1.4042  0.4500 -0.6894
 6841SOL     OW31984   3.483   1.763   5.745 -0.1268  0.0166  0.2710
 6841SOL    HW131985   3.489   1.834   5.681 -1.1362 -0.7529 -0.6885
 6841SOL    HW231986   3.447   1.807   5.821  3.5129 -0.4200  2.2582
 6842SOL     OW31987   2.873   0.359   9.216  0.0757 -0.1677 -0.3411
 6842SOL    HW131988   2.790   0.313   9.202 -0.0943 -1.4625  4.8537
 6842SOL    HW231989   2.922   0.365   9.135 -1.0624  0.8325 -0.9516
 6843SOL     OW31990   0.315   2.407   4.155  0.9735 -0.2633 -0.3870
 6843SOL    HW131991   0.297   2.431   4.064  1.3983  1.2731 -0.0601
 6843SOL    HW231992   0.410   2.413   4.156  0.8429  1.6889 -0.3703
 6844SOL     OW31993   1.492   3.688   4.867  0.0911  0.3255  0.4966
 6844SOL    HW131994   1.552   3.742   4.817 -1.6585 -0.2487 -2.2064
 6844SOL    HW231995   1.451   3.631   4.802 -0.9304  1.3874  0.2112
 6845SOL     OW31996   2.640   0.961   3.577 -0.4138  0.0388 -0.4816
 6845SOL    HW131997   2.593   1.044   3.572 -0.1560  0.2368  0.4417
 6845SOL    HW231998   2.710   0.993   3.633 -0.3501  1.9494 -1.6625
 6846SOL     OW31999   2.546   1.325  13.459 -0.1641 -0.1522 -0.1147
 6846SOL    HW132000   2.620   1.355  13.407  1.0859 -0.6138  1.3922
 6846SOL    HW232001   2.486   1.397  13.440  1.3469  0.4443 -2.5952
 6847SOL     OW32002   2.067   0.951   0.609 -0.3622 -0.6691 -0.3043
 6847SOL    HW132003   1.998   0.925   0.548 -0.1980 -1.8236  0.0128
 6847SOL    HW232004   2.096   0.863   0.630  0.4597 -0.3103  0.0809
 6848SOL     OW32005   2.679   1.221   2.797  0.2488 -0.4018 -0.1134
 6848SOL    HW132006   2.690   1.195   2.888  0.5065 -1.1506 -0.3616
 6848SOL    HW232007   2.600   1.275   2.808  0.4448 -0.5501  2.0009
 6849SOL     OW32008   2.441   1.744   4.178  0.1214 -0.3465  0.4501
 6849SOL    HW132009   2.354   1.747   4.218  0.2595 -1.3089  0.8299
 6849SOL    HW232010   2.424   1.673   4.116  1.3828 -0.5564  0.3359
 6850SOL     OW32011   4.693   2.569   7.203 -0.2388 -0.3915  0.0823
 6850SOL    HW132012   0.028   2.514   7.152 -0.0995 -0.8427  0.7391
 6850SOL    HW232013   4.643   2.492   7.231  1.3917 -0.6767  2.2248
 6851SOL     OW32014   0.233   4.409  17.608  0.0457  0.5917  0.1791
 6851SOL    HW132015   0.295   4.403  17.681 -0.9378 -0.5565  0.9251
 6851SOL    HW232016   0.265   4.340  17.550  0.6954 -0.4754  1.8170
 6852SOL     OW32017   1.669   3.971  12.737 -0.0573  0.7576 -0.3215
 6852SOL    HW132018   1.601   3.904  12.739 -0.4449  1.1838  0.6467
 6852SOL    HW232019   1.721   3.951  12.815 -0.7742  0.6507  0.1282
 6853SOL     OW32020   2.621   2.023   7.552 -0.1709 -0.5248 -0.7052
 6853SOL    HW132021   2.593   2.092   7.492 -0.1243 -0.1709 -0.3247
 6853SOL    HW232022   2.619   2.067   7.637 -1.4700 -1.0579 -0.4527
 6854SOL     OW32023   1.327   2.707   3.998  0.1030 -0.1940 -0.5898
 6854SOL    HW132024   1.335   2.627   4.049  4.0323  1.6497  1.6173
 6854SOL    HW232025   1.301   2.766   4.069 -0.3904  0.5747 -1.4027
 6855SOL     OW32026   2.856   3.943  10.995  0.5915  0.1961  0.0571
 6855SOL    HW132027   2.841   4.001  10.920 -0.4599 -1.9531 -1.3692
 6855SOL    HW232028   2.917   3.998  11.045  0.8344  0.2851 -0.3397
 6856SOL     OW32029   2.265   0.985  10.732  0.3753  0.5171 -0.2635
 6856SOL    HW132030   2.245   0.912  10.674  1.5193 -0.2640  0.3330
 6856SOL    HW232031   2.340   0.962  10.786 -0.5982 -0.6714  0.5779
 6857SOL     OW32032   4.604   1.869   3.015  0.0717 -0.4769  0.4491
 6857SOL    HW132033   4.529   1.929   3.014 -0.9619 -1.8046 -2.1910
 6857SOL    HW232034   4.676   1.928   2.994 -0.9464 -0.0258 -1.7384
 6858SOL     OW32035   2.124   3.285  17.016  0.3688 -0.5195  0.2397
 6858SOL    HW132036   2.183   3.275  16.941  1.4460  5.1097  0.3207
 6858SOL    HW232037   2.076   3.365  16.995 -1.9072 -1.5478  1.5094
 6859SOL     OW32038   1.847   4.586   2.734 -0.2253  0.3192 -0.4320
 6859SOL    HW132039   1.882   4.499   2.722 -0.0940  0.5845 -1.9483
 6859SOL    HW232040   1.816   4.617   2.649  0.9883 -0.9839 -1.3411
 6860SOL     OW32041   4.250   2.522   1.717 -0.0034 -0.1542 -0.3231
 6860SOL    HW132042   4.167   2.558   1.685 -0.7372 -0.5130  1.1671
 6860SOL    HW232043   4.294   2.500   1.635 -1.0189  0.1032 -0.9417
 6861SOL     OW32044   0.438   1.460   3.142  0.0739  0.1438 -0.0727
 6861SOL    HW132045   0.494   1.538   3.147 -1.2902  1.1597 -0.5339
 6861SOL    HW232046   0.384   1.485   3.067 -0.9770  0.2752  0.7417
 6862SOL     OW32047   1.838   0.687   5.030 -0.5139  0.2187 -0.1177
 6862SOL    HW132048   1.824   0.779   5.053  3.2484  0.8029 -0.1313
 6862SOL    HW232049   1.769   0.684   4.964 -1.1090  1.7273  0.4527
 6863SOL     OW32050   1.693   3.058  12.365 -0.1556 -0.0558 -0.2795
 6863SOL    HW132051   1.690   3.112  12.444 -3.2231  1.6701 -1.5822
 6863SOL    HW232052   1.786   3.068  12.346  0.0380  0.9015  1.1256
 6864SOL     OW32053   4.206   2.933   7.305  0.1811 -0.2082  0.0053
 6864SOL    HW132054   4.171   2.994   7.371  0.2978 -0.4568  0.2952
 6864SOL    HW232055   4.298   2.933   7.330 -0.6525  0.9572  3.0580
 6865SOL     OW32056   1.690   3.909   7.291  0.0374  0.3666  0.0591
 6865SOL    HW132057   1.607   3.862   7.299 -0.0896  0.2158 -2.2231
 6865SOL    HW232058   1.726   3.888   7.377 -0.3341 -2.1543 -0.3954
 6866SOL     OW32059   0.231   2.596  16.539  0.3283 -0.2680 -0.4360
 6866SOL    HW132060   0.200   2.521  16.489 -0.2618  1.4596 -2.6352
 6866SOL    HW232061   0.144   2.631  16.555 -0.1866 -2.2326  1.1407
 6867SOL     OW32062   0.645   4.030   7.462  0.1668  0.6988 -0.4767
 6867SOL    HW132063   0.556   3.994   7.466  0.5769 -0.1708  0.9925
 6867SOL    HW232064   0.666   4.031   7.555  1.8119 -0.4526 -0.8219
 6868SOL     OW32065   0.910   4.485   9.262 -0.1850 -0.6396  0.5610
 6868SOL    HW132066   0.892   4.400   9.301 -0.7795 -0.6139  0.3513
 6868SOL    HW232067   0.996   4.500   9.301  0.1574  1.0553 -0.8416
 6869SOL     OW32068   3.142   3.919   2.841  0.1376  0.3474 -0.5168
 6869SOL    HW132069   3.187   3.969   2.909  0.8274  0.7157 -1.2470
 6869SOL    HW232070   3.154   3.828   2.871 -0.6162  0.8297  1.2612
 6870SOL     OW32071   1.382   3.984   2.779  0.6355  0.0115 -0.3298
 6870SOL    HW132072   1.374   4.073   2.746  0.4925 -0.0624 -0.4966
 6870SOL    HW232073   1.433   3.988   2.860  0.8086 -1.8225 -0.3557
 6871SOL     OW32074   1.645   3.100   5.044  0.2147 -0.1304  0.2663
 6871SOL    HW132075   1.583   3.166   5.013  0.4529 -0.7466 -1.5285
 6871SOL    HW232076   1.722   3.148   5.013 -0.6485  1.3431  0.3788
 6872SOL     OW32077   1.287   2.043   0.943 -0.3368  0.9137  0.1237
 6872SOL    HW132078   1.235   2.095   1.005  0.3764  0.6218  0.9683
 6872SOL    HW232079   1.227   2.026   0.871 -0.6704  1.6056  0.2408
 6873SOL     OW32080   4.688   0.649  15.350  0.3614  0.5348  0.1524
 6873SOL    HW132081   0.047   0.606  15.354 -0.5598 -1.3793 -0.4626
 6873SOL    HW232082   4.659   0.618  15.264 -0.3272  0.6490  0.3397
 6874SOL     OW32083   2.175   1.347   2.693  0.2591 -0.2601  0.0239
 6874SOL    HW132084   2.122   1.426   2.703 -0.2782 -0.3705 -1.8126
 6874SOL    HW232085   2.111   1.291   2.649  1.6101 -0.6929 -1.4065
 6875SOL     OW32086   4.706   4.402  12.454 -0.3275 -0.0288  0.1044
 6875SOL    HW132087   0.039   4.336  12.491  0.0719  0.7814  0.9191
 6875SOL    HW232088   4.695   4.451  12.535  0.0065 -0.7457  0.5785
 6876SOL     OW32089   4.173   3.653  15.631  0.6325  0.2825  0.3753
 6876SOL    HW132090   4.202   3.687  15.715  1.5237 -0.0414  0.2010
 6876SOL    HW232091   4.226   3.577  15.606  0.1489 -0.1066  0.5304
 6877SOL     OW32092   3.835   2.654   4.902  0.1981  0.1331 -0.3812
 6877SOL    HW132093   3.923   2.636   4.936 -0.4338  0.2140  1.2487
 6877SOL    HW232094   3.788   2.572   4.916  1.5170 -0.4090  0.8227
 6878SOL     OW32095   2.999   1.754   3.036  0.0267 -0.1758  0.0367
 6878SOL    HW132096   3.010   1.701   2.957  1.1639  0.5461 -0.2836
 6878SOL    HW232097   2.979   1.839   2.996  0.2626  0.3340  1.0012
 6879SOL     OW32098   1.562   0.096   6.447 -0.0865  0.4744 -0.0767
 6879SOL    HW132099   1.506   0.082   6.523 -1.9256 -0.7649 -1.6437
 6879SOL    HW232100   1.519   0.046   6.377  0.6906 -1.5954  0.9301
 6880SOL     OW32101   2.612   3.857   9.064 -0.6181 -0.1822  0.5891
 6880SOL    HW132102   2.600   3.797   8.990  0.5258  0.8663 -0.4413
 6880SOL    HW232103   2.649   3.801   9.132 -0.7407  0.0432  0.8406
 6881SOL     OW32104   4.298   2.714  12.536 -0.2712 -0.3022 -0.4624
 6881SOL    HW132105   4.377   2.743  12.490 -0.0872 -0.5287 -0.2874
 6881SOL    HW232106   4.319   2.755  12.620 -1.9235  1.3234 -0.8478
 6882SOL     OW32107   2.832   2.834  15.068 -0.1576  0.3409 -0.1165
 6882SOL    HW132108   2.896   2.794  15.009  0.4727  1.3739 -0.1322
 6882SOL    HW232109   2.892   2.893  15.114  1.7963 -0.9830 -0.9464
 6883SOL     OW32110   1.963   4.098  12.878  0.4738 -0.2247  0.1518
 6883SOL    HW132111   1.940   4.066  12.965  1.0460 -1.9978 -0.3666
 6883SOL    HW232112   1.961   4.193  12.891  1.8340 -0.1868  0.1083
 6884SOL     OW32113   0.070   1.268   0.132  0.0970  0.1443  0.8734
 6884SOL    HW132114   0.094   1.219   0.210  2.4270 -1.1408 -0.6731
 6884SOL    HW232115   0.100   1.357   0.152  1.7867 -0.0593 -0.7813
 6885SOL     OW32116   0.732   3.875  14.485  0.5881  0.1468 -0.1933
 6885SOL    HW132117   0.672   3.949  14.494  0.0173 -0.1276 -1.7197
 6885SOL    HW232118   0.699   3.853  14.398  0.3672 -0.3907  0.0288
 6886SOL     OW32119   0.739   4.133   2.437 -0.1389 -0.4333 -0.3727
 6886SOL    HW132120   0.748   4.181   2.519  1.8941  0.3623 -1.0741
 6886SOL    HW232121   0.737   4.211   2.381  1.0025  0.6011  1.0540
 6887SOL     OW32122   0.376   4.392   3.159 -0.2041 -0.3508 -0.0573
 6887SOL    HW132123   0.425   4.360   3.084  0.0029 -1.1845  0.4360
 6887SOL    HW232124   0.287   4.364   3.138 -0.2774  0.8738 -1.3820
 6888SOL     OW32125   3.762   4.226   5.927 -0.2332  0.1144 -0.3633
 6888SOL    HW132126   3.695   4.158   5.933  0.5144 -0.5567  0.2971
 6888SOL    HW232127   3.846   4.181   5.924 -0.3631 -0.1896  0.7669
 6889SOL     OW32128   3.671   0.075   9.795 -0.1699 -0.2736  0.0675
 6889SOL    HW132129   3.597   0.109   9.845  1.6848  2.4997  0.8925
 6889SOL    HW232130   3.664   0.135   9.721 -3.7918 -0.4671  0.2449
 6890SOL     OW32131   3.471   0.274   4.432  0.2217  0.5244 -0.5236
 6890SOL    HW132132   3.485   0.261   4.525 -1.0774  0.9818 -0.2749
 6890SOL    HW232133   3.544   0.334   4.416  0.5723  0.4643  0.8733
 6891SOL     OW32134   2.774   1.000   8.731 -0.0866 -0.0543  0.8627
 6891SOL    HW132135   2.793   1.072   8.671  0.5983  0.3769  1.5966
 6891SOL    HW232136   2.708   1.038   8.788 -0.3145 -0.8037  1.0997
 6892SOL     OW32137   0.768   1.469  16.454  0.3119 -0.0158  0.1300
 6892SOL    HW132138   0.734   1.526  16.523  1.3339 -2.2959  2.5454
 6892SOL    HW232139   0.759   1.385  16.500  2.8008  0.1317  0.9123
 6893SOL     OW32140   3.076   2.077  15.671  0.0443 -0.3328  0.3599
 6893SOL    HW132141   3.013   2.126  15.618 -0.3995 -0.3269  0.8989
 6893SOL    HW232142   3.092   2.140  15.741  0.9288  1.8338 -1.7871
 6894SOL     OW32143   1.612   1.309  13.837 -0.0843 -0.1760  0.2617
 6894SOL    HW132144   1.532   1.290  13.886 -0.9875  0.6967 -0.8390
 6894SOL    HW232145   1.596   1.369  13.763  1.5271  1.3814  1.1650
 6895SOL     OW32146   1.297   3.765   2.416  0.0643 -0.0898 -0.8438
 6895SOL    HW132147   1.203   3.752   2.425  0.2693 -1.1329 -0.2656
 6895SOL    HW232148   1.349   3.694   2.452 -0.3256  1.0377  1.9039
 6896SOL     OW32149   2.284   0.425   7.350 -0.5595 -0.8735 -0.3054
 6896SOL    HW132150   2.359   0.367   7.357  0.9202  0.9199 -1.4221
 6896SOL    HW232151   2.276   0.446   7.443 -1.8541 -1.9524 -0.1807
 6897SOL     OW32152   3.922   3.126   6.396  0.1835  0.3148  0.0413
 6897SOL    HW132153   3.976   3.059   6.438  0.8714  1.0821  0.3826
 6897SOL    HW232154   3.839   3.081   6.382  0.1071  1.4771 -3.2473
 6898SOL     OW32155   1.262   3.524   8.296 -0.3046  0.0059 -0.5426
 6898SOL    HW132156   1.203   3.573   8.238 -1.3243  0.6612  1.0225
 6898SOL    HW232157   1.255   3.591   8.364  0.3935  0.6978 -1.1495
 6899SOL     OW32158   0.677   1.988   4.389 -0.1976  0.6670  0.0255
 6899SOL    HW132159   0.584   1.994   4.410  0.0589 -1.4178  1.7361
 6899SOL    HW232160   0.668   1.921   4.321  0.0553 -0.0332  0.6938
 6900SOL     OW32161   0.983   3.067   8.785  0.6640 -0.2436  0.4700
 6900SOL    HW132162   1.067   3.045   8.745  1.4500  1.7619  1.0354
 6900SOL    HW232163   0.957   2.975   8.788 -1.9228  0.4541 -0.3367
 6901SOL     OW32164   2.155   3.031  11.004 -0.7009 -0.6726  0.3033
 6901SOL    HW132165   2.139   3.089  10.929  0.0065 -1.6257 -0.5831
 6901SOL    HW232166   2.211   2.963  10.967  0.6810  0.6564 -0.0557
 6902SOL     OW32167   0.523   4.262  13.813 -0.5613 -0.0623  0.8617
 6902SOL    HW132168   0.532   4.168  13.828 -0.1792  0.0391  1.2710
 6902SOL    HW232169   0.437   4.281  13.851 -1.1165  0.9159 -0.8848
 6903SOL     OW32170   1.221   1.293  15.793  0.2642  0.2818  0.0470
 6903SOL    HW132171   1.130   1.295  15.764 -0.4520 -0.7378  2.2076
 6903SOL    HW232172   1.273   1.334  15.724 -0.0858  3.2584  1.5500
 6904SOL     OW32173   2.213   2.810  13.161 -0.3633  0.6024  0.4949
 6904SOL    HW132174   2.285   2.867  13.136 -1.2691  0.8464 -1.5739
 6904SOL    HW232175   2.263   2.735  13.193 -0.7077 -0.4074 -1.3218
 6905SOL     OW32176   2.779   4.135   4.017 -0.3730 -0.0700 -0.5589
 6905SOL    HW132177   2.806   4.226   4.024 -0.1535 -0.2501  1.0193
 6905SOL    HW232178   2.685   4.129   4.036  0.3367 -1.0034  2.6623
 6906SOL     OW32179   0.849   4.139   9.622 -0.2962  0.2632  0.4133
 6906SOL    HW132180   0.908   4.090   9.678 -0.8253 -0.1071  0.6392
 6906SOL    HW232181   0.862   4.217   9.677 -1.5118  0.5222  0.3364
 6907SOL     OW32182   2.531   0.870  12.099 -0.2134 -0.3212 -0.1453
 6907SOL    HW132183   2.486   0.787  12.083 -0.2500 -0.1273 -1.0586
 6907SOL    HW232184   2.593   0.851  12.029 -0.9031 -0.4871 -0.7092
 6908SOL     OW32185   1.016   0.991   1.706  0.2481  0.2552 -0.3355
 6908SOL    HW132186   1.039   0.931   1.777 -0.0031  0.9399  0.3196
 6908SOL    HW232187   0.953   1.045   1.753 -1.0074 -2.3157  0.9818
 6909SOL     OW32188   2.606   1.279  12.634  0.3141  0.1137 -0.7606
 6909SOL    HW132189   2.642   1.193  12.612 -0.1021  0.0804 -1.3257
 6909SOL    HW232190   2.585   1.314  12.547 -1.2228  2.4832  0.5800
 6910SOL     OW32191   0.676   0.519   1.383  0.2951  0.7397  0.4976
 6910SOL    HW132192   0.735   0.595   1.380  0.3973  0.6203 -0.5327
 6910SOL    HW232193   0.721   0.466   1.448 -1.2716 -0.5767  0.5018
 6911SOL     OW32194   0.415   2.858  14.213  0.5507 -0.0551 -0.0845
 6911SOL    HW132195   0.436   2.942  14.253 -0.0295 -0.4638  1.0536
 6911SOL    HW232196   0.399   2.886  14.123 -2.3802 -3.2106 -0.5333
 6912SOL     OW32197   1.351   3.721  15.778  0.0061 -0.2979 -0.2319
 6912SOL    HW132198   1.329   3.791  15.717 -2.5865 -0.2335  0.7743
 6912SOL    HW232199   1.269   3.675  15.794  0.0317 -0.5974 -0.9476
 6913SOL     OW32200   2.017   3.077   0.602  0.3184  0.5573  0.1327
 6913SOL    HW132201   2.081   3.007   0.615 -0.9170 -0.7951 -1.0346
 6913SOL    HW232202   2.000   3.060   0.509 -2.1685 -0.8448  0.8587
 6914SOL     OW32203   0.352   3.984   4.723  0.0963  0.2033 -0.4473
 6914SOL    HW132204   0.306   3.907   4.757  0.5365 -0.7922 -2.0777
 6914SOL    HW232205   0.403   3.943   4.653 -0.7440  0.0761 -0.9854
 6915SOL     OW32206   3.910   1.384   4.947  0.1642 -0.0536 -0.5483
 6915SOL    HW132207   3.985   1.439   4.923  1.0178 -1.2004 -0.5112
 6915SOL    HW232208   3.853   1.441   5.000  0.0772 -0.6832  0.0425
 6916SOL     OW32209   0.314   2.119  16.350 -1.1633  0.3489 -0.3691
 6916SOL    HW132210   0.331   2.060  16.423 -0.4978 -0.9363 -1.5563
 6916SOL    HW232211   0.398   2.125  16.305 -1.6972  1.2225 -1.2697
 6917SOL     OW32212   2.915   1.359   4.264  0.5664 -0.4371 -0.2044
 6917SOL    HW132213   2.905   1.327   4.175  1.3064 -0.4601 -0.2800
 6917SOL    HW232214   2.857   1.435   4.254  1.6611  0.2882 -1.1505
 6918SOL     OW32215   3.399   1.498   2.717  0.5859 -0.2850 -0.3419
 6918SOL    HW132216   3.450   1.572   2.751  1.2870 -1.2601  0.7104
 6918SOL    HW232217   3.465   1.439   2.681  0.1913 -1.2660  0.5443
 6919SOL     OW32218   1.627   2.516   5.033 -0.6198  0.2919 -0.3215
 6919SOL    HW132219   1.623   2.436   4.980 -0.6071 -0.3882  0.7024
 6919SOL    HW232220   1.674   2.572   4.972  0.8687 -1.8640 -1.1403
 6920SOL     OW32221   3.912   3.484   3.922  0.0908 -0.6051  0.0569
 6920SOL    HW132222   3.864   3.510   3.843  0.9827  0.7356 -0.0246
 6920SOL    HW232223   3.890   3.556   3.982 -2.7037 -1.6348  0.3068
 6921SOL     OW32224   4.430   2.049   9.290  0.1641  0.5236 -0.0899
 6921SOL    HW132225   4.511   2.047   9.341  0.3462  1.8009 -0.3207
 6921SOL    HW232226   4.458   2.127   9.241 -1.0169  0.3762 -1.0103
 6922SOL     OW32227   1.220   2.409   5.050 -0.1995 -0.2619 -0.5091
 6922SOL    HW132228   1.292   2.454   5.006  0.1633 -0.6323 -0.2936
 6922SOL    HW232229   1.246   2.317   5.057  0.7564 -0.0830 -1.7030
 6923SOL     OW32230   2.789   2.410  17.213  0.2406  0.2736  0.2387
 6923SOL    HW132231   2.706   2.454  17.195 -0.0411  0.0331  0.9488
 6923SOL    HW232232   2.828   2.400  17.127  0.8685  1.3438  0.3943
 6924SOL     OW32233   2.711   4.112   9.246 -0.0154  0.3090  0.2217
 6924SOL    HW132234   2.791   4.144   9.286  0.6866 -0.3111 -0.6825
 6924SOL    HW232235   2.739   4.024   9.220  0.0270  0.6728 -0.9534
 6925SOL     OW32236   3.166   0.569   5.089  0.0606 -0.1594 -0.5384
 6925SOL    HW132237   3.221   0.619   5.028 -1.2886  0.3434 -1.3462
 6925SOL    HW232238   3.233   0.506   5.118  0.2730  1.0993  1.6283
 6926SOL     OW32239   1.646   1.500  10.707  0.3462 -0.0370  0.0638
 6926SOL    HW132240   1.685   1.580  10.743  0.1446  0.8121 -1.6387
 6926SOL    HW232241   1.702   1.482  10.632  0.4825 -1.5306  0.5257
 6927SOL     OW32242   4.693   0.225   8.512  0.6033 -0.2647  0.1764
 6927SOL    HW132243   4.644   0.144   8.498 -0.6251  0.3301  1.0667
 6927SOL    HW232244   0.023   0.198   8.585 -0.7694 -0.5413  1.1397
 6928SOL     OW32245   2.144   0.708   3.254  0.1065  0.1374  0.3709
 6928SOL    HW132246   2.091   0.630   3.269  1.1481 -1.0461 -2.0244
 6928SOL    HW232247   2.232   0.671   3.250 -0.2963 -0.6049 -1.3966
 6929SOL     OW32248   4.134   0.941  16.742 -0.1793  0.1140  0.3134
 6929SOL    HW132249   4.087   0.928  16.824 -0.7069  1.9097  0.2942
 6929SOL    HW232250   4.100   0.867  16.692  0.6154 -0.6160  0.8559
 6930SOL     OW32251   4.330   4.087   5.768  0.3327  0.4062  0.0337
 6930SOL    HW132252   4.394   4.138   5.718  0.5336 -0.9039 -1.0581
 6930SOL    HW232253   4.265   4.154   5.791  2.5436  2.1336  1.1323
 6931SOL     OW32254   3.530   0.030   1.928 -0.1074  0.3987 -0.0585
 6931SOL    HW132255   3.590   0.082   1.875 -0.2929 -1.5459 -2.1800
 6931SOL    HW232256   3.450   0.077   1.904  0.9469  2.2669  0.0695
 6932SOL     OW32257   4.622   2.230  13.457 -0.7364  0.1465  0.3478
 6932SOL    HW132258   4.616   2.185  13.373 -1.9356 -0.1688  0.5983
 6932SOL    HW232259   4.646   2.315  13.421 -0.2351  1.1231  2.9451
 6933SOL     OW32260   3.260   2.950   2.193  0.0141 -0.1051  0.0895
 6933SOL    HW132261   3.342   2.996   2.214  0.0117 -0.2969  0.5169
 6933SOL    HW232262   3.282   2.858   2.203  3.3343  0.5663 -1.1819
 6934SOL     OW32263   1.064   3.259   2.288 -0.4811  0.0718 -0.8037
 6934SOL    HW132264   1.063   3.351   2.316 -0.9685 -0.4521  0.8904
 6934SOL    HW232265   1.082   3.276   2.195 -2.1128  0.4189 -1.0546
 6935SOL     OW32266   0.799   0.418   2.425  0.3162  0.5001 -0.8747
 6935SOL    HW132267   0.719   0.386   2.467  1.4296  0.7508  1.4353
 6935SOL    HW232268   0.756   0.451   2.346  3.0558  2.0764 -1.7059
 6936SOL     OW32269   4.151   2.775   8.135  0.2475 -0.3490 -0.2805
 6936SOL    HW132270   4.076   2.799   8.081 -1.5914 -1.0855  1.9395
 6936SOL    HW232271   4.146   2.679   8.134  0.2447 -0.3372 -0.9719
 6937SOL     OW32272   2.860   0.612   5.949 -0.1892 -0.1367  0.1502
 6937SOL    HW132273   2.932   0.620   5.887 -0.1576  0.0968  0.2158
 6937SOL    HW232274   2.857   0.703   5.979 -0.9039 -1.1480  3.1397
 6938SOL     OW32275   3.949   0.879  12.975 -0.2960 -0.1281 -0.0674
 6938SOL    HW132276   3.982   0.838  13.054  0.3641 -2.3113 -1.4880
 6938SOL    HW232277   3.939   0.971  13.001 -3.7054  0.3290 -2.8810
 6939SOL     OW32278   0.767   0.189  12.479  0.2377 -0.2680 -0.0677
 6939SOL    HW132279   0.695   0.146  12.526  0.2839  0.0731  0.3238
 6939SOL    HW232280   0.847   0.139  12.493  1.4809  1.1888 -2.0146
 6940SOL     OW32281   1.962   4.377   7.656 -0.4438  0.4515  0.1458
 6940SOL    HW132282   1.978   4.288   7.685  1.5045  1.7141  2.8834
 6940SOL    HW232283   2.048   4.418   7.666 -1.1001  1.6270  1.0292
 6941SOL     OW32284   3.440   2.033   4.981  0.0213 -0.0825  0.0151
 6941SOL    HW132285   3.494   2.098   5.025 -0.3339 -0.2600  0.7109
 6941SOL    HW232286   3.365   2.083   4.949 -0.3830 -0.5358  0.2504
 6942SOL     OW32287   1.943   4.033   7.175 -0.3202  0.0224  0.4921
 6942SOL    HW132288   1.892   4.108   7.143 -2.1626 -2.3571 -2.0587
 6942SOL    HW232289   1.907   4.024   7.264 -1.4779  0.0644  0.0353
 6943SOL     OW32290   0.094   0.642   8.297  0.5092 -0.2652 -0.2578
 6943SOL    HW132291   0.108   0.571   8.234  0.9220 -2.2136  2.0258
 6943SOL    HW232292   0.106   0.611   8.387  1.7679 -2.6586 -1.2191
 6944SOL     OW32293   2.018   1.822   2.753 -0.0637  0.2094  0.0353
 6944SOL    HW132294   1.966   1.902   2.765  0.6644  0.2984  2.4070
 6944SOL    HW232295   2.063   1.835   2.669  0.1697  1.9057  0.4165
 6945SOL     OW32296   4.625   1.541   4.146 -0.0393 -0.3890 -0.4672
 6945SOL    HW132297   4.553   1.540   4.208  0.8981  0.3703  0.6401
 6945SOL    HW232298   4.674   1.616   4.180 -0.5616  0.3763 -1.3888
 6946SOL     OW32299   3.734   3.124   3.041 -0.1148 -0.6141 -0.3793
 6946SOL    HW132300   3.777   3.058   3.095  1.7320  0.0443 -1.0404
 6946SOL    HW232301   3.645   3.101   3.067  0.7685 -2.3141  1.1587
 6947SOL     OW32302   1.080   4.725   8.605 -0.1555  0.2283  0.3650
 6947SOL    HW132303   1.121   4.659   8.660 -0.2797  0.5310  0.8203
 6947SOL    HW232304   1.117   4.708   8.519 -0.1019  3.9748 -0.3688
 6948SOL     OW32305   3.283   0.558  12.229 -0.2045  0.0221 -0.2066
 6948SOL    HW132306   3.279   0.635  12.171  1.2739 -1.6068 -2.4839
 6948SOL    HW232307   3.242   0.580  12.313  0.4984 -0.7625  0.3326
 6949SOL     OW32308   1.792   4.416   5.611 -1.0305  0.6241  0.2895
 6949SOL    HW132309   1.766   4.445   5.524 -0.6178  2.0408  0.6519
 6949SOL    HW232310   1.706   4.410   5.654 -1.4017 -0.2913 -0.5744
 6950SOL     OW32311   3.619   0.623   3.692 -0.3879  0.0035 -0.2493
 6950SOL    HW132312   3.697   0.603   3.641 -0.6791 -1.3912 -0.1491
 6950SOL    HW232313   3.593   0.703   3.647 -1.1602 -0.0078  0.1761
 6951SOL     OW32314   2.899   1.029   4.750 -0.2801  0.5448 -0.0725
 6951SOL    HW132315   2.960   1.099   4.724  2.8485 -1.6440  1.3205
 6951SOL    HW232316   2.956   0.959   4.718 -3.1824 -1.5323 -0.6393
 6952SOL     OW32317   3.481   1.804   5.312 -0.1905 -0.0770  0.3744
 6952SOL    HW132318   3.394   1.770   5.293 -1.1333  1.1559  2.4488
 6952SOL    HW232319   3.455   1.891   5.344  2.8579  1.2728 -0.7731
 6953SOL     OW32320   1.287   3.425  11.307 -0.3105  0.3901 -0.4465
 6953SOL    HW132321   1.199   3.411  11.273 -0.4159  1.5350 -0.6294
 6953SOL    HW232322   1.341   3.465  11.239  0.6745  0.2856  0.2636
 6954SOL     OW32323   0.561   1.672   6.357  0.1108 -1.0147  0.0965
 6954SOL    HW132324   0.564   1.579   6.379 -1.1062 -1.4012 -1.3118
 6954SOL    HW232325   0.472   1.671   6.322  0.5216 -0.2285 -0.9825
 6955SOL     OW32326   1.039   1.552   4.335  0.1040 -0.8097 -0.1103
 6955SOL    HW132327   1.022   1.638   4.372 -2.4087 -0.6516 -1.6569
 6955SOL    HW232328   0.963   1.498   4.356 -0.2508 -1.1668 -2.3151
 6956SOL     OW32329   1.536   2.152  16.805 -0.4606  0.1146 -0.5715
 6956SOL    HW132330   1.492   2.236  16.822  1.7645  1.3249 -0.7347
 6956SOL    HW232331   1.622   2.163  16.845  0.1520 -1.2071 -1.5411
 6957SOL     OW32332   3.248   0.312   6.266 -0.0873 -0.1396 -0.1042
 6957SOL    HW132333   3.163   0.271   6.277 -0.3714  0.6341  0.5994
 6957SOL    HW232334   3.246   0.347   6.176 -0.4641 -2.3373 -0.9410
 6958SOL     OW32335   4.699   1.053   4.044  0.1826  0.0989 -0.0230
 6958SOL    HW132336   4.688   1.001   4.124  2.9452  1.0144  0.9614
 6958SOL    HW232337   4.724   1.140   4.075  1.7260 -0.5770  0.6625
 6959SOL     OW32338   4.614   2.653   3.982  0.6965  0.0955 -0.4914
 6959SOL    HW132339   4.653   2.654   4.070  2.6499 -2.4027 -1.3056
 6959SOL    HW232340   4.554   2.727   3.991  0.1438 -0.2764 -1.1365
 6960SOL     OW32341   0.135   4.223   3.147 -0.5462 -0.5280  1.1964
 6960SOL    HW132342   0.056   4.178   3.116 -0.4902 -0.5344  1.0633
 6960SOL    HW232343   0.185   4.143   3.164 -0.6546 -0.4980  1.6580
 6961SOL     OW32344   1.393   3.219   4.270  0.6085  0.1412 -0.9460
 6961SOL    HW132345   1.473   3.204   4.220  0.1159  0.3314 -1.7944
 6961SOL    HW232346   1.358   3.301   4.237 -2.1581 -0.4251  0.5684
 6962SOL     OW32347   2.399   3.502   4.963  0.1965 -0.1744  0.1413
 6962SOL    HW132348   2.307   3.519   4.939 -0.6187 -2.8188  1.3744
 6962SOL    HW232349   2.433   3.487   4.875  0.2422  1.9544 -0.1968
 6963SOL     OW32350   1.184   0.599   6.814  0.0166  0.3523  0.3790
 6963SOL    HW132351   1.222   0.687   6.820  0.6311 -0.0161  1.9409
 6963SOL    HW232352   1.155   0.578   6.903 -0.5021  0.2307  0.1797
 6964SOL     OW32353   4.038   2.109   6.356 -0.1276  0.0321 -0.1656
 6964SOL    HW132354   4.020   2.186   6.409 -1.6302  0.4870 -1.3463
 6964SOL    HW232355   4.031   2.138   6.265 -1.7488 -3.0474 -1.0263
 6965SOL     OW32356   2.154   3.457   2.405 -0.1285  0.3745  0.4782
 6965SOL    HW132357   2.134   3.363   2.414 -2.5000  0.7070 -1.3155
 6965SOL    HW232358   2.171   3.469   2.312 -0.8546 -1.6923  0.0695
 6966SOL     OW32359   2.583   0.971   6.787  0.3590  0.1750  0.8813
 6966SOL    HW132360   2.613   0.944   6.701 -1.5451  0.2467  0.1905
 6966SOL    HW232361   2.593   0.889   6.836 -3.5080 -0.7162  0.2014
 6967SOL     OW32362   0.758   1.363   5.202  0.3041  0.4918  0.5765
 6967SOL    HW132363   0.748   1.318   5.286  2.1999 -0.0974  0.4901
 6967SOL    HW232364   0.730   1.449   5.234  0.6351  0.7953  0.0408
 6968SOL     OW32365   2.901   2.139   4.073 -0.1555  0.1879  0.1688
 6968SOL    HW132366   2.969   2.073   4.087 -0.6962 -0.7462 -1.7947
 6968SOL    HW232367   2.871   2.137   3.982  1.1433  1.5907 -0.2919
 6969SOL     OW32368   3.482   3.039   5.169 -0.3019  0.0451 -0.1116
 6969SOL    HW132369   3.516   2.979   5.236  0.7142 -0.5788 -1.1959
 6969SOL    HW232370   3.563   3.079   5.139 -0.5321 -0.0850 -0.8957
 6970SOL     OW32371   1.777   0.592   3.332  0.0019 -0.3893  0.4438
 6970SOL    HW132372   1.861   0.589   3.377 -0.7049 -2.5395  1.6435
 6970SOL    HW232373   1.773   0.517   3.272 -1.1269  0.9035 -1.0881
 6971SOL     OW32374   2.013   2.121   8.728 -0.0656 -0.4896 -0.3785
 6971SOL    HW132375   2.069   2.140   8.653  1.6828 -1.5309  0.6381
 6971SOL    HW232376   2.060   2.041   8.754 -0.7317 -0.8474 -0.2921
 6972SOL     OW32377   2.445   2.197   9.523 -0.0698 -0.1624 -0.6272
 6972SOL    HW132378   2.406   2.239   9.599  1.6410  1.4815 -0.6876
 6972SOL    HW232379   2.401   2.247   9.454 -0.4663 -0.8884 -0.9042
 6973SOL     OW32380   4.668   1.140   3.778 -0.6692 -0.3052  0.0411
 6973SOL    HW132381   0.022   1.087   3.771 -0.6164 -0.3083  0.7482
 6973SOL    HW232382   4.650   1.117   3.869 -0.6678 -0.8059 -0.0835
 6974SOL     OW32383   0.543   2.102   3.805  0.0073  0.4891  0.7148
 6974SOL    HW132384   0.499   2.134   3.726  1.4788 -0.6036 -0.5573
 6974SOL    HW232385   0.552   2.008   3.788 -0.0472  0.7112 -0.5724
 6975SOL     OW32386   2.057   2.298   6.152 -0.3365 -0.0170  0.2817
 6975SOL    HW132387   1.993   2.289   6.223 -0.5780 -1.3276 -0.0920
 6975SOL    HW232388   2.033   2.231   6.087 -2.5124 -0.5099  1.5979
 6976SOL     OW32389   1.109   3.908   3.039  0.0729  0.0113 -0.1721
 6976SOL    HW132390   1.134   3.887   3.129 -3.7827  0.6567  1.0639
 6976SOL    HW232391   1.117   3.825   2.991 -2.3827 -0.4833  0.2924
 6977SOL     OW32392   3.064   4.405   4.572  0.1852  0.5514  0.1730
 6977SOL    HW132393   3.016   4.468   4.519  2.4627 -0.2573 -2.8087
 6977SOL    HW232394   2.994   4.344   4.594 -0.1923  0.5574 -1.0117
 6978SOL     OW32395   4.705   0.777   2.638 -0.5482 -0.2786 -0.4212
 6978SOL    HW132396   0.039   0.808   2.706 -0.6651  2.0418 -1.3867
 6978SOL    HW232397   0.038   0.775   2.563  1.8637  1.2025  1.4324
 6979SOL     OW32398   1.919   0.677   7.009  0.6626 -0.2948 -0.0657
 6979SOL    HW132399   1.997   0.645   7.055  0.4236  1.0090  1.2701
 6979SOL    HW232400   1.871   0.728   7.074  4.1984  1.1231  1.4840
 6980SOL     OW32401   2.639   2.067   4.152 -0.0727  0.1883 -0.2462
 6980SOL    HW132402   2.725   2.109   4.146  0.1684 -0.2806 -0.1336
 6980SOL    HW232403   2.608   2.060   4.062 -0.1088  0.8870 -0.2877
 6981SOL     OW32404   0.917   0.530   5.396  0.0940 -0.5114 -0.0777
 6981SOL    HW132405   0.882   0.448   5.429 -0.7283  0.1407  0.6851
 6981SOL    HW232406   0.941   0.514   5.305 -1.1706  0.1592 -0.5284
 6982SOL     OW32407   3.639   3.338   5.686 -0.1210  0.3600 -0.1922
 6982SOL    HW132408   3.573   3.282   5.726 -0.0580 -0.5407 -1.3583
 6982SOL    HW232409   3.588   3.376   5.614  1.1764  0.1022 -1.2400
 6983SOL     OW32410   4.174   4.347   9.193 -0.4259  0.3934  0.0242
 6983SOL    HW132411   4.106   4.302   9.244  0.9812 -0.7000  0.9249
 6983SOL    HW232412   4.113   4.368   9.122 -1.3948 -0.3633  0.6393
 6984SOL     OW32413   1.348   1.201  16.013  0.3640 -0.5622  0.0247
 6984SOL    HW132414   1.412   1.266  16.041  0.1379 -1.0249  1.6126
 6984SOL    HW232415   1.297   1.248  15.946 -2.4172  0.0706  2.5776
 6985SOL     OW32416   3.096   3.806   1.673 -0.7171  0.7244  0.2985
 6985SOL    HW132417   3.033   3.752   1.721 -0.0032 -0.7501 -0.4275
 6985SOL    HW232418   3.103   3.740   1.603  1.8539 -1.1433  2.3375
 6986SOL     OW32419   4.499   4.508  13.723  0.1141 -0.2551  0.0696
 6986SOL    HW132420   4.546   4.426  13.738 -0.0431  0.0476  2.2039
 6986SOL    HW232421   4.557   4.579  13.747 -1.3524  0.5130  1.3725
 6987SOL     OW32422   1.659   1.443  13.308  0.2187 -0.1051  0.9803
 6987SOL    HW132423   1.751   1.461  13.290 -0.0908  0.3013 -0.1651
 6987SOL    HW232424   1.665   1.427  13.402  2.2780 -0.8000  0.7418
 6988SOL     OW32425   1.012   0.957   4.097  0.0343 -0.0290  0.5123
 6988SOL    HW132426   0.945   1.023   4.113 -1.0327 -1.0808  0.4445
 6988SOL    HW232427   0.966   0.905   4.030 -0.6926 -0.3093  1.2220
 6989SOL     OW32428   1.074   2.603  10.536  0.1785 -0.7092 -0.2125
 6989SOL    HW132429   0.978   2.606  10.535  0.2146 -0.0538 -1.2522
 6989SOL    HW232430   1.085   2.518  10.579 -0.9804 -0.2937  0.9006
 6990SOL     OW32431   4.011   1.089   0.627 -0.2521 -0.5134  0.2868
 6990SOL    HW132432   4.014   0.997   0.653 -1.8404 -0.6783 -0.1348
 6990SOL    HW232433   4.090   1.093   0.573  0.5824 -1.0931  1.4606
 6991SOL     OW32434   2.142   0.578   0.962  0.3008 -0.0190 -0.0437
 6991SOL    HW132435   2.190   0.497   0.945 -0.2720 -0.2457 -0.5695
 6991SOL    HW232436   2.068   0.539   1.009  1.0177 -3.0473 -1.4007
 6992SOL     OW32437   3.317   1.054   3.433 -0.5553  0.0726 -0.7789
 6992SOL    HW132438   3.362   1.103   3.364 -0.2278  1.1048  0.1484
 6992SOL    HW232439   3.289   0.971   3.395 -1.2784 -1.2078  2.6071
 6993SOL     OW32440   3.044   2.997   0.825 -0.4495  0.0669  0.4589
 6993SOL    HW132441   3.096   2.917   0.820 -0.5209 -0.0129  1.0154
 6993SOL    HW232442   2.960   2.968   0.861 -1.4180  2.1477 -0.0872
 6994SOL     OW32443   1.444   0.678   9.130 -0.2978  0.1614  0.2365
 6994SOL    HW132444   1.477   0.694   9.218 -1.3173 -1.2186  0.8568
 6994SOL    HW232445   1.438   0.583   9.130 -0.8225  0.1989  1.2904
 6995SOL     OW32446   2.536   1.305  16.432  0.2448  0.0572  0.5946
 6995SOL    HW132447   2.563   1.299  16.523  0.8732  0.4361  0.4352
 6995SOL    HW232448   2.469   1.236  16.427  1.9410 -1.5147 -0.3719
 6996SOL     OW32449   2.196   3.793   1.786 -0.0549 -0.7557 -0.2638
 6996SOL    HW132450   2.228   3.831   1.867 -1.5767 -0.4096  0.1836
 6996SOL    HW232451   2.246   3.848   1.726 -0.4220  2.0912  2.0924
 6997SOL     OW32452   0.788   0.517   9.086  0.1879  0.1169  0.3567
 6997SOL    HW132453   0.855   0.551   9.028  0.6672  1.0534  1.4570
 6997SOL    HW232454   0.779   0.431   9.044 -0.0230  0.3355 -0.0413
 6998SOL     OW32455   0.464   3.239   7.874  0.1990  0.2696 -0.2099
 6998SOL    HW132456   0.550   3.211   7.844  1.3291 -0.1987  3.5599
 6998SOL    HW232457   0.479   3.259   7.966  0.9993 -0.5059 -0.1740
 6999SOL     OW32458   1.441   0.147   6.965  0.5556  0.4543  0.7701
 6999SOL    HW132459   1.460   0.083   7.034 -1.2704 -2.6194 -1.5634
 6999SOL    HW232460   1.346   0.136   6.970  0.6873 -0.3588  1.3840
 7000SOL     OW32461   1.192   2.619   6.881 -0.4762  0.0172  0.3384
 7000SOL    HW132462   1.243   2.637   6.802  1.0743 -3.4423  0.5494
 7000SOL    HW232463   1.188   2.703   6.926  1.4839  0.5522 -0.5181
 7001SOL     OW32464   2.025   0.750   4.592  0.1254  0.1783  0.7360
 7001SOL    HW132465   2.057   0.833   4.558  0.4595 -1.2392 -2.4407
 7001SOL    HW232466   2.109   0.728   4.630  0.4170 -0.2264 -0.1285
 7002SOL     OW32467   4.046   0.667   5.005 -0.0066  0.6426  0.1180
 7002SOL    HW132468   4.051   0.600   5.074  1.0062  2.5331  1.8517
 7002SOL    HW232469   4.135   0.697   4.992  0.7398 -1.5679  0.0785
 7003SOL     OW32470   1.781   0.279  15.755 -0.0400 -0.1164 -0.1791
 7003SOL    HW132471   1.705   0.326  15.721  1.3945  2.6304  0.3988
 7003SOL    HW232472   1.771   0.284  15.850 -0.6679  2.2394 -0.3698
 7004SOL     OW32473   0.045   1.123  15.259  0.2793 -0.1683  0.4267
 7004SOL    HW132474   0.053   1.162  15.346 -0.0729  1.6076 -0.3455
 7004SOL    HW232475   0.128   1.161  15.229 -0.3968  1.7987  1.0492
 7005SOL     OW32476   1.621   3.424  10.871 -0.0122  0.1404 -0.1886
 7005SOL    HW132477   1.690   3.465  10.820  2.3645 -3.1926  0.3783
 7005SOL    HW232478   1.656   3.335  10.870  0.1647  0.2471 -2.8032
 7006SOL     OW32479   4.412   1.922   3.305 -0.0856  0.0761  0.0940
 7006SOL    HW132480   4.340   1.954   3.250 -0.5206 -0.1001  0.5626
 7006SOL    HW232481   4.454   2.005   3.328 -0.6409  0.2600  0.4318
 7007SOL     OW32482   2.787   3.482  14.676 -0.3341  0.4293 -0.6738
 7007SOL    HW132483   2.806   3.555  14.735 -3.0740  0.3571  0.3202
 7007SOL    HW232484   2.878   3.458  14.662 -0.3474  0.6754 -1.1663
 7008SOL     OW32485   4.305   0.186   2.726 -0.1428 -0.4311 -0.3552
 7008SOL    HW132486   4.246   0.117   2.757  0.3499 -0.5394  0.3268
 7008SOL    HW232487   4.371   0.130   2.686 -0.7638 -1.5153  0.1418
 7009SOL     OW32488   0.663   1.630   3.166 -0.6613  0.7634 -0.0790
 7009SOL    HW132489   0.638   1.693   3.099 -2.3149  0.9852  0.7430
 7009SOL    HW232490   0.664   1.693   3.238  0.0954 -0.6534  1.1429
 7010SOL     OW32491   3.075   0.938   2.718  0.3292  0.5494  0.4292
 7010SOL    HW132492   3.127   0.986   2.654  0.0883 -0.5023 -0.5620
 7010SOL    HW232493   3.031   1.012   2.760 -0.5501  0.0008  0.4683
 7011SOL     OW32494   3.919   0.529   6.036 -0.2208  0.5789  0.9655
 7011SOL    HW132495   3.996   0.491   6.077 -2.0737 -2.9693  1.1292
 7011SOL    HW232496   3.972   0.569   5.967  2.5666 -0.8274  2.3207
 7012SOL     OW32497   3.567   0.654   8.676  0.3704  0.3422  0.5875
 7012SOL    HW132498   3.569   0.590   8.747 -0.2250  0.3412  0.6007
 7012SOL    HW232499   3.662   0.665   8.665  0.5295 -0.7585  0.8318
 7013SOL     OW32500   3.052   0.195  17.172  0.2913  0.2096  0.4663
 7013SOL    HW132501   2.997   0.271  17.154  0.7796  1.2203  3.1972
 7013SOL    HW232502   3.135   0.219  17.131  0.9284 -1.7826  0.5811
 7014SOL     OW32503   0.746   3.239  15.012  0.2285  0.2369  0.2530
 7014SOL    HW132504   0.834   3.251  14.974 -0.0752 -1.1139 -0.8940
 7014SOL    HW232505   0.729   3.145  15.004 -2.8722  0.6844  1.6434
 7015SOL     OW32506   1.082   3.926   6.082  0.3889  0.1849 -0.2974
 7015SOL    HW132507   1.112   3.973   6.004 -0.1650  1.7269  0.4052
 7015SOL    HW232508   1.165   3.884   6.101  1.3186  2.5607  0.8084
 7016SOL     OW32509   1.236   1.430   8.389  0.1291 -0.1119 -0.1722
 7016SOL    HW132510   1.214   1.499   8.326  0.2597  0.0712 -0.0184
 7016SOL    HW232511   1.170   1.442   8.458  2.2145 -0.5210  1.8829
 7017SOL     OW32512   0.761   3.475  12.546 -0.0264 -0.4418 -0.1095
 7017SOL    HW132513   0.795   3.558  12.582 -0.0791 -0.9995  1.2359
 7017SOL    HW232514   0.838   3.449  12.495  0.2766 -1.0696  0.6644
 7018SOL     OW32515   1.684   1.856   0.122  0.0590  0.6000  0.5211
 7018SOL    HW132516   1.656   1.875   0.212 -0.6200 -0.9801  0.6465
 7018SOL    HW232517   1.654   1.766   0.109 -1.7467  1.0933  1.2901
 7019SOL     OW32518   4.454   2.613   2.509  0.6560 -0.3730 -0.5304
 7019SOL    HW132519   4.546   2.630   2.489  0.9222 -1.0214  0.1182
 7019SOL    HW232520   4.422   2.643   2.425 -1.3010  1.2185  0.7788
 7020SOL     OW32521   0.176   2.739  17.275 -0.0457  0.0054  0.0699
 7020SOL    HW132522   0.156   2.813  17.217 -0.3146 -0.2498 -0.1589
 7020SOL    HW232523   0.195   2.793  17.352 -1.8664 -0.4860  0.8549
 7021SOL     OW32524   2.227   3.052   8.894 -0.5212 -0.3518  0.2592
 7021SOL    HW132525   2.281   2.991   8.944  0.0312  0.4598  0.6491
 7021SOL    HW232526   2.274   3.131   8.917 -0.1479 -0.4751 -0.0719
 7022SOL     OW32527   0.098   1.925   6.061  0.4660 -0.1863 -0.4772
 7022SOL    HW132528   0.024   1.937   6.121 -0.1570 -0.2790 -1.2245
 7022SOL    HW232529   0.109   2.017   6.037  0.6766  0.1938  1.1213
 7023SOL     OW32530   4.251   2.929   1.722  0.2641  0.5632  0.4423
 7023SOL    HW132531   4.202   2.980   1.657 -0.3386  1.2921  1.4706
 7023SOL    HW232532   4.333   2.913   1.675 -0.0817 -0.2938  0.1279
 7024SOL     OW32533   3.676   1.031  16.827  0.1950 -0.1969 -0.3346
 7024SOL    HW132534   3.649   0.996  16.912 -1.3110  0.2574 -0.6223
 7024SOL    HW232535   3.764   0.994  16.823 -0.5057 -1.6906 -2.0955
 7025SOL     OW32536   4.362   3.668  11.944 -0.2147  0.3699  0.4870
 7025SOL    HW132537   4.308   3.681  12.023  0.0049  0.0404  0.6895
 7025SOL    HW232538   4.447   3.691  11.981  0.7325 -0.2604 -1.3226
 7026SOL     OW32539   3.875   0.675   8.282 -0.4123  0.3596 -0.1626
 7026SOL    HW132540   3.877   0.589   8.240  0.8930  1.3963 -2.2425
 7026SOL    HW232541   3.879   0.727   8.201 -0.0683  0.8893  0.1928
 7027SOL     OW32542   0.535   2.432  14.842 -0.1667 -0.1004  0.5460
 7027SOL    HW132543   0.558   2.497  14.908 -2.4838  0.8796  0.4025
 7027SOL    HW232544   0.467   2.482  14.798  0.7172  0.9332  0.3768
 7028SOL     OW32545   2.664   1.306   7.790 -0.7862  0.3482  0.5880
 7028SOL    HW132546   2.656   1.379   7.729 -1.1836 -1.8320 -1.9559
 7028SOL    HW232547   2.609   1.338   7.862  0.8946 -0.5587  2.2816
 7029SOL     OW32548   3.751   2.537   6.218 -0.0242  0.1805 -0.1504
 7029SOL    HW132549   3.742   2.443   6.234  1.3674  0.1632  0.4823
 7029SOL    HW232550   3.837   2.555   6.255  1.1645  0.5369 -3.0238
 7030SOL     OW32551   0.979   2.227   9.020 -0.4921  0.1480  0.5781
 7030SOL    HW132552   1.044   2.297   9.021 -0.9381  0.5507  1.4643
 7030SOL    HW232553   0.994   2.179   9.102 -0.4583  0.2450  0.6280
 7031SOL     OW32554   0.932   1.354   4.585  0.2254 -0.0179  0.4005
 7031SOL    HW132555   0.922   1.445   4.558  0.0549 -0.8570 -2.4113
 7031SOL    HW232556   0.941   1.363   4.679 -0.4191  1.6159  0.3036
 7032SOL     OW32557   3.800   3.650   5.610  0.3971  0.3380 -0.4708
 7032SOL    HW132558   3.827   3.733   5.649  0.7445  0.9280 -1.9715
 7032SOL    HW232559   3.734   3.682   5.548 -1.6006 -1.8366  0.5049
 7033SOL     OW32560   0.803   2.515  11.440  0.0209  0.1190  0.0603
 7033SOL    HW132561   0.855   2.590  11.410  1.8233 -1.1479  0.0179
 7033SOL    HW232562   0.851   2.445  11.396 -2.1376 -0.4786 -1.3650
 7034SOL     OW32563   1.703   3.698   5.541  0.6292 -0.5325 -0.0993
 7034SOL    HW132564   1.675   3.607   5.531  1.3073 -0.7342 -0.1811
 7034SOL    HW232565   1.774   3.683   5.604  1.5241  3.4231 -0.1808
 7035SOL     OW32566   0.630   2.458  10.470 -0.4784 -0.3311 -0.4406
 7035SOL    HW132567   0.671   2.506  10.542  1.6393  0.6009 -2.2808
 7035SOL    HW232568   0.581   2.385  10.509  0.3175 -1.2901 -1.2593
 7036SOL     OW32569   3.350   2.760   1.319  0.3880  0.2080 -0.1193
 7036SOL    HW132570   3.354   2.806   1.235 -2.1212  0.1635 -0.2870
 7036SOL    HW232571   3.427   2.704   1.319  0.6843  0.6116  0.5027
 7037SOL     OW32572   3.461   1.874   0.092 -0.1711  0.1429  0.2455
 7037SOL    HW132573   3.401   1.927   0.144  0.6249  0.3578  0.9323
 7037SOL    HW232574   3.416   1.790   0.098  1.0260 -0.5839 -0.9589
 7038SOL     OW32575   0.466   3.682   1.541 -0.3602  0.3562 -0.0775
 7038SOL    HW132576   0.502   3.769   1.522  1.7150 -0.5354 -0.2458
 7038SOL    HW232577   0.389   3.716   1.586 -0.3405 -1.4106  1.2871
 7039SOL     OW32578   0.141   0.570   8.558 -0.5414  0.0340 -0.1622
 7039SOL    HW132579   0.082   0.534   8.624  0.7433 -1.8261 -0.0116
 7039SOL    HW232580   0.227   0.530   8.570 -0.9360 -0.2728  1.6028
 7040SOL     OW32581   0.859   4.131  13.799  0.1410 -1.0005 -0.2328
 7040SOL    HW132582   0.789   4.133  13.733  1.0207 -0.5447 -1.1420
 7040SOL    HW232583   0.812   4.106  13.879  0.4437 -2.1386 -0.4015
 7041SOL     OW32584   1.430   3.710   7.350  0.1267  0.4050  0.0545
 7041SOL    HW132585   1.420   3.685   7.258  0.4631 -0.5544  0.2721
 7041SOL    HW232586   1.434   3.804   7.337 -3.2497  0.4601 -0.6164
 7042SOL     OW32587   0.075   4.593   8.503  0.0775 -0.1355  0.1779
 7042SOL    HW132588   0.073   4.672   8.558  1.1581 -0.6511  0.9369
 7042SOL    HW232589   0.142   4.612   8.437 -1.5191  3.1581 -0.5461
 7043SOL     OW32590   0.736   1.663  14.059 -0.3516 -0.2142 -0.3970
 7043SOL    HW132591   0.773   1.713  14.131 -0.3258 -0.3280 -0.3315
 7043SOL    HW232592   0.644   1.652  14.084 -0.0292  0.7102  1.1184
 7044SOL     OW32593   4.252   0.321  16.063  0.3933  0.9784  0.2988
 7044SOL    HW132594   4.162   0.342  16.041 -0.1863  0.5672  2.2881
 7044SOL    HW232595   4.242   0.283  16.151 -1.2162 -2.8138 -1.5538
 7045SOL     OW32596   0.601   4.219   5.278  0.1429  0.0562  0.0520
 7045SOL    HW132597   0.604   4.174   5.194 -0.0745  1.4357 -0.6847
 7045SOL    HW232598   0.682   4.177   5.307  0.2492 -1.1139 -1.9076
 7046SOL     OW32599   3.381   3.124   5.500  0.5513 -0.1541  0.0529
 7046SOL    HW132600   3.449   3.084   5.446  0.6547 -0.3226  0.3094
 7046SOL    HW232601   3.310   3.060   5.499  0.9692 -0.6238  1.4376
 7047SOL     OW32602   1.673   1.081  14.028 -0.1771  0.3946  0.0964
 7047SOL    HW132603   1.593   1.101  14.077 -1.5817  0.5237 -2.2727
 7047SOL    HW232604   1.740   1.128  14.077  1.1164  0.1471 -1.4513
 7048SOL     OW32605   2.118   3.802   7.195  0.1321  0.1550  0.0353
 7048SOL    HW132606   2.070   3.885   7.196 -0.0070  0.0628  1.2354
 7048SOL    HW232607   2.166   3.808   7.277 -1.6861  0.3629  1.1018
 7049SOL     OW32608   4.419   3.688  11.224  0.4372  0.3330  0.1953
 7049SOL    HW132609   4.425   3.762  11.284  0.1443  1.3099 -0.9910
 7049SOL    HW232610   4.463   3.726  11.148 -0.5002  1.1722  0.0678
 7050SOL     OW32611   0.507   0.568  17.662 -0.5782 -0.4114  0.1446
 7050SOL    HW132612   0.574   0.521  17.612  1.1571  2.2738 -0.0465
 7050SOL    HW232613   0.434   0.516  17.627 -0.4550 -0.7504  0.3992
 7051SOL     OW32614   4.324   1.680   5.519 -0.7588 -0.5377  0.3291
 7051SOL    HW132615   4.268   1.712   5.590 -0.0411  1.3041  0.0579
 7051SOL    HW232616   4.279   1.724   5.447  1.9560  1.3841 -0.2133
 7052SOL     OW32617   3.868   1.079   2.866 -0.1245  0.1062 -0.6643
 7052SOL    HW132618   3.903   1.146   2.807 -1.8389  0.4340 -1.3117
 7052SOL    HW232619   3.950   1.044   2.900 -0.0536 -0.9468 -1.9245
 7053SOL     OW32620   2.759   3.613   7.137 -0.3006  0.6498 -0.1164
 7053SOL    HW132621   2.847   3.576   7.148 -0.6161  0.5560  2.0352
 7053SOL    HW232622   2.715   3.537   7.098  2.2784  0.3652 -2.5358
 7054SOL     OW32623   3.174   3.531   5.785 -0.6637 -0.0403 -0.0607
 7054SOL    HW132624   3.246   3.511   5.844  0.2710  3.4202 -0.0394
 7054SOL    HW232625   3.169   3.624   5.805 -0.2865  0.3328 -1.7029
 7055SOL     OW32626   2.969   3.955  16.516 -0.4567  0.4330  0.0737
 7055SOL    HW132627   2.935   3.918  16.434  0.2775  0.9713 -0.4837
 7055SOL    HW232628   2.955   4.048  16.503 -1.9709  0.3126  0.9758
 7056SOL     OW32629   4.190   2.765   4.219 -0.5535 -0.4476  0.3884
 7056SOL    HW132630   4.181   2.757   4.314 -0.0065  0.1843  0.4949
 7056SOL    HW232631   4.118   2.708   4.194 -1.0362 -0.3469  1.5145
 7057SOL     OW32632   0.766   0.311   5.511 -0.2423 -0.0739  0.4360
 7057SOL    HW132633   0.687   0.353   5.476 -0.1161  1.8569  2.4697
 7057SOL    HW232634   0.770   0.219   5.486  0.6120  0.0954 -0.0363
 7058SOL     OW32635   2.266   4.305  11.859  0.1308 -0.0265  0.5407
 7058SOL    HW132636   2.253   4.244  11.787 -1.9373 -0.9136  1.6991
 7058SOL    HW232637   2.202   4.289  11.928  1.3639 -1.1303  1.4210
 7059SOL     OW32638   0.736   2.188   7.491 -0.3995 -0.8369 -0.3905
 7059SOL    HW132639   0.741   2.167   7.584 -2.5898 -2.2801 -0.5996
 7059SOL    HW232640   0.644   2.196   7.465 -0.7728  0.3191  1.3419
 7060SOL     OW32641   4.268   3.132  17.617 -0.1810  0.0444  0.2891
 7060SOL    HW132642   4.306   3.094  17.538 -2.8174 -0.1672 -0.8772
 7060SOL    HW232643   4.349   3.168  17.654 -0.7578 -0.6438  2.2407
 7061SOL     OW32644   3.375   1.012  17.587  0.1672  0.4045 -0.8203
 7061SOL    HW132645   3.356   0.923  17.617 -0.6233  0.7091 -0.4057
 7061SOL    HW232646   3.469   1.027  17.598 -0.0798  1.0842  0.4491
 7062SOL     OW32647   1.976   2.154   2.810 -0.5794 -0.5681  0.6596
 7062SOL    HW132648   1.910   2.101   2.764 -1.4496  1.6154 -0.6008
 7062SOL    HW232649   1.953   2.241   2.779 -0.0630 -0.8254 -0.4787
 7063SOL     OW32650   0.050   0.050  12.303  0.4917 -0.4534 -0.3454
 7063SOL    HW132651   0.131   0.080  12.344  0.1602 -0.8072  0.5788
 7063SOL    HW232652   0.011   0.015  12.384 -0.1654  1.5173  0.1880
 7064SOL     OW32653   0.215   4.051   5.188 -0.3613 -0.6868  0.5513
 7064SOL    HW132654   0.224   4.057   5.283 -0.4064 -2.2035  0.6540
 7064SOL    HW232655   0.204   4.144   5.166  0.9278 -0.8644 -0.8732
 7065SOL     OW32656   3.382   3.591   1.800 -0.4593 -0.5085 -0.1849
 7065SOL    HW132657   3.388   3.501   1.831 -0.6127 -0.4040  0.1459
 7065SOL    HW232658   3.301   3.584   1.750 -1.4710 -1.4354  1.6361
 7066SOL     OW32659   4.034   3.872   1.466 -0.5574 -0.6161  0.1696
 7066SOL    HW132660   3.969   3.861   1.535  1.6385 -0.9520  2.1903
 7066SOL    HW232661   3.989   3.934   1.409  1.0180  0.8499  0.5074
 7067SOL     OW32662   2.895   0.697   4.385 -0.2462 -0.5027 -0.0276
 7067SOL    HW132663   2.833   0.647   4.438 -2.2589  0.4138 -1.5429
 7067SOL    HW232664   2.891   0.642   4.307  1.0430 -1.1300  0.3381
 7068SOL     OW32665   4.496   2.999   2.634  0.6805 -0.3276 -0.4563
 7068SOL    HW132666   4.579   2.955   2.618  1.1075  1.0823 -2.1394
 7068SOL    HW232667   4.456   2.990   2.547  1.1410  0.5241 -0.7592
 7069SOL     OW32668   1.538   0.700   8.881  0.2409 -0.3319 -0.0014
 7069SOL    HW132669   1.496   0.672   8.962  0.7891 -2.0048 -0.2977
 7069SOL    HW232670   1.588   0.770   8.922  0.6688 -0.9167  0.4727
 7070SOL     OW32671   2.518   0.524  12.517 -0.1291 -0.5178 -0.0872
 7070SOL    HW132672   2.509   0.531  12.422 -3.4023  1.5890  0.3712
 7070SOL    HW232673   2.475   0.607  12.537 -0.6426 -0.4841 -1.3363
 7071SOL     OW32674   0.346   4.719   1.691 -0.0170 -0.3885 -0.0420
 7071SOL    HW132675   0.336   4.644   1.750 -2.0536  0.1556  0.2951
 7071SOL    HW232676   0.260   0.033   1.697 -0.0967 -0.1899 -2.3756
 7072SOL     OW32677   2.940   0.712   2.889  0.5684 -0.6612 -0.2819
 7072SOL    HW132678   2.904   0.791   2.928  0.0829 -0.7638 -0.5172
 7072SOL    HW232679   2.959   0.727   2.796  1.9776 -0.0426  0.1211
 7073SOL     OW32680   0.434   3.052   0.622  0.1416 -0.5110  0.0275
 7073SOL    HW132681   0.421   3.018   0.711  0.3327  0.1495  0.3037
 7073SOL    HW232682   0.520   3.015   0.601  0.9084  1.8363 -0.8789
 7074SOL     OW32683   3.667   0.748   5.009  0.0893  0.3367 -0.3845
 7074SOL    HW132684   3.725   0.817   5.041  0.7899 -0.6940  0.5730
 7074SOL    HW232685   3.708   0.732   4.924  1.2752 -1.3266  0.4916
 7075SOL     OW32686   0.026   2.657  15.623  0.5532  0.2456  0.3044
 7075SOL    HW132687   4.710   2.612  15.696 -0.9025 -0.7341 -1.1407
 7075SOL    HW232688   0.110   2.623  15.653  0.6567 -0.8982 -1.2501
 7076SOL     OW32689   0.896   2.738   2.655 -0.2953 -0.4250 -0.4147
 7076SOL    HW132690   0.859   2.786   2.581 -2.3469  1.6766  1.9542
 7076SOL    HW232691   0.986   2.743   2.622 -0.8984  1.0430 -1.8213
 7077SOL     OW32692   0.326   0.659   6.380 -0.1964 -0.1195 -0.0258
 7077SOL    HW132693   0.391   0.632   6.445 -0.8520 -0.7089  0.3754
 7077SOL    HW232694   0.377   0.651   6.299 -2.9219  3.2223 -2.1038
 7078SOL     OW32695   2.127   4.003   5.330  0.1107 -0.6321  0.0702
 7078SOL    HW132696   2.044   4.037   5.296 -0.4831 -1.6689  0.5017
 7078SOL    HW232697   2.171   4.087   5.345 -0.6558 -0.2012 -0.1060
 7079SOL     OW32698   3.448   2.562   0.445  0.0901 -0.6489  0.3237
 7079SOL    HW132699   3.446   2.622   0.370 -2.1786 -0.8610  0.2263
 7079SOL    HW232700   3.540   2.569   0.470 -0.6326  0.2250  2.7238
 7080SOL     OW32701   0.464   0.187  17.499  0.3210  0.5238  0.7619
 7080SOL    HW132702   0.413   0.256  17.457 -1.2032 -1.1096 -0.0268
 7080SOL    HW232703   0.527   0.176  17.428  0.3119 -0.3156  0.8820
 7081SOL     OW32704   2.906   0.161  10.843  0.0576 -0.3195 -0.1193
 7081SOL    HW132705   2.845   0.175  10.770 -0.0932  0.0044  0.0686
 7081SOL    HW232706   2.973   0.109  10.799 -1.8362 -0.6976 -2.5498
 7082SOL     OW32707   1.636   1.964   0.989 -0.1746  0.4112  0.5777
 7082SOL    HW132708   1.638   2.050   0.946 -0.6534  0.0357 -0.1982
 7082SOL    HW232709   1.592   1.912   0.922  3.2010  0.1988 -1.4873
 7083SOL     OW32710   3.493   3.932   8.116  0.6148 -0.4986  0.3564
 7083SOL    HW132711   3.505   4.025   8.095  0.7610 -0.3573  1.0727
 7083SOL    HW232712   3.564   3.896   8.064  1.4023  1.5410 -0.0063
 7084SOL     OW32713   3.094   3.676   9.291 -0.1316  0.1126 -0.2684
 7084SOL    HW132714   3.011   3.630   9.278  0.1107 -0.8718  1.6976
 7084SOL    HW232715   3.120   3.708   9.205  0.4422 -2.1678 -0.9525
 7085SOL     OW32716   0.174   2.805   5.796 -0.3226  0.7422 -0.5283
 7085SOL    HW132717   0.093   2.837   5.836 -0.4911  1.7251 -1.6642
 7085SOL    HW232718   0.159   2.810   5.702 -3.2547  2.4356  0.0369
 7086SOL     OW32719   2.522   1.141   5.436 -0.0329  0.5472 -0.3742
 7086SOL    HW132720   2.558   1.123   5.349 -0.4030  0.9343 -0.6053
 7086SOL    HW232721   2.428   1.121   5.431  0.3798 -1.7906  0.8664
 7087SOL     OW32722   3.672   3.851   4.321  0.2273 -0.2254 -0.4805
 7087SOL    HW132723   3.749   3.796   4.333 -1.1550 -1.7198  1.4782
 7087SOL    HW232724   3.690   3.902   4.242 -0.7881  0.9953  0.0842
 7088SOL     OW32725   4.320   4.048   2.614  0.2577  0.4174  0.9413
 7088SOL    HW132726   4.248   4.080   2.560  2.0330 -0.6031 -2.0348
 7088SOL    HW232727   4.387   4.047   2.546 -0.5536 -2.4458  0.2005
 7089SOL     OW32728   4.480   4.432   0.413 -0.2048 -0.0111 -0.1299
 7089SOL    HW132729   4.517   4.377   0.481  2.1947  1.5173 -0.2199
 7089SOL    HW232730   4.421   4.369   0.371  0.7679 -0.6201 -0.5808
 7090SOL     OW32731   2.278   1.479   9.823  0.1112  0.1734  0.7987
 7090SOL    HW132732   2.330   1.480   9.742 -0.0579  0.8418  0.6954
 7090SOL    HW232733   2.195   1.511   9.788  0.5286  0.8685  0.4386
 7091SOL     OW32734   0.240   4.716   3.686  0.6766 -0.2480  0.0288
 7091SOL    HW132735   0.184   4.643   3.658 -0.7791  0.0698  2.1565
 7091SOL    HW232736   0.316   4.691   3.634  1.1910 -0.7089  1.0320
 7092SOL     OW32737   0.178   3.303   4.891  0.3033 -0.4499 -0.4443
 7092SOL    HW132738   0.104   3.303   4.952 -1.4414 -0.8245 -2.5247
 7092SOL    HW232739   0.207   3.213   4.902  1.7587  0.2341  1.1494
 7093SOL     OW32740   4.169   1.868   7.601 -0.2654  0.1602  0.3181
 7093SOL    HW132741   4.133   1.887   7.514 -0.9492 -1.2484  0.2863
 7093SOL    HW232742   4.106   1.801   7.627 -0.0564  0.1924  0.8888
 7094SOL     OW32743   1.697   1.819  13.064  0.2555  0.7164 -0.3168
 7094SOL    HW132744   1.651   1.847  13.143 -0.7191 -0.6491 -0.3850
 7094SOL    HW232745   1.671   1.727  13.051  0.2498  0.8812 -1.4739
 7095SOL     OW32746   1.128   2.238   1.122  0.7353 -0.1677 -0.0572
 7095SOL    HW132747   1.079   2.225   1.202  2.0264  0.8561  0.9002
 7095SOL    HW232748   1.110   2.332   1.116  1.2213 -0.0407  0.4491
 7096SOL     OW32749   2.691   4.415  10.316 -0.8086  0.0190  0.6472
 7096SOL    HW132750   2.675   4.332  10.272  2.4621 -1.2902  1.8815
 7096SOL    HW232751   2.760   4.446  10.256  0.4205 -2.0294  0.9867
 7097SOL     OW32752   0.652   1.323  16.032 -0.1097  0.3394 -0.0180
 7097SOL    HW132753   0.623   1.401  16.079  0.8942 -0.5417  2.0742
 7097SOL    HW232754   0.567   1.281  16.017  0.8583 -1.4743 -0.3787
 7098SOL     OW32755   4.201   1.916   8.496  0.1625  0.1764 -0.0624
 7098SOL    HW132756   4.293   1.922   8.470 -0.0167  0.9484 -0.5148
 7098SOL    HW232757   4.160   1.921   8.410 -1.4524 -0.2782  0.6797
 7099SOL     OW32758   3.761   1.905   5.506  0.3288  0.1573  0.4295
 7099SOL    HW132759   3.808   1.900   5.589 -2.9737  0.8001  2.3441
 7099SOL    HW232760   3.671   1.924   5.533  1.6522  4.2487  1.9456
 7100SOL     OW32761   2.463   3.843   8.314 -0.2386  0.3843  0.0961
 7100SOL    HW132762   2.420   3.874   8.234 -0.2081  0.1490 -0.0092
 7100SOL    HW232763   2.496   3.763   8.274  1.3474  1.0115  0.1266
 7101SOL     OW32764   4.595   0.728  14.317 -0.0196  0.0391 -0.2784
 7101SOL    HW132765   4.562   0.750  14.230  1.7747  1.3193 -0.6298
 7101SOL    HW232766   4.515   0.741  14.369 -0.9431 -2.5273 -1.0725
 7102SOL     OW32767   2.836   0.608   3.396  0.4726 -0.3381 -0.6151
 7102SOL    HW132768   2.892   0.652   3.460  0.5527 -0.0269 -0.8994
 7102SOL    HW232769   2.899   0.590   3.327  2.5953  0.9334  0.9772
 7103SOL     OW32770   3.630   0.585   8.044 -0.3261  0.1527  0.3331
 7103SOL    HW132771   3.542   0.617   8.025  0.9466  2.8345 -1.0289
 7103SOL    HW232772   3.674   0.630   8.116 -1.2136  1.8634 -0.2154
 7104SOL     OW32773   0.532   1.713   1.178  0.2550  0.0415 -0.0099
 7104SOL    HW132774   0.564   1.666   1.102 -1.6821  1.0462 -1.4496
 7104SOL    HW232775   0.437   1.700   1.179  0.2231  0.1722 -2.6606
 7105SOL     OW32776   2.386   1.935  12.762 -0.4604 -0.4064  0.5833
 7105SOL    HW132777   2.419   1.958  12.675  2.2668 -0.8754  1.4780
 7105SOL    HW232778   2.473   1.940  12.801 -0.6668  0.8153  0.8849
 7106SOL     OW32779   3.879   0.931  11.074  0.0305 -0.4113 -0.6200
 7106SOL    HW132780   3.957   0.903  11.123  1.1230  0.1397 -2.0387
 7106SOL    HW232781   3.877   0.859  11.011 -2.1232 -0.1234 -0.8666
 7107SOL     OW32782   1.318   0.730   1.907  0.0096  0.6161 -0.2650
 7107SOL    HW132783   1.391   0.724   1.969  0.1794 -0.5779 -0.5718
 7107SOL    HW232784   1.365   0.770   1.833 -1.0710  0.4711 -1.0324
 7108SOL     OW32785   4.129   1.236   3.104  0.0572 -0.0693 -0.2376
 7108SOL    HW132786   4.192   1.254   3.175  0.8109  1.1262 -1.1968
 7108SOL    HW232787   4.077   1.315   3.122 -0.0158  0.1779 -1.5152
 7109SOL     OW32788   0.596   1.756   6.011  0.2562 -0.7210  0.9373
 7109SOL    HW132789   0.511   1.799   6.014  0.7780  0.2649  1.5430
 7109SOL    HW232790   0.653   1.832   6.017 -0.4070 -0.1515  0.0191
 7110SOL     OW32791   2.353   3.405  11.952 -0.0762 -0.4557  0.4227
 7110SOL    HW132792   2.335   3.315  11.925  2.6567 -0.0531 -2.6711
 7110SOL    HW232793   2.372   3.444  11.867  0.1543  0.2372  0.7968
 7111SOL     OW32794   1.681   3.438   4.783  0.0653  0.0205  0.9078
 7111SOL    HW132795   1.694   3.532   4.798 -2.1003  0.6227 -0.8600
 7111SOL    HW232796   1.598   3.441   4.735  1.1083 -0.9969 -0.9524
 7112SOL     OW32797   1.227   0.215   8.546 -0.4696  0.2232 -0.1599
 7112SOL    HW132798   1.252   0.210   8.454  1.1629  0.6196  0.2577
 7112SOL    HW232799   1.178   0.136   8.569 -0.0775  0.6330  2.0687
 7113SOL     OW32800   2.110   2.859  15.533 -0.1109 -0.0239 -0.6191
 7113SOL    HW132801   2.122   2.839  15.440  0.1170 -2.4172 -0.0823
 7113SOL    HW232802   2.125   2.778  15.582 -1.0025  1.8570  2.7040
 7114SOL     OW32803   2.631   2.634   7.836 -0.9220 -0.0108 -0.5236
 7114SOL    HW132804   2.681   2.690   7.777 -0.9775  0.5828 -0.0114
 7114SOL    HW232805   2.652   2.675   7.920  0.9971 -0.6259 -0.7205
 7115SOL     OW32806   2.169   0.472   5.941  0.3286  0.3434 -0.7636
 7115SOL    HW132807   2.142   0.397   5.889 -0.8399  0.5686 -0.5011
 7115SOL    HW232808   2.264   0.467   5.932  0.3541 -0.1328 -0.2003
 7116SOL     OW32809   0.086   0.075   6.462  0.0391  0.0887 -0.0187
 7116SOL    HW132810   0.165   0.050   6.510  0.1533  3.0887  1.3207
 7116SOL    HW232811   0.050   4.713   6.454 -3.0426  1.4644 -1.4065
 7117SOL     OW32812   4.450   1.519   3.595 -0.3693 -0.6033  0.8126
 7117SOL    HW132813   4.494   1.603   3.600  0.1126 -0.6866 -2.0378
 7117SOL    HW232814   4.418   1.529   3.506  1.1272  0.7021  0.4348
 7118SOL     OW32815   4.056   1.592  13.605 -0.3513  0.1169 -0.0400
 7118SOL    HW132816   4.056   1.677  13.649 -0.7390 -0.3966  0.9485
 7118SOL    HW232817   4.146   1.560  13.604 -0.5099 -0.2971 -1.0336
 7119SOL     OW32818   1.395   2.786   3.219 -0.1589  0.5085 -0.1460
 7119SOL    HW132819   1.340   2.731   3.163 -0.2162  1.6221 -1.1712
 7119SOL    HW232820   1.410   2.721   3.288  0.7170  1.2582  0.3578
 7120SOL     OW32821   3.640   0.571   1.333 -0.6826  0.2369 -0.1512
 7120SOL    HW132822   3.688   0.628   1.392 -1.4113 -1.4119  2.0536
 7120SOL    HW232823   3.627   0.627   1.257 -1.5227  0.6473  0.2946
 7121SOL     OW32824   2.291   4.172   4.453 -0.6722  0.0055 -0.7300
 7121SOL    HW132825   2.375   4.130   4.471 -1.3514 -1.0899 -0.1100
 7121SOL    HW232826   2.239   4.144   4.528  1.3169 -2.0737 -0.1319
 7122SOL     OW32827   4.294   4.147   1.321 -0.0104 -0.1927 -0.0034
 7122SOL    HW132828   4.286   4.238   1.348 -0.7994 -0.8446  1.9650
 7122SOL    HW232829   4.385   4.136   1.350 -0.6049 -2.3478  1.0472
 7123SOL     OW32830   0.173   2.890   4.033 -0.1913 -0.4383 -0.2529
 7123SOL    HW132831   0.225   2.890   3.953 -0.2970 -2.5482 -0.3191
 7123SOL    HW232832   0.182   2.796   4.048  0.3416 -0.1499  1.2055
 7124SOL     OW32833   1.211   0.929  10.064  0.3759 -0.1025  0.2306
 7124SOL    HW132834   1.256   0.983  10.129  1.5987 -1.5284  0.5795
 7124SOL    HW232835   1.127   0.925  10.109 -0.8419  1.8431 -1.9389
 7125SOL     OW32836   3.413   4.489   4.670 -0.3049 -0.3089  0.9972
 7125SOL    HW132837   3.381   4.579   4.678  0.6923 -0.0043  1.6437
 7125SOL    HW232838   3.487   4.502   4.611 -1.0038  1.4069  0.5020
 7126SOL     OW32839   4.527   3.889   8.544 -0.2547 -0.1561  0.7651
 7126SOL    HW132840   4.435   3.867   8.556 -0.2167  0.2332  1.7529
 7126SOL    HW232841   4.522   3.985   8.544 -0.2725 -0.1554  0.3977
 7127SOL     OW32842   1.237   0.278   7.487  0.4498  0.5437 -0.5745
 7127SOL    HW132843   1.316   0.233   7.457  1.6800  0.5848  2.5890
 7127SOL    HW232844   1.194   0.204   7.530 -0.5390  0.2192 -2.1344
 7128SOL     OW32845   0.280   1.966   5.169 -0.3246 -0.1223  0.2668
 7128SOL    HW132846   0.348   2.001   5.112  1.3502 -2.4417  0.8272
 7128SOL    HW232847   0.319   1.978   5.256 -0.0031 -2.2343  0.4124
 7129SOL     OW32848   3.719   2.024   0.017 -0.1393 -0.6640  0.1626
 7129SOL    HW132849   3.669   2.032   0.098  2.7543 -0.7124  1.9652
 7129SOL    HW232850   3.678   1.948  17.683 -1.8194 -0.0656  0.7605
 7130SOL     OW32851   4.531   0.317   5.479  0.5027 -0.3241 -0.2862
 7130SOL    HW132852   4.604   0.328   5.539 -0.2469 -0.2606  0.6193
 7130SOL    HW232853   4.501   0.407   5.467 -1.6035 -0.8377  1.1430
 7131SOL     OW32854   2.198   1.624   4.536  0.4175 -0.3018 -0.1423
 7131SOL    HW132855   2.115   1.582   4.512  0.6874 -2.5306  2.8290
 7131SOL    HW232856   2.187   1.644   4.629  3.8147  0.0033  0.1987
 7132SOL     OW32857   0.389   3.897  16.972  0.1714  0.1077 -0.2759
 7132SOL    HW132858   0.355   3.943  16.895 -1.1200 -0.5940 -0.1245
 7132SOL    HW232859   0.372   3.807  16.944  4.2618 -0.2023 -1.8137
 7133SOL     OW32860   0.855   1.327   0.622  0.4474  0.5182 -0.6401
 7133SOL    HW132861   0.843   1.330   0.527  0.1168  0.6652 -0.5950
 7133SOL    HW232862   0.919   1.257   0.629 -2.1896 -1.9674 -1.0344
 7134SOL     OW32863   3.907   3.099  15.059  0.4217  0.2194 -0.6118
 7134SOL    HW132864   3.921   3.012  15.021 -0.3864  0.1218 -0.6693
 7134SOL    HW232865   3.928   3.087  15.152  1.1094  2.5118 -0.4554
 7135SOL     OW32866   3.704   2.346   6.975 -0.5387  0.6974  0.2003
 7135SOL    HW132867   3.790   2.304   6.968 -1.4297 -1.3969  1.9450
 7135SOL    HW232868   3.640   2.282   6.944 -0.3482  2.2080 -3.3582
 7136SOL     OW32869   3.162   3.086  16.798 -0.5536 -0.7436 -0.5263
 7136SOL    HW132870   3.201   3.136  16.727 -2.6149 -0.2420 -1.3077
 7136SOL    HW232871   3.072   3.117  16.785 -0.6946 -0.7828  0.3259
 7137SOL     OW32872   3.316   1.138   5.331 -0.5748 -0.0829 -0.0314
 7137SOL    HW132873   3.267   1.218   5.312  1.7689  1.1279 -0.9448
 7137SOL    HW232874   3.388   1.144   5.268  0.2192 -0.1768  0.8707
 7138SOL     OW32875   3.809   0.862   6.603 -0.0217  0.2138 -0.0929
 7138SOL    HW132876   3.788   0.802   6.675  0.8782 -1.8129 -1.5326
 7138SOL    HW232877   3.800   0.800   6.530 -1.1420 -0.5499  0.6850
 7139SOL     OW32878   0.524   4.011   2.353  0.9307 -0.0237 -0.0737
 7139SOL    HW132879   0.468   4.023   2.430 -0.1561 -1.0453 -0.7031
 7139SOL    HW232880   0.601   4.064   2.373  0.6815  1.1400 -2.1923
 7140SOL     OW32881   4.199   2.579  10.485  0.0448 -0.5199 -0.0992
 7140SOL    HW132882   4.174   2.636  10.412  0.4401  0.5706  0.6281
 7140SOL    HW232883   4.295   2.580  10.483  0.0523 -0.1050  0.9183
 7141SOL     OW32884   3.336   2.777   2.824  0.7190 -0.4240 -0.0657
 7141SOL    HW132885   3.304   2.816   2.742  1.3766  0.2659  0.0061
 7141SOL    HW232886   3.410   2.721   2.801  1.8430  2.1011 -2.5778
 7142SOL     OW32887   0.423   1.712   5.226 -0.1774  0.0256  0.2640
 7142SOL    HW132888   0.377   1.628   5.222 -1.8546  0.9111  1.2827
 7142SOL    HW232889   0.357   1.781   5.223 -0.2864 -0.0745  0.3681
 7143SOL     OW32890   0.635   2.524   5.505 -0.0100 -0.7046  0.2895
 7143SOL    HW132891   0.648   2.571   5.423  1.6423 -0.2613  0.8038
 7143SOL    HW232892   0.726   2.498   5.522  0.1235 -0.1579  0.4150
 7144SOL     OW32893   3.615   4.068   4.982  0.0765  0.5383  0.5298
 7144SOL    HW132894   3.642   3.990   4.934  0.4062  0.6640  0.5106
 7144SOL    HW232895   3.536   4.034   5.022 -0.2465 -1.2241 -1.6341
 7145SOL     OW32896   2.604   4.161   1.380 -0.1977  0.8391 -0.1381
 7145SOL    HW132897   2.627   4.218   1.306  0.4617  1.2860  0.4200
 7145SOL    HW232898   2.598   4.078   1.333 -3.1367 -0.1950  2.0537
 7146SOL     OW32899   0.532   2.959  11.537  0.4946  0.0553 -0.4480
 7146SOL    HW132900   0.570   2.889  11.485  0.5574 -0.6357  0.5135
 7146SOL    HW232901   0.572   2.934  11.621  0.2088 -0.9316 -0.6069
 7147SOL     OW32902   0.200   4.388   6.833 -0.3841  0.4102  0.1241
 7147SOL    HW132903   0.175   4.465   6.884  0.6377 -0.6998  2.2778
 7147SOL    HW232904   0.270   4.423   6.777 -0.7096  1.4483  0.3531
 7148SOL     OW32905   0.517   3.453   7.337 -0.3635 -0.0855 -0.2569
 7148SOL    HW132906   0.454   3.524   7.351 -1.2810 -0.3368 -3.0130
 7148SOL    HW232907   0.595   3.509   7.329  1.0250 -2.1957 -1.6869
 7149SOL     OW32908   3.198   1.048   5.965 -0.0554 -0.1712 -0.2335
 7149SOL    HW132909   3.232   1.042   5.875  0.7435 -0.0955  0.0593
 7149SOL    HW232910   3.197   1.143   5.974  3.0142  0.0523 -2.1999
 7150SOL     OW32911   1.461   0.088   9.280 -0.2772 -0.2153  0.2754
 7150SOL    HW132912   1.368   0.102   9.296 -0.2686  2.3130 -1.9559
 7150SOL    HW232913   1.498   0.177   9.278 -2.3238  0.6042 -0.5163
 7151SOL     OW32914   4.411   0.502   8.261 -0.5084  0.3559  0.1391
 7151SOL    HW132915   4.402   0.418   8.217  0.9790 -0.6620  1.7829
 7151SOL    HW232916   4.486   0.489   8.319  1.7011  0.7316 -2.6738
 7152SOL     OW32917   2.892   2.569   4.063 -0.3258  0.0014  0.2509
 7152SOL    HW132918   2.843   2.518   4.000  2.3377  0.3454 -2.0948
 7152SOL    HW232919   2.976   2.541   4.026 -0.1014 -0.9513  1.4505
 7153SOL     OW32920   3.289   4.116   7.153  0.0785  0.2694  0.1902
 7153SOL    HW132921   3.209   4.117   7.206 -0.4952  3.8690 -0.7435
 7153SOL    HW232922   3.255   4.085   7.069  0.6637  0.3196 -0.0660
 7154SOL     OW32923   0.864   4.505   8.509  0.4396  0.1489 -0.1325
 7154SOL    HW132924   0.813   4.458   8.575 -2.4191 -1.6710 -3.7020
 7154SOL    HW232925   0.900   4.565   8.575  0.0199  0.0742  0.1608
 7155SOL     OW32926   2.027   4.519   3.707 -0.1051 -0.7072  0.1898
 7155SOL    HW132927   1.969   4.586   3.672  1.8458  0.7035 -0.3238
 7155SOL    HW232928   1.987   4.445   3.660 -1.5291  1.9685 -2.7716
 7156SOL     OW32929   4.597   1.280   5.563 -0.2511  0.2638  0.1885
 7156SOL    HW132930   4.648   1.321   5.632 -1.8378 -1.1531  2.1976
 7156SOL    HW232931   4.580   1.360   5.513 -0.1834 -0.5990 -1.2179
 7157SOL     OW32932   2.365   0.641  14.441  0.2288 -0.0901 -0.4853
 7157SOL    HW132933   2.451   0.625  14.479  1.1744 -0.1221 -2.6145
 7157SOL    HW232934   2.378   0.711  14.376  1.8359 -0.8078 -0.9211
 7158SOL     OW32935   1.488   3.083   3.441 -0.8594 -0.2634 -0.2979
 7158SOL    HW132936   1.423   3.017   3.416  0.1850 -1.6164  0.5523
 7158SOL    HW232937   1.550   3.082   3.368 -0.8472  0.6518 -0.3055
 7159SOL     OW32938   2.457   2.998   0.598 -0.0437 -0.1523 -0.0655
 7159SOL    HW132939   2.454   3.090   0.625 -0.2882  0.0062 -0.6375
 7159SOL    HW232940   2.391   2.953   0.651 -2.5611  1.7623 -1.5842
 7160SOL     OW32941   1.084   3.573   4.548 -0.3107 -0.1396  0.2524
 7160SOL    HW132942   1.127   3.554   4.631  0.8746  1.1464 -0.0657
 7160SOL    HW232943   1.052   3.662   4.566 -0.0553  0.2081 -0.9868
 7161SOL     OW32944   0.387   3.043   3.829 -0.6559 -0.5487 -0.3108
 7161SOL    HW132945   0.470   3.027   3.784  0.5109 -0.1573  1.7457
 7161SOL    HW232946   0.326   2.988   3.779 -1.2623 -1.9401  1.9805
 7162SOL     OW32947   3.291   0.553   9.050 -0.1703 -0.3527  0.7848
 7162SOL    HW132948   3.313   0.608   9.126 -1.2137  0.8100  0.2297
 7162SOL    HW232949   3.211   0.590   9.014  0.6120  2.0378  1.5122
 7163SOL     OW32950   1.049   4.007   0.894  0.2610 -0.4400  0.0238
 7163SOL    HW132951   1.069   3.987   0.986 -1.9232  0.4964  0.7310
 7163SOL    HW232952   0.955   4.024   0.899  0.2230 -0.7872  0.5230
 7164SOL     OW32953   0.646   1.404   7.417 -0.0696 -0.6639 -0.0983
 7164SOL    HW132954   0.736   1.383   7.443  0.1402  0.2916 -0.0710
 7164SOL    HW232955   0.601   1.372   7.495 -0.6806 -0.3956 -0.3416
 7165SOL     OW32956   4.345   4.162  16.685  0.1120  0.4074 -0.3885
 7165SOL    HW132957   4.406   4.140  16.614  0.5937 -0.7525  0.3992
 7165SOL    HW232958   4.314   4.073  16.700 -1.3538  0.5924 -2.3396
 7166SOL     OW32959   4.132   4.671   0.792 -0.0615  0.3382 -0.2110
 7166SOL    HW132960   4.184   4.635   0.863  0.1556  0.7033 -0.1814
 7166SOL    HW232961   4.200   4.670   0.725 -0.7604 -1.3326 -0.8907
 7167SOL     OW32962   1.142   1.129   0.070  0.5899 -0.4508 -0.7375
 7167SOL    HW132963   1.199   1.196   0.034 -0.4187  0.2200 -1.0678
 7167SOL    HW232964   1.181   1.052   0.029 -1.9649 -3.2720  2.0793
 7168SOL     OW32965   0.489   2.522  17.637  0.0938  0.2638 -0.2911
 7168SOL    HW132966   0.499   2.609  17.676  0.4279  0.6458 -1.2343
 7168SOL    HW232967   0.397   2.528  17.613 -0.1750  2.7010  1.2676
 7169SOL     OW32968   0.307   1.838   6.304 -0.0109 -0.0797 -0.3186
 7169SOL    HW132969   0.223   1.866   6.340 -0.9430 -1.2703 -1.6049
 7169SOL    HW232970   0.307   1.744   6.322  1.6728 -0.0987 -0.3916
 7170SOL     OW32971   0.242   1.225   4.949  0.2632 -0.3945  0.4801
 7170SOL    HW132972   0.194   1.302   4.918  1.4983 -1.0009 -2.9240
 7170SOL    HW232973   0.217   1.175   4.871  2.0291  0.4556 -0.6123
 7171SOL     OW32974   4.490   1.579   6.373 -0.3771 -0.3464  0.4126
 7171SOL    HW132975   4.432   1.524   6.426 -0.7872  0.9121  1.2594
 7171SOL    HW232976   4.456   1.578   6.283 -1.3147 -0.3334  0.7661
 7172SOL     OW32977   3.789   2.617  10.050 -0.5455  0.2794  0.4581
 7172SOL    HW132978   3.786   2.649  10.140  0.1733 -0.6757  0.8156
 7172SOL    HW232979   3.739   2.692  10.019 -0.0333 -0.4311 -2.0788
 7173SOL     OW32980   0.364   2.424   8.478  0.1041  0.4939  0.1285
 7173SOL    HW132981   0.319   2.351   8.521  0.0975 -0.6708 -1.8531
 7173SOL    HW232982   0.289   2.482   8.461 -0.6709 -0.1826  1.2142
 7174SOL     OW32983   3.180   2.090  17.561  0.0536  0.6820  0.5287
 7174SOL    HW132984   3.275   2.087  17.559  0.0267  0.2493 -0.5839
 7174SOL    HW232985   3.158   2.150  17.490 -2.6726 -2.2905 -1.1430
 7175SOL     OW32986   4.167   2.130   3.310  0.3446  0.0797 -0.1515
 7175SOL    HW132987   4.144   2.199   3.372 -2.0031 -1.2394  0.4300
 7175SOL    HW232988   4.202   2.179   3.235 -1.2501  1.8183  0.2466
 7176SOL     OW32989   0.433   3.132   2.083  0.7523 -0.9410 -0.0109
 7176SOL    HW132990   0.392   3.045   2.081  0.2328 -0.7234  1.4126
 7176SOL    HW232991   0.521   3.100   2.100  1.6005  1.0375 -0.6804
 7177SOL     OW32992   3.806   1.522  12.839 -0.1733 -0.1976 -0.2444
 7177SOL    HW132993   3.740   1.587  12.816  0.3190  0.7152  0.9159
 7177SOL    HW232994   3.738   1.464  12.874  0.4327 -1.5739 -1.3227
 7178SOL     OW32995   0.479   4.715   3.570  0.6235 -0.1508 -0.6343
 7178SOL    HW132996   0.566   4.678   3.584  1.5111  1.7816 -1.0917
 7178SOL    HW232997   0.491   0.070   3.521  2.5057 -0.2404 -0.3076
 7179SOL     OW32998   2.915   4.545   2.415  0.4156 -0.2071 -0.4026
 7179SOL    HW132999   3.004   4.543   2.450 -0.3230  1.3553  1.5490
 7179SOL    HW233000   2.863   4.528   2.494 -0.5343  2.1178 -0.5238
 7180SOL     OW33001   1.952   0.418   6.312 -0.0534  0.3471 -0.3044
 7180SOL    HW133002   1.938   0.338   6.361  3.3850  0.4988  0.9844
 7180SOL    HW233003   2.047   0.406   6.302  0.0976  0.0708  1.4754
 7181SOL     OW33004   0.573   3.120   5.969  0.5080  0.9457  0.0539
 7181SOL    HW133005   0.618   3.150   5.890  0.2839  2.4587  0.4876
 7181SOL    HW233006   0.520   3.046   5.940 -0.0843  1.0002  0.9901
 7182SOL     OW33007   0.647   3.329   4.398 -0.6724  0.3088  0.2903
 7182SOL    HW133008   0.598   3.366   4.471 -1.1826 -0.8801  0.5447
 7182SOL    HW233009   0.652   3.414   4.355 -1.7040 -1.6865 -3.7386
 7183SOL     OW33010   0.146   0.413   4.211  0.5733  0.6815  0.1339
 7183SOL    HW133011   0.144   0.407   4.115  0.3982 -1.0446  0.2377
 7183SOL    HW233012   0.074   0.475   4.221 -1.9306 -2.4248  1.1052
 7184SOL     OW33013   3.581   3.843  13.374  0.3627 -0.2651  0.1197
 7184SOL    HW133014   3.659   3.795  13.400 -1.4106 -2.3703  1.4972
 7184SOL    HW233015   3.519   3.770  13.374  0.0426  0.0060  0.2576
 7185SOL     OW33016   1.536   1.350  17.152 -0.1405  0.0591 -0.4194
 7185SOL    HW133017   1.508   1.275  17.204  2.3725  0.8114  2.0261
 7185SOL    HW233018   1.613   1.386  17.195  0.4744  0.4151 -1.8331
 7186SOL     OW33019   4.540   2.819   6.559 -0.4324  0.1244  0.8805
 7186SOL    HW133020   4.618   2.858   6.518 -1.0773  0.5409  0.0607
 7186SOL    HW233021   4.495   2.765   6.495 -0.8558 -0.1849  1.4412
 7187SOL     OW33022   0.965   3.122   4.243 -0.1985 -0.2654  0.0104
 7187SOL    HW133023   0.881   3.133   4.198 -0.6330 -0.0052  0.8667
 7187SOL    HW233024   0.984   3.209   4.281 -0.0432 -1.0691  1.7852
 7188SOL     OW33025   4.319   0.219   6.032 -0.1733  0.4678  0.0077
 7188SOL    HW133026   4.231   0.247   6.007 -0.2629  0.9867  0.9101
 7188SOL    HW233027   4.377   0.262   5.969 -0.0607 -0.5915 -0.6145
 7189SOL     OW33028   0.928   3.921   1.777 -0.1558 -0.2907 -0.1929
 7189SOL    HW133029   0.915   3.851   1.841  1.0460 -1.4407 -1.2219
 7189SOL    HW233030   1.023   3.926   1.778 -0.0908 -1.6551  0.2859
 7190SOL     OW33031   3.159   2.199   9.833 -0.0055 -0.1036  0.4345
 7190SOL    HW133032   3.193   2.240   9.912  0.7356 -0.9649  0.5729
 7190SOL    HW233033   3.220   2.235   9.769  0.0669 -0.0383  0.5411
 7191SOL     OW33034   1.002   1.990  12.604 -0.2221 -0.1306 -0.3522
 7191SOL    HW133035   1.056   2.011  12.680  0.1899  0.4230 -0.8007
 7191SOL    HW233036   0.924   2.045  12.618  0.8955  1.2524  0.4299
 7192SOL     OW33037   3.538   0.663  14.340  0.5644  0.5126  0.6285
 7192SOL    HW133038   3.485   0.589  14.312 -2.1076  2.2317  1.1469
 7192SOL    HW233039   3.483   0.689  14.414  0.4418  3.2404 -0.4306
 7193SOL     OW33040   1.736   4.102   6.750  0.2209  0.1438  0.2002
 7193SOL    HW133041   1.817   4.072   6.709  1.5353  0.5708  2.4329
 7193SOL    HW233042   1.767   4.180   6.797 -0.3648  0.8867 -0.6310
 7194SOL     OW33043   2.770   1.054  16.286  0.0911  0.1290 -0.0267
 7194SOL    HW133044   2.828   1.016  16.352 -1.2520  0.0514  1.0920
 7194SOL    HW233045   2.795   0.993  16.216  1.0825 -0.5250  0.8956
 7195SOL     OW33046   3.347   3.878   0.746  0.4048 -0.3100 -0.5236
 7195SOL    HW133047   3.314   3.791   0.726  1.2407 -0.5551 -0.8345
 7195SOL    HW233048   3.355   3.876   0.842  0.5508 -0.9448 -0.5469
 7196SOL     OW33049   3.816   2.361   0.702  0.1493 -0.6197 -0.1736
 7196SOL    HW133050   3.883   2.408   0.751 -0.4136  1.5953 -1.5270
 7196SOL    HW233051   3.864   2.323   0.628 -1.5791 -0.0953 -1.5416
 7197SOL     OW33052   0.250   0.137   4.728 -0.3930 -0.0684 -0.5436
 7197SOL    HW133053   0.310   0.086   4.782 -0.0305 -0.8410 -1.6759
 7197SOL    HW233054   0.308   0.171   4.659  0.3060  0.2540  0.1951
 7198SOL     OW33055   1.075   2.926   4.092 -0.2477  0.0401  0.1563
 7198SOL    HW133056   1.141   2.981   4.048  1.3871 -0.4231  2.0370
 7198SOL    HW233057   1.026   2.990   4.144  1.3961  1.5916 -0.2000
 7199SOL     OW33058   2.976   2.261  17.349  0.7800 -0.2064 -1.0140
 7199SOL    HW133059   3.006   2.339  17.396  1.5493  0.1822 -2.1476
 7199SOL    HW233060   2.908   2.297  17.293  1.0576 -0.2205 -1.3588
 7200SOL     OW33061   0.190   3.458   1.657  0.2883 -0.5526  0.3847
 7200SOL    HW133062   0.150   3.406   1.727  0.7580 -3.4561 -1.4856
 7200SOL    HW233063   0.262   3.496   1.707  0.8163 -0.2677 -0.5871
 7201SOL     OW33064   2.193   2.273   2.566  0.1526  0.7179 -0.0329
 7201SOL    HW133065   2.203   2.338   2.496  0.9537  0.7782  0.1401
 7201SOL    HW233066   2.201   2.332   2.640 -1.1996  0.8909 -0.0358
 7202SOL     OW33067   0.566   2.354   0.990  0.1630  0.1338 -0.2767
 7202SOL    HW133068   0.522   2.292   1.048  0.0236  0.7908  0.3117
 7202SOL    HW233069   0.504   2.373   0.920 -0.6191 -0.1061  0.3612
 7203SOL     OW33070   0.460   3.150  10.252  0.6570  0.0643  0.0904
 7203SOL    HW133071   0.456   3.141  10.157  1.9792 -0.3211  0.0735
 7203SOL    HW233072   0.547   3.112  10.262  0.1615 -1.1538 -0.2464
 7204SOL     OW33073   1.836   3.489   7.823 -0.3562 -0.0680  0.5898
 7204SOL    HW133074   1.931   3.477   7.822 -0.4231 -0.4081 -0.7662
 7204SOL    HW233075   1.811   3.413   7.771 -1.1314  0.7939 -0.3072
 7205SOL     OW33076   1.422   2.042   0.103 -0.2150  0.1148 -0.3417
 7205SOL    HW133077   1.387   1.954   0.117 -0.0533  0.1932  0.5351
 7205SOL    HW233078   1.401   2.048   0.009  1.5594  3.1634 -0.5482
 7206SOL     OW33079   1.250   1.458  13.502 -0.3907 -0.1477  0.2712
 7206SOL    HW133080   1.180   1.418  13.553 -0.3687  0.0448  0.4517
 7206SOL    HW233081   1.283   1.521  13.566 -0.4017  0.2528 -0.1168
 7207SOL     OW33082   4.492   0.825  15.319 -0.1425  0.0900 -0.1630
 7207SOL    HW133083   4.572   0.774  15.333  1.6842  3.1284  0.3165
 7207SOL    HW233084   4.493   0.824  15.223 -0.6912  0.9741 -0.1783
 7208SOL     OW33085   0.626   0.112   4.941  0.5368 -0.5210  0.0412
 7208SOL    HW133086   0.712   0.074   4.922 -0.7187 -3.9501  1.1999
 7208SOL    HW233087   0.612   0.163   4.861  1.0161 -1.0383 -0.3821
 7209SOL     OW33088   3.869   1.946  11.260  0.5271  0.4580  0.7239
 7209SOL    HW133089   3.925   1.971  11.333 -0.2504  0.2191  1.4081
 7209SOL    HW233090   3.907   1.993  11.186  0.4388 -0.4627  0.0889
 7210SOL     OW33091   4.489   4.616   6.137 -0.3542 -0.3362 -0.1472
 7210SOL    HW133092   4.446   4.587   6.217 -1.0549 -2.0761 -1.1442
 7210SOL    HW233093   4.514   4.706   6.158 -1.4282  0.2853 -1.4781
 7211SOL     OW33094   2.270   4.312   2.086  0.4112 -0.2613 -0.1185
 7211SOL    HW133095   2.202   4.288   2.022 -0.8931  1.2566  0.7205
 7211SOL    HW233096   2.269   4.407   2.084  0.0565 -0.2711 -0.5357
 7212SOL     OW33097   2.006   3.329   4.413  0.4765  0.1924  0.2785
 7212SOL    HW133098   1.917   3.297   4.426 -0.2012  1.5659 -0.9828
 7212SOL    HW233099   2.006   3.332   4.317  0.9611 -1.0697  0.2421
 7213SOL     OW33100   4.098   2.597   4.450  0.3794  0.2458 -0.3850
 7213SOL    HW133101   4.081   2.620   4.541  0.7971  1.5838 -0.6330
 7213SOL    HW233102   4.192   2.580   4.445  0.1188 -1.1490 -0.3786
 7214SOL     OW33103   2.590   0.847  15.089 -0.5234  0.5871  0.0380
 7214SOL    HW133104   2.546   0.854  15.174 -0.1506  3.1335  0.0118
 7214SOL    HW233105   2.517   0.814  15.036 -0.9422  2.8279 -0.7659
 7215SOL     OW33106   2.698   2.195   5.074  1.0090  0.0720  0.5090
 7215SOL    HW133107   2.722   2.287   5.089 -1.8746  1.0909 -1.1445
 7215SOL    HW233108   2.765   2.144   5.119  0.3771 -1.1623  0.0648
 7216SOL     OW33109   0.279   0.372  16.181  0.4187  0.1135 -0.2888
 7216SOL    HW133110   0.310   0.340  16.096  1.7566 -0.9647  0.6107
 7216SOL    HW233111   0.357   0.351  16.231  2.3626  3.9913 -1.6800
 7217SOL     OW33112   0.784   3.492   3.545  0.5015  0.3219 -0.2728
 7217SOL    HW133113   0.711   3.512   3.486  1.4243  1.0669 -1.1636
 7217SOL    HW233114   0.751   3.414   3.589  0.5605  0.5619  0.1912
 7218SOL     OW33115   1.578   1.260   5.779 -0.4492 -0.4013  0.0458
 7218SOL    HW133116   1.508   1.244   5.715 -1.1327 -0.4611  0.8208
 7218SOL    HW233117   1.620   1.336   5.739 -0.5584 -1.2180 -1.6325
 7219SOL     OW33118   4.610   1.238   4.809  0.1637  0.5657  0.1052
 7219SOL    HW133119   4.608   1.288   4.891 -0.5501  0.3402  0.2229
 7219SOL    HW233120   4.588   1.312   4.752  0.8761 -0.6313 -1.7149
 7220SOL     OW33121   0.879   0.653   7.892 -0.0200 -0.6876  0.3475
 7220SOL    HW133122   0.910   0.700   7.970 -1.0259  0.3942  0.0828
 7220SOL    HW233123   0.891   0.565   7.928 -1.1643 -1.0742 -0.2314
 7221SOL     OW33124   0.089   3.498   6.022 -0.3942 -0.6927 -0.3119
 7221SOL    HW133125   0.172   3.455   6.043 -0.2590  0.4777  1.5467
 7221SOL    HW233126   0.062   3.533   6.106  0.3392 -0.8166 -0.0261
 7222SOL     OW33127   0.070   0.866  15.204 -0.1150 -0.1879  0.0177
 7222SOL    HW133128   0.054   0.956  15.230 -2.9951 -0.0196 -2.3145
 7222SOL    HW233129   0.072   0.821  15.289 -2.9856  0.0770  0.2120
 7223SOL     OW33130   1.932   4.602   5.877  0.3870  0.1752  0.1367
 7223SOL    HW133131   1.909   4.590   5.785  1.2707 -4.3425  0.4907
 7223SOL    HW233132   1.845   4.578   5.910 -0.4994  0.4505 -2.0003
 7224SOL     OW33133   3.742   2.433   8.075 -0.3306  0.0437  0.0484
 7224SOL    HW133134   3.821   2.447   8.128 -1.0721  0.7457  0.9603
 7224SOL    HW233135   3.683   2.408   8.146 -1.2091  0.6696 -0.4581
 7225SOL     OW33136   2.039   1.597  12.380  0.1233 -0.1110 -0.3498
 7225SOL    HW133137   1.958   1.644  12.358 -0.9590 -0.0261  3.8476
 7225SOL    HW233138   2.076   1.660  12.441 -0.0977  0.6220 -0.9698
 7226SOL     OW33139   1.924   4.618  15.799 -0.2387  0.3211 -0.4545
 7226SOL    HW133140   1.871   4.665  15.734 -1.3333 -0.9862 -0.5020
 7226SOL    HW233141   1.997   4.678  15.816 -0.5611 -0.2718  2.9934
 7227SOL     OW33142   2.062   3.969   5.837  0.3962  0.0859  0.0212
 7227SOL    HW133143   2.066   3.911   5.913 -2.8761 -1.4419 -0.9396
 7227SOL    HW233144   2.024   3.903   5.778 -2.1955  0.6910  0.9925
 7228SOL     OW33145   1.444   2.742   2.652 -0.2885  0.2303  0.2496
 7228SOL    HW133146   1.514   2.749   2.587  0.2480 -1.1293  0.6717
 7228SOL    HW233147   1.499   2.728   2.729 -0.8917  2.0438  1.0026
 7229SOL     OW33148   1.208   2.008   5.689  0.4212  0.0471  0.2347
 7229SOL    HW133149   1.147   1.996   5.762  2.1709  0.4442  1.7611
 7229SOL    HW233150   1.249   2.086   5.726  0.2566  0.3212 -0.1615
 7230SOL     OW33151   3.082   0.781   7.423 -0.0264 -0.0630 -0.0132
 7230SOL    HW133152   2.990   0.784   7.395 -0.6390  1.3294  2.1543
 7230SOL    HW233153   3.096   0.696   7.464  0.7427  0.3750  0.6296
 7231SOL     OW33154   3.317   0.825   5.695  0.6982  0.1909  0.1805
 7231SOL    HW133155   3.276   0.772   5.627  2.5709  0.0105 -0.8153
 7231SOL    HW233156   3.258   0.900   5.697 -0.5724 -0.8431  1.2863
 7232SOL     OW33157   2.436   3.589  12.110  0.4808  0.3022 -0.0693
 7232SOL    HW133158   2.378   3.662  12.088  1.6952  1.8059  1.7641
 7232SOL    HW233159   2.420   3.533  12.034 -0.5148  0.3936  0.0756
 7233SOL     OW33160   0.074   4.479   6.386 -0.0645  0.3240 -0.7951
 7233SOL    HW133161   0.117   4.449   6.466 -4.3841  0.3128  1.5735
 7233SOL    HW233162   4.714   4.505   6.418  0.2585  0.7706 -0.2936
 7234SOL     OW33163   2.457   4.702   0.597 -0.4209  1.0016  0.3069
 7234SOL    HW133164   2.390   4.641   0.625 -0.9682 -0.0750 -3.3350
 7234SOL    HW233165   2.505   0.005   0.674 -1.4853  0.3512  1.2037
 7235SOL     OW33166   4.656   3.206   3.875 -0.1435 -0.0403 -0.9040
 7235SOL    HW133167   4.614   3.210   3.961  0.0170 -0.7152 -0.7904
 7235SOL    HW233168   4.610   3.130   3.839 -0.9141  0.6132 -1.3000
 7236SOL     OW33169   3.354   2.004   0.733  0.4606 -0.4482  0.0724
 7236SOL    HW133170   3.332   2.088   0.691  0.6734 -1.1931 -1.5115
 7236SOL    HW233171   3.280   1.992   0.792  0.5952 -0.2274  0.2858
 7237SOL     OW33172   3.389   4.665  15.894 -0.6969 -0.1648 -0.0188
 7237SOL    HW133173   3.365   4.581  15.857  0.7884 -0.6277  0.0847
 7237SOL    HW233174   3.395   4.639  15.986  0.8724  0.9375  0.1974
 7238SOL     OW33175   3.264   4.186   2.606 -0.9677  0.1111  0.1088
 7238SOL    HW133176   3.309   4.104   2.589 -0.1610  0.8295 -1.1892
 7238SOL    HW233177   3.282   4.225   2.521  0.9370  0.7082  0.7909
 7239SOL     OW33178   3.624   3.277  12.147 -0.0045 -0.1396  0.1264
 7239SOL    HW133179   3.556   3.330  12.191  0.4054 -0.4466  1.1153
 7239SOL    HW233180   3.570   3.239  12.078  1.7916  0.3594 -1.5406
 7240SOL     OW33181   2.729   3.191  15.358 -0.3961 -0.0396  0.4601
 7240SOL    HW133182   2.760   3.244  15.432  2.5739 -0.5387 -0.3940
 7240SOL    HW233183   2.704   3.109  15.399 -0.6099  0.3775  1.1706
 7241SOL     OW33184   0.456   1.047   8.700 -0.4152 -0.3765  0.2740
 7241SOL    HW133185   0.391   1.104   8.659  0.5201  0.0270 -0.6496
 7241SOL    HW233186   0.425   1.050   8.790 -1.1172 -2.0006  0.0851
 7242SOL     OW33187   4.451   0.712   8.101 -0.1545  0.1666 -0.6884
 7242SOL    HW133188   4.416   0.644   8.160 -0.3148  1.6414  0.9086
 7242SOL    HW233189   4.384   0.730   8.036  0.9479  1.5342 -1.4227
 7243SOL     OW33190   4.381   2.864  13.187  0.4497  0.2626  0.4662
 7243SOL    HW133191   4.440   2.800  13.146 -1.7790 -1.3540 -0.2122
 7243SOL    HW233192   4.333   2.802  13.241  1.0216  0.8011  1.5846
 7244SOL     OW33193   1.412   1.204   7.021 -0.4698 -0.2942 -0.4470
 7244SOL    HW133194   1.439   1.211   7.113  1.3878 -1.1079 -0.9406
 7244SOL    HW233195   1.471   1.268   6.982 -0.1870  0.4670  1.2233
 7245SOL     OW33196   4.366   0.623   4.603 -0.2047 -0.1982 -0.9519
 7245SOL    HW133197   4.350   0.610   4.510 -1.0424  3.4781 -1.3193
 7245SOL    HW233198   4.278   0.626   4.642  0.9003  3.2690  1.2682
 7246SOL     OW33199   2.790   2.588   7.206  0.5641  0.1837  0.0912
 7246SOL    HW133200   2.801   2.561   7.115 -2.3953 -1.0742  0.1209
 7246SOL    HW233201   2.744   2.516   7.250 -1.5477  2.9296  2.3938
 7247SOL     OW33202   2.214   1.369  12.825 -0.0531 -0.2282 -0.0205
 7247SOL    HW133203   2.194   1.397  12.915 -1.9531 -3.6359  0.6024
 7247SOL    HW233204   2.132   1.325  12.804 -1.1357  0.3244  2.9952
 7248SOL     OW33205   1.606   3.423   8.864 -0.4017 -0.5086 -0.0113
 7248SOL    HW133206   1.592   3.460   8.777 -0.5980 -1.6576 -0.4646
 7248SOL    HW233207   1.527   3.453   8.909 -1.7153 -1.4913 -1.6854
 7249SOL     OW33208   1.351   4.380  11.919 -0.0357 -0.7856  0.1875
 7249SOL    HW133209   1.426   4.433  11.946 -0.7813 -0.4328  1.5477
 7249SOL    HW233210   1.339   4.407  11.828  3.1469  0.0520  0.0374
 7250SOL     OW33211   2.640   3.285   4.968 -0.4952  0.3753 -0.4649
 7250SOL    HW133212   2.722   3.309   5.010  0.2348 -1.2023 -0.9927
 7250SOL    HW233213   2.577   3.329   5.025 -0.6551 -1.3075  0.6517
 7251SOL     OW33214   2.428   1.657   2.836  0.2330 -0.1275  0.3672
 7251SOL    HW133215   2.336   1.640   2.855  0.2735 -1.0737 -0.2734
 7251SOL    HW233216   2.472   1.637   2.918 -1.2253 -2.5164  0.5566
 7252SOL     OW33217   1.270   4.251   2.698 -0.2988  0.0126 -0.2664
 7252SOL    HW133218   1.301   4.300   2.622 -1.6373 -0.3662 -1.0514
 7252SOL    HW233219   1.244   4.325   2.753 -0.0002  1.4623 -2.0708
 7253SOL     OW33220   4.057   3.425   7.356 -0.1546 -0.4079 -0.0658
 7253SOL    HW133221   4.017   3.388   7.277  3.5497  0.0531 -2.1581
 7253SOL    HW233222   4.121   3.356   7.373 -1.3080 -1.2797  0.7419
 7254SOL     OW33223   0.282   3.808  12.700  0.0445  0.1053 -0.3850
 7254SOL    HW133224   0.245   3.765  12.777 -1.4792  0.4604 -0.9222
 7254SOL    HW233225   0.371   3.826  12.730  0.1170 -0.6311 -0.1720
 7255SOL     OW33226   4.056   1.026   6.200 -0.5246 -0.4229 -0.2473
 7255SOL    HW133227   4.042   0.953   6.139 -0.1352 -1.4115  0.8578
 7255SOL    HW233228   4.062   1.098   6.138  2.8118  1.4907  2.3203
 7256SOL     OW33229   3.838   4.272   2.112 -0.4052 -0.1118  0.5375
 7256SOL    HW133230   3.832   4.253   2.019 -1.3936 -0.4137  0.6611
 7256SOL    HW233231   3.757   4.235   2.148  0.9316 -2.4556  1.1855
 7257SOL     OW33232   4.506   4.516  16.540  0.1913  0.1003 -0.2128
 7257SOL    HW133233   4.577   4.462  16.506 -0.8661 -0.5079 -1.4401
 7257SOL    HW233234   4.561   4.585  16.576  0.5764 -0.9178  1.1365
 7258SOL     OW33235   0.924   1.118   8.732 -0.2596 -0.1560  0.1880
 7258SOL    HW133236   0.921   1.028   8.763 -0.3526 -0.4509 -0.6703
 7258SOL    HW233237   0.837   1.137   8.766 -0.4852 -0.8630  0.0071
 7259SOL     OW33238   0.297   1.257   8.630 -0.6995 -0.0681  0.4440
 7259SOL    HW133239   0.298   1.343   8.670 -0.4387  0.2122 -0.1587
 7259SOL    HW233240   0.208   1.253   8.594 -0.0797 -0.3862 -1.0838
 7260SOL     OW33241   2.991   0.185   8.644  0.1283  0.0790 -0.0601
 7260SOL    HW133242   2.958   0.096   8.631  0.2899 -0.1321  0.9859
 7260SOL    HW233243   3.015   0.208   8.554  2.0149  0.7949  0.6385
 7261SOL     OW33244   2.170   2.455   8.659  0.3484 -0.0165 -0.0761
 7261SOL    HW133245   2.120   2.413   8.729 -0.2217 -2.3629 -1.8965
 7261SOL    HW233246   2.254   2.472   8.701  1.1248 -1.3512 -1.1021
 7262SOL     OW33247   4.651   1.397   6.158  0.6680  0.2624 -0.6745
 7262SOL    HW133248   0.003   1.342   6.162 -0.8295 -1.7977  0.6842
 7262SOL    HW233249   4.604   1.386   6.241  1.0530  2.1522 -0.2126
 7263SOL     OW33250   1.310   2.233   5.844 -0.1792  0.1092 -0.3836
 7263SOL    HW133251   1.282   2.251   5.933 -1.0808  0.7701 -0.8067
 7263SOL    HW233252   1.362   2.312   5.830 -1.9159  1.4860  0.9658
 7264SOL     OW33253   3.044   2.189   0.235 -0.3854 -0.1954  0.0553
 7264SOL    HW133254   3.118   2.235   0.196 -1.2839  1.2898  0.1100
 7264SOL    HW233255   3.053   2.228   0.321 -1.3771  0.9964 -0.3788
 7265SOL     OW33256   0.024   4.099   4.680 -0.0529 -0.2867  0.2553
 7265SOL    HW133257   0.046   4.176   4.732  0.2616 -1.1293  1.3634
 7265SOL    HW233258   0.007   4.038   4.751 -1.8706  0.5978  0.5812
 7266SOL     OW33259   3.583   3.285  14.559  0.1591 -0.0484 -0.2107
 7266SOL    HW133260   3.647   3.239  14.614 -1.0587 -0.1845  1.0966
 7266SOL    HW233261   3.628   3.368  14.547  1.5113 -0.8853 -0.9082
 7267SOL     OW33262   1.231   2.976   7.881  0.7935 -0.7698 -0.3830
 7267SOL    HW133263   1.243   2.906   7.946  0.2398 -1.5742 -1.1447
 7267SOL    HW233264   1.319   2.976   7.842  0.9883 -0.6173  0.0647
 7268SOL     OW33265   1.709   2.211  11.738  0.2092  0.0337  0.4966
 7268SOL    HW133266   1.792   2.258  11.736  0.5851 -0.5395  2.3036
 7268SOL    HW233267   1.691   2.213  11.644 -1.6561 -3.0389  0.7800
 7269SOL     OW33268   3.429   2.804   8.968 -0.1628 -0.5834 -0.8515
 7269SOL    HW133269   3.472   2.888   8.955 -2.8795  0.6157 -2.0429
 7269SOL    HW233270   3.467   2.770   9.049  1.8725  0.8630 -1.2036
 7270SOL     OW33271   3.398   0.995   9.617  0.3750 -0.4801  0.3078
 7270SOL    HW133272   3.320   1.007   9.562 -0.2274 -0.0198  1.2597
 7270SOL    HW233273   3.468   0.995   9.552  0.8485  1.1890  0.8365
 7271SOL     OW33274   1.043   3.986   5.427  0.2728 -0.4145  0.3860
 7271SOL    HW133275   0.973   4.036   5.385  1.4530  1.6151  0.8116
 7271SOL    HW233276   1.021   3.972   5.519  0.9031  1.6922  0.8500
 7272SOL     OW33277   0.211   0.504   7.221  0.3052 -0.3585  0.3881
 7272SOL    HW133278   0.121   0.478   7.198  0.0438  0.3237  0.6409
 7272SOL    HW233279   0.193   0.579   7.278 -0.5075 -0.4610  0.2710
 7273SOL     OW33280   2.903   1.822  13.166  0.4568 -0.5404 -0.4600
 7273SOL    HW133281   2.988   1.787  13.141 -0.2124 -0.7363 -2.4384
 7273SOL    HW233282   2.843   1.767  13.116 -0.9548  0.2547  0.3486
 7274SOL     OW33283   0.617   3.076   2.509 -0.3152  0.0045  0.0776
 7274SOL    HW133284   0.565   3.095   2.430  0.7520 -0.7689 -0.8087
 7274SOL    HW233285   0.567   3.008   2.555  1.9935 -1.0212  1.1056
 7275SOL     OW33286   4.303   1.266  11.998 -0.1836  0.0841 -0.0494
 7275SOL    HW133287   4.325   1.334  12.062 -1.5365  2.1575 -1.7903
 7275SOL    HW233288   4.212   1.288  11.977 -0.6048  0.2658  1.9149
 7276SOL     OW33289   0.118   0.807   6.728  0.3800  0.7066 -0.0521
 7276SOL    HW133290   0.096   0.714   6.731 -0.2115  0.8450 -0.0284
 7276SOL    HW233291   0.196   0.805   6.783  0.7519  0.2790 -0.5952
 7277SOL     OW33292   2.155   4.559   3.063  0.4422 -0.4436  0.5040
 7277SOL    HW133293   2.111   4.584   3.144  0.2971 -1.6129  0.7965
 7277SOL    HW233294   2.215   4.490   3.094  1.1059  0.7209  1.8089
 7278SOL     OW33295   2.513   0.612   7.294 -0.2471  0.1145  0.0423
 7278SOL    HW133296   2.427   0.575   7.273  0.0856 -0.3302 -0.5418
 7278SOL    HW233297   2.504   0.700   7.257  2.9901 -0.0602 -1.1253
 7279SOL     OW33298   3.583   2.721   6.574  0.6952  0.5220 -0.5890
 7279SOL    HW133299   3.587   2.626   6.577 -1.6381  0.4739  0.5362
 7279SOL    HW233300   3.564   2.738   6.666  0.3315 -0.6478 -0.4506
 7280SOL     OW33301   3.725   0.115   4.139 -0.3757 -0.3642 -0.3765
 7280SOL    HW133302   3.636   0.150   4.137 -0.6832 -1.2668 -2.8450
 7280SOL    HW233303   3.709   0.023   4.116  1.4288 -0.6901 -0.3270
 7281SOL     OW33304   2.248   1.787   9.214  0.0037 -0.1017 -0.3246
 7281SOL    HW133305   2.197   1.852   9.167  0.4558  1.6061  1.5284
 7281SOL    HW233306   2.283   1.845   9.282  1.8745 -0.0304 -1.3639
 7282SOL     OW33307   0.558   3.104  15.692  0.5809 -0.2859  0.4774
 7282SOL    HW133308   0.540   3.194  15.665  1.8461  0.2108  1.2323
 7282SOL    HW233309   0.648   3.096  15.659  0.8237 -0.5568  1.1906
 7283SOL     OW33310   0.006   2.423  10.599  0.6816 -0.3474 -0.6121
 7283SOL    HW133311   0.100   2.432  10.613  0.5097 -0.2420  0.4686
 7283SOL    HW233312   0.007   2.382  10.513  1.3073  0.6734 -1.0897
 7284SOL     OW33313   1.860   2.674  13.625  0.0679  0.6653  0.4811
 7284SOL    HW133314   1.790   2.638  13.569  0.2371 -0.7337  1.1806
 7284SOL    HW233315   1.922   2.686  13.553  1.4627 -1.5672  1.3186
 7285SOL     OW33316   0.318   1.371   7.869  0.0518  0.1803  0.3857
 7285SOL    HW133317   0.264   1.292   7.874 -2.3881  1.7237 -1.8224
 7285SOL    HW233318   0.363   1.366   7.954  0.7854  1.4375  0.0562
 7286SOL     OW33319   4.132   0.662  17.495  0.4985 -0.3012 -0.3893
 7286SOL    HW133320   4.144   0.656  17.401 -3.2455 -0.8576 -0.8489
 7286SOL    HW233321   4.067   0.732  17.487  0.3463 -0.3623  0.2489
 7287SOL     OW33322   2.639   1.944   8.242  0.4123 -0.5227  0.8313
 7287SOL    HW133323   2.722   1.942   8.194  0.0235 -1.2242  0.1741
 7287SOL    HW233324   2.642   2.023   8.296  0.5019 -0.2493  0.4357
 7288SOL     OW33325   2.268   0.847   6.854 -0.1424 -0.3677  0.3737
 7288SOL    HW133326   2.304   0.856   6.765  0.3716 -3.2132  0.2961
 7288SOL    HW233327   2.186   0.894   6.841 -0.2759 -0.1246  2.0946
 7289SOL     OW33328   3.549   0.319  10.129 -0.0687  0.1142 -0.1273
 7289SOL    HW133329   3.545   0.409  10.164 -2.3787 -0.7128  1.7939
 7289SOL    HW233330   3.569   0.270  10.209 -2.3435  0.9388  0.9719
 7290SOL     OW33331   3.142   3.169  13.037 -0.0147  0.0152  0.4989
 7290SOL    HW133332   3.232   3.160  13.008 -0.1783  0.4606 -0.1297
 7290SOL    HW233333   3.097   3.130  12.962  0.5567 -4.3711  2.4657
 7291SOL     OW33334   3.581   3.253   7.991 -0.5406  0.4060 -0.0288
 7291SOL    HW133335   3.636   3.331   7.982  0.5634 -0.6647 -2.7413
 7291SOL    HW233336   3.551   3.266   8.081  0.0716 -0.7662  0.3400
 7292SOL     OW33337   4.083   1.960  12.611 -0.1512  0.0056 -0.4640
 7292SOL    HW133338   4.000   2.000  12.587 -1.5193 -2.7171 -0.2485
 7292SOL    HW233339   4.140   2.001  12.546 -1.5464  2.5596 -0.0655
 7293SOL     OW33340   0.788   3.979   1.490  0.6939  0.6226  0.4830
 7293SOL    HW133341   0.780   4.072   1.470 -0.7633  0.4397  0.1619
 7293SOL    HW233342   0.799   3.966   1.584 -3.4070  1.5833  1.0854
 7294SOL     OW33343   0.289   2.050   9.480 -0.4553  0.0473 -0.4186
 7294SOL    HW133344   0.225   2.022   9.414 -1.4759  0.3696  0.4395
 7294SOL    HW233345   0.365   2.032   9.424 -0.8994  1.0446 -1.3455
 7295SOL     OW33346   1.918   0.129   4.897 -0.0130  0.3496 -0.0953
 7295SOL    HW133347   1.878   0.199   4.950 -0.2308 -0.3568  0.6826
 7295SOL    HW233348   1.878   0.152   4.813 -0.2281  0.2029 -0.0327
 7296SOL     OW33349   0.973   0.931   7.676  0.3746  0.1472  0.3135
 7296SOL    HW133350   0.924   0.927   7.594  1.2937  0.0501 -0.2216
 7296SOL    HW233351   0.952   1.021   7.704  0.0370  0.2492 -0.2711
 7297SOL     OW33352   2.082   0.805  12.960  0.4836  0.2580 -0.2479
 7297SOL    HW133353   2.013   0.870  12.951 -0.1492 -0.8243 -3.1510
 7297SOL    HW233354   2.144   0.823  12.889  1.1342 -1.2398 -0.0800
 7298SOL     OW33355   2.291   0.689  12.035 -0.4509  0.2377 -0.2576
 7298SOL    HW133356   2.200   0.699  12.008 -0.8839 -1.8634  0.4325
 7298SOL    HW233357   2.283   0.647  12.121 -1.6060 -1.2747 -1.1112
 7299SOL     OW33358   4.586   4.039   5.182  0.2810  0.2568  0.3179
 7299SOL    HW133359   4.540   3.957   5.163  0.7189 -0.0926  0.7795
 7299SOL    HW233360   4.588   4.073   5.092  2.6492  1.9272  0.9886
 7300SOL     OW33361   0.135   2.137   3.371  0.0240 -0.0262 -0.2599
 7300SOL    HW133362   0.090   2.221   3.364  1.8695  0.9249 -0.6018
 7300SOL    HW233363   0.106   2.102   3.455  1.0268  0.6080  0.3487
 7301SOL     OW33364   2.051   3.011   7.744 -0.1193 -0.1312  0.0466
 7301SOL    HW133365   2.042   2.934   7.687  0.6345 -0.8222  0.8716
 7301SOL    HW233366   2.126   3.053   7.703 -0.5994  0.9358  0.2731
 7302SOL     OW33367   1.499   0.109   5.221  0.1328  0.4327  0.6499
 7302SOL    HW133368   1.475   0.191   5.177  0.2295  1.8085  3.1586
 7302SOL    HW233369   1.427   0.049   5.201  1.8447 -1.3820 -0.0112
 7303SOL     OW33370   4.708   4.701   2.303  0.0628  0.6287  0.8783
 7303SOL    HW133371   0.068   4.663   2.285 -0.2799 -0.1380  0.8582
 7303SOL    HW233372   4.686   4.640   2.373 -1.2672  1.0935  0.8717
 7304SOL     OW33373   1.764   3.745   7.081  0.0970 -0.7979 -0.1052
 7304SOL    HW133374   1.673   3.716   7.073  0.7670 -2.2257 -2.7747
 7304SOL    HW233375   1.740   3.828   7.122  1.6068  0.4881 -1.8032
 7305SOL     OW33376   3.165   0.627   5.486 -0.2923 -0.2289 -0.5340
 7305SOL    HW133377   3.205   0.598   5.404  0.0887 -1.1514 -0.0239
 7305SOL    HW233378   3.075   0.596   5.475 -0.7050  0.6542  0.3103
 7306SOL     OW33379   0.309   3.348  15.993  1.0752 -0.2561  0.2350
 7306SOL    HW133380   0.333   3.256  15.985  0.8603 -0.3295  0.4566
 7306SOL    HW233381   0.395   3.389  16.005  0.7358 -0.0750  2.0388
 7307SOL     OW33382   2.294   3.201  11.583 -0.2436 -0.4217 -0.5833
 7307SOL    HW133383   2.371   3.252  11.558 -0.9889  0.2642 -1.5018
 7307SOL    HW233384   2.306   3.120  11.534 -0.0770  0.2627 -1.6898
 7308SOL     OW33385   4.047   4.712  14.716 -0.1678  0.2507 -0.0428
 7308SOL    HW133386   3.999   0.002  14.634  2.6954  0.0289 -1.7649
 7308SOL    HW233387   4.137   4.706  14.683  0.1793 -1.1832  1.1888
 7309SOL     OW33388   2.433   3.855  15.990  0.0904  0.1348  0.1758
 7309SOL    HW133389   2.389   3.933  16.023 -0.7953 -0.6744  0.9202
 7309SOL    HW233390   2.465   3.891  15.908  2.9036 -0.4335  1.0192
 7310SOL     OW33391   4.043   0.001   2.678  0.3378  0.3196 -0.5956
 7310SOL    HW133392   4.005   4.696   2.760  1.9351  0.2767  0.1362
 7310SOL    HW233393   4.036   4.643   2.633  1.0579  0.0960 -0.3072
 7311SOL     OW33394   3.390   3.374   4.896 -0.3646 -0.1053 -0.0485
 7311SOL    HW133395   3.354   3.294   4.934  1.1020 -0.8189 -0.1994
 7311SOL    HW233396   3.372   3.363   4.803  1.2751 -0.1775 -0.3474
 7312SOL     OW33397   1.143   1.215   6.949 -0.3484 -0.9622 -0.3738
 7312SOL    HW133398   1.102   1.145   7.000 -0.2801  0.5801  1.8009
 7312SOL    HW233399   1.232   1.208   6.984 -0.0407 -1.2535 -1.2117
 7313SOL     OW33400   1.935   0.909   2.479 -0.0226 -0.3592  0.5376
 7313SOL    HW133401   1.871   0.975   2.454  0.5077 -1.4044 -3.6379
 7313SOL    HW233402   1.896   0.835   2.432 -2.8873  0.3063  1.9244
 7314SOL     OW33403   1.201   2.217  14.155  0.3977 -0.1158 -0.4724
 7314SOL    HW133404   1.246   2.262  14.227 -1.3575  1.1530 -0.1668
 7314SOL    HW233405   1.126   2.178  14.201 -0.8427  1.5426 -1.0540
 7315SOL     OW33406   4.036   0.249   8.524 -0.2712 -0.0501  0.1769
 7315SOL    HW133407   4.118   0.295   8.505  0.2478 -1.5243 -1.1357
 7315SOL    HW233408   4.046   0.186   8.453 -1.4788 -0.4847  0.3924
 7316SOL     OW33409   3.903   1.596   4.190  0.2482  0.1861 -0.2766
 7316SOL    HW133410   3.956   1.519   4.210  0.7311  0.9106  1.2673
 7316SOL    HW233411   3.937   1.628   4.107 -0.1835 -0.7843 -0.8268
 7317SOL     OW33412   4.209   4.622   8.045 -0.2925 -0.0314  0.1158
 7317SOL    HW133413   4.207   4.527   8.034  0.0671 -0.1549  1.1070
 7317SOL    HW233414   4.263   4.650   7.972 -1.7841 -1.1839 -1.4345
 7318SOL     OW33415   4.354   1.271   3.806  0.2887  0.2946  0.0662
 7318SOL    HW133416   4.420   1.332   3.839  1.2790 -0.7073 -0.0647
 7318SOL    HW233417   4.368   1.267   3.712  1.9792 -2.2494  0.4118
 7319SOL     OW33418   2.790   4.420   2.659 -0.0474  0.3334 -0.4009
 7319SOL    HW133419   2.699   4.435   2.685  0.1996 -1.2063  1.3762
 7319SOL    HW233420   2.823   4.426   2.748 -0.4967  1.1904 -0.2933
 7320SOL     OW33421   2.470   4.512   9.327  0.5070 -0.3279  0.4784
 7320SOL    HW133422   2.524   4.447   9.282  2.1802  1.2728  0.1868
 7320SOL    HW233423   2.536   4.530   9.394  0.7799  1.7593 -0.3605
 7321SOL     OW33424   4.248   2.961  14.567  0.1978 -0.0850  0.1626
 7321SOL    HW133425   4.306   3.016  14.513 -0.4411  0.4185 -0.0085
 7321SOL    HW233426   4.243   3.010  14.648  3.1090  1.5780 -0.6439
 7322SOL     OW33427   2.593   4.482   2.242  0.3480  0.3119  0.2837
 7322SOL    HW133428   2.550   4.402   2.212  1.3365  0.6366 -1.9387
 7322SOL    HW233429   2.680   4.474   2.204 -0.2843  0.1414 -1.1095
 7323SOL     OW33430   4.386   0.968   0.455  0.4560  0.3165  0.7961
 7323SOL    HW133431   4.379   1.061   0.475  3.2668  1.0606 -1.5778
 7323SOL    HW233432   4.465   0.975   0.401  0.4246  0.8109  0.8164
 7324SOL     OW33433   4.605   2.747   1.823 -0.3687 -0.3404  0.1054
 7324SOL    HW133434   4.578   2.699   1.744  0.7199  0.6406 -0.8552
 7324SOL    HW233435   4.692   2.767   1.790 -1.0397  0.4895 -1.1517
 7325SOL     OW33436   4.596   0.958   7.928  0.1056  0.7841 -0.4217
 7325SOL    HW133437   4.682   0.932   7.961 -0.8229 -1.2732  0.3666
 7325SOL    HW233438   4.585   0.916   7.842 -0.0298  0.2513 -0.1423
 7326SOL     OW33439   4.571   2.078  10.386 -0.2566 -0.1432 -0.1685
 7326SOL    HW133440   4.556   2.051  10.476 -1.9533 -1.2080 -0.7834
 7326SOL    HW233441   4.651   2.130  10.397  0.2797 -1.4089  1.8718
 7327SOL     OW33442   0.379   2.818  16.378  0.0987 -0.3829 -0.5670
 7327SOL    HW133443   0.374   2.793  16.471 -1.2071  2.0233 -0.0081
 7327SOL    HW233444   0.438   2.746  16.355 -0.3689 -1.0054  0.1676
 7328SOL     OW33445   1.292   0.260   6.146 -0.2344 -0.0378 -0.2972
 7328SOL    HW133446   1.285   0.329   6.212 -0.0677 -0.8559  0.5670
 7328SOL    HW233447   1.200   0.262   6.119 -0.3006  2.0909  0.0800
 7329SOL     OW33448   3.157   0.103   3.436  0.3399  0.1288  0.0961
 7329SOL    HW133449   3.205   0.037   3.486 -2.7913 -1.1163  1.4424
 7329SOL    HW233450   3.118   0.156   3.505  1.5895 -0.0118  0.9091
 7330SOL     OW33451   2.999   1.104   3.036  0.2853  0.0351 -0.2486
 7330SOL    HW133452   3.018   1.120   3.128 -0.1099 -1.9708  0.1970
 7330SOL    HW233453   2.969   1.014   3.046 -0.5507  0.5086  1.4783
 7331SOL     OW33454   2.205   4.121   7.113  0.1110 -0.1743  0.4444
 7331SOL    HW133455   2.117   4.086   7.125  0.2750 -0.6648  0.2352
 7331SOL    HW233456   2.198   4.207   7.072  0.9983 -0.6663 -0.7509
 7332SOL     OW33457   4.367   4.053  13.300 -0.1029 -0.0302 -0.1442
 7332SOL    HW133458   4.385   3.961  13.278 -0.1792 -0.0634 -0.0699
 7332SOL    HW233459   4.447   4.060  13.352 -0.0087 -0.1385 -0.2746
 7333SOL     OW33460   2.737   1.546   4.697 -0.0455 -0.1675  0.7424
 7333SOL    HW133461   2.689   1.571   4.618 -0.3610  1.7288  1.5229
 7333SOL    HW233462   2.689   1.592   4.766 -1.4312 -2.5177  1.3464
 7334SOL     OW33463   3.225   0.944   7.638  0.3754  0.2760  0.6406
 7334SOL    HW133464   3.259   0.978   7.555 -1.1783 -0.0982 -0.1354
 7334SOL    HW233465   3.165   0.881   7.600  0.3136 -0.9628  2.8090
 7335SOL     OW33466   1.512   0.298  16.319 -0.8287  0.2085 -0.0215
 7335SOL    HW133467   1.529   0.223  16.376  0.2464 -0.2607 -0.9666
 7335SOL    HW233468   1.600   0.336  16.313  0.5326 -2.7894  1.2090
 7336SOL     OW33469   1.360   3.866   5.063 -0.1740  0.0540  0.4610
 7336SOL    HW133470   1.426   3.908   5.119  0.1368 -0.3356  0.3879
 7336SOL    HW233471   1.417   3.813   5.007  2.2806  0.1555  2.8321
 7337SOL     OW33472   2.865   0.077   3.369 -0.4407  0.2103  0.1590
 7337SOL    HW133473   2.832   0.163   3.396 -0.4839 -0.0635  0.9672
 7337SOL    HW233474   2.959   0.080   3.385 -0.5085  1.2639  0.3931
 7338SOL     OW33475   0.651   0.262   8.177  0.7341 -0.4770 -0.0231
 7338SOL    HW133476   0.625   0.347   8.143  1.6231  0.4701  1.6757
 7338SOL    HW233477   0.674   0.216   8.096 -2.0472 -0.9670 -0.5531
 7339SOL     OW33478   4.395   2.331   2.255 -0.1841 -0.4402 -0.5861
 7339SOL    HW133479   4.352   2.340   2.340  2.5219  2.0203  0.5139
 7339SOL    HW233480   4.337   2.263   2.220 -0.7154  1.2598 -2.9516
 7340SOL     OW33481   3.616   4.359  10.578 -0.2223 -0.4694  0.3661
 7340SOL    HW133482   3.596   4.412  10.656 -1.2038  1.3975 -1.1358
 7340SOL    HW233483   3.700   4.316  10.590 -0.6811 -1.6223 -0.5963
 7341SOL     OW33484   2.500   2.990   5.281  0.2670  0.4080  0.4228
 7341SOL    HW133485   2.415   3.001   5.238  0.1979 -0.9024  0.2032
 7341SOL    HW233486   2.515   3.080   5.309  1.1635 -0.0127  1.2959
 7342SOL     OW33487   3.517   1.109   0.751 -0.1300  0.0611 -0.8001
 7342SOL    HW133488   3.425   1.090   0.771  0.2996  0.6442  1.7167
 7342SOL    HW233489   3.518   1.100   0.656  0.1298  0.2194 -0.8110
 7343SOL     OW33490   4.604   0.470   8.433 -0.2137  0.0116 -0.1921
 7343SOL    HW133491   4.618   0.378   8.452  0.0785 -0.2597 -1.6944
 7343SOL    HW233492   4.610   0.487   8.527 -1.0325 -0.1430 -0.1139
 7344SOL     OW33493   0.084   1.835   3.474 -0.3954 -0.3236  0.1733
 7344SOL    HW133494   0.150   1.784   3.521  0.4160  2.0576  1.6429
 7344SOL    HW233495   0.045   1.888   3.544 -0.8948 -0.3346 -0.0963
 7345SOL     OW33496   4.114   4.341   7.075  0.2619 -0.6372  0.0406
 7345SOL    HW133497   4.039   4.369   7.129  0.6782 -0.2360  0.4081
 7345SOL    HW233498   4.141   4.265   7.125 -1.1905 -0.1282  1.6253
 7346SOL     OW33499   3.061   1.579   7.771  0.0602  0.6975  0.3752
 7346SOL    HW133500   2.987   1.626   7.730  0.6472  0.2117 -1.2327
 7346SOL    HW233501   3.105   1.542   7.695 -2.0637 -0.2503 -0.3948
 7347SOL     OW33502   4.491   2.503   0.304 -0.0547  0.1914  0.6712
 7347SOL    HW133503   4.429   2.431   0.318  1.4023 -1.0002  1.0700
 7347SOL    HW233504   4.576   2.461   0.314  0.1919  0.9379  1.7629
 7348SOL     OW33505   3.501   0.758   1.608 -0.6843  0.6421 -0.0394
 7348SOL    HW133506   3.481   0.805   1.689 -2.1058  0.2020 -0.1455
 7348SOL    HW233507   3.426   0.759   1.549 -0.8002 -1.1994  0.0869
 7349SOL     OW33508   3.473   2.448   6.638 -0.2373  0.0553  0.0932
 7349SOL    HW133509   3.395   2.497   6.613 -1.5263 -0.4361  3.1087
 7349SOL    HW233510   3.429   2.404   6.711  3.1015 -2.0739  0.8088
 7350SOL     OW33511   2.254   3.090   4.880  0.2588 -0.2125  0.0313
 7350SOL    HW133512   2.185   3.039   4.837  1.3024 -2.4876  1.0718
 7350SOL    HW233513   2.230   3.170   4.834  2.6716  0.1220 -0.6007
 7351SOL     OW33514   1.441   2.074  17.306  0.4650 -0.4889  0.0512
 7351SOL    HW133515   1.497   2.137  17.260 -1.1870  0.1325 -1.0882
 7351SOL    HW233516   1.424   2.018  17.231 -1.6250 -0.9274  0.8382
 7352SOL     OW33517   1.075   2.384   1.358  0.3044  0.4143  0.5486
 7352SOL    HW133518   1.077   2.478   1.342 -0.1726 -0.0097 -2.0760
 7352SOL    HW233519   1.167   2.362   1.365  1.1660  3.1449 -2.0797
 7353SOL     OW33520   0.067   0.500   6.377  0.4064 -0.8285 -0.0990
 7353SOL    HW133521   0.141   0.550   6.342  2.3899 -1.3695  3.3802
 7353SOL    HW233522   0.059   0.431   6.311 -0.2425  0.8334 -1.7373
 7354SOL     OW33523   0.659   4.065   6.029  0.2251  0.0979  0.1103
 7354SOL    HW133524   0.709   3.984   6.035  2.1200  1.3158  0.7942
 7354SOL    HW233525   0.622   4.057   5.941 -1.6266  0.0842  0.8900
 7355SOL     OW33526   1.211   1.127   4.824  1.0787  0.2805 -0.2964
 7355SOL    HW133527   1.234   1.200   4.881 -1.2130  0.6365  0.1737
 7355SOL    HW233528   1.155   1.077   4.884 -0.6908  0.6115 -1.6578
 7356SOL     OW33529   0.269   2.640   3.612 -0.0524 -0.1376 -0.1165
 7356SOL    HW133530   0.295   2.728   3.584  0.4110 -0.6557 -1.3592
 7356SOL    HW233531   0.201   2.619   3.548 -0.5949  0.0985  0.3840
 7357SOL     OW33532   2.269   0.179   2.232 -0.0660 -0.0224 -0.5233
 7357SOL    HW133533   2.323   0.123   2.287 -0.3632 -2.1538 -2.3820
 7357SOL    HW233534   2.204   0.114   2.206  3.1458 -3.6761  0.7417
 7358SOL     OW33535   0.685   0.240   4.413  0.6306  0.2669  0.1011
 7358SOL    HW133536   0.762   0.184   4.427 -1.0095 -2.2636 -0.9930
 7358SOL    HW233537   0.677   0.228   4.319 -3.5231 -3.2184  0.9251
 7359SOL     OW33538   1.777   4.035  11.571 -0.1450 -0.2636 -0.6208
 7359SOL    HW133539   1.872   4.045  11.568  0.0091 -1.2044  0.7802
 7359SOL    HW233540   1.749   4.116  11.528 -0.4870 -0.1373 -0.1571
 7360SOL     OW33541   1.099   0.818  13.427  0.6391  0.0472  0.0564
 7360SOL    HW133542   1.046   0.739  13.421 -0.4993  0.8135 -0.0270
 7360SOL    HW233543   1.044   0.892  13.401 -2.0285 -2.0985 -0.3360
 7361SOL     OW33544   4.239   3.985   5.088  0.4021  1.1078  0.0211
 7361SOL    HW133545   4.276   4.058   5.039  1.7173 -1.0353 -2.2049
 7361SOL    HW233546   4.240   3.912   5.026  1.7489  0.7578  0.4511
 7362SOL     OW33547   0.132   3.294   9.881  0.1544  0.3170  0.0083
 7362SOL    HW133548   0.093   3.294   9.794 -0.0249  1.5765  0.0999
 7362SOL    HW233549   0.223   3.288   9.854 -0.3981 -0.3521 -1.6810
 7363SOL     OW33550   4.505   2.086   5.804 -0.1367  0.6439  0.1598
 7363SOL    HW133551   4.554   2.077   5.722  0.9116 -0.3013  0.8819
 7363SOL    HW233552   4.554   2.027   5.861  0.4873 -0.5450 -1.6128
 7364SOL     OW33553   3.318   0.692   4.874 -0.2408 -0.2230  0.1964
 7364SOL    HW133554   3.260   0.677   4.799 -0.0484  0.7603 -0.1455
 7364SOL    HW233555   3.380   0.757   4.841 -2.2355  2.3274  1.4826
 7365SOL     OW33556   1.097   2.661  13.289 -0.3803 -0.2746  0.4273
 7365SOL    HW133557   1.004   2.675  13.274 -0.6363 -2.3247  0.1073
 7365SOL    HW233558   1.127   2.752  13.282 -1.7747 -0.0184 -2.0016
 7366SOL     OW33559   0.394   0.120   8.184  0.4554  0.1111 -0.1393
 7366SOL    HW133560   0.446   0.063   8.128 -0.0137  0.8911 -1.3491
 7366SOL    HW233561   0.456   0.184   8.218  0.5102  0.0980 -0.2164
 7367SOL     OW33562   0.024   2.628   2.074 -0.2608  0.5612  0.8458
 7367SOL    HW133563   0.045   2.596   2.162 -0.8110 -0.1987  0.6976
 7367SOL    HW233564   4.668   2.581   2.059  0.6492  0.3078 -3.3376
 7368SOL     OW33565   2.464   2.819   8.274 -0.2205 -0.1216  0.1103
 7368SOL    HW133566   2.387   2.802   8.328  0.2116 -0.1974  0.7066
 7368SOL    HW233567   2.528   2.783   8.335  1.1627  3.0304  0.5307
 7369SOL     OW33568   0.857   0.990  14.966  0.5903 -0.4007  0.1047
 7369SOL    HW133569   0.779   1.046  14.969  0.1432 -1.0074 -0.0582
 7369SOL    HW233570   0.878   0.994  14.873 -0.9617 -3.9322 -0.4296
 7370SOL     OW33571   0.424   3.248   6.472 -0.6945 -0.5020  0.3185
 7370SOL    HW133572   0.480   3.255   6.395 -1.2061 -1.3458 -0.1274
 7370SOL    HW233573   0.405   3.155   6.481 -0.3423 -0.5345  0.7601
 7371SOL     OW33574   2.543   2.297   3.097  0.4832  0.5755  0.0545
 7371SOL    HW133575   2.515   2.375   3.050  0.0059  0.2134 -0.2598
 7371SOL    HW233576   2.467   2.239   3.088  0.9687  0.1844 -1.4943
 7372SOL     OW33577   2.085   4.112   2.710 -0.1254  0.1674 -0.4598
 7372SOL    HW133578   2.079   4.016   2.704 -1.4718  0.2872 -1.0646
 7372SOL    HW233579   2.178   4.134   2.710  0.0016 -0.3474 -0.9450
 7373SOL     OW33580   4.643   0.472   8.753 -0.8365  0.1269  0.0593
 7373SOL    HW133581   4.625   0.383   8.783  0.0865 -0.0088  0.2129
 7373SOL    HW233582   4.596   0.511   8.827 -1.8663 -0.7438 -0.1326
 7374SOL     OW33583   3.945   2.032   0.399 -0.1462  0.7927 -0.0768
 7374SOL    HW133584   4.002   2.102   0.430 -0.4584  0.7135  0.6797
 7374SOL    HW233585   3.979   2.019   0.311 -0.2566  0.1535 -0.0243
 7375SOL     OW33586   1.844   2.415   2.788 -0.5436 -0.3134  0.0551
 7375SOL    HW133587   1.882   2.479   2.728 -1.3393  0.8356  0.7913
 7375SOL    HW233588   1.753   2.408   2.760 -0.2430 -1.1424 -0.7312
 7376SOL     OW33589   3.616   0.024   8.302  0.4372  0.1486  0.1168
 7376SOL    HW133590   3.701   4.710   8.283  1.4163  1.1176  2.4317
 7376SOL    HW233591   3.619   0.116   8.277  0.4495  0.5770  1.7118
 7377SOL     OW33592   0.410   3.593  14.471  0.6316 -0.0228  0.5592
 7377SOL    HW133593   0.388   3.634  14.388  0.5556 -1.0121  0.0881
 7377SOL    HW233594   0.447   3.515  14.429 -1.0522  0.0138 -0.9788
 7378SOL     OW33595   1.522   0.797   9.367  0.1264  0.5441  0.7647
 7378SOL    HW133596   1.609   0.765   9.390  0.7949  0.2790 -2.1136
 7378SOL    HW233597   1.481   0.810   9.452  1.1120 -0.8855  1.4664
 7379SOL     OW33598   3.853   3.148   8.113 -0.6350  0.1497  0.2890
 7379SOL    HW133599   3.847   3.208   8.188 -2.6504 -1.0564  1.0962
 7379SOL    HW233600   3.888   3.067   8.151 -0.9025 -0.5314 -0.9350
 7380SOL     OW33601   0.615   2.167   2.722  0.0884  0.5910  0.1529
 7380SOL    HW133602   0.633   2.098   2.786 -0.9837 -0.0020 -0.2029
 7380SOL    HW233603   0.653   2.246   2.760  1.6829  1.0247 -2.3162
 7381SOL     OW33604   2.915   4.279   1.292  0.5357 -0.1115  0.1338
 7381SOL    HW133605   2.910   4.310   1.201  0.4724 -2.8730 -0.7947
 7381SOL    HW233606   2.912   4.184   1.283 -0.5428 -0.1236  0.6318
 7382SOL     OW33607   2.109   3.016  15.871  0.2015 -0.0438 -0.2683
 7382SOL    HW133608   2.065   3.056  15.945 -0.8617  0.2205 -1.0449
 7382SOL    HW233609   2.050   2.944  15.849  0.0063  0.3145 -0.9231
 7383SOL     OW33610   0.591   2.553   1.487 -0.4855 -0.9229  0.3929
 7383SOL    HW133611   0.665   2.545   1.427 -0.3803  2.4237  0.0794
 7383SOL    HW233612   0.617   2.487   1.551 -0.9193  1.2811  2.8088
 7384SOL     OW33613   4.128   0.677   8.603  0.1435 -0.2244 -0.2272
 7384SOL    HW133614   4.099   0.754   8.651  0.3528 -1.5677  2.0249
 7384SOL    HW233615   4.045   0.637   8.628 -0.5500  1.1496 -0.3295
 7385SOL     OW33616   2.413   0.959   2.134 -0.1978  0.4802 -0.0802
 7385SOL    HW133617   2.465   0.879   2.128 -0.1438  0.4398  0.8704
 7385SOL    HW233618   2.408   0.976   2.040  0.6212 -1.2801 -0.4372
 7386SOL     OW33619   3.141   3.550   7.662  0.1815 -0.2757  0.1135
 7386SOL    HW133620   3.134   3.508   7.748  2.1829 -1.1495 -0.1415
 7386SOL    HW233621   3.234   3.558   7.641  0.5135  1.9665  2.5741
 7387SOL     OW33622   3.353   4.364   3.016 -0.0278  0.7568 -1.1802
 7387SOL    HW133623   3.425   4.312   3.052 -1.3664 -0.1567  0.1712
 7387SOL    HW233624   3.353   4.335   2.925  1.1171 -1.9024 -0.3249
 7388SOL     OW33625   2.174   4.613   1.826  0.5751 -0.3968 -0.2091
 7388SOL    HW133626   2.102   4.557   1.795  0.5351 -0.9207  0.8472
 7388SOL    HW233627   2.223   4.626   1.745  2.6703  0.5380  1.2196
 7389SOL     OW33628   1.739   4.404   8.531 -0.1862  0.4711  0.5835
 7389SOL    HW133629   1.737   4.487   8.579 -2.2445  0.6972  0.1218
 7389SOL    HW233630   1.690   4.420   8.450  0.5110  0.2449  0.1204
 7390SOL     OW33631   0.454   3.048  16.244 -0.5939  0.3984  0.3004
 7390SOL    HW133632   0.411   2.973  16.284  0.4814 -0.1048  0.5183
 7390SOL    HW233633   0.529   3.055  16.304  0.6293 -0.8753 -1.0827
 7391SOL     OW33634   2.353   2.334  14.733 -0.0819  0.2741 -0.8092
 7391SOL    HW133635   2.448   2.337  14.717  0.3802 -2.4584  1.4773
 7391SOL    HW233636   2.327   2.422  14.707 -0.1011  0.5237  0.0493
 7392SOL     OW33637   2.108   2.406   3.000  0.3395  0.2770 -0.5696
 7392SOL    HW133638   2.168   2.410   2.926  0.9951 -1.3335 -0.1327
 7392SOL    HW233639   2.021   2.404   2.958  0.4049 -0.8190 -0.6486
 7393SOL     OW33640   4.543   2.101  15.931  0.1726 -0.2036 -0.3594
 7393SOL    HW133641   4.563   2.094  15.838 -0.1130 -1.1602 -0.3472
 7393SOL    HW233642   4.510   2.016  15.959 -0.1376  0.2248  0.5723
 7394SOL     OW33643   2.875   4.145   5.913  0.1589 -0.1919  0.0597
 7394SOL    HW133644   2.914   4.146   5.825 -0.8309  0.0764 -0.3779
 7394SOL    HW233645   2.955   4.183   5.951 -0.0396 -1.5800  1.8395
 7395SOL     OW33646   4.260   1.540   8.072  0.1407  0.2811 -0.4175
 7395SOL    HW133647   4.263   1.449   8.042  1.7040  0.8039 -1.8429
 7395SOL    HW233648   4.338   1.562   8.123 -1.5727 -0.8667  2.6736
 7396SOL     OW33649   0.034   3.829  14.202 -0.1374  0.4105 -0.3037
 7396SOL    HW133650   4.682   3.881  14.219  0.7853  1.7981 -0.3497
 7396SOL    HW233651   4.709   3.752  14.177 -0.7784  0.8020 -0.2141
 7397SOL     OW33652   3.294   0.338   7.070  0.0909 -0.0072  0.0470
 7397SOL    HW133653   3.306   0.322   7.164  2.5452  2.5048  0.1729
 7397SOL    HW233654   3.291   0.434   7.073  0.5003  0.0085  0.0357
 7398SOL     OW33655   4.342   1.302   2.057 -0.1242 -0.0086  0.1650
 7398SOL    HW133656   4.410   1.239   2.082 -1.4244 -1.6574 -0.4530
 7398SOL    HW233657   4.406   1.373   2.057 -0.0407 -0.0885  0.9032
 7399SOL     OW33658   2.376   2.390   5.361 -0.0607 -0.3902 -0.2961
 7399SOL    HW133659   2.367   2.359   5.451 -1.3313  0.1509 -0.2378
 7399SOL    HW233660   2.470   2.410   5.366  0.1201 -0.8641 -1.6827
 7400SOL     OW33661   1.906   3.024   6.750 -0.6542 -0.1773 -0.5789
 7400SOL    HW133662   1.929   2.931   6.747  0.5596  0.1194 -0.1024
 7400SOL    HW233663   1.982   3.060   6.705 -0.9181 -0.9696 -1.6842
 7401SOL     OW33664   2.283   4.719  15.598 -0.2388 -0.2184  0.3476
 7401SOL    HW133665   2.375   4.692  15.595 -0.6694 -2.1047  3.5884
 7401SOL    HW233666   2.266   0.025  15.510 -1.4820  1.3251  1.1486
 7402SOL     OW33667   1.507   1.660   6.478  0.0758  0.2661 -0.1776
 7402SOL    HW133668   1.535   1.652   6.387 -0.8329 -0.8702 -0.3533
 7402SOL    HW233669   1.507   1.756   6.482 -1.7245  0.3243 -1.3440
 7403SOL     OW33670   2.834   3.176   6.239 -0.6169 -0.0807 -0.0379
 7403SOL    HW133671   2.885   3.193   6.160  0.6392  0.4040  0.8837
 7403SOL    HW233672   2.778   3.254   6.245 -0.7428 -0.2323  0.7253
 7404SOL     OW33673   2.243   1.689  12.930  0.0698  0.3564 -0.2256
 7404SOL    HW133674   2.235   1.739  13.011  0.7406 -0.1836  0.1674
 7404SOL    HW233675   2.312   1.631  12.961 -0.8261 -0.8976 -0.5857
 7405SOL     OW33676   1.537   4.589   4.848 -0.0065  0.2635 -0.5373
 7405SOL    HW133677   1.569   4.673   4.816  0.2081 -0.1651 -1.4618
 7405SOL    HW233678   1.620   4.548   4.872 -0.8042  0.0194  1.7782
 7406SOL     OW33679   2.755   1.656  10.341 -0.1801 -0.7898 -0.1796
 7406SOL    HW133680   2.851   1.663  10.344 -0.4655  3.4532 -2.1448
 7406SOL    HW233681   2.746   1.720  10.271  0.4046 -2.5667 -1.8731
 7407SOL     OW33682   4.267   0.875   8.995  0.5213 -0.2251  0.0889
 7407SOL    HW133683   4.252   0.832   9.079  2.5648  1.3822  1.2653
 7407SOL    HW233684   4.277   0.795   8.943 -2.2765  0.4161 -1.4136
 7408SOL     OW33685   2.565   1.553   9.328 -0.2523 -0.3840 -0.3066
 7408SOL    HW133686   2.492   1.531   9.270  0.4688  0.3283 -1.4864
 7408SOL    HW233687   2.548   1.502   9.407 -0.3490 -2.3187 -1.5646
 7409SOL     OW33688   4.679   2.171   2.167  0.1959  0.7936  0.3044
 7409SOL    HW133689   4.618   2.244   2.150 -1.0619  0.2462  2.4428
 7409SOL    HW233690   4.642   2.100   2.115 -0.3311 -0.3891  2.2944
 7410SOL     OW33691   0.636   2.858  10.031 -0.0996 -0.3965  0.3492
 7410SOL    HW133692   0.703   2.822   9.973  0.4692 -0.7797  1.2365
 7410SOL    HW233693   0.558   2.830   9.983  0.0727  3.7405 -2.2707
 7411SOL     OW33694   2.240   2.910  10.061  0.5539 -0.0298  0.3187
 7411SOL    HW133695   2.169   2.850  10.084 -1.0986  1.3568 -1.1679
 7411SOL    HW233696   2.303   2.854  10.106 -0.4623 -2.9282 -1.8484
 7412SOL     OW33697   2.551   2.023  16.548 -0.3767  0.1444  0.3943
 7412SOL    HW133698   2.604   1.971  16.608  0.3492 -1.0035 -1.2472
 7412SOL    HW233699   2.485   2.069  16.600  0.4136 -1.1018  2.4573
 7413SOL     OW33700   3.789   2.310  16.068  0.3603  0.3280  0.2830
 7413SOL    HW133701   3.806   2.226  16.112 -2.6927  0.1322  1.1526
 7413SOL    HW233702   3.721   2.284  16.006  1.3818  0.9902 -1.1036
 7414SOL     OW33703   0.438   3.085   4.092  0.1972 -0.4932 -0.4072
 7414SOL    HW133704   0.361   3.073   4.148  1.4612  0.1110  1.4439
 7414SOL    HW233705   0.398   3.085   4.005  1.7970  2.3896 -1.1123
 7415SOL     OW33706   1.787   0.503  11.451  0.0820 -0.0357  0.1233
 7415SOL    HW133707   1.863   0.552  11.483 -0.8860  1.3520  0.2716
 7415SOL    HW233708   1.750   0.555  11.380 -0.3844  1.4431  1.4570
 7416SOL     OW33709   2.768   0.477   7.971  0.7440  0.2162 -0.3106
 7416SOL    HW133710   2.713   0.453   7.896  1.1703 -0.6463 -0.3393
 7416SOL    HW233711   2.726   0.420   8.035 -0.6056  0.7132 -0.7297
 7417SOL     OW33712   3.195   3.771   3.627  0.1572  0.3244  0.5435
 7417SOL    HW133713   3.144   3.839   3.582  0.7871  1.4103  1.4555
 7417SOL    HW233714   3.232   3.825   3.697 -1.2791  1.3454  0.5076
 7418SOL     OW33715   2.330   1.868   9.726 -0.5854 -0.1585 -0.0467
 7418SOL    HW133716   2.294   1.803   9.786  1.2838  1.7580  3.1407
 7418SOL    HW233717   2.390   1.912   9.786  0.4475  0.9253 -1.8692
 7419SOL     OW33718   4.465   1.459  11.513  0.2358 -0.3627 -0.2367
 7419SOL    HW133719   4.549   1.503  11.533  1.0140 -1.6683 -0.6560
 7419SOL    HW233720   4.429   1.431  11.597 -1.6066 -0.6395 -1.1403
 7420SOL     OW33721   3.498   0.859   4.691  0.5549  0.0008 -0.3262
 7420SOL    HW133722   3.514   0.785   4.632  1.9657  0.1851 -0.1560
 7420SOL    HW233723   3.583   0.902   4.700  0.9361 -1.0611  1.1023
 7421SOL     OW33724   4.583   1.963  15.664 -0.0315 -0.8779 -0.3698
 7421SOL    HW133725   4.646   1.905  15.623 -0.1285 -0.0159 -1.7628
 7421SOL    HW233726   4.509   1.960  15.603 -1.3669  0.8657  1.1457
 7422SOL     OW33727   4.193   3.656   6.592  0.4104 -0.0819 -0.1159
 7422SOL    HW133728   4.249   3.729   6.566  0.1245  0.4811  0.8287
 7422SOL    HW233729   4.240   3.627   6.670  1.4401  1.7824 -0.0572
 7423SOL     OW33730   3.317   1.760   6.137  0.4227 -0.5206 -0.3305
 7423SOL    HW133731   3.286   1.837   6.088  1.5128  0.0426 -0.1371
 7423SOL    HW233732   3.384   1.811   6.182  0.6714 -1.6462  0.5573
 7424SOL     OW33733   3.477   1.918   6.270  0.5049  0.0223  0.0240
 7424SOL    HW133734   3.549   1.856   6.285  1.6011  0.9808 -1.2721
 7424SOL    HW233735   3.519   1.990   6.315  1.5756 -0.1754 -0.6565
 7425SOL     OW33736   3.910   3.462  14.401  0.2626 -0.3411  0.3854
 7425SOL    HW133737   3.898   3.474  14.307 -1.1650 -1.0178  0.4913
 7425SOL    HW233738   3.820   3.461  14.432 -0.0784 -1.3209 -0.6671
 7426SOL     OW33739   2.349   1.723   8.727  0.1117 -0.1608 -0.1651
 7426SOL    HW133740   2.388   1.640   8.755 -1.0550 -0.4649  0.5582
 7426SOL    HW233741   2.405   1.743   8.651 -0.6107 -2.6319 -1.3520
 7427SOL     OW33742   1.612   2.905  13.128 -0.0708  0.4749  0.7925
 7427SOL    HW133743   1.669   2.838  13.164  1.2513  0.1827 -1.8014
 7427SOL    HW233744   1.532   2.856  13.146  0.7959 -0.8939  0.9088
 7428SOL     OW33745   1.589   3.230   6.284  0.0605 -0.3988 -0.6276
 7428SOL    HW133746   1.513   3.286   6.300  1.0704  0.3439  1.5385
 7428SOL    HW233747   1.546   3.159   6.236 -1.3564 -1.2301  1.8068
 7429SOL     OW33748   1.323   3.607  12.346  0.4639  0.2352 -0.4761
 7429SOL    HW133749   1.381   3.538  12.314  0.2881  0.0419 -0.3818
 7429SOL    HW233750   1.371   3.690  12.349 -0.1504  0.6060 -0.8761
 7430SOL     OW33751   2.441   0.880   4.968  0.4691 -0.1385 -0.4530
 7430SOL    HW133752   2.472   0.816   4.904  1.4129 -1.8300  1.6618
 7430SOL    HW233753   2.503   0.952   4.956 -0.0521  0.6112  1.3021
 7431SOL     OW33754   1.623   1.437   9.005 -0.3214 -0.6753 -0.4174
 7431SOL    HW133755   1.694   1.375   8.990  0.2428 -0.1926  0.2568
 7431SOL    HW233756   1.656   1.479   9.085 -0.3922 -0.5387 -0.4586
 7432SOL     OW33757   0.074   4.111   6.349 -0.7729  0.2583  0.2028
 7432SOL    HW133758   0.091   4.181   6.412 -0.2137 -1.4995  2.0277
 7432SOL    HW233759   0.075   4.160   6.268  0.1336  0.0980  0.1156
 7433SOL     OW33760   0.508   4.144   2.071  0.0176  0.3886 -0.1432
 7433SOL    HW133761   0.499   4.113   2.161  0.4643  0.0362 -0.2174
 7433SOL    HW233762   0.571   4.091   2.023  0.3702 -0.0422  0.7949
 7434SOL     OW33763   2.396   3.462   7.408 -0.3665 -0.4205  0.0756
 7434SOL    HW133764   2.383   3.458   7.313  1.8935 -0.6212 -0.2387
 7434SOL    HW233765   2.440   3.378   7.419  1.1063  0.3133 -0.1681
 7435SOL     OW33766   1.983   0.182   8.266  0.2181 -0.2563 -0.5018
 7435SOL    HW133767   1.995   0.238   8.343 -0.4306  1.4304 -1.6252
 7435SOL    HW233768   2.069   0.180   8.225  0.1667  0.0671 -0.6231
 7436SOL     OW33769   4.623   4.525   7.424  0.4928 -0.7787 -0.2041
 7436SOL    HW133770   4.670   4.471   7.360  2.1543  0.7448 -0.2681
 7436SOL    HW233771   4.538   4.482   7.428  0.9946 -1.7991 -0.5772
 7437SOL     OW33772   0.135   2.589  12.729 -0.3447 -0.0316  0.8298
 7437SOL    HW133773   0.151   2.601  12.635  0.5110 -1.3899  0.8031
 7437SOL    HW233774   0.040   2.595  12.736 -0.3146 -0.7390  1.8536
 7438SOL     OW33775   4.403   2.297   7.044  0.0276  0.2682 -0.2253
 7438SOL    HW133776   4.454   2.287   7.125  0.2288 -0.9367 -0.5022
 7438SOL    HW233777   4.387   2.204   7.031  4.3890 -0.1049 -2.7107
 7439SOL     OW33778   4.567   0.486  17.510  0.7062 -0.1351 -0.1007
 7439SOL    HW133779   4.473   0.496  17.526  0.6641 -0.5664 -0.0892
 7439SOL    HW233780   4.597   0.447  17.592 -1.9538 -0.4530  0.7110
 7440SOL     OW33781   0.486   3.177   2.777  0.2375  0.1039 -0.1635
 7440SOL    HW133782   0.464   3.093   2.737 -0.6889  1.5347 -2.6741
 7440SOL    HW233783   0.410   3.234   2.767 -0.7483 -1.2848 -0.5142
 7441SOL     OW33784   0.555   3.136  15.303  0.1225 -0.1390  0.4092
 7441SOL    HW133785   0.481   3.164  15.357  0.2520 -0.3711  0.7076
 7441SOL    HW233786   0.555   3.205  15.238  1.2924 -0.5807 -0.0688
 7442SOL     OW33787   4.086   3.078   0.536  0.1865  0.5741 -0.2534
 7442SOL    HW133788   4.080   3.112   0.447 -0.1288 -0.0665 -0.4762
 7442SOL    HW233789   4.151   3.008   0.529  1.1528  1.7212 -2.8352
 7443SOL     OW33790   1.724   2.115   7.746 -0.9841  0.4406 -0.0166
 7443SOL    HW133791   1.775   2.177   7.694  0.3548  0.0874  0.8942
 7443SOL    HW233792   1.711   2.042   7.686 -2.4994  0.4567  0.2776
 7444SOL     OW33793   2.267   0.662   4.019 -0.6382  0.0723  0.3901
 7444SOL    HW133794   2.275   0.571   3.988 -2.2414 -0.6234  2.0101
 7444SOL    HW233795   2.258   0.704   3.934 -0.5640  1.6641  1.1703
 7445SOL     OW33796   0.561   3.719   5.074 -0.6953  0.3525  0.0180
 7445SOL    HW133797   0.578   3.671   4.993 -2.1195 -0.8580  0.4421
 7445SOL    HW233798   0.480   3.761   5.048 -1.1362 -0.1473  0.5912
 7446SOL     OW33799   3.785   1.230   0.576 -0.1496  0.4060  0.0330
 7446SOL    HW133800   3.725   1.155   0.577  1.4017 -0.8336  0.8315
 7446SOL    HW233801   3.866   1.177   0.577 -0.1511  0.4673  2.4505
 7447SOL     OW33802   3.620   4.243   5.326 -0.3609 -0.1972  0.2827
 7447SOL    HW133803   3.596   4.322   5.277 -0.0785 -1.5385 -1.9738
 7447SOL    HW233804   3.698   4.265   5.377 -0.6624  0.8720  0.2834
 7448SOL     OW33805   0.780   2.021  14.768 -0.5287 -0.5001  0.8844
 7448SOL    HW133806   0.802   2.041  14.859 -1.0863  0.8304  0.7315
 7448SOL    HW233807   0.738   2.103  14.741 -0.0534 -0.2751  0.8422
 7449SOL     OW33808   4.218   1.307  14.125 -0.6450 -0.2039 -0.4334
 7449SOL    HW133809   4.269   1.238  14.081  0.2168  0.0640  0.1439
 7449SOL    HW233810   4.277   1.331  14.197 -0.4845  0.0225 -0.6398
 7450SOL     OW33811   3.821   1.908  12.858 -0.3214 -0.3195  0.2918
 7450SOL    HW133812   3.803   1.996  12.889 -1.8035 -0.3879 -0.3810
 7450SOL    HW233813   3.890   1.889  12.922 -0.4238  0.0905  0.5232
 7451SOL     OW33814   3.771   3.512   5.832  0.1749  0.2301 -0.0857
 7451SOL    HW133815   3.797   3.565   5.757 -0.9806  2.1722  0.8919
 7451SOL    HW233816   3.723   3.451   5.776  2.5854 -2.6621  0.9575
 7452SOL     OW33817   4.677   0.542  15.087 -0.6565  0.5120  0.3111
 7452SOL    HW133818   0.022   0.481  15.066 -2.1215 -0.6497 -1.2637
 7452SOL    HW233819   4.650   0.575  15.001  0.6302 -0.3037 -0.4194
 7453SOL     OW33820   2.892   3.789   2.136  0.0277 -0.7054 -0.1166
 7453SOL    HW133821   2.884   3.883   2.153 -0.5560 -0.7288 -0.2657
 7453SOL    HW233822   2.806   3.767   2.099 -0.3963 -1.5514  1.3583
 7454SOL     OW33823   4.698   0.809  12.378  0.3567 -0.4486  0.2112
 7454SOL    HW133824   4.658   0.775  12.459 -1.0827  0.1074 -0.2683
 7454SOL    HW233825   4.723   0.729  12.333 -0.5993 -0.7735  0.2576
 7455SOL     OW33826   0.161   3.341   9.292 -0.7045  0.0075 -0.1253
 7455SOL    HW133827   0.164   3.365   9.200 -2.5640 -3.4758 -1.0945
 7455SOL    HW233828   0.072   3.364   9.320 -0.3835  2.3942 -1.1452
 7456SOL     OW33829   3.357   4.037   5.099 -0.2908 -0.3870 -0.5848
 7456SOL    HW133830   3.292   4.107   5.101  0.1097 -0.0480  0.4699
 7456SOL    HW233831   3.403   4.051   5.182 -1.3198 -0.4574 -0.0053
 7457SOL     OW33832   1.845   0.297   8.816  0.2099 -0.0750 -0.1640
 7457SOL    HW133833   1.782   0.321   8.749 -1.6564  0.4582  1.8108
 7457SOL    HW233834   1.844   0.378   8.866  1.9994  1.1029 -2.0351
 7458SOL     OW33835   2.916   1.752  11.209 -0.2541  0.0193  0.2797
 7458SOL    HW133836   2.937   1.749  11.116 -0.0848  0.8576  0.2891
 7458SOL    HW233837   2.861   1.831  11.206 -0.2170 -0.0562 -2.2279
 7459SOL     OW33838   3.880   3.650  16.247 -0.0747  0.1368 -0.1818
 7459SOL    HW133839   3.862   3.700  16.168 -0.3907 -3.7295 -2.5751
 7459SOL    HW233840   3.873   3.711  16.321  0.9741 -0.1035  0.1226
 7460SOL     OW33841   1.640   0.354   4.515  0.0457  0.6326 -0.1388
 7460SOL    HW133842   1.563   0.404   4.489 -0.4045  1.4605  2.8157
 7460SOL    HW233843   1.659   0.405   4.593 -0.8383 -1.7641  1.6413
 7461SOL     OW33844   4.035   0.623   5.639 -0.0057 -0.3413  0.3984
 7461SOL    HW133845   3.971   0.694   5.646 -2.8008 -2.7681 -0.1695
 7461SOL    HW233846   4.062   0.631   5.548 -0.5005  0.9315  0.3634
 7462SOL     OW33847   0.235   4.586   4.422 -0.1677  0.0728 -0.2750
 7462SOL    HW133848   0.212   4.666   4.375 -0.0167  0.4918  0.3663
 7462SOL    HW233849   0.148   4.551   4.440  0.1520 -0.5528  0.0698
 7463SOL     OW33850   4.693   0.457   7.054 -0.2312  0.3975  0.2008
 7463SOL    HW133851   4.667   0.393   7.120 -1.8003  2.0741  1.2207
 7463SOL    HW233852   4.610   0.469   7.007  1.8591  0.5561 -3.4281
 7464SOL     OW33853   3.810   1.277  11.694 -0.9023  0.3236 -0.0535
 7464SOL    HW133854   3.905   1.288  11.681 -1.1689  1.7178 -0.8305
 7464SOL    HW233855   3.791   1.249  11.604  1.1968 -0.7580 -0.1708
 7465SOL     OW33856   3.959   4.164  14.181  0.1269 -0.4823 -0.1195
 7465SOL    HW133857   3.865   4.157  14.197 -0.1459  0.6629 -1.1514
 7465SOL    HW233858   3.980   4.074  14.159 -0.0714 -0.8556  1.2369
 7466SOL     OW33859   0.591   4.385  12.097 -0.0242 -0.1299 -0.0309
 7466SOL    HW133860   0.569   4.294  12.080 -0.4053 -0.0955  0.2732
 7466SOL    HW233861   0.655   4.385  12.168  0.9337  0.1224 -0.8986
 7467SOL     OW33862   3.482   1.833   9.299  0.3643 -0.7249 -0.2437
 7467SOL    HW133863   3.399   1.873   9.275 -0.3652 -0.2877  3.0645
 7467SOL    HW233864   3.541   1.895   9.255 -1.1961  1.2948  0.5222
 7468SOL     OW33865   4.711   1.123   2.205 -0.2494  0.0466 -0.2181
 7468SOL    HW133866   0.070   1.098   2.169  0.2530 -1.8556  2.3522
 7468SOL    HW233867   4.725   1.099   2.296  1.7166 -0.0332 -0.5552
 7469SOL     OW33868   2.162   3.217  10.797 -0.5920 -0.6390  0.4451
 7469SOL    HW133869   2.214   3.275  10.852 -1.0459 -1.1791  1.4544
 7469SOL    HW233870   2.095   3.277  10.764  2.1109  2.4684  0.6897
 7470SOL     OW33871   0.082   3.647   3.459 -0.6211  0.4305  0.3616
 7470SOL    HW133872   0.036   3.687   3.533 -1.2366 -1.3737  0.9294
 7470SOL    HW233873   0.053   3.699   3.384  0.2698  0.3970 -0.0092
 7471SOL     OW33874   2.663   2.779   8.087  0.5142  0.0997  0.2779
 7471SOL    HW133875   2.683   2.864   8.049 -2.3786 -0.1842 -1.8813
 7471SOL    HW233876   2.578   2.792   8.129 -0.2131 -0.9764 -0.8595
 7472SOL     OW33877   4.065   1.477   5.876  0.0798  0.2945 -0.1233
 7472SOL    HW133878   4.085   1.556   5.925 -1.3172  0.6014 -0.0481
 7472SOL    HW233879   4.139   1.459   5.818  0.2720 -0.9006  0.4861
 7473SOL     OW33880   2.147   1.730   4.005  0.5579  0.0897  0.1104
 7473SOL    HW133881   2.126   1.727   4.098 -0.3243  1.1044 -0.0544
 7473SOL    HW233882   2.177   1.641   3.986 -0.0632  0.0772 -0.8226
 7474SOL     OW33883   3.014   4.481  15.974 -0.3234  0.0131 -0.5128
 7474SOL    HW133884   3.071   4.405  15.961 -1.6896 -1.0191 -0.5242
 7474SOL    HW233885   3.040   4.532  15.897  3.1545  1.7524  1.7867
 7475SOL     OW33886   3.022   2.695  11.189 -0.2480 -0.5943  0.2545
 7475SOL    HW133887   3.037   2.789  11.183  1.6396 -0.9245 -0.1354
 7475SOL    HW233888   3.027   2.679  11.283 -1.3600 -2.1564  0.0484
 7476SOL     OW33889   0.310   3.456  12.401  0.2147  0.1298 -0.1566
 7476SOL    HW133890   0.242   3.390  12.416 -0.2438  0.7465  0.5195
 7476SOL    HW233891   0.347   3.471  12.488 -1.9870 -1.2718  1.0293
 7477SOL     OW33892   3.322   0.908   7.149  0.0113 -0.4729  0.0787
 7477SOL    HW133893   3.403   0.916   7.098 -1.0246 -1.2743 -1.6758
 7477SOL    HW233894   3.260   0.889   7.079  0.8514  0.0366 -0.8117
 7478SOL     OW33895   3.443   2.703   9.765 -0.2602  0.8054 -0.4524
 7478SOL    HW133896   3.452   2.680   9.857  0.1420  0.1393 -0.6577
 7478SOL    HW233897   3.534   2.721   9.740 -0.3903  0.0202 -1.5225
 7479SOL     OW33898   2.547   0.404   9.078 -0.6977  0.1468 -0.0809
 7479SOL    HW133899   2.512   0.427   8.991 -0.1826 -0.5202 -0.4660
 7479SOL    HW233900   2.545   0.309   9.068 -0.5009  0.2155 -0.7906
 7480SOL     OW33901   0.560   1.392   7.142  0.3520 -0.2287 -0.2297
 7480SOL    HW133902   0.501   1.464   7.165  0.2944 -0.0720 -0.8538
 7480SOL    HW233903   0.634   1.410   7.199 -0.1224  0.0162  0.3109
 7481SOL     OW33904   0.186   0.669   3.267  0.7117  0.6276  0.5175
 7481SOL    HW133905   0.164   0.762   3.269 -1.0734  0.1798  1.7475
 7481SOL    HW233906   0.146   0.653   3.181  0.3411 -0.8130  0.9516
 7482SOL     OW33907   3.492   1.317   7.530  0.6366  1.2093  0.1291
 7482SOL    HW133908   3.527   1.301   7.618 -0.0106  0.4614  0.2561
 7482SOL    HW233909   3.533   1.398   7.499  1.4797 -0.0650 -2.1141
 7483SOL     OW33910   1.025   4.025   2.227  0.3050 -0.1589 -0.4972
 7483SOL    HW133911   1.028   4.117   2.199  3.5728 -0.0083  0.4271
 7483SOL    HW233912   1.092   4.027   2.295  0.5281 -1.2288 -0.6944
 7484SOL     OW33913   4.355   0.117   2.210 -0.0733  0.2681  0.1123
 7484SOL    HW133914   4.350   0.024   2.229 -2.2378  0.3930  0.1790
 7484SOL    HW233915   4.401   0.116   2.126 -0.2117 -0.8676  0.0550
 7485SOL     OW33916   4.016   2.479   4.019 -0.0294  0.0124 -0.3238
 7485SOL    HW133917   4.007   2.464   4.114  2.4710  0.6989  0.0029
 7485SOL    HW233918   4.074   2.405   4.001  1.5594  1.3779 -0.8080
 7486SOL     OW33919   4.485   2.934   7.735 -0.1464 -0.2096  0.4757
 7486SOL    HW133920   4.429   2.958   7.809  0.4811  2.2683  0.1463
 7486SOL    HW233921   4.572   2.931   7.775  0.5097 -0.8806 -0.9973
 7487SOL     OW33922   0.134   3.530  13.130  0.3688 -0.0987 -0.3363
 7487SOL    HW133923   0.133   3.496  13.219  2.2712 -3.1879 -1.5037
 7487SOL    HW233924   0.177   3.459  13.082 -1.0406 -0.7638 -0.6197
 7488SOL     OW33925   1.975   0.427   3.593  0.1266  0.6257 -0.4238
 7488SOL    HW133926   1.910   0.374   3.640  2.3623 -0.7842  1.1450
 7488SOL    HW233927   1.972   0.507   3.645  0.3806  0.4406 -0.1221
 7489SOL     OW33928   3.245   1.274   7.975 -0.5684  0.1970 -0.2725
 7489SOL    HW133929   3.293   1.332   7.916  1.9096 -0.3417  1.2490
 7489SOL    HW233930   3.252   1.316   8.061  0.2535  1.2267 -0.8548
 7490SOL     OW33931   2.220   3.605   2.131  0.3602  0.8691  0.6381
 7490SOL    HW133932   2.142   3.566   2.092 -0.3786  3.0256  0.0170
 7490SOL    HW233933   2.296   3.553   2.103  0.3747  0.7504  0.9006
 7491SOL     OW33934   4.596   2.057   6.923  0.4833 -0.5197  0.3245
 7491SOL    HW133935   4.523   2.040   6.982  1.5108  2.0628  2.3468
 7491SOL    HW233936   4.553   2.111   6.856 -1.1856 -1.7507  0.4113
 7492SOL     OW33937   1.937   2.644   6.403 -0.8131  0.3390 -0.0442
 7492SOL    HW133938   1.983   2.706   6.459 -0.7142  1.3619 -1.2387
 7492SOL    HW233939   1.953   2.558   6.440 -1.6462  0.5890  0.8942
 7493SOL     OW33940   2.435   2.340   3.963 -0.5507  0.1052  0.8557
 7493SOL    HW133941   2.411   2.411   4.022  0.9391 -1.4199  3.2703
 7493SOL    HW233942   2.355   2.307   3.921  0.0982  0.4958 -0.6956
 7494SOL     OW33943   2.922   3.008   7.025 -0.4935  0.2721 -0.1395
 7494SOL    HW133944   3.011   3.039   7.010 -0.2296  0.1169  1.0495
 7494SOL    HW233945   2.877   3.077   6.977 -0.1308  1.4759  1.2443
 7495SOL     OW33946   0.101   1.298   5.223 -0.1738 -0.0149  0.9667
 7495SOL    HW133947   0.171   1.249   5.181 -0.3175 -0.1370  0.8686
 7495SOL    HW233948   0.147   1.369   5.268 -1.3393  0.6745  1.0668
 7496SOL     OW33949   4.175   0.288   3.039 -0.2641  0.2382 -0.0918
 7496SOL    HW133950   4.122   0.358   3.001  1.7041  1.1506 -1.1855
 7496SOL    HW233951   4.116   0.267   3.111 -0.0423 -0.6535 -0.1767
 7497SOL     OW33952   0.964   1.040   0.315  0.1542  0.4939  0.2934
 7497SOL    HW133953   1.000   0.963   0.272  2.0376  1.2637  0.4955
 7497SOL    HW233954   0.907   1.007   0.385 -1.2352  0.7925 -0.7112
 7498SOL     OW33955   2.694   3.438  15.716  0.2710 -0.3401 -0.0770
 7498SOL    HW133956   2.759   3.410  15.780 -2.4910 -1.2281  2.2879
 7498SOL    HW233957   2.683   3.351  15.678  0.3421 -0.6787  0.6843
 7499SOL     OW33958   4.217   2.667   7.232 -0.0561  0.0571 -0.3053
 7499SOL    HW133959   4.150   2.660   7.163 -0.7718 -0.6734  0.4667
 7499SOL    HW233960   4.219   2.762   7.242 -1.0684 -0.0544  0.9554
 7500SOL     OW33961   1.354   2.006   3.707  0.4027 -0.6682 -0.8481
 7500SOL    HW133962   1.401   1.995   3.625  2.0518  2.2723 -0.2975
 7500SOL    HW233963   1.376   2.096   3.729  0.1015 -1.5476  3.0764
 7501SOL     OW33964   3.285   1.355   5.689 -0.2298 -0.2348 -0.2204
 7501SOL    HW133965   3.359   1.409   5.662  0.0892 -0.7179 -0.2935
 7501SOL    HW233966   3.217   1.413   5.652 -0.5585 -0.6300 -0.2326
 7502SOL     OW33967   4.021   1.831   9.954 -0.4294 -0.6333  0.1182
 7502SOL    HW133968   4.080   1.811  10.026 -1.5700 -0.1537  1.1851
 7502SOL    HW233969   3.932   1.816   9.987 -0.2098  2.9456  2.2985
 7503SOL     OW33970   0.630   3.382  17.164 -0.0356  0.0834  0.8374
 7503SOL    HW133971   0.718   3.358  17.139  0.8864  1.2772  2.8784
 7503SOL    HW233972   0.635   3.360  17.257  1.1286  1.7299  1.1702
 7504SOL     OW33973   0.838   4.487  10.990 -0.0102 -0.2754  0.3962
 7504SOL    HW133974   0.905   4.433  10.948 -0.8009  0.3397 -1.6691
 7504SOL    HW233975   0.765   4.429  11.014  1.2145 -2.8568 -2.0948
 7505SOL     OW33976   3.545   2.724   3.737  0.2856  0.3013  0.1865
 7505SOL    HW133977   3.633   2.708   3.702 -0.0062  2.9155 -1.7353
 7505SOL    HW233978   3.571   2.752   3.825  0.7831 -0.6167  0.3360
 7506SOL     OW33979   0.602   2.243   8.649 -0.0967 -0.1982 -0.0626
 7506SOL    HW133980   0.643   2.225   8.565 -0.8005  0.3281 -0.5222
 7506SOL    HW233981   0.513   2.206   8.640 -0.0978  0.1018 -1.2236
 7507SOL     OW33982   4.275   3.285  12.653  0.0323  0.0670 -0.8840
 7507SOL    HW133983   4.264   3.271  12.559  2.1882  2.1566 -1.4352
 7507SOL    HW233984   4.322   3.205  12.679 -0.2632  0.6531  1.4937
 7508SOL     OW33985   4.045   2.369  11.011 -0.0984 -0.0815  0.0454
 7508SOL    HW133986   4.105   2.296  10.996 -0.3627 -0.0241 -1.2562
 7508SOL    HW233987   4.040   2.365  11.107 -0.4211  0.8896  0.0645
 7509SOL     OW33988   3.740   2.669   2.793 -0.5270 -0.1685 -0.3624
 7509SOL    HW133989   3.778   2.689   2.707 -1.9081  1.4567 -0.5898
 7509SOL    HW233990   3.667   2.731   2.788 -1.5074 -1.3542 -0.8488
 7510SOL     OW33991   1.460   3.540   2.317  0.7784  0.2984  0.2595
 7510SOL    HW133992   1.458   3.516   2.410 -0.6454 -0.2197  0.0891
 7510SOL    HW233993   1.544   3.584   2.326  0.0060  2.4630 -3.2214
 7511SOL     OW33994   3.407   1.656  16.616 -0.8239 -0.3178  0.2657
 7511SOL    HW133995   3.488   1.707  16.617 -1.8358  1.2269  1.6250
 7511SOL    HW233996   3.391   1.653  16.521  0.9908 -0.6396 -0.0365
 7512SOL     OW33997   1.626   0.800   3.158  0.2698 -0.4747 -0.1084
 7512SOL    HW133998   1.630   0.708   3.131  0.4494 -0.4991 -0.0033
 7512SOL    HW233999   1.542   0.803   3.203  0.5060  2.6836  0.1482
 7513SOL     OW34000   2.961   1.690  12.816 -0.5076 -0.0996  0.9015
 7513SOL    HW134001   3.022   1.748  12.862  0.7018 -0.8210  0.2314
 7513SOL    HW234002   2.881   1.686  12.867 -0.3385  1.1362  1.2703
 7514SOL     OW34003   4.517   2.366   5.703 -0.1960 -0.3351 -0.8555
 7514SOL    HW134004   4.612   2.353   5.707 -0.0772  0.6594 -0.4024
 7514SOL    HW234005   4.483   2.283   5.736  3.5897 -1.0875  1.2291
 7515SOL     OW34006   1.681   3.881  13.071  0.0274  0.0426 -0.1512
 7515SOL    HW134007   1.740   3.825  13.020  0.7771 -0.9554  1.7768
 7515SOL    HW234008   1.747   3.928  13.122  3.1498 -1.8275 -2.4945
 7516SOL     OW34009   2.317   4.525   0.012  0.0211 -0.2586  0.3035
 7516SOL    HW134010   2.352   4.444  17.680 -1.1063  0.0821 -1.4212
 7516SOL    HW234011   2.335   4.513   0.106 -0.6182 -0.0179  0.4500
 7517SOL     OW34012   4.211   1.907  14.716 -0.4775 -0.2335 -0.2592
 7517SOL    HW134013   4.273   1.958  14.664 -2.9269  0.4913 -2.4858
 7517SOL    HW234014   4.242   1.932  14.803 -1.8459  0.3776  0.0559
 7518SOL     OW34015   3.478   2.994  10.599 -0.3222  0.0563 -0.0639
 7518SOL    HW134016   3.469   3.083  10.633 -0.8342 -0.0186  0.0085
 7518SOL    HW234017   3.418   2.993  10.524  2.4614 -1.8742 -2.2396
 7519SOL     OW34018   4.146   4.012   2.059 -0.7957  0.4433  0.3320
 7519SOL    HW134019   4.149   3.979   1.969  0.7355 -2.1689  1.3510
 7519SOL    HW234020   4.134   4.107   2.060 -1.3160  0.3815 -0.2289
 7520SOL     OW34021   2.128   2.353   4.634  0.4938 -0.7031  0.6324
 7520SOL    HW134022   2.094   2.356   4.724 -0.2964  1.5893  0.2497
 7520SOL    HW234023   2.147   2.446   4.620 -0.2855 -0.6052  0.2640
 7521SOL     OW34024   2.788   2.110   5.923  0.0704 -0.3855  0.9623
 7521SOL    HW134025   2.763   2.096   6.015  3.0205  1.8792  2.1155
 7521SOL    HW234026   2.882   2.125   5.934  0.1686 -0.3531  0.0606
 7522SOL     OW34027   1.624   1.621  17.112 -0.5312  0.0300  0.4947
 7522SOL    HW134028   1.703   1.567  17.102  2.1273  3.3164  3.7177
 7522SOL    HW234029   1.559   1.565  17.156 -0.0426  1.1417  2.6401
 7523SOL     OW34030   0.469   1.012  13.279  0.6150  0.1739 -0.2607
 7523SOL    HW134031   0.441   1.090  13.327  0.7013 -1.1643  1.9349
 7523SOL    HW234032   0.535   1.054  13.223 -2.3074  1.1909 -2.9914
 7524SOL     OW34033   1.485   0.494   4.343  0.1041  0.3829  0.1019
 7524SOL    HW134034   1.466   0.514   4.251  0.7079  1.8294  0.2963
 7524SOL    HW234035   1.539   0.570   4.365 -0.2260  0.1779  1.5587
 7525SOL     OW34036   2.363   0.999   1.216 -0.2795 -0.0238  0.2690
 7525SOL    HW134037   2.361   1.057   1.293  0.2243 -0.5053  0.6421
 7525SOL    HW234038   2.454   0.972   1.206 -0.8006 -1.5368 -0.3835
 7526SOL     OW34039   3.378   1.803   9.639 -0.2349  0.2137  0.7697
 7526SOL    HW134040   3.381   1.894   9.609  1.3450 -0.8881 -2.4208
 7526SOL    HW234041   3.373   1.759   9.554  3.0958  0.3797  0.4867
 7527SOL     OW34042   3.396   4.380   7.337 -0.2767 -0.2295  0.0472
 7527SOL    HW134043   3.431   4.384   7.426  0.2939  2.6262 -0.3026
 7527SOL    HW234044   3.342   4.302   7.350  1.1254 -1.0378  1.0299
 7528SOL     OW34045   2.999   2.648  17.074 -0.4083 -0.1645 -0.2317
 7528SOL    HW134046   2.943   2.619  17.146 -1.4974  3.0242  0.1955
 7528SOL    HW234047   3.055   2.715  17.112  0.3804 -0.9716  0.0288
 7529SOL     OW34048   1.453   0.707  16.986 -0.3250  0.6333 -0.7238
 7529SOL    HW134049   1.501   0.673  16.911 -1.3324  1.0935 -1.5711
 7529SOL    HW234050   1.361   0.700  16.963 -0.5220 -1.3969  0.6740
 7530SOL     OW34051   0.560   0.652   7.090  0.4631 -0.0521  0.1422
 7530SOL    HW134052   0.489   0.590   7.110 -0.5702  1.5610  1.4775
 7530SOL    HW234053   0.636   0.605   7.123  0.7032  0.0395 -0.2885
 7531SOL     OW34054   1.852   4.272  12.003 -0.2558 -0.0412  0.4398
 7531SOL    HW134055   1.925   4.329  12.024 -0.9733  0.7014  0.9105
 7531SOL    HW234056   1.906   4.211  11.953 -0.6249  1.1754 -1.4307
 7532SOL     OW34057   2.584   1.245   0.692 -0.4929 -0.2364 -0.0824
 7532SOL    HW134058   2.648   1.239   0.764 -1.0303 -3.0417  0.1426
 7532SOL    HW234059   2.549   1.157   0.700 -0.0539 -0.3455  0.6685
 7533SOL     OW34060   1.149   0.831   7.405  0.7012  0.8583  1.0494
 7533SOL    HW134061   1.142   0.767   7.334  0.2581 -1.8572  3.5430
 7533SOL    HW234062   1.211   0.786   7.462  1.8431 -0.6253 -1.3352
 7534SOL     OW34063   0.381   2.627   5.334 -0.0271  0.0609  0.2905
 7534SOL    HW134064   0.474   2.648   5.325 -0.4233  0.9333 -1.9086
 7534SOL    HW234065   0.341   2.639   5.248  1.9429  0.0447 -0.6433
 7535SOL     OW34066   3.001   1.698   2.537 -0.1145  0.0237  0.5080
 7535SOL    HW134067   3.042   1.630   2.482 -0.6591 -0.0126  0.1460
 7535SOL    HW234068   2.912   1.693   2.503  0.5601  2.4473 -1.6222
 7536SOL     OW34069   2.201   2.202   5.640 -0.7817  0.1820  0.3493
 7536SOL    HW134070   2.176   2.151   5.564 -0.6075  1.0449 -0.2860
 7536SOL    HW234071   2.129   2.188   5.702  0.8723 -0.2901  2.1630
 7537SOL     OW34072   1.299   3.777  13.004 -0.3327  0.2245 -0.6009
 7537SOL    HW134073   1.255   3.816  13.080 -3.5656 -1.1201 -1.7649
 7537SOL    HW234074   1.236   3.711  12.976  3.1330 -3.4445  0.1706
 7538SOL     OW34075   1.816   3.128  14.820  0.4944 -0.1504  0.4127
 7538SOL    HW134076   1.765   3.202  14.855 -1.6611 -1.7655  0.6820
 7538SOL    HW234077   1.838   3.160  14.732 -1.2195  0.0390  0.0465
 7539SOL     OW34078   4.225   3.799   4.870  0.4956 -0.0614  0.0339
 7539SOL    HW134079   4.241   3.749   4.790  1.3873 -2.0827  1.4860
 7539SOL    HW234080   4.170   3.737   4.919  0.0480  1.7947  1.8547
 7540SOL     OW34081   4.037   4.232   1.122 -0.1660 -0.4618 -0.5329
 7540SOL    HW134082   3.970   4.297   1.141  0.0752 -0.5582  0.6627
 7540SOL    HW234083   4.115   4.274   1.159  1.0117 -1.2810 -2.0559
 7541SOL     OW34084   4.070   3.684  15.970  0.2172 -0.3246 -0.1502
 7541SOL    HW134085   3.980   3.714  15.984 -0.2562 -0.6778 -2.4105
 7541SOL    HW234086   4.066   3.588  15.975  1.4854 -0.4365 -1.2902
 7542SOL     OW34087   0.715   0.222   6.575  0.0450  0.3119  0.2657
 7542SOL    HW134088   0.702   0.316   6.567 -0.2076  0.2996  0.5413
 7542SOL    HW234089   0.807   0.225   6.603  0.0669 -0.3116  0.2583
 7543SOL     OW34090   1.101   4.128   2.881 -0.7747 -0.0912 -0.1817
 7543SOL    HW134091   1.184   4.117   2.836  0.7795  1.0523  2.4114
 7543SOL    HW234092   1.092   4.055   2.942 -0.0301  0.0934  0.1438
 7544SOL     OW34093   0.630   0.697   1.681  0.0705 -0.5555  0.0617
 7544SOL    HW134094   0.608   0.748   1.603 -0.1658  0.5723  0.8756
 7544SOL    HW234095   0.660   0.764   1.742 -0.3500  0.8445 -1.2647
 7545SOL     OW34096   3.908   0.530   8.811 -0.4988 -0.1991 -0.1570
 7545SOL    HW134097   3.828   0.525   8.863 -1.1753  0.3750 -1.1533
 7545SOL    HW234098   3.871   0.575   8.736 -0.9358  1.7902  1.2666
 7546SOL     OW34099   1.530   3.062  12.706 -0.1724 -0.2534 -0.0837
 7546SOL    HW134100   1.591   3.057  12.779  1.1809  0.8526 -1.1106
 7546SOL    HW234101   1.587   3.117  12.651 -0.9372 -1.2826 -1.9178
 7547SOL     OW34102   4.029   0.484   2.841 -0.7844  0.2809 -0.0742
 7547SOL    HW134103   4.050   0.563   2.890  1.3687 -0.2235 -0.1768
 7547SOL    HW234104   4.105   0.478   2.783 -0.1704 -1.2386  0.9114
 7548SOL     OW34105   1.441   0.776   4.536 -0.3486 -0.4428 -0.3026
 7548SOL    HW134106   1.515   0.716   4.545  0.3264  0.3921 -0.2685
 7548SOL    HW234107   1.486   0.861   4.535  0.4698 -0.8804  1.7998
 7549SOL     OW34108   4.720   2.398   3.695 -0.0639 -0.1683  0.1243
 7549SOL    HW134109   0.031   2.383   3.608 -1.2159 -0.7558 -0.2602
 7549SOL    HW234110   4.628   2.409   3.670  0.1554 -1.6441 -1.3091
 7550SOL     OW34111   1.101   3.142  16.009 -0.0938 -0.2258 -0.5100
 7550SOL    HW134112   1.122   3.109  15.921  0.9624 -0.0614 -0.3126
 7550SOL    HW234113   1.031   3.078  16.022 -0.7271  0.8473  1.2548
 7551SOL     OW34114   2.043   2.008   1.830  0.0629  0.0473 -0.5342
 7551SOL    HW134115   2.059   1.934   1.888 -0.0356  1.2175  0.9775
 7551SOL    HW234116   1.985   2.065   1.880 -0.0237 -0.9339  0.4610
 7552SOL     OW34117   2.403   2.890  15.304 -0.1019 -0.6047 -0.1364
 7552SOL    HW134118   2.315   2.892  15.265 -0.3537 -0.8850  0.4124
 7552SOL    HW234119   2.451   2.857  15.229 -2.3169  1.5349 -2.5052
 7553SOL     OW34120   0.796   3.729   8.635 -0.2049  0.0765 -0.3456
 7553SOL    HW134121   0.713   3.739   8.588 -0.7524  1.4190  0.9055
 7553SOL    HW234122   0.807   3.819   8.665 -0.3472  0.1220 -0.4288
 7554SOL     OW34123   1.021   0.764   1.981  0.1521  0.5099 -0.4075
 7554SOL    HW134124   1.107   0.752   1.941  0.4882  4.1767 -0.8219
 7554SOL    HW234125   1.019   0.696   2.048 -3.4491  1.2055  0.1665
 7555SOL     OW34126   3.496   0.374   2.431  0.1489  0.1358  0.4176
 7555SOL    HW134127   3.590   0.369   2.416 -0.1931 -0.2035 -1.5620
 7555SOL    HW234128   3.490   0.445   2.496 -2.3543 -0.0569  0.4237
 7556SOL     OW34129   2.450   0.271   9.376 -0.2059 -0.2959  0.1112
 7556SOL    HW134130   2.545   0.263   9.377 -0.2310 -0.8934 -2.1637
 7556SOL    HW234131   2.421   0.194   9.327  0.3473 -2.1190  2.7004
 7557SOL     OW34132   0.441   0.559  12.465  0.3760 -0.5820 -0.3679
 7557SOL    HW134133   0.405   0.565  12.377 -0.4837 -1.9350 -0.1086
 7557SOL    HW234134   0.393   0.630  12.508 -0.6700 -1.0577 -0.7455
 7558SOL     OW34135   4.680   4.554   8.256 -0.1947  0.5499  0.6366
 7558SOL    HW134136   4.701   4.558   8.349 -0.8913 -1.7523  0.9228
 7558SOL    HW234137   4.686   4.648   8.244 -0.6223  0.3079 -1.5132
 7559SOL     OW34138   1.010   1.768   3.459 -0.1112  0.5997  0.1975
 7559SOL    HW134139   1.060   1.830   3.512 -0.8630  0.1681  1.3833
 7559SOL    HW234140   1.059   1.770   3.376  0.3612  0.6205  0.4806
 7560SOL     OW34141   1.710   2.296   3.062  0.5560  0.0441 -0.1266
 7560SOL    HW134142   1.756   2.257   3.136 -0.4052 -0.0091  0.4420
 7560SOL    HW234143   1.710   2.219   3.004  3.1096  1.5854 -2.1450
 7561SOL     OW34144   2.061   1.647   9.721  0.7940  0.0189 -0.2164
 7561SOL    HW134145   2.036   1.676   9.633  2.7971 -1.0055 -1.1346
 7561SOL    HW234146   2.002   1.574   9.737  0.3397  0.5179  0.4055
 7562SOL     OW34147   3.839   2.047  12.552 -0.1710  0.3320 -0.4940
 7562SOL    HW134148   3.794   2.114  12.502 -0.0931  2.3435  2.1350
 7562SOL    HW234149   3.779   2.038  12.626  0.1334  0.1195 -0.2712
 7563SOL     OW34150   3.883   2.636   5.658 -0.2043  0.4143 -0.8982
 7563SOL    HW134151   3.972   2.667   5.676 -0.2494 -0.8676  1.6123
 7563SOL    HW234152   3.887   2.544   5.685 -0.7297  1.2649  2.1217
 7564SOL     OW34153   3.094   4.579   0.968  0.6979 -0.0185  0.3961
 7564SOL    HW134154   3.071   4.666   1.002 -2.3802 -1.1515  1.2059
 7564SOL    HW234155   3.188   4.598   0.963  0.1988  2.1338 -0.7539
 7565SOL     OW34156   2.535   3.268   9.178 -0.2268  0.7671 -0.1011
 7565SOL    HW134157   2.588   3.349   9.179 -2.1487  2.0094  0.8424
 7565SOL    HW234158   2.559   3.244   9.268 -2.0585  2.3659  0.8083
 7566SOL     OW34159   1.988   1.148   5.441  0.1350 -0.5588 -0.3303
 7566SOL    HW134160   1.955   1.191   5.519  2.1599 -1.1825  0.8663
 7566SOL    HW234161   1.910   1.100   5.412 -0.0675 -0.3686 -0.0931
 7567SOL     OW34162   0.441   2.714   0.768 -0.6375 -0.0355 -0.2109
 7567SOL    HW134163   0.435   2.796   0.817  1.5969  1.3100 -2.2040
 7567SOL    HW234164   0.402   2.742   0.685  0.2818 -3.5193 -1.8480
 7568SOL     OW34165   1.533   2.187   3.435 -0.4062  0.9024 -0.1025
 7568SOL    HW134166   1.506   2.251   3.369 -1.2117 -0.3651 -1.0031
 7568SOL    HW234167   1.602   2.235   3.481 -1.1778  0.2283  1.7681
 7569SOL     OW34168   1.162   1.182   4.529  0.4850  0.6428 -0.4618
 7569SOL    HW134169   1.199   1.160   4.614  1.3970 -0.7920 -1.2345
 7569SOL    HW234170   1.092   1.239   4.561  0.4865  0.1411  0.4545
 7570SOL     OW34171   2.131   1.057   8.427 -1.0232 -0.6756  0.4107
 7570SOL    HW134172   2.062   1.122   8.420 -0.4686 -0.1006  0.3226
 7570SOL    HW234173   2.129   1.045   8.522 -0.4955 -0.1563  0.4876
 7571SOL     OW34174   1.260   1.974   6.797 -0.0975  0.4017 -0.5496
 7571SOL    HW134175   1.262   2.069   6.804 -0.0465  0.3665 -0.1028
 7571SOL    HW234176   1.335   1.947   6.850 -0.6920  1.9678  1.0694
 7572SOL     OW34177   3.480   4.663  15.371  0.2687  0.2681 -0.6349
 7572SOL    HW134178   3.485   4.588  15.430  1.1795 -0.3287 -1.4745
 7572SOL    HW234179   3.542   4.718  15.420 -1.0374 -1.6637  3.1599
 7573SOL     OW34180   4.542   2.335   7.280 -0.1189 -0.0549 -0.0343
 7573SOL    HW134181   4.569   2.282   7.355 -2.4534  0.9016  1.4641
 7573SOL    HW234182   4.478   2.389   7.326 -1.5049 -2.5691  0.9644
 7574SOL     OW34183   1.487   0.872  14.864 -0.4938 -0.3012  0.0363
 7574SOL    HW134184   1.582   0.873  14.861 -0.5444 -2.1962 -2.3482
 7574SOL    HW234185   1.470   0.799  14.924  1.3445 -1.8763 -1.3574
 7575SOL     OW34186   1.399   3.956   7.264  0.2955 -0.0895  0.0615
 7575SOL    HW134187   1.446   4.032   7.297  1.3077 -0.2753 -0.9148
 7575SOL    HW234188   1.334   3.992   7.203  2.3293  1.2829 -1.3086
 7576SOL     OW34189   1.055   0.192   6.381 -0.2471  0.0804  0.2580
 7576SOL    HW134190   1.060   0.268   6.439 -0.2213  0.3447 -0.0875
 7576SOL    HW234191   0.979   0.220   6.330 -0.9254  0.5834  1.5410
 7577SOL     OW34192   4.059   0.984  14.054 -0.2158  0.1942  0.1503
 7577SOL    HW134193   3.996   0.916  14.032  1.4685 -1.6470  0.9962
 7577SOL    HW234194   4.015   1.063  14.022  0.1905  0.5354  0.4279
 7578SOL     OW34195   2.614   0.004   8.653  0.7894 -0.3508 -0.6118
 7578SOL    HW134196   2.642   4.639   8.645 -0.0588 -0.7487  1.0053
 7578SOL    HW234197   2.521   4.713   8.644  0.6511 -0.2322  0.5257
 7579SOL     OW34198   1.979   4.063   4.155  0.8946  0.0120 -0.2808
 7579SOL    HW134199   1.980   4.153   4.122  0.8700  0.0476 -0.1849
 7579SOL    HW234200   1.887   4.037   4.164  0.7364  0.0096 -1.8345
 7580SOL     OW34201   4.188   2.016  12.852 -0.2197  0.2698  0.2922
 7580SOL    HW134202   4.271   2.012  12.804  0.0332 -0.9849  0.8270
 7580SOL    HW234203   4.122   1.988  12.789 -2.0753  0.7645  2.0278
 7581SOL     OW34204   1.385   1.190   5.627  0.5703 -0.4941  0.3077
 7581SOL    HW134205   1.406   1.140   5.549 -1.3939 -0.0226 -0.5327
 7581SOL    HW234206   1.298   1.151   5.640 -0.6757  1.7089 -1.5453
 7582SOL     OW34207   4.098   4.137   2.459 -0.2568  0.1521  0.2062
 7582SOL    HW134208   4.055   4.070   2.407  0.3525  0.7703 -1.1053
 7582SOL    HW234209   4.021   4.163   2.509 -2.6768  0.3210 -3.6678
 7583SOL     OW34210   3.688   3.238   4.003 -0.6245 -0.5995  0.1700
 7583SOL    HW134211   3.627   3.283   3.945 -0.2258  0.2787  0.4344
 7583SOL    HW234212   3.768   3.226   3.952  0.8566  1.1207  2.0999
 7584SOL     OW34213   3.645   0.193   9.539 -0.3986  0.3620 -0.6308
 7584SOL    HW134214   3.668   0.136   9.465  1.2863  2.4409 -1.7237
 7584SOL    HW234215   3.599   0.270   9.506 -2.1838  0.2703  1.6919
 7585SOL     OW34216   2.689   3.378   8.580  0.2366  0.0681  0.2285
 7585SOL    HW134217   2.635   3.399   8.656 -1.0050  0.3188 -0.7030
 7585SOL    HW234218   2.631   3.315   8.536  1.7728  1.1515 -3.3632
 7586SOL     OW34219   4.395   0.265   4.248 -0.9562 -0.1359 -0.9122
 7586SOL    HW134220   4.321   0.267   4.187 -0.0295  3.4099 -1.9523
 7586SOL    HW234221   4.364   0.190   4.299 -0.7229  1.4708  1.6423
 7587SOL     OW34222   0.946   2.001  11.335  0.2658 -0.1311 -0.3916
 7587SOL    HW134223   0.952   2.008  11.430  1.3094 -1.1380 -0.3972
 7587SOL    HW234224   1.021   1.945  11.315  0.9845  0.4972  0.5533
 7588SOL     OW34225   2.023   4.415   8.587 -0.3229 -0.2626  0.7984
 7588SOL    HW134226   1.940   4.367   8.583 -0.4371  0.0215 -0.2146
 7588SOL    HW234227   2.010   4.483   8.521  1.5126 -0.6407  0.0370
 7589SOL     OW34228   2.609   2.930   5.561 -0.9995  0.5158  0.0226
 7589SOL    HW134229   2.567   2.979   5.490 -1.8187 -1.2322 -0.7074
 7589SOL    HW234230   2.538   2.920   5.624  1.2863 -1.5270  2.2935
 7590SOL     OW34231   4.483   3.785   5.133 -0.2424  0.1061 -0.2204
 7590SOL    HW134232   4.450   3.713   5.079  0.1213  0.6006 -1.1034
 7590SOL    HW234233   4.476   3.754   5.223 -1.1711  2.5103  0.5457
 7591SOL     OW34234   1.588   4.724   1.694 -0.1057  0.0396  0.1922
 7591SOL    HW134235   1.529   4.666   1.741 -1.8934  1.8786  0.2453
 7591SOL    HW234236   1.525   0.055   1.650 -0.1970 -0.9509 -0.9782
 7592SOL     OW34237   4.666   2.435   8.011 -0.5242 -0.1824  0.2990
 7592SOL    HW134238   4.699   2.504   8.069 -0.8929 -1.5183  2.0901
 7592SOL    HW234239   0.003   2.433   7.940 -1.0415 -1.4681 -0.1288
 7593SOL     OW34240   4.382   0.332   3.343  1.1669  0.1118  0.2050
 7593SOL    HW134241   4.360   0.345   3.435 -1.1325  2.4212 -0.6820
 7593SOL    HW234242   4.303   0.285   3.314  0.1764  0.5369  2.2153
 7594SOL     OW34243   0.652   2.481   7.489  0.0160 -0.1749 -0.4848
 7594SOL    HW134244   0.616   2.562   7.453 -0.3295  0.1441  0.5691
 7594SOL    HW234245   0.574   2.426   7.481 -1.8588  2.0995  2.0864
 7595SOL     OW34246   2.454   4.528  14.189  0.1731 -1.0553 -0.3273
 7595SOL    HW134247   2.457   4.536  14.094 -3.3642 -1.0246 -0.4256
 7595SOL    HW234248   2.505   4.447  14.190  1.5922 -0.1588 -0.5790
 7596SOL     OW34249   1.352   2.277   3.625  0.3682 -0.3015  0.3728
 7596SOL    HW134250   1.294   2.321   3.563  2.2725  2.4003  0.4979
 7596SOL    HW234251   1.417   2.227   3.575  1.0013 -0.1510  1.0479
 7597SOL     OW34252   2.675   4.480  16.568  0.1621  0.3969  0.2385
 7597SOL    HW134253   2.702   4.543  16.635  0.2068  1.3253 -0.6703
 7597SOL    HW234254   2.699   4.523  16.487 -0.7329 -0.5283 -0.5215
 7598SOL     OW34255   0.528   3.395  14.326  0.2237  0.3528 -0.2154
 7598SOL    HW134256   0.517   3.317  14.380  2.0602  0.0692 -0.2296
 7598SOL    HW234257   0.480   3.371  14.246  1.3475  0.2244 -0.8584
 7599SOL     OW34258   4.543   0.620  11.982 -0.6071  0.2389 -0.4547
 7599SOL    HW134259   4.469   0.677  12.002 -1.1545 -0.3300 -0.8180
 7599SOL    HW234260   4.605   0.678  11.938 -1.6701  3.1551  1.9599
 7600SOL     OW34261   4.130   1.963   0.896  0.0915 -0.0644 -0.1855
 7600SOL    HW134262   4.095   1.899   0.834  0.7929 -1.4833  0.8895
 7600SOL    HW234263   4.221   1.942   0.915 -0.8243 -2.4704  1.5596
 7601SOL     OW34264   0.418   3.696   3.370  0.1936 -0.3936 -0.0365
 7601SOL    HW134265   0.383   3.748   3.298 -1.5366  0.3883  1.3830
 7601SOL    HW234266   0.348   3.664   3.428 -0.3740  0.6980 -0.1170
 7602SOL     OW34267   0.251   2.724   2.664  0.0644  0.0710 -0.0101
 7602SOL    HW134268   0.303   2.659   2.617 -1.7964  0.2510 -2.3087
 7602SOL    HW234269   0.233   2.691   2.752 -1.1504  0.4930 -0.1030
 7603SOL     OW34270   4.449   0.590   5.552 -0.5787  0.1142  0.1788
 7603SOL    HW134271   4.418   0.625   5.468  0.9133  1.4016  0.1637
 7603SOL    HW234272   4.506   0.664   5.573  0.0959 -0.6139  0.8715
 7604SOL     OW34273   2.544   1.399   7.105  0.1066  0.0357  0.7383
 7604SOL    HW134274   2.465   1.450   7.089  0.4534  0.2386 -0.2893
 7604SOL    HW234275   2.618   1.455   7.082  0.2052 -0.2105  0.4467
 7605SOL     OW34276   2.315   2.583  16.576  0.1381 -0.3462  0.1198
 7605SOL    HW134277   2.301   2.657  16.634 -0.5176  0.8479 -1.5570
 7605SOL    HW234278   2.361   2.626  16.504 -0.6536 -0.2348 -0.3221
 7606SOL     OW34279   1.819   0.918  13.849 -0.4971 -0.3634 -0.0973
 7606SOL    HW134280   1.787   0.985  13.910  1.9257  1.1909 -0.5109
 7606SOL    HW234281   1.738   0.885  13.810 -0.0861  1.1178 -2.2187
 7607SOL     OW34282   0.781   3.312   4.815 -0.5462 -0.3660  0.4555
 7607SOL    HW134283   0.702   3.356   4.783 -0.0195  0.4641  0.2880
 7607SOL    HW234284   0.826   3.288   4.734 -0.0338 -0.8751  0.8970
 7608SOL     OW34285   2.193   1.572  10.226 -0.0653 -1.0745  0.0036
 7608SOL    HW134286   2.100   1.561  10.205 -0.1472  2.3157 -1.3073
 7608SOL    HW234287   2.191   1.533  10.314 -0.2275 -0.3478  0.3243
 7609SOL     OW34288   3.538   4.249   5.645  0.3043  0.1032 -0.1780
 7609SOL    HW134289   3.515   4.252   5.738 -1.3423 -3.1941 -0.4805
 7609SOL    HW234290   3.569   4.334   5.615 -2.0018  1.1609  0.4242
 7610SOL     OW34291   3.941   0.846   8.763 -0.8156  0.6617 -0.3706
 7610SOL    HW134292   3.989   0.838   8.845  0.8118  1.2848 -1.2622
 7610SOL    HW234293   3.856   0.861   8.804 -0.7200  2.7179 -0.8897
 7611SOL     OW34294   4.213   2.717   7.847  0.1587  0.0868  0.4066
 7611SOL    HW134295   4.196   2.626   7.875 -0.4670  0.4196  1.1167
 7611SOL    HW234296   4.296   2.696   7.804  0.1298  1.7503 -0.4328
 7612SOL     OW34297   0.845   0.316   6.253 -0.0673 -0.9398  0.3999
 7612SOL    HW134298   0.784   0.331   6.181 -0.4929 -1.4857  0.6507
 7612SOL    HW234299   0.825   0.384   6.317 -1.9943 -1.7143  0.6090
 7613SOL     OW34300   3.104   2.566  12.571 -0.5543 -0.3073 -0.0169
 7613SOL    HW134301   3.129   2.494  12.513  0.2140 -0.3969  0.4316
 7613SOL    HW234302   3.131   2.638  12.515 -0.2349 -1.5806 -1.5034
 7614SOL     OW34303   0.284   3.236   3.167  0.1926  0.2315  0.7505
 7614SOL    HW134304   0.284   3.328   3.140 -0.4370  0.3456  1.1240
 7614SOL    HW234305   0.201   3.208   3.129 -0.3410  1.5627  0.9238
 7615SOL     OW34306   2.586   3.593   2.486  0.3021 -0.2412 -0.0279
 7615SOL    HW134307   2.547   3.668   2.442  0.2831 -1.2803 -1.8024
 7615SOL    HW234308   2.513   3.534   2.503  0.7483  0.5604  4.5365
 7616SOL     OW34309   4.550   3.499   3.903  0.1155 -0.5846 -0.0478
 7616SOL    HW134310   4.599   3.472   3.825  0.1178  0.5282 -0.4348
 7616SOL    HW234311   4.596   3.448   3.970 -1.1598 -1.8996 -0.1632
 7617SOL     OW34312   2.875   1.780   8.361 -0.3531 -0.6333 -0.6049
 7617SOL    HW134313   2.880   1.689   8.331  0.5703  0.3001 -3.2579
 7617SOL    HW234314   2.930   1.779   8.439 -0.7694  1.6627 -0.3031
 7618SOL     OW34315   1.027   4.651   6.162  0.5006 -0.7020 -0.7569
 7618SOL    HW134316   1.038   4.564   6.123  2.1394 -1.4679  1.3960
 7618SOL    HW234317   1.106   4.650   6.216  0.6098 -1.0260 -0.9180
 7619SOL     OW34318   1.447   4.287   7.956  0.0293 -0.2338 -0.2819
 7619SOL    HW134319   1.512   4.242   7.902 -0.0823 -0.5290 -0.1721
 7619SOL    HW234320   1.492   4.281   8.040  1.2560  1.0297 -0.8529
 7620SOL     OW34321   1.303   4.398  16.747  0.5363  0.1181  0.1933
 7620SOL    HW134322   1.320   4.397  16.842 -1.1129 -0.6789  0.4765
 7620SOL    HW234323   1.326   4.309  16.720  2.1270  0.6145 -0.1081
 7621SOL     OW34324   4.536   0.234   8.869  0.3805  0.2299 -0.8222
 7621SOL    HW134325   4.489   0.205   8.947 -3.5798  0.6798 -3.0206
 7621SOL    HW234326   4.462   0.269   8.818  1.1833  3.1350 -0.0082
 7622SOL     OW34327   4.487   4.670   4.131 -0.0221  0.6453 -0.0677
 7622SOL    HW134328   4.454   0.005   4.197  1.3155  0.6309  0.6126
 7622SOL    HW234329   4.509   4.591   4.182 -0.7201  0.1564 -0.5208
 7623SOL     OW34330   0.843   1.740   6.278 -0.3622 -0.8037  0.6181
 7623SOL    HW134331   0.787   1.811   6.309  2.3599  1.3707  0.5677
 7623SOL    HW234332   0.791   1.710   6.204  0.2648  1.1670 -0.6097
 7624SOL     OW34333   1.017   4.194   7.863 -0.1356 -0.2392  0.5135
 7624SOL    HW134334   1.097   4.141   7.867  0.1219  0.0398 -0.9490
 7624SOL    HW234335   0.994   4.209   7.955 -0.9161  1.1181  0.0902
 7625SOL     OW34336   3.557   3.654   3.703 -0.3660  0.4845  0.1464
 7625SOL    HW134337   3.542   3.718   3.633 -0.2711 -1.1627 -1.3865
 7625SOL    HW234338   3.528   3.707   3.777  0.5332  3.5163 -1.6712
 7626SOL     OW34339   2.281   2.389   0.413  0.0611 -0.0938 -0.1413
 7626SOL    HW134340   2.292   2.298   0.443 -1.6644 -0.9092 -2.0130
 7626SOL    HW234341   2.350   2.385   0.347 -0.8189  1.4672 -1.1507
 7627SOL     OW34342   0.207   2.928   5.183 -0.8741  0.5012  0.2030
 7627SOL    HW134343   0.267   3.000   5.205  0.6878 -0.1537 -1.9753
 7627SOL    HW234344   0.136   2.936   5.247 -0.3721  0.3918  0.7799
 7628SOL     OW34345   1.794   3.629   6.260  0.1318  0.0840 -0.1342
 7628SOL    HW134346   1.706   3.639   6.296  0.4908  0.8400  0.5523
 7628SOL    HW234347   1.796   3.689   6.185  0.4049  0.6000  0.2866
 7629SOL     OW34348   2.501   1.460  12.844 -0.0591 -0.7469  0.3478
 7629SOL    HW134349   2.407   1.457  12.827  0.0990  1.5043 -1.0077
 7629SOL    HW234350   2.544   1.411  12.774  0.2336  0.2487 -0.1736
 7630SOL     OW34351   3.259   0.816   3.288 -0.2729  0.2968 -0.3234
 7630SOL    HW134352   3.281   0.724   3.305 -1.7344 -0.0180 -0.1365
 7630SOL    HW234353   3.244   0.814   3.194  1.4089 -2.3940 -0.5294
 7631SOL     OW34354   1.007   3.611   6.451 -0.0972 -0.3780 -0.4579
 7631SOL    HW134355   1.001   3.650   6.538  0.2144  1.6981 -1.3644
 7631SOL    HW234356   1.087   3.558   6.462 -0.3761 -1.1306 -2.0929
 7632SOL     OW34357   1.783   2.490   4.006 -0.3649  0.2792 -0.1000
 7632SOL    HW134358   1.866   2.524   4.040 -0.0286 -3.0500  2.4434
 7632SOL    HW234359   1.744   2.570   3.973  1.0387  0.2632 -1.7996
 7633SOL     OW34360   3.927   3.299   9.718 -0.0889 -0.0466 -0.5196
 7633SOL    HW134361   3.997   3.299   9.783 -0.3576 -1.4796 -0.2312
 7633SOL    HW234362   3.850   3.316   9.773 -0.5692  0.0041 -1.2035
 7634SOL     OW34363   3.222   2.586   7.499 -0.2796 -0.0158  0.5398
 7634SOL    HW134364   3.155   2.519   7.501  0.9879 -1.2616  1.2645
 7634SOL    HW234365   3.175   2.659   7.459 -0.8377 -0.1544  0.9534
 7635SOL     OW34366   2.794   4.463   8.820  0.0684 -0.7918  0.3034
 7635SOL    HW134367   2.799   4.487   8.728  0.6792 -0.0522  0.5367
 7635SOL    HW234368   2.843   4.534   8.861  0.3377 -0.1413 -1.1280
 7636SOL     OW34369   4.679   2.290   3.026  0.5213 -0.5347 -0.3722
 7636SOL    HW134370   4.656   2.382   3.016 -1.8198 -1.2301 -1.4623
 7636SOL    HW234371   4.664   2.271   3.119 -0.2922  0.6805 -0.2574
 7637SOL     OW34372   4.440   2.281   6.237 -0.5078 -0.0506 -0.0495
 7637SOL    HW134373   4.384   2.204   6.239  1.6257 -1.5904  0.4679
 7637SOL    HW234374   4.416   2.306   6.326  1.5237  0.4046  0.3790
 7638SOL     OW34375   0.029   1.451   5.721  0.6953  0.1673 -0.6316
 7638SOL    HW134376   0.084   1.524   5.695  0.1533  0.3801 -1.1833
 7638SOL    HW234377   0.092   1.380   5.735  0.1787  0.3575  2.8121
 7639SOL     OW34378   3.735   4.455  17.013 -0.3440  0.2236  0.2295
 7639SOL    HW134379   3.729   4.362  16.989 -0.0111  0.3133 -0.1960
 7639SOL    HW234380   3.696   4.456  17.101 -0.1031  2.0058  0.3154
 7640SOL     OW34381   1.785   0.471  12.729  0.8400  0.2043 -0.1665
 7640SOL    HW134382   1.781   0.567  12.732  0.4004  0.1936 -0.4742
 7640SOL    HW234383   1.691   0.454  12.721  0.8374  0.9231 -1.7971
 7641SOL     OW34384   1.265   0.521  15.651 -0.0301  0.0447  0.0854
 7641SOL    HW134385   1.228   0.492  15.567  0.6961 -0.1430 -0.1719
 7641SOL    HW234386   1.348   0.475  15.658 -0.8321 -1.6319 -1.3870
 7642SOL     OW34387   4.354   3.951   5.369  0.2007  0.2314 -0.2266
 7642SOL    HW134388   4.334   3.925   5.279  1.2176 -0.3007 -0.2956
 7642SOL    HW234389   4.285   3.909   5.420 -1.0155 -0.3737 -2.3371
 7643SOL     OW34390   4.333   0.179   9.127  0.3855 -0.4223 -0.2028
 7643SOL    HW134391   4.310   0.199   9.218  0.2024  1.0004 -0.5549
 7643SOL    HW234392   4.246   0.155   9.097 -1.1282 -0.8178  4.5062
 7644SOL     OW34393   3.786   2.683   5.293  0.1894  0.1425 -0.4253
 7644SOL    HW134394   3.757   2.685   5.202  0.0354  2.7203 -0.3146
 7644SOL    HW234395   3.788   2.776   5.316 -1.0144 -0.1564  0.8677
 7645SOL     OW34396   1.908   2.818  15.884 -0.3677  0.0010  0.5423
 7645SOL    HW134397   1.888   2.821  15.791 -1.3188  2.6205  0.8354
 7645SOL    HW234398   1.827   2.852  15.922 -2.0974 -1.9998 -1.2927
 7646SOL     OW34399   2.503   2.420   9.677 -0.5664 -0.9522  0.6559
 7646SOL    HW134400   2.503   2.492   9.740  2.7131  0.4984 -0.9640
 7646SOL    HW234401   2.589   2.380   9.685 -0.0886  0.0174  0.4448
 7647SOL     OW34402   1.457   0.046   1.100  1.3033 -0.2977 -0.7101
 7647SOL    HW134403   1.453   0.036   1.005  2.3372  1.0731 -0.9053
 7647SOL    HW234404   1.388   0.111   1.112  0.8044 -0.9610 -0.0549
 7648SOL     OW34405   0.003   0.406   4.488  0.2891 -0.4965 -0.1371
 7648SOL    HW134406   4.657   0.459   4.455  0.9815  0.6341  0.1961
 7648SOL    HW234407   4.707   0.405   4.581 -1.5467 -1.5715 -0.5897
 7649SOL     OW34408   4.340   2.977  17.409  0.2779  0.3745  0.0839
 7649SOL    HW134409   4.385   3.051  17.369  0.5108 -0.9535 -2.0925
 7649SOL    HW234410   4.393   2.898  17.397 -0.0773  0.0400  0.7178
 7650SOL     OW34411   2.082   4.346  10.669  0.1483  0.3759 -0.0245
 7650SOL    HW134412   2.167   4.392  10.661  0.9321 -1.1460 -0.3716
 7650SOL    HW234413   2.074   4.321  10.761 -2.9933 -1.3016 -0.7724
 7651SOL     OW34414   1.616   1.395   4.696  0.4339  0.0588  0.2889
 7651SOL    HW134415   1.581   1.315   4.733 -1.0575  1.0143  0.9275
 7651SOL    HW234416   1.710   1.381   4.706  0.2875 -1.9524 -1.1377
 7652SOL     OW34417   3.269   2.937   4.410  0.1213 -0.0160 -0.1853
 7652SOL    HW134418   3.174   2.948   4.409  0.0133 -0.9455 -0.7633
 7652SOL    HW234419   3.296   2.969   4.324 -0.2307 -1.6677 -0.9221
 7653SOL     OW34420   0.159   2.487   4.719  0.0154 -0.1482  0.1483
 7653SOL    HW134421   0.225   2.431   4.760 -0.2602  0.7575  1.8286
 7653SOL    HW234422   0.077   2.441   4.734 -0.6395  0.4536 -1.4946
 7654SOL     OW34423   2.528   1.900   2.786  0.2713  0.0007  0.0915
 7654SOL    HW134424   2.444   1.945   2.775  0.3684  0.0212 -0.5487
 7654SOL    HW234425   2.508   1.808   2.805  1.8013  0.0727  1.9784
 7655SOL     OW34426   2.408   0.388   1.185  0.6265  0.1782  0.2120
 7655SOL    HW134427   2.441   0.334   1.256 -2.3280  0.8257  2.0670
 7655SOL    HW234428   2.321   0.351   1.195  1.8080 -1.2873  4.7510
 7656SOL     OW34429   0.840   3.018   6.702 -0.0085  0.4252 -0.1821
 7656SOL    HW134430   0.858   3.064   6.620 -0.5939  1.5853  0.3404
 7656SOL    HW234431   0.813   3.086   6.763 -0.6070 -1.0281  1.1807
 7657SOL     OW34432   2.532   3.429  14.573 -0.2192 -0.9977 -0.4925
 7657SOL    HW134433   2.625   3.438  14.596  0.1292 -0.7986 -1.9948
 7657SOL    HW234434   2.520   3.336  14.591 -0.0864 -0.6141  1.6146
 7658SOL     OW34435   2.567   1.600  11.451  0.4295 -0.8523 -0.1171
 7658SOL    HW134436   2.496   1.538  11.434  0.8034 -0.7437 -2.0666
 7658SOL    HW234437   2.536   1.651  11.526  0.3871 -0.5247 -0.3557
 7659SOL     OW34438   3.526   3.299   1.293 -0.3964  0.0207 -0.0603
 7659SOL    HW134439   3.503   3.283   1.384  2.3839  0.9400  0.8354
 7659SOL    HW234440   3.551   3.210   1.271 -1.5757 -0.3581  0.1515
 7660SOL     OW34441   1.549   4.702  15.676  0.3106  0.1993  0.2053
 7660SOL    HW134442   1.538   0.060  15.720  1.8815  0.8563 -0.6732
 7660SOL    HW234443   1.458   4.687  15.651  0.5198 -1.8847  0.6743
 7661SOL     OW34444   1.542   0.033   8.993 -0.1783 -0.0788  0.7933
 7661SOL    HW134445   1.543   0.034   9.089  0.3996 -0.5064  0.7953
 7661SOL    HW234446   1.460   0.082   8.985  1.6835  2.8782 -0.1119
 7662SOL     OW34447   1.474   3.591   4.324 -0.0370  0.3187 -0.1666
 7662SOL    HW134448   1.387   3.557   4.300 -0.6870  1.1439  1.0222
 7662SOL    HW234449   1.503   3.616   4.236  0.0953 -1.7292 -0.6996
 7663SOL     OW34450   4.019   1.162   7.568  0.2346 -0.2907  0.4667
 7663SOL    HW134451   3.977   1.239   7.530 -0.4657 -0.8840  0.0598
 7663SOL    HW234452   3.999   1.194   7.656  0.5289 -1.2787  0.8930
 7664SOL     OW34453   4.682   2.953   6.784 -0.0732 -0.6064 -0.0599
 7664SOL    HW134454   4.692   2.869   6.830  1.6840 -0.2146  0.2562
 7664SOL    HW234455   4.622   2.926   6.714 -0.6081 -1.6109  0.7723
 7665SOL     OW34456   3.688   4.509   1.798 -0.2376 -0.0791  0.6085
 7665SOL    HW134457   3.753   4.450   1.760  0.3533 -0.4115  2.1369
 7665SOL    HW234458   3.719   4.597   1.774  0.2422  0.0521  1.7004
 7666SOL     OW34459   2.103   0.104   5.231 -0.1057  0.4357 -0.3200
 7666SOL    HW134460   2.171   0.048   5.193 -0.6928  0.2211 -1.0614
 7666SOL    HW234461   2.027   0.073   5.181  0.1751 -1.2806  0.3008
 7667SOL     OW34462   3.955   4.524   8.727  0.8871 -0.2792 -0.4606
 7667SOL    HW134463   4.025   4.483   8.677 -0.6334  0.6675 -3.3184
 7667SOL    HW234464   3.886   4.508   8.663 -0.2085 -0.0914  0.6711
 7668SOL     OW34465   3.497   2.473   3.935  0.0740 -0.1944  0.5791
 7668SOL    HW134466   3.458   2.454   3.849  1.2349 -0.9738  0.2235
 7668SOL    HW234467   3.588   2.443   3.935  0.0915 -0.1770 -1.5943
 7669SOL     OW34468   0.556   1.489   5.661  0.1920 -0.2423  0.0793
 7669SOL    HW134469   0.642   1.532   5.667  0.1187 -0.3158  1.5892
 7669SOL    HW234470   0.507   1.559   5.617 -1.7573 -0.9416  1.1578
 7670SOL     OW34471   0.156   4.374  11.994  0.0386 -0.0561 -0.1308
 7670SOL    HW134472   0.089   4.409  12.054 -1.0219 -0.5834 -1.0059
 7670SOL    HW234473   0.214   4.316  12.043  0.0142  1.8887  2.1906
 7671SOL     OW34474   4.431   2.089   2.949 -0.4485 -0.0432  0.0616
 7671SOL    HW134475   4.507   2.145   2.937 -1.4965  1.2882 -0.3444
 7671SOL    HW234476   4.403   2.069   2.859  1.5876 -2.7192  0.0212
 7672SOL     OW34477   1.718   0.461   6.959 -0.2532  0.0171  0.3082
 7672SOL    HW134478   1.733   0.440   7.052 -1.3971  0.5909  0.6284
 7672SOL    HW234479   1.782   0.529   6.937 -1.4245  1.6160  1.8013
 7673SOL     OW34480   4.374   2.140   4.620  0.2712 -0.6243  0.3856
 7673SOL    HW134481   4.427   2.172   4.547  0.6669 -1.4701  0.3040
 7673SOL    HW234482   4.286   2.169   4.594  0.1281 -1.6292 -0.2475
 7674SOL     OW34483   3.210   4.583   7.373  0.4262 -0.2422 -0.4294
 7674SOL    HW134484   3.175   4.671   7.391 -0.3656 -1.1121  2.1671
 7674SOL    HW234485   3.275   4.567   7.441 -1.5238 -0.0328  1.4706
 7675SOL     OW34486   2.566   1.447   7.547  1.1676  0.2815 -0.0948
 7675SOL    HW134487   2.488   1.421   7.498  0.5425  1.0159  0.5223
 7675SOL    HW234488   2.582   1.530   7.501  1.5086 -0.1748 -0.7953
 7676SOL     OW34489   1.762   2.004  17.619  0.3937  0.2961 -0.5772
 7676SOL    HW134490   1.732   1.941  17.685  0.3043  1.4502  0.4762
 7676SOL    HW234491   1.722   2.085  17.651 -3.3648 -2.0613  0.8116
 7677SOL     OW34492   2.588   0.865   1.196  0.1357  0.0756  0.4016
 7677SOL    HW134493   2.553   0.778   1.173 -0.2137  0.5426 -0.8361
 7677SOL    HW234494   2.639   0.884   1.117 -0.9212  0.0966 -0.2841
 7678SOL     OW34495   4.132   3.641   0.246 -0.0703  0.8456  0.6117
 7678SOL    HW134496   4.119   3.576   0.316 -0.5778  0.4393  0.1453
 7678SOL    HW234497   4.218   3.605   0.223  0.1212 -0.7256  3.7917
 7679SOL     OW34498   1.463   1.919   0.733 -0.0906  0.7149 -0.0666
 7679SOL    HW134499   1.403   1.958   0.796 -0.8290 -1.0697  0.3300
 7679SOL    HW234500   1.508   1.995   0.696 -0.9701  0.3715 -1.8731
 7680SOL     OW34501   1.634   4.247   4.352 -0.0153 -1.2694  0.1810
 7680SOL    HW134502   1.612   4.238   4.259 -0.6645  0.8251  0.1370
 7680SOL    HW234503   1.566   4.306   4.383  1.5182 -0.0793  1.2817
 7681SOL     OW34504   0.197   0.771  12.049 -0.3946 -0.3305  0.0551
 7681SOL    HW134505   0.103   0.788  12.051 -0.3557 -0.0905 -0.1886
 7681SOL    HW234506   0.230   0.861  12.052  0.5989 -0.7043  0.3794
 7682SOL     OW34507   0.960   1.752   2.336 -0.5823  0.1549 -0.4014
 7682SOL    HW134508   0.964   1.833   2.284 -0.3971 -0.1349 -0.8403
 7682SOL    HW234509   0.994   1.779   2.421  0.7486  0.3668 -1.0000
 7683SOL     OW34510   3.894   2.046   7.420  0.2663  0.6722 -0.2158
 7683SOL    HW134511   3.950   2.122   7.436 -1.2068  1.4708  1.2457
 7683SOL    HW234512   3.809   2.089   7.431 -0.9445 -1.4413 -1.1408
 7684SOL     OW34513   3.678   3.029   6.374 -0.0796  0.1710 -0.3053
 7684SOL    HW134514   3.630   3.020   6.292 -2.2643  1.4537  0.8416
 7684SOL    HW234515   3.612   3.074   6.426 -1.6595 -1.4120 -0.9419
 7685SOL     OW34516   3.342   1.086  15.448 -0.1389  0.0981 -0.5673
 7685SOL    HW134517   3.410   1.146  15.481  0.4298 -0.7253 -0.2393
 7685SOL    HW234518   3.261   1.136  15.438 -0.1803  0.1628  0.1383
 7686SOL     OW34519   4.438   3.171   5.007  0.0193 -0.6796 -0.9351
 7686SOL    HW134520   4.385   3.129   4.939 -1.4292 -1.3495  0.6106
 7686SOL    HW234521   4.518   3.120   5.013 -0.0102 -0.6260 -0.1170
 7687SOL     OW34522   0.364   3.934   5.729  0.5634 -0.4559 -0.1908
 7687SOL    HW134523   0.414   4.015   5.739 -1.9055  0.8506  1.6353
 7687SOL    HW234524   0.277   3.963   5.757  0.3680 -0.9426 -0.2955
 7688SOL     OW34525   2.144   1.458   6.724  0.3182 -0.0920  0.0553
 7688SOL    HW134526   2.063   1.412   6.747 -0.9305  2.1180  0.0980
 7688SOL    HW234527   2.188   1.393   6.669  1.3116 -0.0043  0.7478
 7689SOL     OW34528   4.035   3.957  12.020 -0.1836 -0.2241  0.5436
 7689SOL    HW134529   4.077   3.954  11.934  0.8017 -2.7360  1.1220
 7689SOL    HW234530   4.077   4.029  12.068  0.4037  0.7480 -1.4221
 7690SOL     OW34531   4.540   4.501  17.286 -0.0835 -0.4412 -0.6920
 7690SOL    HW134532   4.520   4.412  17.255 -0.4188  0.2499 -2.4926
 7690SOL    HW234533   4.623   4.488  17.332 -0.3531 -1.8207 -0.5903
 7691SOL     OW34534   1.219   2.757   4.372 -0.5531  0.3493 -0.1758
 7691SOL    HW134535   1.283   2.804   4.318  0.6818 -0.6474  0.4201
 7691SOL    HW234536   1.282   2.687   4.393 -1.6094 -0.3852  0.5213
 7692SOL     OW34537   2.656   0.685   6.206  0.1202 -0.3277 -0.3385
 7692SOL    HW134538   2.740   0.640   6.193 -1.0507 -2.1685 -1.4890
 7692SOL    HW234539   2.655   0.758   6.144 -0.2720  0.9409  1.1721
 7693SOL     OW34540   0.417   3.028   8.464  0.7355 -0.2403 -0.0736
 7693SOL    HW134541   0.490   3.058   8.409  0.6591  0.4705  0.2107
 7693SOL    HW234542   0.457   2.958   8.516 -1.7078 -1.4108  0.2103
 7694SOL     OW34543   0.789   2.131  16.557 -0.0994 -0.1072 -0.2466
 7694SOL    HW134544   0.746   2.217  16.565 -0.5476 -0.5512  2.0371
 7694SOL    HW234545   0.714   2.075  16.578 -0.5178  0.7571  0.6033
 7695SOL     OW34546   3.135   0.918   8.555  0.1870  0.0958 -0.1480
 7695SOL    HW134547   3.094   0.850   8.610  0.3643 -0.1189 -0.2826
 7695SOL    HW234548   3.087   0.992   8.593  1.2538 -0.1986  1.8099
 7696SOL     OW34549   1.442   2.719   7.584  0.1731 -0.1316  0.4757
 7696SOL    HW134550   1.421   2.792   7.525  0.7512 -0.0973  0.3095
 7696SOL    HW234551   1.506   2.761   7.640  0.6080 -0.8893  0.5525
 7697SOL     OW34552   3.084   3.266   4.761  0.1743  0.4338 -0.0663
 7697SOL    HW134553   3.046   3.354   4.762 -0.2493  0.2520  0.0258
 7697SOL    HW234554   3.150   3.274   4.693  0.5268  2.6300  0.5283
 7698SOL     OW34555   0.806   2.734  13.269 -0.2284  1.0281 -0.0715
 7698SOL    HW134556   0.775   2.733  13.179  0.7285  1.1010 -0.4017
 7698SOL    HW234557   0.836   2.824  13.283 -1.3289  1.1771  1.3587
 7699SOL     OW34558   2.508   4.100   9.415 -0.0724  0.7840  0.4601
 7699SOL    HW134559   2.432   4.114   9.358  0.4135 -0.8134 -0.6167
 7699SOL    HW234560   2.576   4.123   9.352 -0.8508  1.1004 -0.2717
 7700SOL     OW34561   4.411   3.749   6.099  0.0775  0.3217  0.0485
 7700SOL    HW134562   4.347   3.710   6.158  0.0913 -0.1402 -0.2431
 7700SOL    HW234563   4.351   3.818   6.070  0.2763 -0.3364 -1.9259
 7701SOL     OW34564   4.587   0.794   4.624 -0.2029 -0.7792  0.0380
 7701SOL    HW134565   4.532   0.862   4.586  0.7336  0.9471  1.7818
 7701SOL    HW234566   4.516   0.730   4.628 -0.6115 -0.2081  1.8375
 7702SOL     OW34567   1.092   1.250  11.923 -0.3213  0.0588 -0.4374
 7702SOL    HW134568   1.127   1.182  11.866  2.4729 -0.5807  2.0779
 7702SOL    HW234569   1.133   1.248  12.010  1.3070 -0.6092 -1.2314
 7703SOL     OW34570   0.504   1.854   7.428 -0.3593 -0.0819 -0.4147
 7703SOL    HW134571   0.531   1.835   7.518 -4.9977  1.3649  1.2879
 7703SOL    HW234572   0.465   1.940   7.438 -1.9362 -1.0300  1.5512
 7704SOL     OW34573   1.258   2.144  16.980  0.2292  0.3138 -0.5568
 7704SOL    HW134574   1.303   2.072  16.937 -1.4318  0.1581 -2.0326
 7704SOL    HW234575   1.212   2.106  17.056  0.7947  0.6992 -0.0190
 7705SOL     OW34576   0.426   3.407  10.547 -0.5675  0.3951  0.6487
 7705SOL    HW134577   0.423   3.411  10.452 -0.3161  1.1299  0.6759
 7705SOL    HW234578   0.397   3.317  10.565 -0.8182 -0.3007 -3.2281
 7706SOL     OW34579   0.926   4.462  16.118  0.4934  1.2465  0.4427
 7706SOL    HW134580   0.849   4.501  16.077 -1.5697 -1.6792  1.5680
 7706SOL    HW234581   0.987   4.480  16.046 -0.5057 -1.3253 -1.0481
 7707SOL     OW34582   3.583   4.688   8.959 -0.9195  0.1613  0.0492
 7707SOL    HW134583   3.606   4.651   9.044  4.2905 -2.7996 -2.6631
 7707SOL    HW234584   3.665   4.707   8.914 -0.5598 -3.2610 -0.8179
 7708SOL     OW34585   0.359   4.440   5.624 -1.0731 -0.2196 -0.1067
 7708SOL    HW134586   0.285   4.441   5.684 -0.7188  0.5153  0.3136
 7708SOL    HW234587   0.392   4.530   5.619 -0.3181 -0.4075  1.4187
 7709SOL     OW34588   2.899   1.337  10.969  0.0478 -0.1184 -0.1010
 7709SOL    HW134589   2.890   1.382  10.885 -1.9483 -1.9425 -0.8466
 7709SOL    HW234590   2.974   1.379  11.012  1.2807 -2.3227 -0.0927
 7710SOL     OW34591   0.675   2.837   5.870 -0.1524 -0.2325 -0.2573
 7710SOL    HW134592   0.628   2.769   5.823  0.3464 -0.1759 -0.8346
 7710SOL    HW234593   0.741   2.858   5.805 -1.5760 -0.2468 -1.7194
 7711SOL     OW34594   2.078   1.277   3.793  0.0391  0.0439 -0.3524
 7711SOL    HW134595   1.996   1.315   3.761  0.0730  1.3388  1.1752
 7711SOL    HW234596   2.116   1.230   3.718  0.4232  1.0176 -0.7652
 7712SOL     OW34597   2.707   1.627   6.402  0.1930  0.1428  0.0955
 7712SOL    HW134598   2.754   1.562   6.349  0.0522 -0.7351  1.0427
 7712SOL    HW234599   2.681   1.565   6.471 -0.3203 -2.8589 -2.7822
 7713SOL     OW34600   1.201   3.508  15.939 -0.0460  0.5979  0.3022
 7713SOL    HW134601   1.117   3.552  15.924 -1.1834 -2.0313 -0.8772
 7713SOL    HW234602   1.206   3.440  15.872 -1.5942 -1.5585  2.3852
 7714SOL     OW34603   4.625   2.041   9.023 -0.1097 -0.5601 -0.0342
 7714SOL    HW134604   4.603   1.961   9.070  1.3079 -0.0776  1.4406
 7714SOL    HW234605   4.652   2.008   8.937 -0.8167  0.3575 -0.6080
 7715SOL     OW34606   0.573   0.149   6.800  0.3047 -0.5016 -0.1207
 7715SOL    HW134607   0.628   0.154   6.722  1.0577  2.8951  0.6387
 7715SOL    HW234608   0.551   0.241   6.790 -1.1654 -0.7629  0.7446
 7716SOL     OW34609   2.045   2.070   6.552  0.2106  0.3741  0.5719
 7716SOL    HW134610   2.120   2.103   6.602 -0.3257  1.4688  0.6492
 7716SOL    HW234611   1.980   2.140   6.553  1.1572  1.2543 -0.4448
 7717SOL     OW34612   4.243   0.243   0.013  0.0832  0.1912 -0.4170
 7717SOL    HW134613   4.286   0.327  17.703  1.5581 -0.4201  0.3713
 7717SOL    HW234614   4.155   0.279   0.028  1.0708  1.7798  1.4909
 7718SOL     OW34615   2.867   2.155   6.768 -0.6659 -0.4538  0.2858
 7718SOL    HW134616   2.891   2.218   6.836 -0.9245  0.0918 -0.1326
 7718SOL    HW234617   2.948   2.165   6.717 -0.2006 -0.8638  0.9548
 7719SOL     OW34618   0.465   2.410  15.788  0.5312  0.1788  0.4304
 7719SOL    HW134619   0.476   2.320  15.756  1.1203  0.5888 -0.5200
 7719SOL    HW234620   0.379   2.441  15.759  0.7776  0.0554 -0.4381
 7720SOL     OW34621   3.339   0.448   5.308 -0.9462  0.3365 -0.0793
 7720SOL    HW134622   3.394   0.523   5.330  1.3253 -1.0917 -0.7996
 7720SOL    HW234623   3.396   0.411   5.240 -0.3932  1.8345 -0.4308
 7721SOL     OW34624   3.332   3.561   3.550 -0.7005 -0.5708 -0.0047
 7721SOL    HW134625   3.284   3.643   3.562  0.7225  0.5453 -2.1033
 7721SOL    HW234626   3.411   3.576   3.601 -0.3233 -2.0981 -0.1546
 7722SOL     OW34627   0.487   2.018  14.807 -0.0760 -0.0679  0.2709
 7722SOL    HW134628   0.475   2.039  14.714 -0.2361 -0.1227  0.2793
 7722SOL    HW234629   0.579   1.993  14.801 -0.0981 -0.8461  2.9296
 7723SOL     OW34630   0.275   3.697   4.692  0.1172 -0.1744 -0.2432
 7723SOL    HW134631   0.264   3.602   4.693 -1.8591  0.0456 -2.0587
 7723SOL    HW234632   0.196   3.719   4.642  0.9778  0.3332 -1.3746
 7724SOL     OW34633   1.775   1.903   4.366  0.4070 -0.2050 -0.0922
 7724SOL    HW134634   1.697   1.897   4.420 -0.1618 -1.0902 -1.0030
 7724SOL    HW234635   1.840   1.908   4.436 -0.6747  0.7646  0.8251
 7725SOL     OW34636   0.831   2.236   7.801 -0.0309 -0.1365 -0.3248
 7725SOL    HW134637   0.815   2.247   7.895 -0.7647 -0.2438 -0.4383
 7725SOL    HW234638   0.850   2.142   7.802 -0.0618 -0.1462 -0.5918
 7726SOL     OW34639   1.662   0.404   1.540 -0.0454 -0.0452  0.4683
 7726SOL    HW134640   1.603   0.350   1.486  1.6189  0.8851 -2.2680
 7726SOL    HW234641   1.601   0.472   1.567 -0.6052 -0.6737  0.7915
 7727SOL     OW34642   2.433   1.369   5.186  0.2457 -0.3110  0.0550
 7727SOL    HW134643   2.491   1.400   5.256 -0.3605  0.4539  0.2234
 7727SOL    HW234644   2.349   1.368   5.232  0.3800  1.2623  0.3582
 7728SOL     OW34645   2.087   2.722  10.218  0.0656  0.1159 -0.4094
 7728SOL    HW134646   2.169   2.733  10.266 -0.4809 -0.2056  0.6020
 7728SOL    HW234647   2.065   2.629  10.222 -0.4472  0.3079  1.2752
 7729SOL     OW34648   1.981   1.835  14.945 -0.0254  0.5422 -0.6966
 7729SOL    HW134649   1.934   1.753  14.953 -1.4210  1.3566 -0.5832
 7729SOL    HW234650   2.005   1.855  15.035 -0.4765  0.8666 -0.6500
 7730SOL     OW34651   0.482   2.196   1.194  0.0552 -0.2433  0.8137
 7730SOL    HW134652   0.507   2.231   1.279  3.1322  0.3132 -0.3336
 7730SOL    HW234653   0.448   2.108   1.209 -0.4525  0.0818  1.5710
 7731SOL     OW34654   0.022   2.044  14.573 -0.4289  0.0863 -0.1248
 7731SOL    HW134655   4.678   2.099  14.540 -1.9092 -0.9156  1.3707
 7731SOL    HW234656   0.005   1.972  14.511  1.0420 -2.3156  2.2397
 7732SOL     OW34657   4.373   3.222   7.263  0.2615 -0.2672 -0.2753
 7732SOL    HW134658   4.397   3.135   7.295 -1.1207 -0.9027 -0.9689
 7732SOL    HW234659   4.410   3.268   7.338 -0.4491 -0.2789  0.0874
 7733SOL     OW34660   2.027   4.461   5.060  0.0386  0.3692  0.5628
 7733SOL    HW134661   2.078   4.405   5.001  0.6795  0.4453  1.0381
 7733SOL    HW234662   2.098   4.501   5.110  0.6666  1.4464 -1.1660
 7734SOL     OW34663   2.237   2.486   2.783  0.0120 -0.2667  0.7759
 7734SOL    HW134664   2.321   2.465   2.823  0.0070 -1.2651  0.2468
 7734SOL    HW234665   2.260   2.565   2.734 -0.2851 -0.8098 -0.2274
 7735SOL     OW34666   4.701   3.260   2.021  0.0232  0.2786 -0.3345
 7735SOL    HW134667   0.058   3.271   1.975 -1.4826 -0.1418 -3.1230
 7735SOL    HW234668   4.668   3.192   1.963 -1.5282 -0.3929  1.3579
 7736SOL     OW34669   2.539   0.383  12.255 -0.0227 -0.0851 -0.5643
 7736SOL    HW134670   2.557   0.289  12.263 -1.3344 -0.2824  0.0778
 7736SOL    HW234671   2.493   0.379  12.171 -0.2524  1.1599 -0.4998
 7737SOL     OW34672   1.271   0.693   2.839  0.5422  1.0283  0.2946
 7737SOL    HW134673   1.345   0.632   2.833 -1.4998 -1.3900 -0.4693
 7737SOL    HW234674   1.293   0.774   2.794  1.3069 -0.7979 -2.6782
 7738SOL     OW34675   1.077   0.078   3.625  0.2300 -0.2768 -0.1463
 7738SOL    HW134676   1.085   4.709   3.617 -2.0883 -0.4738 -0.1491
 7738SOL    HW234677   1.170   0.100   3.621  0.2468 -0.2194  0.5586
 7739SOL     OW34678   2.004   0.797   3.005 -0.3719 -0.2415  0.3787
 7739SOL    HW134679   1.969   0.726   2.951  0.8824 -0.8876  0.4028
 7739SOL    HW234680   2.076   0.752   3.049  0.3343  0.0113 -0.5330
 7740SOL     OW34681   1.491   1.914   6.473 -0.3584 -0.3808 -0.4810
 7740SOL    HW134682   1.420   1.968   6.438  0.1796  0.6183 -0.0497
 7740SOL    HW234683   1.569   1.946   6.428  0.5845 -0.3298  1.1669
 7741SOL     OW34684   4.436   3.736   5.669  0.1909  0.1132 -0.2897
 7741SOL    HW134685   4.437   3.677   5.744  0.6836  3.5399  2.3739
 7741SOL    HW234686   4.500   3.804   5.688  0.7089 -0.6636  0.7617
 7742SOL     OW34687   3.932   4.052   7.527 -0.1832 -0.3846 -0.2951
 7742SOL    HW134688   3.920   4.043   7.433  2.9669 -2.0935 -0.5478
 7742SOL    HW234689   3.849   4.091   7.553  0.0438 -1.3642  1.8877
 7743SOL     OW34690   0.215   0.756   5.181  0.3453  0.0117 -0.2238
 7743SOL    HW134691   0.191   0.846   5.158  2.3864  0.5815 -0.1361
 7743SOL    HW234692   0.143   0.705   5.145 -0.6420  0.9300  0.4238
 7744SOL     OW34693   2.900   1.811   5.052  0.2582 -0.0626  0.4184
 7744SOL    HW134694   2.982   1.768   5.029 -0.2112 -0.8209  0.1336
 7744SOL    HW234695   2.916   1.901   5.026 -0.8345  0.1966  0.6352
 7745SOL     OW34696   0.981   3.918   2.685 -0.0577  0.1504  0.0578
 7745SOL    HW134697   0.934   3.889   2.763  1.0929 -2.2490 -0.1336
 7745SOL    HW234698   0.970   4.013   2.679 -1.4252 -0.0119 -0.0246
 7746SOL     OW34699   1.567   3.547   2.834 -0.5287 -0.2397 -0.1070
 7746SOL    HW134700   1.646   3.578   2.878 -1.4558  0.6991  0.8802
 7746SOL    HW234701   1.556   3.462   2.877  0.1888 -0.6724 -0.7606
 7747SOL     OW34702   1.496   1.868   8.987 -0.1195  0.2301 -0.3123
 7747SOL    HW134703   1.475   1.958   9.013  0.7528  0.2272  0.4126
 7747SOL    HW234704   1.464   1.821   9.064  2.1221  1.2759  1.2519
 7748SOL     OW34705   2.000   0.956   7.167 -0.8074 -0.1447 -0.3209
 7748SOL    HW134706   1.913   0.997   7.172  0.2534  1.9473  1.1098
 7748SOL    HW234707   2.037   1.001   7.091  1.8079 -2.0001 -0.1232
 7749SOL     OW34708   0.798   0.552   6.827  0.5369 -0.0497  0.7102
 7749SOL    HW134709   0.767   0.633   6.786 -2.1903 -1.0927  0.6981
 7749SOL    HW234710   0.858   0.595   6.888  2.0995 -0.2042 -0.7332
 7750SOL     OW34711   0.529   0.341  12.840 -0.3932  0.1575  0.4056
 7750SOL    HW134712   0.584   0.419  12.849  0.8702 -0.7479  0.4796
 7750SOL    HW234713   0.514   0.343  12.746  2.6444 -2.2543 -0.1112
 7751SOL     OW34714   1.829   2.543   7.588 -0.2320 -0.1965 -0.4112
 7751SOL    HW134715   1.743   2.524   7.550 -0.7802  0.8153  0.3447
 7751SOL    HW234716   1.871   2.456   7.581 -0.6834 -0.4906  0.5838
 7752SOL     OW34717   0.559   0.029   6.040  0.6792 -0.0694  0.2528
 7752SOL    HW134718   0.610   0.030   5.959  1.3738  0.4712  0.6920
 7752SOL    HW234719   0.594   0.093   6.103  1.6613  2.3882 -2.7803
 7753SOL     OW34720   3.453   2.483   5.190 -0.4724  0.7078 -0.1544
 7753SOL    HW134721   3.437   2.577   5.182  1.3269  0.8069 -2.6123
 7753SOL    HW234722   3.492   2.485   5.277  1.2912  1.7552 -0.9741
 7754SOL     OW34723   4.221   2.356   7.647  0.0272 -0.3198  0.6165
 7754SOL    HW134724   4.295   2.362   7.707  0.5880  1.8244 -0.2819
 7754SOL    HW234725   4.144   2.379   7.700  0.5503  0.7830  0.9003
 7755SOL     OW34726   3.528   4.253   2.179  0.7769 -0.0986 -0.1730
 7755SOL    HW134727   3.464   4.186   2.155 -0.3897  0.1480  2.2796
 7755SOL    HW234728   3.513   4.305   2.100 -0.1300 -0.6259 -0.3546
 7756SOL     OW34729   1.771   0.030   8.291  0.1958  0.3007  0.3653
 7756SOL    HW134730   1.795   4.664   8.290  1.6462  0.6867  1.0024
 7756SOL    HW234731   1.854   0.074   8.277 -0.4071  0.3796 -3.1379
 7757SOL     OW34732   0.231   4.690  12.870 -1.1763  0.2600  0.0111
 7757SOL    HW134733   0.181   0.012  12.936 -2.0789  0.8055 -1.0663
 7757SOL    HW234734   0.262   4.615  12.921  1.5012  0.3770 -1.4260
 7758SOL     OW34735   0.918   0.585  17.099  0.2145  0.3079 -0.6173
 7758SOL    HW134736   0.924   0.679  17.117 -0.7729  0.1854  0.3104
 7758SOL    HW234737   0.899   0.587  17.005 -1.0015  0.6453 -0.3572
 7759SOL     OW34738   4.114   2.109  13.461 -0.1702 -0.1419  0.1904
 7759SOL    HW134739   4.195   2.155  13.482  1.4842 -2.7066 -0.6102
 7759SOL    HW234740   4.082   2.114  13.551 -2.2662 -0.0634 -0.5606
 7760SOL     OW34741   3.552   3.381   7.552  0.5305  0.0380 -0.0833
 7760SOL    HW134742   3.540   3.310   7.489  0.3745 -0.4327  0.4768
 7760SOL    HW234743   3.510   3.345   7.630  2.1695  0.7506  1.1464
 7761SOL     OW34744   2.047   1.133   1.117 -0.0515  0.9588 -0.5699
 7761SOL    HW134745   2.006   1.195   1.057 -1.1431 -1.6210 -2.4914
 7761SOL    HW234746   1.986   1.062   1.098  1.7446 -1.0395  1.1138
 7762SOL     OW34747   4.612   3.898   5.786  0.1015  0.3443  0.2064
 7762SOL    HW134748   4.654   3.894   5.872 -1.2205 -0.9132  0.7669
 7762SOL    HW234749   4.594   3.992   5.779  1.8639  0.5412 -1.6397
 7763SOL     OW34750   4.648   0.368   1.491 -0.2640  0.6953  0.5154
 7763SOL    HW134751   4.599   0.353   1.410  0.9275 -0.6710  0.0460
 7763SOL    HW234752   4.662   0.462   1.485  0.5900  0.5658  0.3794
 7764SOL     OW34753   2.269   1.355   4.616  0.0295  0.0313  0.3157
 7764SOL    HW134754   2.265   1.444   4.582  1.2957 -0.9431 -2.4436
 7764SOL    HW234755   2.186   1.320   4.582 -0.3364 -0.4827  1.7271
 7765SOL     OW34756   4.079   1.398   4.238 -0.4152 -0.4174  0.0078
 7765SOL    HW134757   4.072   1.334   4.309  0.9160 -1.0659 -0.4511
 7765SOL    HW234758   4.092   1.346   4.159 -1.6189 -0.7156  0.0112
 7766SOL     OW34759   0.192   3.239   1.845  0.0921  0.6617  0.9340
 7766SOL    HW134760   0.283   3.219   1.867 -0.0939 -0.7399  0.4492
 7766SOL    HW234761   0.156   3.152   1.861  1.4460 -0.2816 -1.0424
 7767SOL     OW34762   0.877   0.104   4.767  0.1881  0.4393  0.4780
 7767SOL    HW134763   0.886   0.140   4.678 -1.1970 -3.7744 -1.3738
 7767SOL    HW234764   0.865   0.010   4.752 -2.9335  1.0023 -0.4744
 7768SOL     OW34765   3.981   4.609   6.901  0.3453  0.7773 -0.0203
 7768SOL    HW134766   3.922   4.558   6.956 -2.7801  2.7668 -1.5455
 7768SOL    HW234767   3.935   4.614   6.817  0.3812  3.4385  0.0967
 7769SOL     OW34768   3.198   3.648  17.396 -0.3562 -0.9563  0.6513
 7769SOL    HW134769   3.165   3.729  17.435 -0.5433 -0.8355  0.2307
 7769SOL    HW234770   3.154   3.656  17.312  1.5174 -0.0788 -0.2517
 7770SOL     OW34771   4.504   0.156   2.445 -0.7760 -0.4054 -0.0878
 7770SOL    HW134772   4.456   0.160   2.362 -2.5639 -2.1687  0.8634
 7770SOL    HW234773   4.588   0.119   2.418 -0.8156 -0.3163 -0.3299
 7771SOL     OW34774   3.915   0.005   6.172 -0.3556 -0.0987  0.1932
 7771SOL    HW134775   3.896   4.640   6.191 -0.2441 -0.7671 -3.0633
 7771SOL    HW234776   3.900   0.017   6.079  0.3170  2.4217  0.4058
 7772SOL     OW34777   4.306   4.440   4.652 -0.1745  0.6979  0.3819
 7772SOL    HW134778   4.323   4.523   4.608 -0.7701  0.3056 -0.5985
 7772SOL    HW234779   4.266   4.391   4.580  0.2344 -1.2062  1.4581
 7773SOL     OW34780   3.039   4.520   1.718  0.0827 -0.0614  0.0699
 7773SOL    HW134781   3.036   4.614   1.702 -0.6411  0.3962  2.9038
 7773SOL    HW234782   2.970   4.484   1.661 -0.2794  0.2392  0.3174
 7774SOL     OW34783   1.912   1.296   4.740  0.2176  0.1165 -0.0374
 7774SOL    HW134784   1.935   1.204   4.757  0.2783 -0.4081 -2.9571
 7774SOL    HW234785   1.951   1.337   4.817  1.3944  0.1104 -0.6338
 7775SOL     OW34786   2.790   3.209   8.092 -0.6480  0.3735  0.2624
 7775SOL    HW134787   2.696   3.193   8.084 -0.3342 -0.6113 -1.2678
 7775SOL    HW234788   2.822   3.136   8.039 -0.8773  1.0257 -0.7668
 7776SOL     OW34789   1.540   1.092   3.405  0.2185 -0.2432 -0.2787
 7776SOL    HW134790   1.492   1.054   3.478 -0.7745  2.2178  0.3269
 7776SOL    HW234791   1.614   1.031   3.397 -2.3287 -3.4082  0.0746
 7777SOL     OW34792   4.389   2.529   7.375 -0.6282  0.4993  0.1727
 7777SOL    HW134793   4.397   2.581   7.455  1.4388 -1.1402  1.0294
 7777SOL    HW234794   4.335   2.581   7.315  4.0966  1.4170 -3.2288
 7778SOL     OW34795   2.736   0.194   0.095  0.1508 -0.1768  0.1390
 7778SOL    HW134796   2.662   0.137   0.073  0.3990  0.3754 -2.1421
 7778SOL    HW234797   2.737   0.201   0.190 -1.0900  0.0747  0.1361
 7779SOL     OW34798   3.773   2.639  17.494  0.0051 -0.2862  0.7878
 7779SOL    HW134799   3.850   2.670  17.448  0.8887 -3.1650  0.3243
 7779SOL    HW234800   3.755   2.558  17.446  1.3571  0.9334 -1.7382
 7780SOL     OW34801   1.921   1.337   7.230  0.0503 -0.2476  0.1534
 7780SOL    HW134802   1.931   1.354   7.323  1.4079 -1.9342  0.3210
 7780SOL    HW234803   2.010   1.341   7.194  0.6829  0.0470  1.7376
 7781SOL     OW34804   0.306   0.712   4.061 -0.2341  0.4201  0.4486
 7781SOL    HW134805   0.329   0.723   4.154  0.6264 -0.2915  0.3142
 7781SOL    HW234806   0.245   0.639   4.050  1.2909 -0.5663 -1.3806
 7782SOL     OW34807   0.510   3.595   3.814  0.2096  0.5132  0.3425
 7782SOL    HW134808   0.540   3.507   3.794 -2.5008 -0.2058 -0.6285
 7782SOL    HW234809   0.459   3.578   3.893  1.2971  0.8809  1.1214
 7783SOL     OW34810   3.108   1.984   4.146 -0.4311  0.0931  0.5581
 7783SOL    HW134811   3.154   1.971   4.063 -0.4304  0.1740  0.5464
 7783SOL    HW234812   3.064   1.900   4.158  1.0473 -0.6520  0.8075
 7784SOL     OW34813   2.564   4.687  16.156 -0.3323 -0.1810  0.5056
 7784SOL    HW134814   2.631   4.637  16.110 -1.1496 -0.1556 -0.7242
 7784SOL    HW234815   2.520   4.715  16.076  1.2027  1.4132  0.2176
 7785SOL     OW34816   2.874   3.548   6.411  0.4729 -0.1630  0.3428
 7785SOL    HW134817   2.823   3.489   6.466 -1.8839  1.3713 -0.1928
 7785SOL    HW234818   2.857   3.625   6.466  0.5307 -1.9177  2.8294
 7786SOL     OW34819   4.054   2.506   5.010 -0.2743  0.3350  0.2899
 7786SOL    HW134820   4.140   2.530   4.976  0.6797  1.4590  3.4509
 7786SOL    HW234821   4.061   2.535   5.101  0.4816 -1.8617  0.9370
 7787SOL     OW34822   0.002   1.145   1.461  0.1902  0.0133  0.2247
 7787SOL    HW134823   0.046   1.060   1.466  1.0996  0.5194  0.8136
 7787SOL    HW234824   4.700   1.164   1.550 -2.5176 -1.6176 -0.2981
 7788SOL     OW34825   2.066   2.777  13.968 -0.2035  0.7096  0.2424
 7788SOL    HW134826   1.995   2.720  13.940  1.8615 -0.1290 -3.2805
 7788SOL    HW234827   2.076   2.744  14.057 -0.8725  3.0444  1.1726
 7789SOL     OW34828   1.087   4.295  12.622  0.0756 -0.4538 -0.4091
 7789SOL    HW134829   1.173   4.334  12.634 -0.4467 -0.5751  3.5666
 7789SOL    HW234830   1.027   4.342  12.680  0.8657  1.0679 -0.8352
 7790SOL     OW34831   0.032   4.453  12.726 -0.1278  0.3886  0.1120
 7790SOL    HW134832   0.005   4.538  12.762  0.2857 -0.1403  1.6585
 7790SOL    HW234833   0.092   4.426  12.795 -1.7801  0.3541  1.5344
 7791SOL     OW34834   4.576   4.209  14.515 -0.2561  0.0806  0.8309
 7791SOL    HW134835   4.582   4.304  14.517 -1.0771  0.1548  0.0061
 7791SOL    HW234836   4.624   4.190  14.434 -0.5715  1.1665  0.3948
 7792SOL     OW34837   4.550   1.347   5.902  0.3464  0.4912  0.1894
 7792SOL    HW134838   4.580   1.320   5.989  0.1735 -0.9921 -0.2023
 7792SOL    HW234839   4.626   1.396   5.870  1.6731  0.7195  3.7246
 7793SOL     OW34840   3.405   4.670  11.208  0.1563 -0.0739  0.3816
 7793SOL    HW134841   3.437   4.695  11.121  1.4787 -0.6562  0.6932
 7793SOL    HW234842   3.423   4.577  11.194  0.6356  0.4653 -2.5690
 7794SOL     OW34843   1.322   3.586   2.948  0.2734 -0.4345  0.1075
 7794SOL    HW134844   1.399   3.571   2.893 -0.3893 -0.4606 -0.8029
 7794SOL    HW234845   1.280   3.663   2.910 -2.6707 -1.4170  1.4354
 7795SOL     OW34846   3.262   0.952   4.237 -0.1493 -0.3741 -0.6990
 7795SOL    HW134847   3.189   0.963   4.298  1.5396  1.5286  1.0023
 7795SOL    HW234848   3.235   1.009   4.165 -2.2314 -0.5861 -0.0627
 7796SOL     OW34849   2.391   1.152  13.628  0.2443  0.1776  0.0063
 7796SOL    HW134850   2.343   1.219  13.676 -0.0687  0.5654 -0.8399
 7796SOL    HW234851   2.441   1.214  13.575 -0.3896  1.2883  0.7162
 7797SOL     OW34852   3.415   0.031   4.690  0.0065 -0.1453  0.2253
 7797SOL    HW134853   3.473   0.106   4.679  1.4346 -1.3166 -0.2551
 7797SOL    HW234854   3.333   0.078   4.703 -0.5779 -1.3037  0.6919
 7798SOL     OW34855   2.515   4.400   6.470 -0.1046 -0.1173 -0.5868
 7798SOL    HW134856   2.531   4.470   6.534 -1.7186 -1.4651  1.3032
 7798SOL    HW234857   2.427   4.377   6.499 -0.9842  3.6739 -0.3176
 7799SOL     OW34858   0.469   3.815   4.236  0.0416 -0.1266  0.1282
 7799SOL    HW134859   0.481   3.833   4.143  1.6708  0.7891  0.5044
 7799SOL    HW234860   0.376   3.795   4.239 -0.1376  0.7575  0.4553
 7800SOL     OW34861   0.191   4.671   5.816 -0.4400 -0.2828 -0.2767
 7800SOL    HW134862   0.167   4.716   5.897 -1.6030 -1.3390 -0.0326
 7800SOL    HW234863   0.137   4.701   5.742 -0.5116  1.1275  0.3420
 7801SOL     OW34864   0.194   4.173   2.221 -0.8910  0.2467  0.1356
 7801SOL    HW134865   0.136   4.232   2.175 -0.3642 -1.1682 -2.3257
 7801SOL    HW234866   0.260   4.243   2.219 -0.6821  0.0390 -0.2945
 7802SOL     OW34867   4.457   1.907   4.077  0.7819 -0.1941  0.0633
 7802SOL    HW134868   4.419   1.820   4.064  2.3937 -1.0433  1.0293
 7802SOL    HW234869   4.423   1.949   3.998  2.4359 -1.6172 -1.4396
 7803SOL     OW34870   0.890   2.987  13.174 -0.3791 -0.3817 -0.1137
 7803SOL    HW134871   0.978   2.998  13.139 -0.9013  1.4076 -0.8592
 7803SOL    HW234872   0.876   3.077  13.203  1.9912 -0.0616  0.0055
 7804SOL     OW34873   0.877   2.214   5.512  0.5663  0.0309  0.0696
 7804SOL    HW134874   0.795   2.169   5.493 -0.7361  2.5796 -0.4212
 7804SOL    HW234875   0.881   2.277   5.440  0.8563  2.2076  1.9938
 7805SOL     OW34876   3.891   0.371   4.612  0.4648  0.3511 -0.1621
 7805SOL    HW134877   3.855   0.296   4.564  1.4225 -0.2679  0.0897
 7805SOL    HW234878   3.816   0.401   4.663  0.3787  1.3028 -0.8573
 7806SOL     OW34879   3.359   2.657  15.398 -0.3410 -0.0334 -0.0560
 7806SOL    HW134880   3.350   2.603  15.319 -1.2945  1.9923 -1.3222
 7806SOL    HW234881   3.289   2.616  15.448  0.7018  0.1545  1.5508
 7807SOL     OW34882   3.375   3.595   1.352  0.2085  0.0417  0.0296
 7807SOL    HW134883   3.375   3.553   1.266 -0.4476  0.2730 -0.0826
 7807SOL    HW234884   3.463   3.577   1.385 -0.7148 -1.8024  1.5054
 7808SOL     OW34885   1.288   2.001   6.317 -0.2316  0.1801 -0.5126
 7808SOL    HW134886   1.244   1.920   6.291  0.0325  0.3169 -1.4069
 7808SOL    HW234887   1.303   2.046   6.234 -0.8095  1.9061  0.3036
 7809SOL     OW34888   1.752   3.213  12.587 -0.1729  0.2097 -0.1936
 7809SOL    HW134889   1.811   3.193  12.660  2.1845 -1.4405 -2.5983
 7809SOL    HW234890   1.777   3.306  12.585  0.9909 -0.0941 -0.0575
 7810SOL     OW34891   2.545   1.211   3.527  0.2632 -0.0968 -0.1932
 7810SOL    HW134892   2.603   1.285   3.509 -0.4608  0.9405  1.7954
 7810SOL    HW234893   2.515   1.241   3.613  0.9321 -1.6636  0.6048
 7811SOL     OW34894   4.062   2.035  16.773 -0.3886  0.7276  0.4083
 7811SOL    HW134895   4.151   2.004  16.755  0.4037  2.9076  0.5776
 7811SOL    HW234896   4.023   1.950  16.753 -1.1780  1.2416 -0.2241
 7812SOL     OW34897   0.634   3.218   8.099 -0.2918 -0.3579  0.5445
 7812SOL    HW134898   0.660   3.132   8.131  1.0893  0.0426  0.5048
 7812SOL    HW234899   0.610   3.265   8.179 -0.6063  0.4101  0.0003
 7813SOL     OW34900   3.372   1.003   2.179  0.0307 -0.0007 -0.5720
 7813SOL    HW134901   3.458   0.977   2.212 -0.1035 -2.4467 -2.1270
 7813SOL    HW234902   3.314   0.952   2.235 -1.6678  1.7595 -0.7473
 7814SOL     OW34903   3.624   4.423  15.008  0.8826 -0.4618  0.1522
 7814SOL    HW134904   3.607   4.402  15.100 -0.0022 -0.2353  0.0451
 7814SOL    HW234905   3.648   4.336  14.977  1.9295 -0.5691  1.2640
 7815SOL     OW34906   2.812   4.001   1.493 -0.3367  0.3428 -0.1969
 7815SOL    HW134907   2.768   4.085   1.505 -1.0081  0.0763 -0.7743
 7815SOL    HW234908   2.885   4.014   1.554 -1.0855  0.2738  0.7142
 7816SOL     OW34909   2.209   0.019   1.397  0.3280 -0.3699  0.2627
 7816SOL    HW134910   2.299   4.723   1.374  0.3987  1.4146 -1.1954
 7816SOL    HW234911   2.177   0.057   1.315  1.5515 -0.1540 -0.1140
 7817SOL     OW34912   3.683   1.336  10.197 -0.2428 -0.7137  0.4344
 7817SOL    HW134913   3.760   1.389  10.181 -0.4974  0.4011  2.8232
 7817SOL    HW234914   3.725   1.252  10.217 -0.5799 -0.3201  2.8598
 7818SOL     OW34915   3.005   1.692   3.401 -0.0166 -0.2269  0.1147
 7818SOL    HW134916   2.938   1.757   3.383  0.4780 -0.1382 -1.4069
 7818SOL    HW234917   3.075   1.753   3.428  0.2842  0.4093 -2.1212
 7819SOL     OW34918   0.919   4.623   8.265  0.2957 -0.1298  0.0893
 7819SOL    HW134919   0.891   4.586   8.348 -2.5449  0.7396 -0.4647
 7819SOL    HW234920   1.009   4.652   8.280 -0.1526  1.1552  0.3369
 7820SOL     OW34921   0.916   4.160  17.032 -0.1886 -0.1799  0.1380
 7820SOL    HW134922   0.874   4.123  17.110  0.0810  0.0121  0.3755
 7820SOL    HW234923   0.943   4.083  16.981  1.0933 -0.9122  1.9035
 7821SOL     OW34924   4.596   4.114   7.583  0.0262  0.4739  0.3828
 7821SOL    HW134925   4.541   4.169   7.639  0.6474  0.1687  1.2875
 7821SOL    HW234926   4.578   4.028   7.620 -0.4455  0.5704  0.3847
 7822SOL     OW34927   3.097   3.757   3.129 -0.0853 -0.0505 -0.3959
 7822SOL    HW134928   3.022   3.701   3.111  0.0254  0.1052 -1.3217
 7822SOL    HW234929   3.054   3.839   3.105  1.2315  0.5939 -0.5319
 7823SOL     OW34930   0.659   2.022   8.252  0.6701  0.0375  0.2586
 7823SOL    HW134931   0.707   2.076   8.314  0.6914  1.6898 -1.1818
 7823SOL    HW234932   0.706   1.940   8.267  0.6833 -0.0177 -0.0730
 7824SOL     OW34933   4.532   0.319   5.850 -0.1186  0.3065  0.7770
 7824SOL    HW134934   4.591   0.298   5.778 -1.9482  0.5793 -0.7899
 7824SOL    HW234935   4.601   0.330   5.916 -0.8921 -2.2786  2.0494
 7825SOL     OW34936   3.610   2.989   8.982 -0.7355 -0.5647 -0.7712
 7825SOL    HW134937   3.680   2.996   8.916 -0.8209 -1.4540 -0.9527
 7825SOL    HW234938   3.598   3.080   9.012 -0.0159 -0.0367 -2.0848
 7826SOL     OW34939   1.810   2.765   2.980  0.4518  0.1553  0.0939
 7826SOL    HW134940   1.804   2.853   2.941  1.2869 -0.1159 -0.6468
 7826SOL    HW234941   1.893   2.752   2.934 -0.2767  2.5122 -1.8823
 7827SOL     OW34942   0.018   3.264   5.382  0.4130  0.6206  0.5320
 7827SOL    HW134943   0.070   3.279   5.461  0.1935 -1.2969  1.0411
 7827SOL    HW234944   4.705   3.349   5.365  2.1533  1.8390  2.6169
 7828SOL     OW34945   3.259   0.154   7.816 -0.7976  0.4968 -0.8194
 7828SOL    HW134946   3.349   0.164   7.787  0.2620 -0.7359  2.0231
 7828SOL    HW234947   3.263   0.167   7.911 -1.9224 -0.1210 -0.6871
 7829SOL     OW34948   2.622   0.656   3.627 -0.1296 -0.6516 -0.4849
 7829SOL    HW134949   2.606   0.562   3.621  1.0252 -0.6158 -4.1871
 7829SOL    HW234950   2.640   0.683   3.537  0.0839 -0.0961 -0.2761
 7830SOL     OW34951   2.169   1.916   5.742 -0.6989 -0.5263 -0.2470
 7830SOL    HW134952   2.172   1.885   5.651  1.7964 -0.6657 -0.1225
 7830SOL    HW234953   2.261   1.903   5.767 -0.5169  2.2926  0.5547
 7831SOL     OW34954   2.051   3.025  17.060 -0.5640  0.2090  0.2010
 7831SOL    HW134955   2.059   3.111  17.018  0.8491  0.4841  1.0255
 7831SOL    HW234956   2.008   3.057  17.139 -0.9953 -0.5328  0.2632
 7832SOL     OW34957   3.665   0.333   7.317  0.0252 -0.2420 -0.0735
 7832SOL    HW134958   3.663   0.422   7.280 -2.2745 -0.5610 -0.7500
 7832SOL    HW234959   3.664   0.284   7.236 -1.5567 -0.1160 -0.1334
 7833SOL     OW34960   1.668   4.048   8.617 -0.3878  0.6986 -0.6504
 7833SOL    HW134961   1.762   4.052   8.597 -0.7167  0.3058 -2.2376
 7833SOL    HW234962   1.640   3.996   8.542 -2.6494  0.0925  0.6206
 7834SOL     OW34963   2.479   2.684  15.662 -0.3343 -0.8469  0.3177
 7834SOL    HW134964   2.498   2.764  15.710  0.6115 -0.6110 -0.4580
 7834SOL    HW234965   2.541   2.679  15.589 -0.9641 -1.0483 -0.2133
 7835SOL     OW34966   2.727   4.509   5.664 -0.4901  0.0652 -0.1335
 7835SOL    HW134967   2.701   4.427   5.621  1.1065 -0.7877  0.5258
 7835SOL    HW234968   2.639   4.543   5.677 -1.1560 -2.4052  1.8187
 7836SOL     OW34969   0.759   2.119  12.643  0.1803 -0.3290 -0.0745
 7836SOL    HW134970   0.751   2.119  12.738  0.6585  0.9616 -0.0341
 7836SOL    HW234971   0.701   2.045  12.624 -0.3611 -0.4999  2.2325
 7837SOL     OW34972   1.359   0.345   8.762 -0.5265 -0.4876  0.2897
 7837SOL    HW134973   1.296   0.394   8.709  1.9141  1.1699 -1.0479
 7837SOL    HW234974   1.438   0.344   8.708  0.0890 -2.1904  1.2337
 7838SOL     OW34975   3.862   3.752   9.099  0.6118  0.5948 -0.6317
 7838SOL    HW134976   3.851   3.669   9.146  0.9748  0.9214  0.0375
 7838SOL    HW234977   3.791   3.812   9.121 -0.0076 -0.5647  0.5327
 7839SOL     OW34978   0.416   0.138   2.061 -1.0084  0.3266 -0.4297
 7839SOL    HW134979   0.332   0.107   2.028 -1.4162  0.6831  0.2864
 7839SOL    HW234980   0.415   0.231   2.038  1.5315  0.3487 -0.4544
 7840SOL     OW34981   1.948   0.210   2.360  0.1217 -0.4280  0.1452
 7840SOL    HW134982   2.014   0.150   2.393  2.1553  0.0453 -3.0768
 7840SOL    HW234983   1.975   0.234   2.271  0.0771 -1.3620 -0.1203
 7841SOL     OW34984   3.052   1.100   7.036  0.0453 -0.0619  0.0867
 7841SOL    HW134985   2.965   1.086   7.075 -1.5640  0.9502 -3.1217
 7841SOL    HW234986   3.101   1.150   7.102 -0.6191 -1.2579  1.4893
 7842SOL     OW34987   0.732   3.435   0.619 -0.4279 -0.0714  0.0352
 7842SOL    HW134988   0.668   3.440   0.548 -1.5295 -0.2021  1.0005
 7842SOL    HW234989   0.717   3.498   0.690  0.8911  2.6382 -2.1136
 7843SOL     OW34990   3.427   4.460  13.649  0.7072  0.3374  0.3625
 7843SOL    HW134991   3.519   4.445  13.628  0.4061  0.5928 -1.1031
 7843SOL    HW234992   3.421   4.547  13.612 -0.7707  0.5695  1.1324
 7844SOL     OW34993   3.270   2.265  10.097  0.3817  0.5045 -0.0051
 7844SOL    HW134994   3.363   2.260  10.119  0.4677  0.6659 -0.3317
 7844SOL    HW234995   3.256   2.359  10.097  2.2621  0.7837 -1.2574
 7845SOL     OW34996   4.516   4.150  17.501  0.2977 -0.3124  0.2023
 7845SOL    HW134997   4.570   4.181  17.429 -2.0403  0.8310 -1.0321
 7845SOL    HW234998   4.431   4.170  17.462  0.7770  3.0137  0.8469
 7846SOL     OW34999   3.525   3.144   6.575 -0.1738 -0.3533 -0.6682
 7846SOL    HW135000   3.594   3.123   6.637 -0.9236  2.9415  1.3261
 7846SOL    HW235001   3.453   3.081   6.584  0.1734 -0.7869 -0.9686
 7847SOL     OW35002   1.867   3.976   6.298  0.1695 -0.2521 -0.2660
 7847SOL    HW135003   1.942   3.975   6.357 -2.0443 -1.4661  2.5176
 7847SOL    HW235004   1.898   3.926   6.223 -2.9074  2.2738 -3.2192
 7848SOL     OW35005   3.483   1.292  14.666 -0.7435  0.0785  0.3547
 7848SOL    HW135006   3.504   1.317  14.756  1.5145  2.3710 -0.8146
 7848SOL    HW235007   3.444   1.206  14.679  1.1251 -0.6299  1.3475
 7849SOL     OW35008   2.422   1.212   7.247  0.0770  0.2692  0.0936
 7849SOL    HW135009   2.415   1.151   7.173  1.2992  1.3180 -0.8955
 7849SOL    HW235010   2.484   1.274   7.209 -1.3620  2.0316  0.6261
 7850SOL     OW35011   2.369   2.277   6.277 -0.1088  0.2037  0.1670
 7850SOL    HW135012   2.277   2.293   6.256  0.0443  1.1973  0.2397
 7850SOL    HW235013   2.396   2.354   6.327 -1.9108 -0.7743  2.6619
 7851SOL     OW35014   2.223   3.201  13.316 -0.4531  1.0540 -0.1294
 7851SOL    HW135015   2.214   3.125  13.374 -4.1897  1.9557  0.4378
 7851SOL    HW235016   2.308   3.174  13.280 -0.8769  1.3183 -1.3189
 7852SOL     OW35017   1.512   1.673   2.548 -0.3927  0.4806  0.4289
 7852SOL    HW135018   1.571   1.626   2.607 -1.8747 -0.9403  0.8004
 7852SOL    HW235019   1.429   1.647   2.587 -0.3529  3.5600  2.5811
 7853SOL     OW35020   1.987   2.133   3.944  0.4833 -0.1321  0.1881
 7853SOL    HW135021   1.955   2.053   3.986 -1.2390 -0.1860 -1.2236
 7853SOL    HW235022   2.021   2.184   4.018 -1.5378  0.8809  0.4454
 7854SOL     OW35023   2.210   1.607   4.812 -0.2565 -0.1444  0.7269
 7854SOL    HW135024   2.282   1.554   4.847 -0.3449  0.7656  2.3295
 7854SOL    HW235025   2.203   1.678   4.876  1.1624 -2.9810  4.0350
 7855SOL     OW35026   2.851   4.562   3.239  0.5264  0.0406 -0.8503
 7855SOL    HW135027   2.944   4.563   3.217  0.8393 -0.1865  0.5103
 7855SOL    HW235028   2.835   4.655   3.258 -0.4377 -0.9213  3.0617
 7856SOL     OW35029   1.473   3.865   5.776  0.6303  0.3431  0.5866
 7856SOL    HW135030   1.434   3.785   5.742  2.4066  0.2941 -1.3600
 7856SOL    HW235031   1.398   3.920   5.799  0.8206  0.3913  1.0835
 7857SOL     OW35032   1.498   2.041   4.622  0.1322  0.3652 -0.5398
 7857SOL    HW135033   1.514   2.118   4.567 -0.4213  0.0116 -1.1915
 7857SOL    HW235034   1.424   2.071   4.674 -1.4304 -2.0032 -1.4148
 7858SOL     OW35035   1.912   2.651  16.625  0.2006  0.4311  0.5153
 7858SOL    HW135036   1.886   2.645  16.717 -2.4514 -1.7699 -0.3857
 7858SOL    HW235037   1.843   2.704  16.585  0.3959  1.2770  1.2879
 7859SOL     OW35038   1.959   0.238  13.144 -0.4502 -0.1579  0.0856
 7859SOL    HW135039   1.943   0.323  13.186  0.8342  0.3673 -0.5043
 7859SOL    HW235040   1.918   0.257  13.060  0.6948 -1.4871 -0.7769
 7860SOL     OW35041   4.617   2.280   4.492 -0.4458 -0.2816 -0.4467
 7860SOL    HW135042   4.646   2.335   4.565  0.1253 -0.8638 -0.2357
 7860SOL    HW235043   4.697   2.253   4.447  0.7570  1.9997  0.3128
 7861SOL     OW35044   4.481   2.120   0.635  0.0708 -1.0875  0.1164
 7861SOL    HW135045   4.441   2.090   0.554 -0.6930 -0.2666  0.1885
 7861SOL    HW235046   4.573   2.132   0.610  0.0827  1.9584  1.6754
 7862SOL     OW35047   1.539   3.287  11.350 -0.2650 -0.2181 -0.0871
 7862SOL    HW135048   1.461   3.343  11.354  0.1991  0.3212  1.4225
 7862SOL    HW235049   1.545   3.245  11.264 -3.2353  1.3395 -1.0542
 7863SOL     OW35050   2.851   4.556   4.882  0.0007 -0.6840  0.3165
 7863SOL    HW135051   2.908   4.581   4.954 -0.3149 -0.6350  0.5488
 7863SOL    HW235052   2.886   4.611   4.812  0.7517  1.1086  2.1134
 7864SOL     OW35053   0.362   0.975  11.576  0.6029 -0.1385  0.1999
 7864SOL    HW135054   0.386   1.047  11.518 -1.2692  0.1189 -0.2575
 7864SOL    HW235055   0.447   0.934  11.590  0.0222 -0.1174  3.6737
 7865SOL     OW35056   3.432   3.029   1.729  0.1557  0.4410 -0.9366
 7865SOL    HW135057   3.369   2.964   1.699  0.0356 -0.1716  0.6769
 7865SOL    HW235058   3.459   2.999   1.815 -0.1420  2.3042 -0.1791
 7866SOL     OW35059   4.447   2.922   6.238 -0.2284 -0.4596  0.3724
 7866SOL    HW135060   4.415   2.975   6.166 -3.7766 -0.1291  2.1867
 7866SOL    HW235061   4.369   2.890   6.282 -1.3832 -0.6202 -1.8147
 7867SOL     OW35062   0.855   0.428  14.091  0.2478 -0.1560  0.1934
 7867SOL    HW135063   0.906   0.434  14.010 -0.0611 -0.9457 -0.0645
 7867SOL    HW235064   0.774   0.478  14.076  0.5746  0.0542 -0.8688
 7868SOL     OW35065   2.797   2.585   3.244  0.8303 -0.1478 -0.5150
 7868SOL    HW135066   2.821   2.623   3.160  1.0468 -1.2122 -0.9303
 7868SOL    HW235067   2.706   2.615   3.243  1.4108  1.5860 -0.9722
 7869SOL     OW35068   4.545   1.369  12.968 -0.5470 -0.3914 -0.4101
 7869SOL    HW135069   4.599   1.447  12.958 -0.2390 -0.5004  0.3731
 7869SOL    HW235070   4.558   1.322  12.886 -2.1738 -0.7231 -0.4924
 7870SOL     OW35071   1.291   0.266   1.132 -0.1121  0.0164 -0.0210
 7870SOL    HW135072   1.197   0.285   1.126  0.3973  2.3511 -0.8256
 7870SOL    HW235073   1.322   0.356   1.140 -3.1223  0.8459  2.2938
 7871SOL     OW35074   1.785   1.549   2.504  0.0034 -0.1944  0.4432
 7871SOL    HW135075   1.736   1.469   2.484  0.9548 -1.0001  1.2953
 7871SOL    HW235076   1.863   1.552   2.450 -0.6596  1.2262 -0.4237
 7872SOL     OW35077   3.363   1.869  16.198  0.2265  0.2621  0.2216
 7872SOL    HW135078   3.300   1.907  16.259  0.3114  0.8645 -0.0685
 7872SOL    HW235079   3.340   1.776  16.202  0.9786  0.1332  1.6109
 7873SOL     OW35080   3.796   0.892   0.537  0.3441 -0.2618  0.4316
 7873SOL    HW135081   3.885   0.924   0.551  0.3283  0.4557 -1.0877
 7873SOL    HW235082   3.778   0.843   0.617  0.2618  0.1447  0.6623
 7874SOL     OW35083   1.403   1.583   9.700  0.3879  0.1237 -0.1048
 7874SOL    HW135084   1.403   1.500   9.748  1.0215 -0.9711 -2.0033
 7874SOL    HW235085   1.310   1.605   9.697 -0.1266 -2.3866 -2.4252
 7875SOL     OW35086   2.880   3.237   8.375 -0.3287  0.0228  0.0242
 7875SOL    HW135087   2.813   3.212   8.312 -2.0187  1.0617  1.3953
 7875SOL    HW235088   2.830   3.267   8.451  1.0323 -0.6033  1.1674
 7876SOL     OW35089   4.726   3.867   4.814 -0.1942  0.1972 -0.2137
 7876SOL    HW135090   0.014   3.879   4.908  1.9264 -0.6710 -0.4238
 7876SOL    HW235091   4.678   3.785   4.816  0.6810 -0.3470 -1.8914
 7877SOL     OW35092   1.974   0.567  12.936 -0.3105  0.2274  0.3629
 7877SOL    HW135093   2.005   0.652  12.967 -0.0375  1.9576 -4.5640
 7877SOL    HW235094   1.991   0.586  12.844  1.1862  3.0468  1.2371
 7878SOL     OW35095   1.137   0.114   0.168  0.4427  0.0095  0.1836
 7878SOL    HW135096   1.144   0.144   0.078  1.2121  0.5225  0.4092
 7878SOL    HW235097   1.061   0.058   0.154  1.4493 -1.4042  0.3122
 7879SOL     OW35098   1.562   0.292   7.947  0.1640  0.0121  0.1759
 7879SOL    HW135099   1.536   0.379   7.917  2.1475  0.8854  1.0164
 7879SOL    HW235100   1.654   0.313   7.966  0.2999  0.1744 -0.6786
 7880SOL     OW35101   0.428   2.902   5.504 -0.4277  0.1611  0.6423
 7880SOL    HW135102   0.499   2.927   5.445  0.0042 -0.2177  1.0015
 7880SOL    HW235103   0.398   2.990   5.528  0.9431  1.2167 -1.5373
 7881SOL     OW35104   4.213   2.490   0.941 -0.6320 -0.1325 -0.0181
 7881SOL    HW135105   4.125   2.491   0.904 -1.1644  0.6824  1.2825
 7881SOL    HW235106   4.250   2.414   0.894 -1.1784 -1.0891  1.1126
 7882SOL     OW35107   1.642   1.567   3.861  0.4661  0.1299  0.0617
 7882SOL    HW135108   1.549   1.562   3.840  0.4633 -0.1778  0.1545
 7882SOL    HW235109   1.668   1.659   3.867  0.9406 -0.0321  0.4758
 7883SOL     OW35110   1.727   2.769   0.790  0.1444  0.3865 -0.2423
 7883SOL    HW135111   1.694   2.855   0.762 -2.3677 -1.6193 -3.3774
 7883SOL    HW235112   1.813   2.803   0.818  1.3337 -3.4565  0.7652
 7884SOL     OW35113   4.166   4.667   7.538  0.1878  0.1400 -0.0553
 7884SOL    HW135114   4.147   4.707   7.453 -0.0318  0.2896  0.0643
 7884SOL    HW235115   4.102   4.596   7.537  1.2116 -0.8004  0.6143
 7885SOL     OW35116   1.121   0.033  10.828 -0.2142 -0.2019  0.0803
 7885SOL    HW135117   1.148   0.026  10.920 -0.0765 -0.8187 -0.0083
 7885SOL    HW235118   1.036   0.076  10.842 -0.1056  0.0838 -0.1572
 7886SOL     OW35119   1.052   1.802   3.851 -0.4227  0.1674  0.0431
 7886SOL    HW135120   1.105   1.817   3.928  1.5517 -1.0090 -1.0850
 7886SOL    HW235121   1.052   1.707   3.837  0.9072  0.0667  0.7864
 7887SOL     OW35122   2.225   2.603  15.262  0.2608 -0.5270  1.3458
 7887SOL    HW135123   2.260   2.600  15.351  1.3686 -0.0501  0.9225
 7887SOL    HW235124   2.247   2.692  15.235 -1.5289 -0.2796  0.7326
 7888SOL     OW35125   3.937   1.146  11.922 -0.0556 -0.0190 -0.3028
 7888SOL    HW135126   3.978   1.232  11.918 -2.0882  1.0327  1.5329
 7888SOL    HW235127   3.869   1.149  11.854  0.4809  0.8018 -0.7979
 7889SOL     OW35128   3.490   0.653   5.408 -0.4597  0.0439 -0.1254
 7889SOL    HW135129   3.509   0.639   5.501  3.2340  0.5960 -0.8062
 7889SOL    HW235130   3.562   0.704   5.372 -1.0538  1.4161  0.6221
 7890SOL     OW35131   3.609   2.987   0.426 -0.0555  0.7533  0.1908
 7890SOL    HW135132   3.532   3.044   0.431 -1.1064 -0.5069 -1.3697
 7890SOL    HW235133   3.573   2.914   0.376  2.3164 -0.7797  0.7208
 7891SOL     OW35134   3.232   2.525   6.005  0.0352  0.4292 -0.3402
 7891SOL    HW135135   3.202   2.541   5.916 -1.2497  0.5143  0.1193
 7891SOL    HW235136   3.190   2.593   6.057 -1.4871 -2.1562  1.8328
 7892SOL     OW35137   3.675   1.356   6.369  0.4401 -0.2780  0.3561
 7892SOL    HW135138   3.591   1.311   6.358  0.2562  0.2621 -0.4238
 7892SOL    HW235139   3.730   1.294   6.321 -0.0592 -1.0500  0.7692
 7893SOL     OW35140   1.334   1.574   4.999 -0.8875 -0.9566  0.0887
 7893SOL    HW135141   1.301   1.507   4.938 -0.8594 -0.3771 -0.5581
 7893SOL    HW235142   1.427   1.554   5.006 -0.0773  2.9870  0.2961
 7894SOL     OW35143   3.253   1.744   5.516  0.1137  0.1927 -0.0834
 7894SOL    HW135144   3.221   1.761   5.428 -2.5697  1.8877  1.1949
 7894SOL    HW235145   3.206   1.808   5.571 -0.2354 -0.2558  0.1419
 7895SOL     OW35146   2.721   3.359   7.778  0.3726 -0.1875  0.4405
 7895SOL    HW135147   2.807   3.324   7.802  1.0625  0.4114 -1.1241
 7895SOL    HW235148   2.670   3.278   7.778 -1.7679  1.1528 -1.4367
 7896SOL     OW35149   2.115   3.067   4.312 -0.3378  0.3337 -0.3288
 7896SOL    HW135150   2.118   3.123   4.389 -1.0788  1.1628 -0.9034
 7896SOL    HW235151   2.109   3.136   4.245  1.8709 -0.6530 -1.5474
 7897SOL     OW35152   0.302   2.333   1.761 -0.0439  0.0162 -0.0766
 7897SOL    HW135153   0.276   2.413   1.806  0.7229  0.5932 -0.6787
 7897SOL    HW235154   0.275   2.269   1.826 -1.5512 -0.2432 -0.9632
 7898SOL     OW35155   2.219   2.038   2.873 -0.1767  0.0273  0.5242
 7898SOL    HW135156   2.148   2.101   2.868  0.8862  1.0992 -0.9052
 7898SOL    HW235157   2.268   2.065   2.951  0.3203 -1.1526  0.6258
 7899SOL     OW35158   4.520   2.487   2.076 -0.3046  0.1586 -0.0784
 7899SOL    HW135159   4.454   2.499   2.008  0.9778  0.7042 -1.2258
 7899SOL    HW235160   4.466   2.439   2.138 -1.5350  0.2515 -1.0904
 7900SOL     OW35161   2.847   1.423  17.071 -0.4704  0.0647  0.3880
 7900SOL    HW135162   2.884   1.338  17.047 -0.4900  0.9405 -2.7489
 7900SOL    HW235163   2.920   1.462  17.118 -0.8968 -0.2375  1.3103
 7901SOL     OW35164   0.960   0.851  11.604 -0.1197 -0.3867 -0.0030
 7901SOL    HW135165   0.875   0.856  11.647 -0.9091 -2.2645 -1.3720
 7901SOL    HW235166   1.026   0.823  11.667 -0.5399  2.4951  1.7108
 7902SOL     OW35167   0.726   0.362  11.885  0.1351  0.0396  0.3931
 7902SOL    HW135168   0.684   0.296  11.941 -0.8160  0.4917  0.2263
 7902SOL    HW235169   0.779   0.300  11.836  0.4582 -1.5205  2.6947
 7903SOL     OW35170   1.903   0.085  12.735 -0.0385 -0.3406  0.7869
 7903SOL    HW135171   1.915   0.154  12.800  3.3946 -2.3873  2.3052
 7903SOL    HW235172   1.868   0.138  12.663 -0.1497 -0.7095  0.5656
 7904SOL     OW35173   0.082   0.050  11.639 -0.6069  0.0808 -0.1427
 7904SOL    HW135174   0.036   0.107  11.701 -0.8190  1.1933 -1.3242
 7904SOL    HW235175   0.108   4.704  11.697 -2.1777 -0.1123  0.3187
 7905SOL     OW35176   1.320   2.226   4.378  0.0132 -0.6488  0.1812
 7905SOL    HW135177   1.411   2.249   4.395 -0.1644  2.5402 -3.0172
 7905SOL    HW235178   1.330   2.139   4.339  1.9036 -0.3499  0.0197
 7906SOL     OW35179   4.705   3.890   7.964 -0.3506  0.1513  0.2990
 7906SOL    HW135180   4.677   3.827   7.898 -0.0215 -0.4311  0.7224
 7906SOL    HW235181   4.720   3.975   7.922  2.0938 -0.5053 -0.1571
 7907SOL     OW35182   2.891   1.263   2.656  0.2331  0.1632 -0.2276
 7907SOL    HW135183   2.872   1.200   2.587  1.0938  0.5959 -0.8483
 7907SOL    HW235184   2.814   1.248   2.712  1.4772 -3.3384  0.5386
 7908SOL     OW35185   1.591   2.233   7.058  0.0867  0.2220 -0.1587
 7908SOL    HW135186   1.602   2.263   6.968  0.2178  0.6150 -0.0096
 7908SOL    HW235187   1.517   2.279   7.097 -1.4498 -2.4817  0.1345
 7909SOL     OW35188   0.988   0.462   5.138  0.1214  0.2588 -0.5115
 7909SOL    HW135189   1.035   0.521   5.079 -0.1344  1.5075  0.5351
 7909SOL    HW235190   0.983   0.379   5.090  0.0914 -0.9662  1.6285
 7910SOL     OW35191   1.264   4.396   2.985 -0.1986  0.6099  0.1484
 7910SOL    HW135192   1.203   4.324   2.968 -1.5261  2.0473 -1.1576
 7910SOL    HW235193   1.332   4.365   3.045  0.6113  1.2384 -0.4483
 7911SOL     OW35194   2.180   4.446   5.866 -0.7620  0.2281  0.3140
 7911SOL    HW135195   2.151   4.357   5.847  1.4297 -0.1613 -1.2011
 7911SOL    HW235196   2.100   4.493   5.843 -0.1354  0.3674 -1.5674
 7912SOL     OW35197   1.769   2.003  16.655 -0.0477 -0.0321 -0.2573
 7912SOL    HW135198   1.748   2.007  16.749  0.7649 -0.4237 -0.0580
 7912SOL    HW235199   1.683   2.020  16.617 -0.0065 -0.6170 -0.6117
 7913SOL     OW35200   0.278   2.984  16.686 -0.1866 -0.3330  0.3578
 7913SOL    HW135201   0.245   2.899  16.715  0.0181  0.1733  2.1055
 7913SOL    HW235202   0.201   3.030  16.653 -0.1314  2.3650  3.9353
 7914SOL     OW35203   4.000   1.050   6.529  0.0791  0.0169 -0.2381
 7914SOL    HW135204   4.019   0.976   6.470  0.7285  0.1419 -0.1826
 7914SOL    HW235205   3.932   1.019   6.589 -1.9905  1.1502 -2.0029
 7915SOL     OW35206   2.033   4.296   1.898  0.2719  0.2568 -0.2198
 7915SOL    HW135207   1.969   4.353   1.855 -0.0317 -0.3725 -0.5997
 7915SOL    HW235208   2.087   4.307   1.820  1.0765  2.3239  0.6202
 7916SOL     OW35209   0.898   4.187   2.685 -0.2389  0.2615  0.3794
 7916SOL    HW135210   0.891   4.274   2.645  0.6215 -0.2783 -0.9554
 7916SOL    HW235211   0.957   4.204   2.759  1.6916  0.4124 -1.2033
 7917SOL     OW35212   0.129   4.093  13.522  0.3403 -0.3235  0.1772
 7917SOL    HW135213   0.090   4.040  13.452 -0.6704  2.6475 -1.5158
 7917SOL    HW235214   0.172   4.022  13.570 -1.8485 -1.3681  0.5853
 7918SOL     OW35215   0.220   0.177   5.154 -0.2433 -0.4770 -0.5023
 7918SOL    HW135216   0.307   0.159   5.189 -0.0470  0.0996 -0.6862
 7918SOL    HW235217   0.213   0.270   5.177 -1.1855 -0.8424  0.6660
 7919SOL     OW35218   2.593   3.134  11.772  0.7893  0.4794  0.1075
 7919SOL    HW135219   2.600   3.224  11.804 -1.2072  1.9225 -3.4913
 7919SOL    HW235220   2.585   3.095  11.859  0.7778 -0.7926 -0.4749
 7920SOL     OW35221   1.173   3.877  10.285  0.0176  0.5689  0.0109
 7920SOL    HW135222   1.191   3.968  10.262  0.4179  0.3359 -0.5953
 7920SOL    HW235223   1.211   3.871  10.372 -1.3294  1.2162  0.6386
 7921SOL     OW35224   4.127   4.361   3.681  0.7016 -0.2001 -0.2269
 7921SOL    HW135225   4.167   4.398   3.760 -0.1716  2.1147 -0.8638
 7921SOL    HW235226   4.053   4.313   3.719  2.1347 -1.0004  1.5720
 7922SOL     OW35227   3.053   4.498  11.298 -0.6363 -0.4848 -0.5945
 7922SOL    HW135228   3.014   4.550  11.228 -0.5724  0.3713 -0.0001
 7922SOL    HW235229   2.976   4.465  11.345 -0.3621 -1.0233 -0.5226
 7923SOL     OW35230   0.064   1.633   5.398 -0.6436 -0.1619  0.3537
 7923SOL    HW135231   0.110   1.551   5.416 -1.4668 -1.0042 -1.4349
 7923SOL    HW235232   4.703   1.603   5.422 -0.7099  0.1347  0.4904
 7924SOL     OW35233   1.616   0.484   3.881 -0.1987 -0.2880 -0.2451
 7924SOL    HW135234   1.552   0.505   3.948  0.7303  1.3297  0.1177
 7924SOL    HW235235   1.673   0.559   3.866  0.5069 -0.7120  0.3145
 7925SOL     OW35236   1.040   4.643   6.469  0.2577 -0.3375  0.2169
 7925SOL    HW135237   0.966   4.608   6.519 -0.3750  0.7232  0.0108
 7925SOL    HW235238   1.003   4.718   6.423  1.7224 -0.8485 -1.8004
 7926SOL     OW35239   1.895   4.646   6.834  0.2171 -0.2026 -0.2401
 7926SOL    HW135240   1.929   0.008   6.843 -0.2001 -0.0032 -0.6176
 7926SOL    HW235241   1.829   4.658   6.765  2.6718 -2.1624 -2.9599
 7927SOL     OW35242   1.332   3.810   6.111  0.0797  0.4839  0.3806
 7927SOL    HW135243   1.372   3.866   6.177 -0.5113  1.5440 -0.1431
 7927SOL    HW235244   1.403   3.823   6.048 -0.9814  2.2753 -0.4710
 7928SOL     OW35245   0.758   1.373  15.426 -0.1067 -0.7422 -0.3226
 7928SOL    HW135246   0.720   1.414  15.348 -0.2260 -0.4392 -0.1046
 7928SOL    HW235247   0.686   1.369  15.489  0.9616  1.6089  1.0359
 7929SOL     OW35248   2.249   0.675   5.384  0.5717 -0.2876 -0.3679
 7929SOL    HW135249   2.326   0.727   5.407 -0.3227  0.4035  1.0465
 7929SOL    HW235250   2.181   0.730   5.421 -0.0740 -2.5109  1.7629
 7930SOL     OW35251   0.360   2.646  11.279  0.1856  0.4200 -0.2763
 7930SOL    HW135252   0.419   2.697  11.223  0.6279 -0.3824 -0.5353
 7930SOL    HW235253   0.279   2.680  11.243  0.0140  1.8915  1.4821
 7931SOL     OW35254   1.099   2.285   8.010 -0.0230 -0.2719  0.5153
 7931SOL    HW135255   1.184   2.278   7.967 -0.6579  1.3485 -0.9598
 7931SOL    HW235256   1.108   2.371   8.051 -2.2551 -0.1500  0.7315
 7932SOL     OW35257   3.935   0.061   4.970  0.2166  0.5376  0.1923
 7932SOL    HW135258   3.900   0.102   5.048  1.3667 -0.5134  1.2613
 7932SOL    HW235259   3.947   4.697   5.001  0.1033  0.6190  0.4715
 7933SOL     OW35260   0.635   2.991   2.929  0.6205 -0.0778  1.0106
 7933SOL    HW135261   0.589   3.000   3.012 -0.1995  0.1476  0.5287
 7933SOL    HW235262   0.597   3.066   2.883 -1.6361 -1.2810  0.8968
 7934SOL     OW35263   3.913   4.596   2.876 -0.4146 -0.0212  0.0325
 7934SOL    HW135264   3.954   4.512   2.898 -1.8180 -0.7758 -0.2065
 7934SOL    HW235265   3.821   4.570   2.882  0.3197 -2.3854  0.9787
 7935SOL     OW35266   4.490   0.593   2.679  0.0640 -0.8617 -0.3892
 7935SOL    HW135267   4.554   0.664   2.668  0.5508 -1.0810  1.0222
 7935SOL    HW235268   4.523   0.524   2.622  1.1051 -2.0996  1.7096
 7936SOL     OW35269   0.866   3.621  12.780 -0.5094  0.0065 -0.5902
 7936SOL    HW135270   0.945   3.675  12.785 -1.1015  0.8769 -0.6183
 7936SOL    HW235271   0.902   3.543  12.822 -2.7605 -0.9246 -0.4233
 7937SOL     OW35272   2.255   3.175   7.521  0.0629  0.3527  0.0225
 7937SOL    HW135273   2.196   3.228   7.468 -0.7795  1.6598  2.2862
 7937SOL    HW235274   2.326   3.155   7.459 -0.9676 -1.4626 -0.5921
 7938SOL     OW35275   2.194   0.193  12.777  0.7516 -0.1809  0.3380
 7938SOL    HW135276   2.257   0.184  12.848 -0.6148 -0.5495  1.5115
 7938SOL    HW235277   2.107   0.169  12.809 -0.5297  2.4121 -1.1841
 7939SOL     OW35278   2.256   1.427   3.240  0.2331 -0.0311 -0.5368
 7939SOL    HW135279   2.343   1.403   3.208  1.3578  0.8489  1.8393
 7939SOL    HW235280   2.274   1.438   3.333  0.4996 -0.1260 -0.5785
 7940SOL     OW35281   1.156   0.824   5.764  0.0596 -0.1642 -0.0195
 7940SOL    HW135282   1.224   0.784   5.819 -2.5449 -2.8782  1.2104
 7940SOL    HW235283   1.155   0.762   5.690  1.9074 -0.2478  0.0042
 7941SOL     OW35284   0.405   2.998   3.107  0.7346 -0.1347 -0.2083
 7941SOL    HW135285   0.349   3.075   3.107 -0.5113 -1.0247 -1.9105
 7941SOL    HW235286   0.351   2.936   3.058  2.6728 -2.2359  0.2887
 7942SOL     OW35287   1.984   2.680   5.791  0.1787  0.1967  0.3439
 7942SOL    HW135288   1.956   2.637   5.872  1.4613  0.6120  1.0130
 7942SOL    HW235289   1.982   2.602   5.735  0.6901  2.2523 -2.4751
 7943SOL     OW35290   0.961   1.397  15.096  0.0782 -0.2366 -0.4642
 7943SOL    HW135291   0.950   1.314  15.143  1.8388 -1.2862 -1.8686
 7943SOL    HW235292   1.024   1.370  15.030  0.2575  0.1765 -0.4639
 7944SOL     OW35293   0.857   1.085  11.504  0.0557  0.1316 -0.6225
 7944SOL    HW135294   0.901   1.014  11.551  1.1020  0.2270 -1.4617
 7944SOL    HW235295   0.790   1.099  11.571  2.6188  1.9604  1.5629
 7945SOL     OW35296   3.744   3.490  16.653 -0.1718 -0.3573  0.0751
 7945SOL    HW135297   3.802   3.415  16.642  0.0867 -0.3089  1.1173
 7945SOL    HW235298   3.788   3.524  16.731 -1.7591 -0.5159  1.0523
 7946SOL     OW35299   4.404   1.164   4.147  0.1508  0.1773 -0.4662
 7946SOL    HW135300   4.430   1.252   4.121  0.1294  0.1247 -0.6680
 7946SOL    HW235301   4.448   1.123   4.073  0.1018  0.7764 -0.8182
 7947SOL     OW35302   2.294   0.689   2.596  0.5418 -0.2285 -0.3675
 7947SOL    HW135303   2.230   0.760   2.599 -0.3747 -0.8668 -4.3910
 7947SOL    HW235304   2.249   0.615   2.555 -0.1868  1.2221 -2.1937
 7948SOL     OW35305   2.569   0.491   6.636 -0.2555 -0.6091 -0.0691
 7948SOL    HW135306   2.660   0.517   6.651  0.2325 -1.4394 -1.5597
 7948SOL    HW235307   2.569   0.524   6.546  1.0096  0.6449  0.4055
 7949SOL     OW35308   3.824   1.163   6.265  0.1509  0.1603 -0.2597
 7949SOL    HW135309   3.917   1.153   6.283 -0.2614 -2.5836  0.3199
 7949SOL    HW235310   3.794   1.072   6.265 -2.4857  1.0352  0.2818
 7950SOL     OW35311   1.595   4.028   9.164  0.4905  0.1450 -0.0305
 7950SOL    HW135312   1.605   3.936   9.142  1.1936 -0.0453  1.0975
 7950SOL    HW235313   1.539   4.048   9.088 -3.2311  0.8239  2.9144
 7951SOL     OW35314   0.317   3.782   2.285 -0.1103 -0.2699  0.1358
 7951SOL    HW135315   0.355   3.863   2.320 -0.7976 -0.2116  0.7732
 7951SOL    HW235316   0.324   3.802   2.192 -2.3352  1.1465  0.2756
 7952SOL     OW35317   0.492   4.723   8.539 -0.6201  0.4015 -0.1159
 7952SOL    HW135318   0.441   4.664   8.484 -0.2682 -0.0486  0.0353
 7952SOL    HW235319   0.443   0.076   8.519  0.6948  0.7968 -1.7280
 7953SOL     OW35320   1.798   3.742   7.864  0.0998 -0.4863 -0.0570
 7953SOL    HW135321   1.813   3.649   7.847 -0.8365 -0.7566  0.5892
 7953SOL    HW235322   1.714   3.747   7.910  0.5745 -2.0448  0.9711
 7954SOL     OW35323   2.424   2.062   6.626 -0.0425  0.3011  0.3492
 7954SOL    HW135324   2.396   1.983   6.672 -1.7134 -0.4536 -1.9661
 7954SOL    HW235325   2.519   2.061   6.620  0.1173 -0.3418  2.9188
 7955SOL     OW35326   2.321   0.304  10.213 -0.2969  0.2889 -0.1038
 7955SOL    HW135327   2.323   0.352  10.296 -2.2712 -0.9826  0.6745
 7955SOL    HW235328   2.401   0.253  10.226 -1.3788 -0.8291  2.1730
 7956SOL     OW35329   1.470   3.686   0.509 -0.2833 -0.0326 -0.6354
 7956SOL    HW135330   1.376   3.683   0.525 -0.2570  0.9054 -0.3092
 7956SOL    HW235331   1.483   3.622   0.439  0.8483  0.4060 -0.8250
 7957SOL     OW35332   0.417   2.274   4.514  0.3747 -0.7050  0.4785
 7957SOL    HW135333   0.402   2.364   4.487 -1.4909 -1.4115 -0.8367
 7957SOL    HW235334   0.509   2.262   4.538  0.2906 -1.8146  0.2445
 7958SOL     OW35335   3.495   2.711   9.225 -0.3567  0.5231  0.3077
 7958SOL    HW135336   3.587   2.689   9.211 -0.4298 -0.4087  1.2626
 7958SOL    HW235337   3.482   2.696   9.319 -3.2608  1.9784  0.1080
 7959SOL     OW35338   3.998   0.376  15.984  0.5227  0.2730 -0.1186
 7959SOL    HW135339   3.935   0.417  16.044 -0.3472 -0.5852 -0.4406
 7959SOL    HW235340   3.990   0.425  15.903  0.4252  1.5055  0.6329
 7960SOL     OW35341   1.686   0.417   9.864  0.3020  0.2952  0.0013
 7960SOL    HW135342   1.637   0.496   9.886  0.5829  0.6512 -0.6588
 7960SOL    HW235343   1.774   0.434   9.897  0.1632 -0.8722  0.9715
 7961SOL     OW35344   1.797   3.229   3.833 -0.6395 -0.2566  0.0600
 7961SOL    HW135345   1.749   3.296   3.784 -0.2635 -1.2641 -1.6953
 7961SOL    HW235346   1.885   3.224   3.795  0.2770 -2.1322  2.4416
 7962SOL     OW35347   0.572   4.026  12.374 -0.2335 -0.2274 -0.1600
 7962SOL    HW135348   0.587   4.111  12.417 -0.6703  0.0152 -0.4877
 7962SOL    HW235349   0.659   3.990  12.357 -0.2709 -0.1965 -0.4095
 7963SOL     OW35350   1.437   4.074   5.578 -0.0332  0.0791  0.3687
 7963SOL    HW135351   1.518   4.023   5.583  0.1593  0.5002  1.5556
 7963SOL    HW235352   1.390   4.059   5.660  1.8667  0.8837  1.6039
 7964SOL     OW35353   1.629   1.929   7.558 -0.1870 -0.4987 -0.2576
 7964SOL    HW135354   1.552   1.977   7.526 -0.2740  0.5017  1.4420
 7964SOL    HW235355   1.632   1.868   7.485  1.4629  1.1027 -1.5489
 7965SOL     OW35356   0.311   4.690   9.075 -0.2610 -0.3820 -0.0843
 7965SOL    HW135357   0.218   4.666   9.079 -0.2375 -0.6037 -0.8962
 7965SOL    HW235358   0.298   0.016   8.996 -1.2319 -0.8462 -0.2371
 7966SOL     OW35359   2.320   4.014   0.215 -0.3061  0.1105  0.8948
 7966SOL    HW135360   2.371   3.933   0.223 -1.2122 -0.9040 -3.2982
 7966SOL    HW235361   2.370   4.059   0.147 -1.7552  0.0158 -0.2470
 7967SOL     OW35362   1.257   1.824   7.519  0.2097  0.3169  0.3309
 7967SOL    HW135363   1.290   1.913   7.503  0.1232 -0.1011 -2.2844
 7967SOL    HW235364   1.175   1.823   7.469  0.7791  1.4178 -0.6370
 7968SOL     OW35365   4.243   2.892   1.128  0.0520 -0.0266 -0.3698
 7968SOL    HW135366   4.187   2.965   1.102 -0.0690 -0.5626 -1.5687
 7968SOL    HW235367   4.327   2.910   1.086  0.2412  1.0684  0.4498
 7969SOL     OW35368   4.168   0.506   5.219  0.6832 -0.0126  0.0582
 7969SOL    HW135369   4.252   0.542   5.246 -0.5180  0.3196  3.3951
 7969SOL    HW235370   4.178   0.418   5.255 -1.8694 -1.2871 -2.3036
 7970SOL     OW35371   0.333   1.685   4.167 -0.1129  0.0662  0.3120
 7970SOL    HW135372   0.342   1.637   4.084 -0.4695 -0.2669  0.4682
 7970SOL    HW235373   0.410   1.742   4.167 -0.3549  0.3853  1.3007
 7971SOL     OW35374   3.470   1.231  12.870  0.1015 -0.0378 -0.0833
 7971SOL    HW135375   3.547   1.272  12.910  1.2979 -0.1856 -2.2561
 7971SOL    HW235376   3.448   1.301  12.808 -1.0757  0.4081  0.8427
 7972SOL     OW35377   2.888   1.513   8.942  0.2723 -0.0521  0.2547
 7972SOL    HW135378   2.825   1.470   8.999  0.2342 -1.1102 -0.5812
 7972SOL    HW235379   2.966   1.461   8.961  0.2641  0.4600  1.6875
 7973SOL     OW35380   2.844   3.893  16.747 -0.1786 -0.9994 -0.1086
 7973SOL    HW135381   2.890   3.890  16.664 -0.4449 -1.8040 -0.2302
 7973SOL    HW235382   2.818   3.981  16.775 -1.2470 -0.9040 -1.4370
 7974SOL     OW35383   4.472   4.297  13.169  0.1758 -0.1761  0.1814
 7974SOL    HW135384   4.551   4.293  13.223  1.0637  0.0348 -1.0861
 7974SOL    HW235385   4.432   4.213  13.190  0.2739 -0.8240 -2.1705
 7975SOL     OW35386   2.371   1.878   1.868 -0.5072 -0.3004 -0.2588
 7975SOL    HW135387   2.382   1.783   1.861 -0.8918 -0.6291  3.4687
 7975SOL    HW235388   2.317   1.895   1.791 -3.1533  1.8918  2.0866
 7976SOL     OW35389   2.219   3.426  14.593 -0.4622  0.0835 -0.1936
 7976SOL    HW135390   2.259   3.342  14.568 -1.6616 -0.5629  0.0726
 7976SOL    HW235391   2.260   3.435  14.679  0.5772 -0.1629 -0.6679
 7977SOL     OW35392   2.232   2.964   9.215  0.1195  0.4411 -0.3896
 7977SOL    HW135393   2.215   3.054   9.188  0.1926  0.1784 -1.3154
 7977SOL    HW235394   2.300   2.963   9.282 -1.1270  0.6629  0.8788
 7978SOL     OW35395   4.158   1.044  17.292  0.1227 -0.1352  0.2524
 7978SOL    HW135396   4.252   1.066  17.289 -0.5339  2.8829  2.1443
 7978SOL    HW235397   4.127   1.073  17.378 -1.7389 -0.2864 -0.3846
 7979SOL     OW35398   1.451   0.645  15.019  0.1933  0.4450 -0.2326
 7979SOL    HW135399   1.532   0.596  15.008 -1.0102 -2.2292  2.6546
 7979SOL    HW235400   1.454   0.679  15.108 -3.8814  0.7805 -0.1792
 7980SOL     OW35401   2.704   1.680   9.714  0.3287 -0.0489  0.1405
 7980SOL    HW135402   2.651   1.732   9.653 -1.2661 -0.4710  1.1796
 7980SOL    HW235403   2.794   1.694   9.685  1.2728 -0.3092  3.0400
 7981SOL     OW35404   2.171   3.892   0.620  0.4971  0.0915 -0.4160
 7981SOL    HW135405   2.221   3.948   0.680  0.5340 -0.1369 -0.2341
 7981SOL    HW235406   2.213   3.812   0.651  1.2136  0.1397 -1.2723
 7982SOL     OW35407   2.143   1.763  10.860 -0.4335 -0.8919  0.3568
 7982SOL    HW135408   2.081   1.733  10.795 -1.0817  1.9693 -0.3738
 7982SOL    HW235409   2.225   1.724  10.830 -0.9769 -1.0500 -0.9239
 7983SOL     OW35410   2.159   3.590   0.330 -0.1361 -0.1451 -0.4326
 7983SOL    HW135411   2.152   3.644   0.409  0.7108 -2.4159  1.1820
 7983SOL    HW235412   2.254   3.602   0.329 -0.2647  0.7540 -1.7373
 7984SOL     OW35413   1.179   2.399  17.193 -0.2505 -0.2451 -0.1785
 7984SOL    HW135414   1.192   2.332  17.126 -1.1515 -1.5337  0.9209
 7984SOL    HW235415   1.151   2.478  17.147  0.3267 -1.0716 -1.9318
 7985SOL     OW35416   4.148   3.962   1.162  0.1405 -0.8434 -0.1131
 7985SOL    HW135417   4.204   4.008   1.225 -0.9088  0.6745 -0.2866
 7985SOL    HW235418   4.079   4.028   1.156  1.0749 -0.1198 -3.1631
 7986SOL     OW35419   4.719   2.929  15.096 -0.3697  0.1748  0.0923
 7986SOL    HW135420   4.675   2.880  15.026  2.1493  0.1920 -1.5120
 7986SOL    HW235421   4.708   2.873  15.172 -2.8982  1.4752  0.6912
 7987SOL     OW35422   0.410   0.056   8.811 -0.1144 -0.8544  0.0439
 7987SOL    HW135423   0.479   0.017   8.756 -0.9411  0.1189 -1.6825
 7987SOL    HW235424   0.406   0.148   8.788  0.5671 -0.9333 -0.3958
 7988SOL     OW35425   0.884   1.133  10.164  0.1975  0.4146  0.4217
 7988SOL    HW135426   0.789   1.127  10.175  0.3048  1.4752  1.9994
 7988SOL    HW235427   0.917   1.048  10.134 -2.8979 -0.4840 -0.4328
 7989SOL     OW35428   1.370   3.392   6.303  0.5071 -0.1517 -0.3563
 7989SOL    HW135429   1.346   3.430   6.218  0.2309  1.7047  0.5589
 7989SOL    HW235430   1.411   3.472   6.336  0.1609 -0.0512 -0.1715
 7990SOL     OW35431   0.663   1.524  15.206 -0.6830  0.5413 -0.8371
 7990SOL    HW135432   0.698   1.581  15.137 -1.2644  1.5349 -0.3040
 7990SOL    HW235433   0.669   1.437  15.166 -1.7487  0.3256 -0.5124
 7991SOL     OW35434   1.128   3.961   1.133  0.3120  0.2617  0.1498
 7991SOL    HW135435   1.180   3.882   1.121 -1.9272 -1.5548  2.3871
 7991SOL    HW235436   1.072   3.914   1.195  1.2749 -0.8818  0.1511
 7992SOL     OW35437   0.500   0.497   1.860  0.5412  0.0104  0.2075
 7992SOL    HW135438   0.434   0.435   1.828 -0.2352  0.2152  1.4297
 7992SOL    HW235439   0.522   0.543   1.779  1.3051 -0.7578 -0.0199
 7993SOL     OW35440   4.112   1.915   4.019  0.7552 -0.1014  0.0997
 7993SOL    HW135441   4.017   1.916   4.008  0.9043  2.1762 -1.0175
 7993SOL    HW235442   4.129   1.822   4.030 -0.8245 -0.3389  0.5125
 7994SOL     OW35443   0.581   3.442   2.983 -0.1300 -0.3532 -0.3230
 7994SOL    HW135444   0.628   3.359   2.990 -0.6142 -0.5489  0.6130
 7994SOL    HW235445   0.602   3.471   2.894  1.9841 -1.0597 -0.0489
 7995SOL     OW35446   0.824   1.063  15.890 -0.7202  1.0806 -0.5045
 7995SOL    HW135447   0.878   0.987  15.867 -0.6309  0.2924  2.3492
 7995SOL    HW235448   0.892   1.125  15.915  0.7651 -1.9106  2.6836
 7996SOL     OW35449   0.469   3.755  11.488 -0.1575  0.9058  0.0980
 7996SOL    HW135450   0.533   3.719  11.549 -0.8660 -0.5967 -0.0416
 7996SOL    HW235451   0.487   3.694  11.416 -1.5934  1.3518 -0.6419
 7997SOL     OW35452   0.836   2.975   6.041  0.5469  0.2282  0.1832
 7997SOL    HW135453   0.758   3.027   6.057 -0.6992 -0.8804 -2.1786
 7997SOL    HW235454   0.799   2.925   5.968 -0.9697 -1.2904  2.0124
 7998SOL     OW35455   1.081   4.581  16.296 -0.7892  0.0891  0.0043
 7998SOL    HW135456   1.158   4.599  16.243 -1.9301 -0.2880 -1.7929
 7998SOL    HW235457   1.039   4.508  16.251 -0.3171 -0.5901  0.6541
 7999SOL     OW35458   0.941   2.503   6.852  0.4970 -0.7949 -0.0993
 7999SOL    HW135459   1.021   2.555   6.855 -1.8327  2.6702  1.4422
 7999SOL    HW235460   0.977   2.417   6.829 -1.3768 -1.3520 -0.9510
 8000SOL     OW35461   3.008   2.906   8.359  0.0257  0.3435 -0.0927
 8000SOL    HW135462   3.046   2.901   8.447  1.0761 -0.8414 -0.5998
 8000SOL    HW235463   2.918   2.929   8.377 -0.6796 -1.3657 -1.3917
 8001SOL     OW35464   4.055   1.975   5.910  0.9964  1.0537 -0.3322
 8001SOL    HW135465   4.054   2.044   5.977  0.3027  1.6007 -0.9015
 8001SOL    HW235466   4.101   2.019   5.838  0.5400  0.4228 -1.0043
 8002SOL     OW35467   2.140   3.795   6.740 -0.2185 -0.8661  0.2336
 8002SOL    HW135468   2.100   3.718   6.700 -0.9891 -0.3323 -0.0251
 8002SOL    HW235469   2.079   3.808   6.813 -0.8357  1.8597 -0.7723
 8003SOL     OW35470   0.331   2.579   7.328  0.2151  0.2530 -0.2652
 8003SOL    HW135471   0.247   2.534   7.335 -0.3457  1.3596  0.0515
 8003SOL    HW235472   0.374   2.545   7.250  0.6051  0.4930 -0.1570
 8004SOL     OW35473   3.689   2.004   4.240 -0.4041  1.0134  0.4241
 8004SOL    HW135474   3.647   2.008   4.326 -0.0497 -1.4567  0.7158
 8004SOL    HW235475   3.617   2.030   4.183 -1.0231 -1.1152  0.2074
 8005SOL     OW35476   0.955   2.789   7.015 -0.0932  0.2757  0.1071
 8005SOL    HW135477   1.036   2.833   6.991  0.2417  0.3118  1.3219
 8005SOL    HW235478   0.925   2.735   6.942  2.9555 -0.6461 -0.4253
 8006SOL     OW35479   0.841   3.228  16.606 -0.0301 -0.2164 -0.2159
 8006SOL    HW135480   0.875   3.318  16.614  1.1145 -0.6030 -0.6710
 8006SOL    HW235481   0.813   3.206  16.695 -1.3962  0.4572 -0.4816
 8007SOL     OW35482   0.363   3.525   2.068 -0.4384  0.0891  0.2839
 8007SOL    HW135483   0.416   3.604   2.063  0.7784 -0.6064  1.8991
 8007SOL    HW235484   0.287   3.533   2.011  2.0600  0.1638 -3.0045
 8008SOL     OW35485   4.553   1.793   6.899 -0.1673 -0.3512 -0.0083
 8008SOL    HW135486   4.461   1.790   6.873 -0.2290 -0.1065  0.1787
 8008SOL    HW235487   4.565   1.888   6.898 -5.6008  0.3784  0.0704
 8009SOL     OW35488   4.167   2.504  16.177  0.0582 -0.6107 -0.1612
 8009SOL    HW135489   4.074   2.492  16.196  0.2996  1.1721  2.1489
 8009SOL    HW235490   4.165   2.599  16.181  0.0458 -0.5242 -2.4212
 8010SOL     OW35491   0.373   2.317   9.821 -0.3975 -0.2100  0.4854
 8010SOL    HW135492   0.391   2.368   9.742 -1.4046 -2.0683 -0.9601
 8010SOL    HW235493   0.424   2.237   9.805 -0.1750  0.0958 -0.3270
 8011SOL     OW35494   3.936   0.992   5.518 -0.0212 -0.1866  0.0829
 8011SOL    HW135495   3.866   0.928   5.534 -0.0089  0.0798  1.1838
 8011SOL    HW235496   3.906   1.060   5.578 -1.4367 -2.0652  1.5289
 8012SOL     OW35497   2.198   3.005  13.496 -0.2788  0.4466 -0.2974
 8012SOL    HW135498   2.163   2.969  13.578  0.3893 -0.6287 -0.4705
 8012SOL    HW235499   2.270   2.942  13.501 -1.0961 -0.5765 -1.4558
 8013SOL     OW35500   1.552   3.511   8.585  0.2826 -0.4470 -0.0906
 8013SOL    HW135501   1.574   3.597   8.549  0.1686  0.2611  1.5726
 8013SOL    HW235502   1.523   3.473   8.502  0.6816  0.8892 -0.8369
 8014SOL     OW35503   2.704   2.443   7.422 -0.4235 -0.1539 -0.2378
 8014SOL    HW135504   2.723   2.352   7.447 -2.2547 -0.0210  1.6313
 8014SOL    HW235505   2.640   2.475   7.485 -2.4079 -2.4317 -1.1065
 8015SOL     OW35506   2.943   4.227  16.539  0.2740 -0.2294  0.3976
 8015SOL    HW135507   2.915   4.284  16.467  0.3952  0.2941  0.7688
 8015SOL    HW235508   2.861   4.224  16.589  0.3647  3.3624  0.7738
 8016SOL     OW35509   3.122   3.586   6.555  0.0633  0.8053  0.6852
 8016SOL    HW135510   3.036   3.580   6.513  1.3449  0.2818 -1.8684
 8016SOL    HW235511   3.174   3.549   6.484 -0.8015  1.5225 -0.3265
 8017SOL     OW35512   1.164   2.412   3.475 -0.3760  0.0383 -0.3942
 8017SOL    HW135513   1.164   2.486   3.414 -3.7780 -0.2983 -0.8303
 8017SOL    HW235514   1.097   2.444   3.536 -0.2746 -1.0750  0.3104
 8018SOL     OW35515   3.082   4.059   4.454 -0.4099  0.1970 -0.2306
 8018SOL    HW135516   3.072   3.987   4.517 -0.6098 -1.0233 -1.6429
 8018SOL    HW235517   3.169   4.050   4.416 -0.4358  0.8003 -0.4239
 8019SOL     OW35518   3.575   2.292   8.232  0.2986  0.1972  0.9802
 8019SOL    HW135519   3.642   2.250   8.286  1.0621 -0.3403 -0.3591
 8019SOL    HW235520   3.498   2.293   8.288 -2.3646 -1.8723 -2.6483
 8020SOL     OW35521   2.871   4.400   1.537 -0.2927 -0.0313  0.6342
 8020SOL    HW135522   2.873   4.338   1.464  1.7208  1.4720 -0.5927
 8020SOL    HW235523   2.787   4.381   1.578 -0.8692  0.9408 -0.1081
 8021SOL     OW35524   4.433   1.404  12.205 -0.1244 -0.4724 -1.0820
 8021SOL    HW135525   4.449   1.490  12.168 -2.4203  1.0272  1.4302
 8021SOL    HW235526   4.408   1.434  12.293 -0.5927 -0.9175 -1.0593
 8022SOL     OW35527   4.673   1.882  17.266 -0.2200 -0.0427  0.2219
 8022SOL    HW135528   4.620   1.810  17.233 -0.1073 -0.8417  1.7945
 8022SOL    HW235529   4.693   1.933  17.188 -1.3901 -0.6547 -0.4725
 8023SOL     OW35530   3.838   3.328   8.459  0.4290 -0.0119 -0.9204
 8023SOL    HW135531   3.766   3.387   8.439  0.9953  1.4826  1.4850
 8023SOL    HW235532   3.914   3.386   8.459 -1.3468  2.2445  1.3383
 8024SOL     OW35533   2.336   0.125   3.698 -0.0751 -0.5812  0.4947
 8024SOL    HW135534   2.340   0.049   3.641  0.0105  0.0999 -0.4014
 8024SOL    HW235535   2.241   0.123   3.716  0.0025  1.1909  1.1814
 8025SOL     OW35536   2.473   2.450   8.746  0.0968 -0.1777 -0.7458
 8025SOL    HW135537   2.526   2.373   8.766 -0.3588 -0.7373 -1.7273
 8025SOL    HW235538   2.488   2.494   8.830 -0.6689  0.3761 -0.8954
 8026SOL     OW35539   2.425   3.711   8.568  0.2673  0.5888 -0.3305
 8026SOL    HW135540   2.413   3.736   8.476 -2.4093  1.2565  0.2080
 8026SOL    HW235541   2.356   3.646   8.581 -0.3623  1.3624  0.1626
 8027SOL     OW35542   2.346   0.988   7.932 -0.1753  0.0875 -0.5982
 8027SOL    HW135543   2.337   1.068   7.984  1.5377 -0.1275  0.0219
 8027SOL    HW235544   2.441   0.977   7.939 -0.0141  0.2596 -2.4183
 8028SOL     OW35545   1.184   2.563   8.861 -0.1587 -0.0406  0.7004
 8028SOL    HW135546   1.093   2.564   8.830 -0.7112  2.0353  2.4000
 8028SOL    HW235547   1.237   2.568   8.781 -1.0709  1.5475  0.1898
 8029SOL     OW35548   2.290   2.638  12.419 -0.7199 -0.1878 -0.4695
 8029SOL    HW135549   2.345   2.712  12.393 -1.4885  0.6703  0.3129
 8029SOL    HW235550   2.272   2.656  12.512 -1.1838 -0.1906 -0.5594
 8030SOL     OW35551   2.522   3.224   5.436  0.0413  0.1571  0.0366
 8030SOL    HW135552   2.434   3.185   5.443 -0.4059  1.5174  2.0571
 8030SOL    HW235553   2.504   3.297   5.377 -0.8408 -0.8830 -0.9959
 8031SOL     OW35554   3.234   0.213   8.074 -0.0160  0.0883  0.0831
 8031SOL    HW135555   3.285   0.268   8.133  1.0500  1.2128 -1.9148
 8031SOL    HW235556   3.149   0.221   8.117 -0.7853  1.2313 -1.6676
 8032SOL     OW35557   4.353   3.577   6.815  0.1161  0.1217 -0.3590
 8032SOL    HW135558   4.319   3.622   6.893  0.4662 -1.3194  0.6331
 8032SOL    HW235559   4.372   3.492   6.855 -1.2712  1.1468  2.4964
 8033SOL     OW35560   3.209   3.637   4.560  0.3016  0.2692 -0.4078
 8033SOL    HW135561   3.164   3.718   4.585 -0.6380  0.1191 -1.6247
 8033SOL    HW235562   3.156   3.570   4.602 -1.7231  1.0396 -1.7581
 8034SOL     OW35563   2.605   4.128   7.026  0.1901 -0.1854 -0.2147
 8034SOL    HW135564   2.693   4.092   7.027 -0.4773 -1.8214 -0.1493
 8034SOL    HW235565   2.612   4.163   7.115  0.6023  0.8487 -0.6497
 8035SOL     OW35566   0.022   0.168   2.737  0.8650  0.3865  0.0337
 8035SOL    HW135567   4.658   0.193   2.756  1.4456  1.1963  1.8124
 8035SOL    HW235568   0.029   0.193   2.645 -2.3713 -1.3338 -0.6826
 8036SOL     OW35569   0.559   4.411  11.003  0.3330  0.2691 -1.0143
 8036SOL    HW135570   0.603   4.327  10.993  0.6257  0.3508 -0.4350
 8036SOL    HW235571   0.497   4.393  10.933 -1.2702 -1.8147  0.9249
 8037SOL     OW35572   3.950   3.504   4.688  0.1312 -0.4706 -0.5111
 8037SOL    HW135573   3.916   3.530   4.774  0.2252 -2.4322  0.1239
 8037SOL    HW235574   3.877   3.502   4.626 -0.2832  1.7314 -0.1035
 8038SOL     OW35575   1.250   3.126   1.197 -0.3329 -0.3950 -0.0750
 8038SOL    HW135576   1.340   3.148   1.172  0.3978 -3.0545  0.2009
 8038SOL    HW235577   1.266   3.055   1.258  0.7740 -0.3051 -0.2654
 8039SOL     OW35578   0.682   2.585   6.877  0.1835  0.3274  0.5036
 8039SOL    HW135579   0.764   2.540   6.860 -0.1578 -0.1943  0.2407
 8039SOL    HW235580   0.703   2.584   6.971 -0.2943 -1.2971  0.5880
 8040SOL     OW35581   0.022   1.968   8.338  0.6872  0.0969  0.1804
 8040SOL    HW135582   0.018   2.049   8.287 -0.1162 -0.5201 -0.7319
 8040SOL    HW235583   0.090   1.918   8.292 -0.9735 -0.2046 -1.9667
 8041SOL     OW35584   2.238   2.249  16.196 -0.0693  0.2524 -0.1662
 8041SOL    HW135585   2.319   2.263  16.245 -1.2034 -0.0149  1.8109
 8041SOL    HW235586   2.188   2.199  16.261  0.8399  0.1710  0.4694
 8042SOL     OW35587   4.031   4.511  17.383 -0.4613 -0.1118  0.7186
 8042SOL    HW135588   4.048   4.506  17.289  1.5310  0.0169  1.0723
 8042SOL    HW235589   4.118   4.531  17.417 -0.4897  0.3701  0.5121
 8043SOL     OW35590   1.274   0.765   3.706 -0.0075  0.3552  0.3476
 8043SOL    HW135591   1.258   0.788   3.798 -1.5858 -2.0886  0.6948
 8043SOL    HW235592   1.186   0.773   3.669  0.3209 -1.0234 -0.7237
 8044SOL     OW35593   3.502   4.116   7.776 -0.0145  0.0515  0.1911
 8044SOL    HW135594   3.493   4.133   7.869 -0.7765 -3.9221  0.8614
 8044SOL    HW235595   3.546   4.031   7.776  0.3540  0.2613  3.7555
 8045SOL     OW35596   3.888   4.712  11.701  0.1832  0.4281 -0.4203
 8045SOL    HW135597   3.961   4.710  11.639  0.6242 -1.9620  0.1496
 8045SOL    HW235598   3.916   0.047  11.770  0.0756  0.4726 -0.4166
 8046SOL     OW35599   2.145   3.832   2.850  0.1563 -0.5370 -0.0708
 8046SOL    HW135600   2.180   3.769   2.913  3.4510  1.0809 -0.2609
 8046SOL    HW235601   2.081   3.780   2.803 -0.7178  0.5317 -0.0534
 8047SOL     OW35602   2.384   2.413  15.668 -0.0669  0.1692 -0.7786
 8047SOL    HW135603   2.435   2.354  15.612  1.2154  0.5203  0.0064
 8047SOL    HW235604   2.440   2.490  15.655  1.5763 -0.3053  3.4057
 8048SOL     OW35605   0.588   3.461   3.281  0.0033 -0.1714  0.2235
 8048SOL    HW135606   0.505   3.494   3.316 -0.5540  0.7394 -1.9590
 8048SOL    HW235607   0.572   3.470   3.187 -0.9367 -1.4466  0.2468
 8049SOL     OW35608   3.241   0.710   1.517 -0.4732 -0.5294  0.1535
 8049SOL    HW135609   3.236   0.614   1.516 -0.2346 -0.5451  0.7308
 8049SOL    HW235610   3.148   0.720   1.494 -0.4889 -0.7073  0.1332
 8050SOL     OW35611   0.268   2.297  14.716  0.7370  0.3777 -0.0678
 8050SOL    HW135612   0.313   2.380  14.701  0.9899  0.3512  0.5636
 8050SOL    HW235613   0.332   2.238  14.676 -2.0056 -1.5601 -1.5404
 8051SOL     OW35614   0.270   2.467  17.464  0.7367  0.1802 -0.9698
 8051SOL    HW135615   0.318   2.497  17.387  1.7349 -0.2506 -0.5180
 8051SOL    HW235616   0.240   2.383  17.428 -1.4630  1.3982 -1.9525
 8052SOL     OW35617   2.072   4.325   8.145 -0.0583 -0.0625  0.8634
 8052SOL    HW135618   2.057   4.275   8.225  0.5589  0.2628  1.1771
 8052SOL    HW235619   2.134   4.274   8.094  0.0570  0.9257  0.0279
 8053SOL     OW35620   1.181   2.983   8.598  0.0268 -0.2071  0.5646
 8053SOL    HW135621   1.170   3.063   8.547  0.2695 -0.3931  0.2238
 8053SOL    HW235622   1.173   2.921   8.526  0.2501  1.1504 -0.6268
 8054SOL     OW35623   3.056   0.082   7.355 -0.2478 -0.1089  0.5671
 8054SOL    HW135624   3.085   0.158   7.406  0.4896 -1.1453  1.6807
 8054SOL    HW235625   3.027   0.131   7.278 -0.7154  1.8234  1.9601
 8055SOL     OW35626   0.131   4.352   8.204  0.5998 -1.0164  0.4713
 8055SOL    HW135627   0.075   4.429   8.202  1.7266 -0.1636  1.9589
 8055SOL    HW235628   0.193   4.378   8.272 -0.7584 -0.7322  1.6078
 8056SOL     OW35629   3.345   2.936   4.795 -0.2996  0.2705 -0.0904
 8056SOL    HW135630   3.287   2.863   4.773 -1.7708  1.1190  0.9249
 8056SOL    HW235631   3.407   2.882   4.843 -0.3221 -0.8370 -1.3165
 8057SOL     OW35632   1.096   3.540   7.021 -0.8893  0.4436  0.7531
 8057SOL    HW135633   1.107   3.596   7.098  1.5357 -0.9899  1.4297
 8057SOL    HW235634   1.026   3.481   7.048  0.3705 -0.5937  1.7134
 8058SOL     OW35635   1.428   4.351   6.304  0.5961 -0.4620 -0.3503
 8058SOL    HW135636   1.378   4.418   6.351  0.3347 -0.0437 -1.2348
 8058SOL    HW235637   1.402   4.276   6.357  3.1097 -0.9339  0.1832
 8059SOL     OW35638   1.556   0.195   9.741  0.3372 -0.3496 -0.0278
 8059SOL    HW135639   1.496   0.175   9.813  1.8586 -0.2934  1.2552
 8059SOL    HW235640   1.600   0.278   9.760 -0.4004  0.6516 -2.7386
 8060SOL     OW35641   3.749   2.824   4.334 -0.5608  0.8697  0.3936
 8060SOL    HW135642   3.736   2.754   4.269 -1.2761 -0.0579  1.5262
 8060SOL    HW235643   3.807   2.874   4.278 -0.1642  0.6277  0.5837
 8061SOL     OW35644   3.649   0.016  15.598  0.2682 -0.4883  0.6708
 8061SOL    HW135645   3.659   4.709  15.688 -2.1437 -1.5267  0.5595
 8061SOL    HW235646   3.732   0.063  15.595 -0.6265  1.0258 -0.1903
 8062SOL     OW35647   0.533   1.484   8.530 -0.3107 -0.1293 -0.2785
 8062SOL    HW135648   0.477   1.423   8.481 -0.7696 -1.6994  2.2136
 8062SOL    HW235649   0.499   1.570   8.508 -0.7827  0.3730  2.4869
 8063SOL     OW35650   1.520   0.419  11.493 -0.0305  0.3082 -1.0915
 8063SOL    HW135651   1.484   0.389  11.409 -1.2440  1.7170 -1.0879
 8063SOL    HW235652   1.615   0.426  11.484  0.2854 -0.9564  1.3380
 8064SOL     OW35653   2.453   1.875   5.735 -0.4813  0.1754 -0.4163
 8064SOL    HW135654   2.483   1.870   5.826  0.4908  0.2798 -0.7328
 8064SOL    HW235655   2.466   1.961   5.695  1.9907 -1.3867 -3.0486
 8065SOL     OW35656   1.693   0.775   7.161 -0.4805 -0.1296  0.0476
 8065SOL    HW135657   1.697   0.870   7.162 -0.9701 -0.1070 -1.4526
 8065SOL    HW235658   1.706   0.748   7.252  0.5618  2.6232  0.7089
 8066SOL     OW35659   1.229   4.151   4.468  0.3126  0.0600  0.3043
 8066SOL    HW135660   1.255   4.063   4.496 -0.0213  0.8498  3.1483
 8066SOL    HW235661   1.164   4.133   4.400 -1.3329 -1.1330  2.1735
 8067SOL     OW35662   2.228   2.907   3.900 -0.0437 -0.0136  0.1467
 8067SOL    HW135663   2.164   2.841   3.875  0.9250 -0.0178 -2.3441
 8067SOL    HW235664   2.304   2.848   3.896  0.7103  1.1822 -3.1761
 8068SOL     OW35665   2.481   1.793   7.598 -0.6207 -0.3504 -0.0928
 8068SOL    HW135666   2.524   1.878   7.607 -0.4344 -0.4169 -0.3770
 8068SOL    HW235667   2.526   1.765   7.518  2.1508  1.6044  0.7861
 8069SOL     OW35668   3.657   1.024   1.922 -0.1692  0.4055 -0.5829
 8069SOL    HW135669   3.702   1.028   1.838 -0.3427  2.6407 -0.5630
 8069SOL    HW235670   3.663   1.117   1.945 -0.6357  0.4131 -0.4879
 8070SOL     OW35671   2.864   2.214  16.210  0.4334 -0.2086 -0.7716
 8070SOL    HW135672   2.863   2.269  16.288 -0.6636 -1.0823 -0.1649
 8070SOL    HW235673   2.800   2.146  16.230  0.8515 -0.2542  0.4001
 8071SOL     OW35674   1.684   4.502  13.815  0.4996 -0.3876  0.0073
 8071SOL    HW135675   1.645   4.566  13.755  1.9705  0.2903 -0.2184
 8071SOL    HW235676   1.635   4.520  13.895 -0.4987  0.4854 -0.7980
 8072SOL     OW35677   1.553   1.366  10.931 -0.1233 -0.0580 -0.1385
 8072SOL    HW135678   1.558   1.418  10.851 -2.1802 -0.7913 -0.7353
 8072SOL    HW235679   1.635   1.318  10.918  0.3793 -0.0075  2.8650
 8073SOL     OW35680   4.645   2.888   2.085 -0.4527  0.2293 -0.3419
 8073SOL    HW135681   4.632   2.914   1.993  1.4362 -1.7769 -1.1506
 8073SOL    HW235682   4.692   2.808   2.065  0.7038  0.4869  1.3175
 8074SOL     OW35683   1.686   0.564   4.771  0.7242  0.2476  0.2235
 8074SOL    HW135684   1.663   0.657   4.774 -0.1642  0.1176 -2.8187
 8074SOL    HW235685   1.604   0.533   4.733 -0.4069  0.9673  2.0661
 8075SOL     OW35686   2.093   1.881   6.151  0.1218  0.1850  0.2396
 8075SOL    HW135687   2.178   1.910   6.116 -0.6675  0.0594 -1.7938
 8075SOL    HW235688   2.098   1.875   6.246  2.8259  2.4578  0.2468
 8076SOL     OW35689   4.219   1.786   2.085 -0.1702  0.1896 -0.1860
 8076SOL    HW135690   4.259   1.822   2.164  0.3650 -0.7366 -0.0313
 8076SOL    HW235691   4.263   1.832   2.013 -0.1065  0.3664 -0.0343
 8077SOL     OW35692   1.859   3.063  16.568 -0.1415 -0.0915  0.0092
 8077SOL    HW135693   1.953   3.082  16.567 -0.0178 -0.7704 -1.6298
 8077SOL    HW235694   1.828   3.148  16.599  0.8322  0.4759 -0.5616
 8078SOL     OW35695   2.120   0.260   2.969 -0.4185  0.4972 -0.0699
 8078SOL    HW135696   2.104   0.189   2.908  0.8204  0.6128 -0.5320
 8078SOL    HW235697   2.094   0.218   3.051  1.2138 -0.7447 -0.2001
 8079SOL     OW35698   0.101   0.935  15.524 -0.2992 -0.1361  0.1805
 8079SOL    HW135699   0.030   0.898  15.577  0.1965 -0.1114  0.8626
 8079SOL    HW235700   0.087   1.030  15.530 -0.7759 -0.1447 -0.8093
 8080SOL     OW35701   1.974   2.238  16.654 -0.2994  0.3621  0.1443
 8080SOL    HW135702   1.916   2.206  16.585  1.0824 -1.9058  0.0236
 8080SOL    HW235703   2.023   2.306  16.608 -3.1479  0.6496 -2.4670
 8081SOL     OW35704   0.926   3.805   5.634  0.0195  0.0298 -0.2682
 8081SOL    HW135705   1.003   3.749   5.645 -0.4477 -0.5958 -0.1650
 8081SOL    HW235706   0.905   3.789   5.542 -0.6785 -0.2742 -0.0544
 8082SOL     OW35707   1.193   4.531   8.758  0.3626 -0.2404  0.1239
 8082SOL    HW135708   1.145   4.448   8.755 -1.8246  1.0444 -0.1581
 8082SOL    HW235709   1.268   4.494   8.710  0.1995 -1.0484  0.4885
 8083SOL     OW35710   3.196   0.326  11.172  0.4973  0.5620 -0.0251
 8083SOL    HW135711   3.217   0.243  11.215 -0.1956  0.6767  0.5293
 8083SOL    HW235712   3.252   0.323  11.095  0.4607 -1.5068  0.0370
 8084SOL     OW35713   2.073   1.417   0.746  0.7200  0.5003 -0.1948
 8084SOL    HW135714   2.168   1.417   0.744  0.7615  0.5627  1.7254
 8084SOL    HW235715   2.054   1.497   0.697 -0.8954  1.2178  1.6098
 8085SOL     OW35716   3.901   3.190   6.675 -0.0780 -0.7142 -0.5436
 8085SOL    HW135717   3.828   3.234   6.632 -0.3831 -0.5870  0.1066
 8085SOL    HW235718   3.956   3.187   6.597  0.3614 -0.5869 -0.2355
 8086SOL     OW35719   3.455   4.481   5.183  0.1809  0.2538 -0.1007
 8086SOL    HW135720   3.378   4.433   5.153 -0.1384 -0.3807  1.7308
 8086SOL    HW235721   3.517   4.469   5.110 -1.7824 -1.2960 -1.5205
 8087SOL     OW35722   3.596   2.913   4.007  0.1308  0.2933  0.5006
 8087SOL    HW135723   3.604   2.984   3.943 -1.7419  1.4484  1.5462
 8087SOL    HW235724   3.680   2.924   4.052  0.7471  1.0727 -0.8559
 8088SOL     OW35725   0.678   2.466   9.965 -0.3549 -0.1981  0.9987
 8088SOL    HW135726   0.595   2.421   9.976 -0.5466 -0.4107 -1.2671
 8088SOL    HW235727   0.708   2.482  10.055 -0.3598  1.0896  0.7832
 8089SOL     OW35728   1.792   4.325   6.477 -0.8344 -0.1699  0.0753
 8089SOL    HW135729   1.800   4.259   6.408  1.7579 -1.1523  1.2998
 8089SOL    HW235730   1.850   4.289   6.545 -2.0740 -1.8307  0.2310
 8090SOL     OW35731   1.475   2.317   9.192 -0.3674  0.6530  0.0898
 8090SOL    HW135732   1.467   2.392   9.133 -0.1886  1.2467  0.8258
 8090SOL    HW235733   1.535   2.351   9.258  0.8300 -2.0072  0.3630
 8091SOL     OW35734   2.262   0.371   4.651  0.1689  0.3075 -0.8230
 8091SOL    HW135735   2.238   0.289   4.608  0.0627  0.4460 -1.0307
 8091SOL    HW235736   2.246   0.431   4.578  0.0662  0.6728 -0.4969
 8092SOL     OW35737   2.385   2.334   8.111 -0.3068  0.2663  0.3397
 8092SOL    HW135738   2.417   2.382   8.034  1.0622 -0.6051  0.3610
 8092SOL    HW235739   2.460   2.339   8.170  0.1075 -1.8641 -0.0192
 8093SOL     OW35740   2.921   1.990   8.996  0.5408  0.4343  0.0593
 8093SOL    HW135741   2.994   1.930   8.982 -0.3916 -0.3698 -1.3951
 8093SOL    HW235742   2.874   1.937   9.060  1.0539  1.0410  0.9378
 8094SOL     OW35743   1.057   2.008   5.908  0.6267 -0.7736  0.7191
 8094SOL    HW135744   0.984   2.071   5.910  0.5644 -0.8135 -0.1500
 8094SOL    HW235745   1.089   2.007   5.998 -0.3775  3.6678  1.1538
 8095SOL     OW35746   0.219   0.294   2.841 -0.4466  0.1584  1.0883
 8095SOL    HW135747   0.258   0.310   2.755 -0.6935 -1.2737  0.7138
 8095SOL    HW235748   0.136   0.256   2.811  0.2792 -0.2957 -0.3320
 8096SOL     OW35749   4.641   3.128   4.635 -0.2029 -0.1280  0.0238
 8096SOL    HW135750   4.723   3.099   4.673  0.4066 -0.8229 -1.8376
 8096SOL    HW235751   4.665   3.221   4.641 -0.6566 -0.0704  1.0338
 8097SOL     OW35752   0.754   1.103   6.938  0.0172 -0.1012  0.1708
 8097SOL    HW135753   0.760   1.192   6.902  1.1389 -0.1966  0.1051
 8097SOL    HW235754   0.809   1.111   7.016 -0.4536 -0.5391  0.5436
 8098SOL     OW35755   3.596   3.294   6.053 -0.1126  0.3065  0.3471
 8098SOL    HW135756   3.689   3.315   6.052 -0.1726  0.4912 -1.6006
 8098SOL    HW235757   3.598   3.210   6.006  1.3776  0.7988 -0.4434
 8099SOL     OW35758   4.339   0.721  14.382 -0.3721  0.5242 -0.0025
 8099SOL    HW135759   4.339   0.706  14.477 -1.1791  1.6002  0.1739
 8099SOL    HW235760   4.253   0.758  14.361 -0.0698  1.6602  0.7785
 8100SOL     OW35761   3.210   1.537  15.415  0.4247  0.5609 -0.5587
 8100SOL    HW135762   3.167   1.545  15.500  0.5120 -0.0797 -0.4531
 8100SOL    HW235763   3.174   1.615  15.373 -0.5067  0.8801  0.8114
 8101SOL     OW35764   1.107   0.139   5.798 -0.3277  0.3849  0.3302
 8101SOL    HW135765   1.103   0.186   5.881 -1.6648 -0.7511  0.9204
 8101SOL    HW235766   1.032   0.181   5.756  1.1328 -0.4826 -3.0874
 8102SOL     OW35767   1.517   0.188  15.828  0.0474 -0.5370 -0.5580
 8102SOL    HW135768   1.505   0.266  15.774  1.8361 -0.8723 -1.4307
 8102SOL    HW235769   1.551   0.231  15.907 -0.8495 -0.8270 -0.0035
 8103SOL     OW35770   2.528   2.782  15.061 -0.3699 -1.0879 -0.0955
 8103SOL    HW135771   2.513   2.786  14.967  1.7379 -2.7812 -0.5089
 8103SOL    HW235772   2.615   2.819  15.074  0.0770 -2.6734  1.3935
 8104SOL     OW35773   1.870   3.394   3.445  0.1696  0.5185  0.9266
 8104SOL    HW135774   1.793   3.361   3.399  1.5309  0.9635 -1.6870
 8104SOL    HW235775   1.837   3.454   3.511 -0.4998  1.3899 -0.2044
 8105SOL     OW35776   0.617   1.232   4.588  0.2811 -0.2182  0.2600
 8105SOL    HW135777   0.571   1.158   4.627 -0.6476  1.5524  2.5085
 8105SOL    HW235778   0.710   1.208   4.594  0.7768  1.5606 -0.1080
 8106SOL     OW35779   3.785   2.024   7.017 -0.3820 -0.3526  0.0382
 8106SOL    HW135780   3.799   1.987   6.930 -1.9255  0.5963 -0.6045
 8106SOL    HW235781   3.861   2.081   7.033  1.0099 -1.7161 -1.7967
 8107SOL     OW35782   2.724   0.860   5.783  0.5174  0.1026  0.4333
 8107SOL    HW135783   2.703   0.770   5.757 -2.7409  0.6237  1.3002
 8107SOL    HW235784   2.753   0.895   5.699 -0.2884  0.1529  0.1811
 8108SOL     OW35785   3.670   2.812  10.763  0.2440 -0.2547 -0.4987
 8108SOL    HW135786   3.625   2.895  10.782 -1.8471 -1.2544 -1.1283
 8108SOL    HW235787   3.605   2.748  10.791  0.5431 -0.7629 -0.9584
 8109SOL     OW35788   0.864   2.337   3.340  0.3345  0.4345 -0.1261
 8109SOL    HW135789   0.916   2.405   3.296  0.2542  0.6186  0.0663
 8109SOL    HW235790   0.901   2.338   3.428  1.4726  0.6268 -0.5977
 8110SOL     OW35791   4.547   0.300   1.739 -0.1965 -0.0883 -0.3078
 8110SOL    HW135792   4.605   0.346   1.679 -0.0409 -0.2231 -0.2592
 8110SOL    HW235793   4.485   0.262   1.677 -3.2472 -0.6872  3.0635
 8111SOL     OW35794   2.318   1.378   7.436  0.0458 -0.2222  0.0313
 8111SOL    HW135795   2.259   1.320   7.485 -0.9725 -0.0343 -0.9674
 8111SOL    HW235796   2.338   1.313   7.369  0.2458 -0.3163  0.1842
 8112SOL     OW35797   4.090   1.994  10.392 -0.0753 -0.3388  0.2609
 8112SOL    HW135798   4.098   2.063  10.458 -0.7390  0.0016 -0.0186
 8112SOL    HW235799   4.054   1.916  10.434 -0.9979  0.1903  0.4471
 8113SOL     OW35800   0.975   0.309   4.909  0.0804  0.2263  0.1318
 8113SOL    HW135801   1.057   0.318   4.860 -0.1916  0.6789 -0.2471
 8113SOL    HW235802   0.937   0.239   4.856  0.7136 -0.3559  0.4566
 8114SOL     OW35803   1.785   1.780  12.638 -0.2198  0.0369  0.0904
 8114SOL    HW135804   1.760   1.869  12.663  2.0752  0.3034  1.4812
 8114SOL    HW235805   1.713   1.730  12.677 -0.5880  0.0470 -0.5765
 8115SOL     OW35806   3.943   3.528   6.531  0.7140 -0.6286 -0.1298
 8115SOL    HW135807   4.026   3.558   6.568  0.2250 -2.1440  2.2253
 8115SOL    HW235808   3.884   3.578   6.588 -2.1034 -2.8367 -1.0799
 8116SOL     OW35809   1.331   0.068  10.423 -0.1871  0.2369  0.4129
 8116SOL    HW135810   1.243   0.104  10.429 -0.2963 -0.2529  1.8802
 8116SOL    HW235811   1.337   0.026  10.509 -0.7808  0.1054  0.3860
 8117SOL     OW35812   3.618   1.849  16.543  0.1167 -0.7794  0.2856
 8117SOL    HW135813   3.676   1.916  16.507 -0.3434 -0.4036  0.2312
 8117SOL    HW235814   3.531   1.888  16.554  0.7160  0.6651 -0.0476
 8118SOL     OW35815   1.375   2.898  11.029 -0.0081  0.1049  0.0659
 8118SOL    HW135816   1.283   2.906  11.002 -0.3366  1.6333  1.6676
 8118SOL    HW235817   1.415   2.902  10.942 -1.2241 -0.2223 -0.5206
 8119SOL     OW35818   1.466   0.053   6.689  0.1031 -0.1654 -0.2140
 8119SOL    HW135819   1.512   4.699   6.715 -0.2066  0.3467  1.8903
 8119SOL    HW235820   1.457   0.096   6.774  1.2082  1.8222 -1.1189
 8120SOL     OW35821   3.335   1.525   4.036 -0.5207 -0.1789  0.0423
 8120SOL    HW135822   3.279   1.456   4.072 -2.6337  1.1750 -0.6058
 8120SOL    HW235823   3.370   1.552   4.121 -1.5713  1.6187 -0.0768
 8121SOL     OW35824   1.466   0.962   6.530 -0.5363 -0.4218  0.2732
 8121SOL    HW135825   1.437   0.898   6.464  0.2170  0.2794 -0.7411
 8121SOL    HW235826   1.453   1.037   6.471  2.9082  0.6529  0.9333
 8122SOL     OW35827   2.628   2.833  16.488  0.2989 -0.3513  0.0241
 8122SOL    HW135828   2.543   2.876  16.473  1.4006  1.2192 -1.6680
 8122SOL    HW235829   2.679   2.898  16.440  0.5157  0.2519  1.0663
 8123SOL     OW35830   0.965   2.042   2.663  0.4476 -0.0075 -0.3403
 8123SOL    HW135831   0.931   2.096   2.592 -0.9742  1.1040  1.1983
 8123SOL    HW235832   1.060   2.047   2.651  0.3963 -0.8099 -1.0781
 8124SOL     OW35833   3.420   0.764   6.278 -0.2033  0.2551 -0.7597
 8124SOL    HW135834   3.441   0.846   6.321 -0.7168  0.0336 -0.0959
 8124SOL    HW235835   3.481   0.761   6.204  1.3559 -0.3221  0.5412
 8125SOL     OW35836   0.622   2.714   7.323  0.1676  0.7937 -0.4137
 8125SOL    HW135837   0.557   2.733   7.256 -1.7910 -1.8756  0.7603
 8125SOL    HW235838   0.630   2.800   7.366 -1.5295  0.7085  0.0475
 8126SOL     OW35839   1.034   1.127   0.639  0.0542 -0.6395  0.2157
 8126SOL    HW135840   1.093   1.142   0.566 -0.7421  0.3526 -0.2218
 8126SOL    HW235841   1.088   1.160   0.711  0.3687 -4.0964  1.5622
 8127SOL     OW35842   0.396   4.424   4.596 -0.3297  0.0526  0.3289
 8127SOL    HW135843   0.407   4.494   4.661  1.5986 -0.5240  0.6282
 8127SOL    HW235844   0.331   4.478   4.551  0.6696  0.3999 -0.6914
 8128SOL     OW35845   0.659   0.920   3.924  0.6120  0.1782  0.7604
 8128SOL    HW135846   0.592   0.873   3.874  1.8769 -2.2155  1.3389
 8128SOL    HW235847   0.600   0.984   3.964  0.8888  0.2187  1.0959
 8129SOL     OW35848   3.092   4.431   9.264  0.4596 -0.3926  0.1063
 8129SOL    HW135849   3.156   4.496   9.293  2.3747 -0.9050 -2.9975
 8129SOL    HW235850   3.026   4.490   9.227 -1.1704 -3.3941 -1.7997
 8130SOL     OW35851   2.294   4.635  15.160 -0.0288 -0.4101 -0.6933
 8130SOL    HW135852   2.351   4.559  15.166  0.5449  0.1179  0.4745
 8130SOL    HW235853   2.208   4.594  15.164  0.2632 -0.7267  1.9920
 8131SOL     OW35854   3.485   2.779   5.361  0.7963  0.4980 -0.2743
 8131SOL    HW135855   3.556   2.765   5.424 -0.4785 -0.3437  0.9697
 8131SOL    HW235856   3.519   2.784   5.271 -1.6560  0.7471 -1.1749
 8132SOL     OW35857   1.442   1.898   2.829 -0.1901 -0.4819 -0.2455
 8132SOL    HW135858   1.360   1.924   2.786 -0.7009 -0.0677  0.9750
 8132SOL    HW235859   1.467   1.816   2.786 -0.6559 -0.4490 -0.5892
 8133SOL     OW35860   2.381   0.362   0.275 -0.4874  0.3829  0.3052
 8133SOL    HW135861   2.433   0.320   0.344 -0.3944  1.6460  0.9968
 8133SOL    HW235862   2.428   0.442   0.253  0.4248  0.2294  1.7282
 8134SOL     OW35863   1.454   1.349   5.985 -0.0863  0.0872 -0.1050
 8134SOL    HW135864   1.497   1.433   5.998 -0.7253  0.1715  1.4924
 8134SOL    HW235865   1.500   1.312   5.910  1.4060  1.1088  0.3100
 8135SOL     OW35866   1.857   1.134   8.861  0.2560  0.0191  0.6455
 8135SOL    HW135867   1.868   1.223   8.828  0.4632 -0.2536 -0.0194
 8135SOL    HW235868   1.886   1.139   8.952 -1.4917 -4.6196  1.4597
 8136SOL     OW35869   2.108   4.506   8.930 -0.1480 -0.1546  0.8022
 8136SOL    HW135870   2.096   4.467   8.844 -1.0145  1.6125  0.1392
 8136SOL    HW235871   2.064   4.590   8.921  1.1785  0.1831 -2.4761
 8137SOL     OW35872   1.695   3.664   5.824  0.1924 -0.5798 -0.1389
 8137SOL    HW135873   1.646   3.725   5.769  1.1573  2.0869  1.9594
 8137SOL    HW235874   1.634   3.591   5.831  1.6104 -1.7312  0.0805
 8138SOL     OW35875   3.104   1.404  13.429 -0.3223 -0.1158 -0.0541
 8138SOL    HW135876   3.124   1.359  13.347  3.4518  0.6587  0.4232
 8138SOL    HW235877   3.009   1.398  13.426 -0.3020 -0.4534 -0.0102
 8139SOL     OW35878   4.566   0.327   4.975 -0.2842 -0.0376 -0.2743
 8139SOL    HW135879   4.501   0.257   4.966 -0.0160 -0.2818 -0.2980
 8139SOL    HW235880   4.515   0.398   4.936  0.3814  0.3065 -0.5217
 8140SOL     OW35881   2.459   2.748   3.859 -0.4258 -0.1861 -0.3162
 8140SOL    HW135882   2.503   2.696   3.792  0.9594 -1.2079  1.3832
 8140SOL    HW235883   2.531   2.772   3.918  0.1286 -1.5122 -0.4610
 8141SOL     OW35884   3.639   2.013   9.172  0.0481  0.0980  0.4099
 8141SOL    HW135885   3.734   1.999   9.173  0.3980  2.1642 -2.1444
 8141SOL    HW235886   3.615   2.029   9.081 -0.0810 -1.7803  0.1114
 8142SOL     OW35887   3.468   1.309   5.881  0.5873 -0.3638 -0.2863
 8142SOL    HW135888   3.412   1.319   5.959  0.7503  1.2240 -0.3714
 8142SOL    HW235889   3.393   1.322   5.823 -0.1702  2.9962  1.4391
 8143SOL     OW35890   2.338   4.165   5.159 -0.5488 -0.2045 -0.6108
 8143SOL    HW135891   2.263   4.177   5.100  0.1866  0.2591 -1.4324
 8143SOL    HW235892   2.388   4.095   5.119 -1.5453 -0.5100 -1.3188
 8144SOL     OW35893   3.136   3.546  16.683 -0.5245  0.3245 -0.0311
 8144SOL    HW135894   3.122   3.512  16.594 -0.5048  2.8972 -1.0168
 8144SOL    HW235895   3.196   3.617  16.663 -1.3822  0.7199 -1.1981
 8145SOL     OW35896   0.524   1.947   7.704 -0.4079 -0.3983  0.0507
 8145SOL    HW135897   0.589   1.963   7.773 -0.3805 -0.6454  0.0836
 8145SOL    HW235898   0.478   1.871   7.741 -1.2581  1.3729  2.7193
 8146SOL     OW35899   1.015   2.259   2.853  0.4388  0.1640 -0.1393
 8146SOL    HW135900   1.024   2.243   2.759  1.1378  1.0255 -0.2156
 8146SOL    HW235901   0.920   2.254   2.858  0.6330  0.3179  3.4517
 8147SOL     OW35902   3.445   4.607   5.416  0.4901 -0.2831  0.0595
 8147SOL    HW135903   3.472   4.677   5.357 -1.8787  0.6264  0.0335
 8147SOL    HW235904   3.422   4.536   5.355 -1.2708  1.8532 -1.7787
 8148SOL     OW35905   4.654   3.259   6.131  0.1575  0.3388  0.3760
 8148SOL    HW135906   4.642   3.298   6.217  0.6516  1.4990 -0.0817
 8148SOL    HW235907   4.671   3.337   6.077  2.8252  0.5570  1.5846
 8149SOL     OW35908   3.403   3.668   5.245  0.1427  0.5347  0.4977
 8149SOL    HW135909   3.492   3.687   5.272 -0.2574 -1.3039  3.0799
 8149SOL    HW235910   3.353   3.715   5.312 -0.2195  0.1631  0.4878
 8150SOL     OW35911   3.961   0.758  14.561  0.6074 -0.3148  0.3321
 8150SOL    HW135912   3.925   0.832  14.511  0.9248 -0.9059 -0.7860
 8150SOL    HW235913   3.967   0.685  14.498 -0.1968  1.1405 -1.4445
 8151SOL     OW35914   4.402   0.892   4.276 -0.0257  0.7871 -0.3445
 8151SOL    HW135915   4.364   0.823   4.222 -1.7695  0.9224  0.7367
 8151SOL    HW235916   4.360   0.971   4.242  0.8810  0.6971 -1.6809
 8152SOL     OW35917   4.013   3.523   2.637 -0.1237 -0.2034 -0.3608
 8152SOL    HW135918   3.967   3.585   2.580 -3.0246 -0.6062  1.5425
 8152SOL    HW235919   3.965   3.445   2.611 -1.3257  0.3022  0.3190
 8153SOL     OW35920   3.314   0.006   5.059  0.2370  0.6661  0.1596
 8153SOL    HW135921   3.344   0.095   5.040  4.0729 -0.5571  0.3844
 8153SOL    HW235922   3.393   4.690   5.024 -1.4378 -0.7009 -1.9885
 8154SOL     OW35923   2.662   0.959   7.984  0.0102  0.1856 -0.4260
 8154SOL    HW135924   2.696   1.008   8.059 -1.8331 -0.9401  1.1760
 8154SOL    HW235925   2.729   0.899   7.951  2.4200  3.2606 -1.0812
 8155SOL     OW35926   0.311   2.034   4.730 -0.2388 -0.1761  0.1695
 8155SOL    HW135927   0.271   1.974   4.667  0.1397  1.8421 -2.0186
 8155SOL    HW235928   0.330   1.974   4.802 -0.4901  1.2105  1.3972
 8156SOL     OW35929   3.329   1.263   4.939  0.4397 -0.2911 -0.5878
 8156SOL    HW135930   3.401   1.314   4.904  1.2973  0.0011  1.5493
 8156SOL    HW235931   3.362   1.173   4.936 -1.1938 -1.0091  2.4100
 8157SOL     OW35932   0.802   0.264   1.904 -0.2783 -0.6575 -0.2478
 8157SOL    HW135933   0.757   0.249   1.821 -1.3273  2.8735 -0.3121
 8157SOL    HW235934   0.830   0.353   1.884  0.7587 -0.4359  2.1654
 8158SOL     OW35935   3.473   0.249   4.120 -0.3075 -0.5430  0.0309
 8158SOL    HW135936   3.470   0.262   4.215  0.1555  0.9061 -0.1570
 8158SOL    HW235937   3.438   0.334   4.092  2.2965  1.1437  1.9810
 8159SOL     OW35938   1.176   2.161   6.541  0.1629  0.7873 -0.3383
 8159SOL    HW135939   1.096   2.108   6.547  0.6223  0.1267 -0.0624
 8159SOL    HW235940   1.220   2.109   6.474  0.1936  0.8914 -0.3987
 8160SOL     OW35941   3.708   3.952   0.658  0.3012 -0.0332 -0.2967
 8160SOL    HW135942   3.724   3.949   0.753  0.9781  1.0799 -0.3769
 8160SOL    HW235943   3.760   3.875   0.636  0.8783  0.3522 -0.2795
 8161SOL     OW35944   2.505   3.270  16.358 -0.2556 -0.4816  0.3387
 8161SOL    HW135945   2.423   3.319  16.347  0.7876  0.4267 -3.3923
 8161SOL    HW235946   2.513   3.219  16.277 -0.8999 -1.1406  0.6891
 8162SOL     OW35947   1.641   4.231  11.779  0.1712 -0.4629  0.1961
 8162SOL    HW135948   1.670   4.230  11.870 -2.4139 -2.7601  1.0048
 8162SOL    HW235949   1.727   4.215  11.740  0.8472 -1.8908  2.3045
 8163SOL     OW35950   1.914   0.840   3.282 -0.0890  0.1151 -0.2008
 8163SOL    HW135951   1.987   0.793   3.243 -0.6758  0.0237 -1.1814
 8163SOL    HW235952   1.841   0.792   3.243  0.0642 -0.7522  0.5700
 8164SOL     OW35953   4.552   1.464   7.379 -0.6452  0.0734  0.5204
 8164SOL    HW135954   4.614   1.532   7.352 -1.6903  0.4464 -0.9135
 8164SOL    HW235955   4.591   1.454   7.467  0.7582 -1.5152 -0.2725
 8165SOL     OW35956   1.740   2.103   4.753 -0.0147  0.0874  0.4088
 8165SOL    HW135957   1.746   2.033   4.818  1.0364 -0.3458 -0.1364
 8165SOL    HW235958   1.652   2.091   4.717  0.2968 -3.3458  0.7227
 8166SOL     OW35959   1.178   3.216   0.063 -0.3006  0.4743  0.5004
 8166SOL    HW135960   1.177   3.299   0.014 -1.6402 -1.0141 -2.0305
 8166SOL    HW235961   1.092   3.217   0.104 -0.4205 -2.5225  0.3262
 8167SOL     OW35962   1.738   1.003   5.355 -0.0782  0.2315 -0.4847
 8167SOL    HW135963   1.752   0.950   5.433  2.4876 -0.0318 -1.1493
 8167SOL    HW235964   1.645   0.993   5.331 -0.5536  1.2771  0.9526
 8168SOL     OW35965   0.944   3.286   7.660 -0.0314  0.7787 -0.0999
 8168SOL    HW135966   0.876   3.257   7.721  1.4048  0.5972  1.3961
 8168SOL    HW235967   0.910   3.361   7.610  0.4601  1.8850  1.2362
 8169SOL     OW35968   0.226   4.028   3.518  0.9490  0.2671 -0.0243
 8169SOL    HW135969   0.301   4.028   3.458  2.8214 -0.5636  2.2874
 8169SOL    HW235970   0.258   3.973   3.590  0.6406  0.1262  0.0041
 8170SOL     OW35971   2.421   1.503   6.512  0.2096  0.1669 -0.3585
 8170SOL    HW135972   2.413   1.488   6.606 -0.7887 -0.3157 -0.5219
 8170SOL    HW235973   2.418   1.599   6.515 -0.3250  0.2405 -3.3132
 8171SOL     OW35974   0.627   1.861   3.532  0.0993 -0.3914  0.2239
 8171SOL    HW135975   0.565   1.810   3.481 -1.5180  1.6747  0.1382
 8171SOL    HW235976   0.600   1.847   3.623  1.1808  0.2780  0.6544
 8172SOL     OW35977   0.024   2.591   8.753 -0.3702 -0.0584 -0.4793
 8172SOL    HW135978   4.674   2.605   8.809  1.5704  1.0913  1.9288
 8172SOL    HW235979   0.069   2.514   8.789 -2.5612  0.0964  2.5729
 8173SOL     OW35980   0.897   1.344   5.785  0.4396  0.5659 -0.0827
 8173SOL    HW135981   0.803   1.331   5.795  0.4461 -1.1454 -2.2298
 8173SOL    HW235982   0.917   1.291   5.707 -0.0812  0.9517 -0.4749
 8174SOL     OW35983   3.645   2.518  11.986  0.0963 -0.1398 -0.5856
 8174SOL    HW135984   3.610   2.436  12.022  0.5038  0.0314  0.1960
 8174SOL    HW235985   3.628   2.506  11.892  1.1166 -0.5979 -0.7093
 8175SOL     OW35986   3.561   0.200   7.991  0.3186 -0.5507  0.4294
 8175SOL    HW135987   3.574   0.252   8.070  1.0150 -0.6799  0.3950
 8175SOL    HW235988   3.650   0.178   7.964  1.0185  0.9907  1.5109
 8176SOL     OW35989   0.017   0.370   6.024 -0.3802  0.1575 -0.3462
 8176SOL    HW135990   0.045   0.338   6.110 -2.6389  2.8921  1.4339
 8176SOL    HW235991   0.054   0.458   6.017 -1.3726  0.3900 -2.5425
 8177SOL     OW35992   2.741   0.773  15.885 -0.0309  0.4387  0.1429
 8177SOL    HW135993   2.776   0.861  15.895 -2.1793  1.3124 -0.0760
 8177SOL    HW235994   2.664   0.787  15.830 -0.6014 -0.8430  0.6071
 8178SOL     OW35995   2.909   3.633   2.349 -0.1396  0.2044 -0.0552
 8178SOL    HW135996   2.919   3.694   2.276 -0.5086  0.3061 -0.0177
 8178SOL    HW235997   2.979   3.568   2.335 -0.2536  0.5229 -2.1818
 8179SOL     OW35998   0.850   4.338   5.494 -0.4049 -0.2741 -0.2492
 8179SOL    HW135999   0.800   4.280   5.435  1.1252 -1.0876 -0.7379
 8179SOL    HW236000   0.853   4.419   5.443 -0.2392 -1.1352 -1.6069
 8180SOL     OW36001   4.165   4.491   4.163 -0.5792 -0.3766 -0.4433
 8180SOL    HW136002   4.231   4.560   4.171 -0.9206 -0.1659  0.5361
 8180SOL    HW236003   4.182   4.441   4.243  1.7037  0.3215 -0.4864
 8181SOL     OW36004   1.195   1.816   0.096  0.1136 -0.7516  0.5400
 8181SOL    HW136005   1.184   1.725   0.068 -0.5593  0.1917 -2.2957
 8181SOL    HW236006   1.139   1.861   0.033  2.2956 -0.8524 -1.4717
 8182SOL     OW36007   4.045   0.263  11.744 -0.2476 -0.4553  0.6421
 8182SOL    HW136008   4.113   0.202  11.715 -1.5602 -0.8406 -1.5866
 8182SOL    HW236009   4.083   0.311  11.819  0.0070 -1.1596  0.9652
 8183SOL     OW36010   2.207   0.194   7.749 -0.0938 -0.3322  0.0088
 8183SOL    HW136011   2.199   0.274   7.698  1.2478 -0.8877 -1.0604
 8183SOL    HW236012   2.191   0.230   7.836 -1.3085  0.2586 -0.4666
 8184SOL     OW36013   0.640   3.592   4.321 -0.0750 -0.2674 -0.1383
 8184SOL    HW136014   0.718   3.609   4.268 -0.2489 -0.5451 -0.4782
 8184SOL    HW236015   0.572   3.644   4.277  1.0971  2.5462  1.3685
 8185SOL     OW36016   1.380   3.219   6.535 -0.0218 -0.2614  0.0346
 8185SOL    HW136017   1.385   3.201   6.441  2.5376  2.0656 -0.2692
 8185SOL    HW236018   1.453   3.277   6.555  0.2392 -0.7389  0.4628
 8186SOL     OW36019   0.368   4.123   0.601  0.3867  0.0820 -0.1160
 8186SOL    HW136020   0.415   4.051   0.559  1.2779  1.0400 -0.7489
 8186SOL    HW236021   0.352   4.089   0.689 -0.3236  3.5977  1.0871
 8187SOL     OW36022   3.495   2.322  11.492  0.1692  0.1385  0.5556
 8187SOL    HW136023   3.513   2.229  11.501  0.9670  0.2765  0.4403
 8187SOL    HW236024   3.554   2.344  11.420 -0.4400 -2.5963 -0.7451
 8188SOL     OW36025   3.045   0.751   2.427 -0.0761  1.1646  0.4502
 8188SOL    HW136026   3.007   0.830   2.388 -0.5971  0.6530 -0.0759
 8188SOL    HW236027   3.140   0.762   2.432  0.1258 -0.3986 -0.0957
 8189SOL     OW36028   0.781   4.603   9.071 -0.4164 -0.1981  0.4445
 8189SOL    HW136029   0.694   4.594   9.111 -1.1550  2.7848 -0.4547
 8189SOL    HW236030   0.818   4.559   9.147  0.4350  1.0847  0.7661
 8190SOL     OW36031   1.786   0.275   9.461 -0.0838  0.1777  0.1236
 8190SOL    HW136032   1.715   0.283   9.397  0.0601  2.5698  0.2658
 8190SOL    HW236033   1.849   0.333   9.418  0.4613 -1.5677 -1.4514
 8191SOL     OW36034   1.770   1.818   9.466 -0.0225 -0.4485 -0.2604
 8191SOL    HW136035   1.745   1.867   9.387  1.0348  2.0511  0.9570
 8191SOL    HW236036   1.830   1.755   9.425 -0.9194 -0.3813 -1.7112
 8192SOL     OW36037   2.991   3.394  14.930 -0.6367 -0.0636 -0.0582
 8192SOL    HW136038   2.925   3.354  14.986 -2.1515  0.2100 -1.6310
 8192SOL    HW236039   3.063   3.331  14.938  0.9802  1.5317 -1.7447
 8193SOL     OW36040   0.790   4.614  16.445 -0.2404  0.0383 -0.0230
 8193SOL    HW136041   0.792   4.522  16.419 -1.0745  0.1115 -0.3389
 8193SOL    HW236042   0.724   4.603  16.513 -0.2639  2.4432  0.3208
 8194SOL     OW36043   4.148   3.638   1.688 -0.7138  0.0555 -0.1120
 8194SOL    HW136044   4.071   3.582   1.702  0.8769 -2.5703 -1.9300
 8194SOL    HW236045   4.177   3.593   1.609  1.7576  1.7561 -0.1581
 8195SOL     OW36046   1.131   2.818   3.565  0.0903  0.0814 -0.1496
 8195SOL    HW136047   1.133   2.890   3.628 -1.4136  0.1949 -0.2233
 8195SOL    HW236048   1.092   2.742   3.609  0.1028  0.9652  1.4025
 8196SOL     OW36049   3.214   4.339   4.786 -0.7692  0.0901 -0.4377
 8196SOL    HW136050   3.183   4.343   4.696 -1.6552  2.9716 -0.0120
 8196SOL    HW236051   3.277   4.408   4.765  0.1192 -1.2285 -2.1249
 8197SOL     OW36052   2.294   0.804   6.285 -0.0621 -0.3079  0.7866
 8197SOL    HW136053   2.207   0.786   6.249  0.0366  0.5302  0.1438
 8197SOL    HW236054   2.295   0.723   6.337  0.6143 -1.0187 -0.3368
 8198SOL     OW36055   4.451   4.715   5.678  0.0475 -0.2645  0.1923
 8198SOL    HW136056   4.411   0.061   5.630  0.3416 -0.0173  0.3206
 8198SOL    HW236057   4.421   4.723   5.769 -2.4244  1.2920 -0.7744
 8199SOL     OW36058   0.897   1.470  12.483  0.6306  0.5953 -0.2627
 8199SOL    HW136059   0.981   1.462  12.437 -0.0290 -1.7263 -1.0544
 8199SOL    HW236060   0.900   1.560  12.516 -1.6799  0.6566 -0.2234
 8200SOL     OW36061   3.719   3.130   7.126  0.0491 -0.3639 -0.6637
 8200SOL    HW136062   3.698   3.153   7.217  0.4153 -0.3162 -0.5881
 8200SOL    HW236063   3.685   3.197   7.068 -0.5537  1.2872  1.5767
 8201SOL     OW36064   1.549   2.294   6.527 -0.3766 -0.1793  0.1217
 8201SOL    HW136065   1.615   2.283   6.458  2.0069  1.1784  2.1955
 8201SOL    HW236066   1.470   2.274   6.477 -0.8488 -3.9445  2.4390
 8202SOL     OW36067   0.733   2.760   3.098  0.2556 -0.6380  0.3630
 8202SOL    HW136068   0.738   2.819   3.022  2.7930  0.0836  1.1077
 8202SOL    HW236069   0.819   2.718   3.096  0.2245 -0.6181 -1.2572
 8203SOL     OW36070   1.020   0.279   2.549 -0.1697  0.0695  0.5824
 8203SOL    HW136071   0.945   0.327   2.513 -1.7083 -2.4027  0.5264
 8203SOL    HW236072   1.016   0.198   2.499 -0.5903  0.3195  0.2065
 8204SOL     OW36073   3.250   3.516   7.392 -0.5183  0.1770  0.4695
 8204SOL    HW136074   3.340   3.549   7.397 -0.0041 -0.9591 -1.2197
 8204SOL    HW236075   3.220   3.550   7.476  1.4790  0.7844  0.9432
 8205SOL     OW36076   4.520   2.501   1.340  0.4211 -0.3454  0.0478
 8205SOL    HW136077   4.569   2.441   1.284  0.7420 -0.3949  0.3779
 8205SOL    HW236078   4.460   2.535   1.274  3.0676  0.6498 -1.8084
 8206SOL     OW36079   2.034   0.535   2.912  0.8045  0.3612  0.5753
 8206SOL    HW136080   2.095   0.462   2.903 -0.9144 -0.7665 -1.8674
 8206SOL    HW236081   1.975   0.530   2.837  3.3080  1.9902 -1.4965
 8207SOL     OW36082   3.919   3.034   2.198  0.3677  0.1286  0.0253
 8207SOL    HW136083   3.967   3.103   2.152  0.7445 -0.9831 -1.2550
 8207SOL    HW236084   3.882   2.969   2.138  0.7772 -0.1090  0.0276
 8208SOL     OW36085   0.279   3.753   5.384 -0.3487  0.0720  0.3135
 8208SOL    HW136086   0.249   3.711   5.465 -0.1486 -0.1872  0.2546
 8208SOL    HW236087   0.231   3.835   5.392  1.4259  1.2602 -1.2658
 8209SOL     OW36088   3.245   2.558   0.653  0.3691  0.0927  0.2439
 8209SOL    HW136089   3.296   2.571   0.573  2.1230  0.6690  1.4670
 8209SOL    HW236090   3.211   2.645   0.674 -1.4158 -0.7723  0.9072
 8210SOL     OW36091   1.805   2.462   5.270 -0.2900  0.1395 -0.5606
 8210SOL    HW136092   1.748   2.478   5.195  1.1421  0.6150 -1.5495
 8210SOL    HW236093   1.871   2.529   5.254 -1.6028  1.3897 -0.6687
 8211SOL     OW36094   1.827   4.641   9.367  0.0259  0.2705 -0.2826
 8211SOL    HW136095   1.874   4.714   9.407 -0.8084  0.9602 -0.5500
 8211SOL    HW236096   1.893   4.594   9.317  0.2077  0.2427 -0.0159
 8212SOL     OW36097   0.472   0.579   4.727  0.3122 -0.0104 -0.2369
 8212SOL    HW136098   0.513   0.664   4.738  0.7233 -0.2899  0.3783
 8212SOL    HW236099   0.533   0.525   4.676  0.5626  0.2324 -0.1934
 8213SOL     OW36100   3.299   3.312   4.612  0.2543 -0.1398  0.0027
 8213SOL    HW136101   3.357   3.236   4.609  0.0802 -0.3863  2.2158
 8213SOL    HW236102   3.330   3.356   4.534 -2.8246  0.4765 -0.8739
 8214SOL     OW36103   2.123   0.880   2.695  0.5607  0.3615 -1.0139
 8214SOL    HW136104   2.117   0.939   2.770  1.2993 -1.6663  0.6388
 8214SOL    HW236105   2.047   0.900   2.641  1.1307  2.4314 -1.0399
 8215SOL     OW36106   4.373   1.593   2.708 -0.1021 -0.0324 -0.0289
 8215SOL    HW136107   4.393   1.685   2.694 -0.3152 -0.0659 -0.5432
 8215SOL    HW236108   4.435   1.578   2.780 -2.6770 -2.2141  1.7197
 8216SOL     OW36109   0.113   2.161  16.713  0.4555  0.3089 -0.8190
 8216SOL    HW136110   0.093   2.242  16.761  0.6373  0.7523 -1.5021
 8216SOL    HW236111   0.038   2.151  16.655 -0.4288 -1.2396  0.5888
 8217SOL     OW36112   3.893   4.080   3.591 -0.4766  0.3921 -0.2135
 8217SOL    HW136113   3.849   4.158   3.558 -0.1657  0.4243 -0.5478
 8217SOL    HW236114   3.960   4.082   3.523 -0.3942 -1.2144 -0.1986
 8218SOL     OW36115   2.017   3.121   5.237  0.2984 -0.2616 -0.3084
 8218SOL    HW136116   1.975   3.102   5.320 -1.6684 -1.3435 -1.5425
 8218SOL    HW236117   1.970   3.202   5.216 -0.1736 -0.8478 -1.5105
 8219SOL     OW36118   2.302   0.156  17.469 -0.1362 -0.5478 -0.0433
 8219SOL    HW136119   2.208   0.138  17.468 -0.4392  1.0864 -0.5450
 8219SOL    HW236120   2.312   0.163  17.564 -0.1932 -1.5855  0.0443
 8220SOL     OW36121   3.018   3.164   5.240 -0.3818 -0.1714 -0.7335
 8220SOL    HW136122   3.102   3.177   5.196 -0.4664  1.0122 -0.5577
 8220SOL    HW236123   3.041   3.155   5.332  1.1690  0.3205 -1.0688
 8221SOL     OW36124   0.958   2.453  14.145 -0.2115 -0.3116  0.5051
 8221SOL    HW136125   1.051   2.453  14.168  0.3657  1.5823 -1.7783
 8221SOL    HW236126   0.917   2.438  14.230 -0.8053 -0.7498  0.1453
 8222SOL     OW36127   1.527   0.794   0.486  0.1398  0.6877 -0.0217
 8222SOL    HW136128   1.528   0.860   0.416  0.5018  0.0861 -0.5800
 8222SOL    HW236129   1.453   0.734   0.476  1.0979 -0.4487 -0.3341
 8223SOL     OW36130   0.112   1.683   6.667  0.1047 -0.0600  0.3627
 8223SOL    HW136131   0.122   1.695   6.762 -1.1380  2.0900  0.2307
 8223SOL    HW236132   0.064   1.601   6.674 -1.0270  0.5306 -0.5337
 8224SOL     OW36133   3.949   4.473  10.441  0.1377  0.0630  0.3929
 8224SOL    HW136134   3.854   4.462  10.449 -0.2273  2.0161 -1.3346
 8224SOL    HW236135   3.962   4.392  10.392  0.9195  0.2160  0.3589
 8225SOL     OW36136   0.644   1.189  15.696  0.1473  0.3278 -0.2110
 8225SOL    HW136137   0.679   1.130  15.629  0.8643 -0.5012  0.8979
 8225SOL    HW236138   0.670   1.141  15.774 -3.0020  0.6935  1.0599
 8226SOL     OW36139   1.716   2.445  14.670 -0.6214  0.1734  0.6740
 8226SOL    HW136140   1.660   2.522  14.659 -0.4835  0.1149 -0.3612
 8226SOL    HW236141   1.781   2.454  14.601  0.7910 -0.1780  1.9659
 8227SOL     OW36142   4.634   2.725  13.293  0.2288  0.5060  0.3510
 8227SOL    HW136143   4.598   2.758  13.375  1.5345  0.2888  1.0141
 8227SOL    HW236144   0.001   2.739  13.310  0.2865  0.6180 -0.0539
 8228SOL     OW36145   2.349   4.036   1.797 -0.1480 -0.0762  0.0879
 8228SOL    HW136146   2.357   4.011   1.705 -1.0816  0.1143 -0.0358
 8228SOL    HW236147   2.301   4.119   1.795 -0.5672 -0.3677 -1.5038
 8229SOL     OW36148   1.423   4.700   2.438  0.1585 -0.8500  0.1585
 8229SOL    HW136149   1.501   0.007   2.394  1.8881 -2.6747  1.7995
 8229SOL    HW236150   1.357   0.031   2.399  0.3398  0.8478  2.3074
 8230SOL     OW36151   2.141   3.342  17.314 -0.0688  0.3804 -0.6611
 8230SOL    HW136152   2.068   3.289  17.280 -0.3354  0.2745  0.0701
 8230SOL    HW236153   2.203   3.349  17.242 -1.0345  0.9246 -1.4388
 8231SOL     OW36154   3.019   3.810   7.558  0.5208  0.4009  0.7483
 8231SOL    HW136155   2.924   3.819   7.550  0.5264 -0.1053  0.0548
 8231SOL    HW236156   3.025   3.718   7.582 -0.5571  0.2422  0.4198
 8232SOL     OW36157   2.135   1.231   7.885 -0.4970  0.0612  0.2690
 8232SOL    HW136158   2.212   1.217   7.939 -0.5632 -1.1326  0.0680
 8232SOL    HW236159   2.166   1.198   7.801 -0.1009 -0.2841  0.5483
 8233SOL     OW36160   1.889   4.022   9.399  0.0480 -0.3769 -0.1289
 8233SOL    HW136161   1.981   4.041   9.378 -0.5533  0.9030 -1.5849
 8233SOL    HW236162   1.874   4.022   9.494  0.1153  0.1468 -0.1181
 8234SOL     OW36163   0.625   1.952   6.385 -0.5648  0.4978 -0.2810
 8234SOL    HW136164   0.540   1.992   6.401 -0.3755  1.8415 -2.5741
 8234SOL    HW236165   0.607   1.858   6.389 -1.5631  0.6514 -1.2282
 8235SOL     OW36166   1.528   1.173   2.827  0.4880 -0.0504  0.1936
 8235SOL    HW136167   1.539   1.187   2.921  1.0895 -0.1157  0.1305
 8235SOL    HW236168   1.555   1.082   2.822  1.2138  0.2287 -1.2628
 8236SOL     OW36169   0.058   3.798   4.574 -0.5865 -0.0302  0.0233
 8236SOL    HW136170   0.072   3.879   4.525  0.4958 -1.0698 -1.3773
 8236SOL    HW236171   0.021   3.832   4.656  1.3011  3.0300 -0.3823
 8237SOL     OW36172   0.185   3.634  11.981 -0.4716  0.0335 -0.0896
 8237SOL    HW136173   0.256   3.627  12.046 -0.9780  1.3087  0.6052
 8237SOL    HW236174   0.149   3.546  11.979  0.9076 -0.4770 -2.2684
 8238SOL     OW36175   0.299   3.377  15.579  0.8354  0.2028 -1.0883
 8238SOL    HW136176   0.224   3.374  15.638  0.6210  1.9708 -1.2497
 8238SOL    HW236177   0.362   3.405  15.646 -1.2273 -1.5976  1.5527
 8239SOL     OW36178   3.394   2.381   6.896  0.2146 -0.6993  0.6416
 8239SOL    HW136179   3.398   2.426   6.980  0.9791  0.1972  0.1141
 8239SOL    HW236180   3.387   2.290   6.925 -0.5377 -0.7566  0.2808
 8240SOL     OW36181   1.593   3.964  11.261 -0.2929 -0.4039  0.0892
 8240SOL    HW136182   1.553   3.976  11.347 -0.9870  1.0912 -0.4448
 8240SOL    HW236183   1.645   3.885  11.272 -0.5532 -0.5973 -0.0556
 8241SOL     OW36184   0.407   4.437   6.174 -0.1498  0.4850  0.2283
 8241SOL    HW136185   0.487   4.422   6.124 -0.6670  0.5187 -0.6078
 8241SOL    HW236186   0.348   4.362   6.164  0.0679  0.3365  0.0666
 8242SOL     OW36187   1.822   2.911   2.065 -0.3081 -0.3757  0.1415
 8242SOL    HW136188   1.863   2.834   2.025 -1.4627 -1.1180  0.3809
 8242SOL    HW236189   1.871   2.975   2.013  1.1425 -0.0396  1.9214
 8243SOL     OW36190   0.725   0.291  16.865  0.3890 -0.1284 -0.2255
 8243SOL    HW136191   0.749   0.205  16.829  1.2824  0.7770 -1.7658
 8243SOL    HW236192   0.802   0.347  16.855  0.2749  0.0390 -0.1673
 8244SOL     OW36193   2.165   1.111   0.822  0.2557 -0.2291  0.4084
 8244SOL    HW136194   2.208   1.191   0.792 -0.3969  0.1746  0.5396
 8244SOL    HW236195   2.104   1.087   0.752  0.4127  0.7654 -0.0749
 8245SOL     OW36196   2.635   0.860   9.217 -0.3564  0.1755  0.0542
 8245SOL    HW136197   2.644   0.862   9.312  0.2419  1.2427 -0.0141
 8245SOL    HW236198   2.626   0.766   9.202 -0.9460  0.5976 -2.2282
 8246SOL     OW36199   1.486   0.007   6.048 -0.0168 -0.5111 -0.1017
 8246SOL    HW136200   1.473   0.075   5.982  2.7947  0.0081 -0.1380
 8246SOL    HW236201   1.556   0.046   6.101 -0.5377 -1.2869  1.1675
 8247SOL     OW36202   0.556   1.954  16.336  0.3713  0.7636 -1.1015
 8247SOL    HW136203   0.609   1.959  16.415 -0.6005  0.9795 -0.4686
 8247SOL    HW236204   0.570   2.042  16.303  2.9908  0.9431  0.4966
 8248SOL     OW36205   4.465   1.607   8.213  0.0664 -0.1778  0.0359
 8248SOL    HW136206   4.467   1.698   8.243  1.9181 -0.8245  1.8157
 8248SOL    HW236207   4.507   1.567   8.289  0.4878  0.9021  0.3694
 8249SOL     OW36208   3.669   3.694   0.955 -0.7970 -0.4772 -0.1471
 8249SOL    HW136209   3.734   3.755   0.989 -1.8900  0.4803  0.2133
 8249SOL    HW236210   3.589   3.738   0.983  0.2094  0.3803  1.3423
 8250SOL     OW36211   0.994   2.017   2.239 -0.6902 -0.3103 -0.8661
 8250SOL    HW136212   1.052   2.063   2.301  1.8332 -2.7203 -1.4124
 8250SOL    HW236213   1.058   2.035   2.169 -2.7619  1.1814 -2.3567
 8251SOL     OW36214   2.984   3.956  16.203 -0.2687 -0.0193 -0.0752
 8251SOL    HW136215   3.047   4.025  16.220 -0.3468  0.2097 -0.7438
 8251SOL    HW236216   2.932   3.989  16.130  0.1516  0.1782 -0.2834
 8252SOL     OW36217   0.499   4.123   6.728 -0.4336  0.6089  0.1087
 8252SOL    HW136218   0.474   4.168   6.647  0.7555 -0.0843 -0.6370
 8252SOL    HW236219   0.422   4.113   6.784 -1.0592  0.7275 -0.7303
 8253SOL     OW36220   2.850   2.536   6.840  0.1662  0.2455 -0.4283
 8253SOL    HW136221   2.765   2.502   6.869  1.4614 -1.7292  1.0726
 8253SOL    HW236222   2.827   2.537   6.747  1.3775 -1.3601 -0.7292
 8254SOL     OW36223   0.598   2.551   4.475 -1.1005 -0.3925 -0.4393
 8254SOL    HW136224   0.640   2.485   4.419  0.4516 -0.6321  1.0077
 8254SOL    HW236225   0.610   2.633   4.427  2.0105 -0.4703  0.2582
 8255SOL     OW36226   3.869   0.421   8.150  0.3865  0.0033 -0.3102
 8255SOL    HW136227   3.778   0.392   8.151  0.1876  0.6271  0.5135
 8255SOL    HW236228   3.881   0.404   8.057  0.2227 -1.0075 -0.1508
 8256SOL     OW36229   2.195   1.680   2.319  0.1472  0.1375 -0.6747
 8256SOL    HW136230   2.102   1.670   2.299 -0.2129  0.7021  0.6927
 8256SOL    HW236231   2.209   1.612   2.386  0.8183  0.1581 -0.7895
 8257SOL     OW36232   3.281   3.866  12.033 -0.2808  0.4993 -0.3495
 8257SOL    HW136233   3.263   3.786  11.983 -0.8085 -0.1617  0.9056
 8257SOL    HW236234   3.308   3.837  12.120  0.3342  0.2012 -0.6341
 8258SOL     OW36235   1.437   2.589   4.734  0.7756 -0.5173 -0.5251
 8258SOL    HW136236   1.370   2.582   4.801  0.0735 -0.3204 -1.2011
 8258SOL    HW236237   1.477   2.675   4.749 -1.1170  0.2379  0.1430
 8259SOL     OW36238   1.413   2.903   6.278  0.0126  0.3005  0.0588
 8259SOL    HW136239   1.345   2.838   6.297 -0.5753  1.1185  0.7308
 8259SOL    HW236240   1.357   2.980   6.282  1.1278  1.2048 -1.6337
 8260SOL     OW36241   0.005   2.464  13.385 -0.5297  0.4803  0.0656
 8260SOL    HW136242   4.696   2.554  13.385 -0.8580  0.3532  1.8200
 8260SOL    HW236243   0.099   2.473  13.399 -0.5073  0.9788 -0.4153
 8261SOL     OW36244   1.077   2.165   3.368  0.0191 -0.0355 -0.3603
 8261SOL    HW136245   1.107   2.240   3.419 -1.0124 -0.3485  0.7090
 8261SOL    HW236246   0.991   2.149   3.407 -0.9452  1.7017 -1.7698
 8262SOL     OW36247   2.365   2.070   8.778 -0.3997 -0.1391 -0.3159
 8262SOL    HW136248   2.331   2.015   8.849 -1.4453  1.1552  0.1869
 8262SOL    HW236249   2.315   2.149   8.795  1.6782  0.9831  0.6211
 8263SOL     OW36250   3.152   0.717   6.198 -0.2945  0.0126 -0.2349
 8263SOL    HW136251   3.234   0.764   6.212 -1.6455  2.0646  0.7652
 8263SOL    HW236252   3.189   0.660   6.130  0.5570  1.5035 -1.0150
 8264SOL     OW36253   0.937   2.950  10.403 -0.4392 -0.0542 -0.1922
 8264SOL    HW136254   0.987   2.894  10.344  0.7947 -0.0977  0.8823
 8264SOL    HW236255   0.848   2.940  10.368 -0.7543  1.7193  0.0983
 8265SOL     OW36256   2.247   4.717  10.412  0.3648 -0.3331 -0.0292
 8265SOL    HW136257   2.295   4.647  10.367  0.9659  0.9920 -1.4554
 8265SOL    HW236258   2.308   0.006  10.485 -1.0361  1.5581  0.7329
 8266SOL     OW36259   4.428   0.656  14.647  0.0283 -0.2122  0.2101
 8266SOL    HW136260   4.357   0.632  14.707  0.9677  0.0484  1.4251
 8266SOL    HW236261   4.491   0.687  14.711  3.0058 -1.6079 -2.0800
 8267SOL     OW36262   1.690   0.875   6.676 -0.1385 -0.1292 -0.2936
 8267SOL    HW136263   1.632   0.925   6.618 -0.7353  1.2485  1.5077
 8267SOL    HW236264   1.721   0.944   6.735 -0.0626  0.3250 -0.8543
 8268SOL     OW36265   1.628   4.502  16.482  0.3509  0.1727  0.3061
 8268SOL    HW136266   1.721   4.517  16.468  0.2993 -0.9832 -1.3058
 8268SOL    HW236267   1.635   4.408  16.466  0.0984  0.3701 -0.9560
 8269SOL     OW36268   1.407   1.942   3.386  0.3288  0.1881  0.4105
 8269SOL    HW136269   1.453   2.020   3.415  0.3879 -0.5098  2.1610
 8269SOL    HW236270   1.436   1.941   3.294  1.8815  0.4199  0.9036
 8270SOL     OW36271   1.662   4.524   5.379 -0.5075 -0.3418 -0.0020
 8270SOL    HW136272   1.573   4.525   5.413 -0.6923  2.7439 -0.6231
 8270SOL    HW236273   1.691   4.613   5.363 -1.1247  0.2572  2.2548
 8271SOL     OW36274   1.192   4.577   8.116 -0.2614 -0.0777 -0.3152
 8271SOL    HW136275   1.143   4.514   8.065  1.6759 -0.3702 -1.8067
 8271SOL    HW236276   1.281   4.545   8.101  0.2888  0.9740  0.6206
 8272SOL     OW36277   4.221   1.695   6.476 -0.1193 -0.1600  0.2014
 8272SOL    HW136278   4.182   1.703   6.389  0.6565  0.9567 -0.0382
 8272SOL    HW236279   4.257   1.607   6.468 -0.4014 -0.3646  1.2348
 8273SOL     OW36280   4.717   0.879   4.858 -0.2952 -0.5146  0.2097
 8273SOL    HW136281   0.018   0.964   4.824  0.6326 -1.0012 -0.2612
 8273SOL    HW236282   4.672   0.833   4.787 -0.7531  0.7346 -0.3049
 8274SOL     OW36283   3.348   2.381   4.478 -0.3063 -0.4807 -0.4918
 8274SOL    HW136284   3.373   2.396   4.387 -1.7777  2.0335 -0.4879
 8274SOL    HW236285   3.430   2.398   4.524 -1.1540  0.6723  0.5798
 8275SOL     OW36286   0.011   1.469   7.578 -0.1826 -0.2779  0.2456
 8275SOL    HW136287   0.070   1.538   7.548  0.5765 -0.9428  0.2106
 8275SOL    HW236288   0.032   1.467   7.671 -2.3390  1.7581  0.7712
 8276SOL     OW36289   3.127   1.902   4.559  0.0700 -0.0021 -0.7655
 8276SOL    HW136290   3.169   1.867   4.480  3.7117  1.5384  0.4870
 8276SOL    HW236291   3.150   1.995   4.563 -1.2290  0.3048 -0.4777
 8277SOL     OW36292   3.189   1.543  17.555  0.3200  0.4281  0.2488
 8277SOL    HW136293   3.219   1.561  17.644 -1.5166  2.9807  0.3512
 8277SOL    HW236294   3.178   1.631  17.520 -1.0530  1.9197  4.4631
 8278SOL     OW36295   3.046   0.404  12.982  0.4005 -0.4821  0.1325
 8278SOL    HW136296   2.965   0.446  12.952  1.1246 -0.1329 -1.3203
 8278SOL    HW236297   3.093   0.396  12.899 -1.5457 -0.1584 -1.0090
 8279SOL     OW36298   3.470   2.466   7.986 -0.2421  0.0048  0.1244
 8279SOL    HW136299   3.555   2.500   8.015 -0.0812  1.0451 -1.5661
 8279SOL    HW236300   3.420   2.482   8.066 -0.2995 -1.6183  0.4070
 8280SOL     OW36301   4.625   0.726   9.704  0.5250  0.5111 -0.4201
 8280SOL    HW136302   4.589   0.654   9.653  1.0442  0.1660 -0.2982
 8280SOL    HW236303   4.715   0.703   9.725  0.6279  0.0870 -1.3266
 8281SOL     OW36304   0.821   1.550   8.491 -0.4802  0.0475 -0.4600
 8281SOL    HW136305   0.903   1.502   8.504 -0.2188  0.8528  0.8820
 8281SOL    HW236306   0.794   1.565   8.582  0.6727 -0.8746  0.0348
 8282SOL     OW36307   0.784   1.303   3.811 -0.1984 -0.0229 -0.0244
 8282SOL    HW136308   0.854   1.260   3.762  0.4152 -0.3811  1.1509
 8282SOL    HW236309   0.818   1.392   3.815  1.2017 -0.5667  0.0568
 8283SOL     OW36310   4.207   3.841  12.826  0.4277 -0.0576 -0.3226
 8283SOL    HW136311   4.238   3.774  12.887 -1.7451  1.0617  2.0231
 8283SOL    HW236312   4.240   3.919  12.872  0.7793  1.9607 -3.9905
 8284SOL     OW36313   1.746   1.739  15.156 -0.0471 -0.0639 -0.3769
 8284SOL    HW136314   1.711   1.655  15.183 -1.0838  0.8998  1.2817
 8284SOL    HW236315   1.721   1.733  15.064 -1.2092  2.2979 -0.2288
 8285SOL     OW36316   0.016   4.125  13.920 -0.4679  0.0493 -0.3078
 8285SOL    HW136317   4.682   4.136  13.993 -0.0814 -1.6467  0.2671
 8285SOL    HW236318   4.714   4.052  13.865 -1.3769  0.6492 -0.6507
 8286SOL     OW36319   0.203   1.235   7.154  0.5282  0.5905  0.5910
 8286SOL    HW136320   0.161   1.318   7.129  1.9267  1.3848  0.8584
 8286SOL    HW236321   0.256   1.231   7.074 -2.1049 -1.3372 -1.0813
 8287SOL     OW36322   4.018   1.908   9.488 -0.5681 -0.0719 -0.4135
 8287SOL    HW136323   3.990   1.818   9.504  0.9352 -0.3091  0.8204
 8287SOL    HW236324   4.113   1.907   9.482 -0.4783 -2.0003  1.3054
 8288SOL     OW36325   2.504   2.532   1.441 -0.1269  0.3657  0.3856
 8288SOL    HW136326   2.514   2.464   1.375  0.4131  0.3886  0.4438
 8288SOL    HW236327   2.585   2.581   1.425  1.1641 -1.9692 -0.1365
 8289SOL     OW36328   3.564   3.903   2.292  0.2756 -0.4290 -0.0458
 8289SOL    HW136329   3.532   3.833   2.235 -1.1970 -1.0559  1.5774
 8289SOL    HW236330   3.649   3.913   2.248 -0.3602  1.6470 -0.8295
 8290SOL     OW36331   4.145   3.213   0.293  0.0316  0.6747  0.8054
 8290SOL    HW136332   4.206   3.140   0.283  0.6789  1.4535 -0.8748
 8290SOL    HW236333   4.097   3.204   0.211  2.1720 -0.0377 -0.3690
 8291SOL     OW36334   3.126   1.981  16.257  0.5078  0.5043  0.1709
 8291SOL    HW136335   3.080   1.985  16.173  1.4175  0.0162 -0.3457
 8291SOL    HW236336   3.071   2.043  16.306 -0.6721 -1.2584  1.0428
 8292SOL     OW36337   0.548   1.328  12.872  0.7488  0.1462  0.7512
 8292SOL    HW136338   0.610   1.378  12.818 -0.0757  0.1174 -0.2311
 8292SOL    HW236339   0.472   1.381  12.848  0.5899 -1.2128 -1.7705
 8293SOL     OW36340   3.897   4.081   5.219 -0.0548  0.0982 -0.0832
 8293SOL    HW136341   3.808   4.060   5.244  1.0945 -0.6726  3.4025
 8293SOL    HW236342   3.939   3.995   5.221 -1.2314 -0.4761 -0.1111
 8294SOL     OW36343   0.753   1.975   6.074  0.3036  0.0975 -0.2393
 8294SOL    HW136344   0.696   2.024   6.134 -1.1388 -0.7374 -0.9128
 8294SOL    HW236345   0.837   2.016   6.093  0.9225 -1.2691 -0.0068
 8295SOL     OW36346   0.415   0.234   4.084 -0.0351 -0.2121 -0.5899
 8295SOL    HW136347   0.392   0.325   4.106  0.4471 -0.0121 -0.9216
 8295SOL    HW236348   0.372   0.231   3.999 -3.0620 -0.6190  0.9674
 8296SOL     OW36349   3.994   4.415   0.803  0.4433 -0.3650 -0.0861
 8296SOL    HW136350   3.918   4.471   0.819 -0.3739 -1.6038  0.3274
 8296SOL    HW236351   4.052   4.477   0.759 -0.5400 -0.8048 -2.0113
 8297SOL     OW36352   3.661   3.149   4.578  0.4520 -0.3934 -0.1225
 8297SOL    HW136353   3.634   3.227   4.627 -1.2173 -1.2395  0.3042
 8297SOL    HW236354   3.575   3.120   4.547  0.2502 -0.1278  0.1846
 8298SOL     OW36355   3.152   0.374  16.142 -0.0515  0.3593  0.1903
 8298SOL    HW136356   3.111   0.417  16.066  1.5857  0.5420 -0.5885
 8298SOL    HW236357   3.185   0.292  16.106  2.3066  0.6763  1.6129
 8299SOL     OW36358   2.300   3.499  14.875  0.8343 -0.0729 -0.1936
 8299SOL    HW136359   2.269   3.461  14.957 -0.0703  0.0095 -0.4973
 8299SOL    HW236360   2.378   3.550  14.896  0.5182  1.7434 -3.4414
 8300SOL     OW36361   4.076   4.559  16.815  0.1748 -0.2092 -0.0118
 8300SOL    HW136362   4.128   4.637  16.793  0.8838 -1.5180 -2.9754
 8300SOL    HW236363   4.141   4.496  16.784  0.0931  0.7458 -2.1688
 8301SOL     OW36364   3.057   2.150  10.340 -0.6206 -0.4059  0.1315
 8301SOL    HW136365   2.965   2.127  10.355 -1.1988  1.6386 -0.3324
 8301SOL    HW236366   3.077   2.200  10.419 -0.0869 -1.3811  0.6249
 8302SOL     OW36367   3.988   3.810   8.022 -0.4387 -0.4982  0.2454
 8302SOL    HW136368   4.060   3.828   8.082  0.2400 -2.1670 -0.0961
 8302SOL    HW236369   3.989   3.898   7.983 -1.4027 -0.2985  0.6630
 8303SOL     OW36370   3.922   1.204   2.295 -0.0709  0.2331 -0.2786
 8303SOL    HW136371   4.000   1.253   2.268  1.2854 -2.3799 -1.0968
 8303SOL    HW236372   3.946   1.112   2.286 -3.2647 -0.6578  0.1853
 8304SOL     OW36373   3.074   1.524   5.567 -0.1435  0.7476 -0.2477
 8304SOL    HW136374   3.043   1.582   5.636 -0.8004  1.5915 -1.2476
 8304SOL    HW236375   3.121   1.594   5.521 -1.4624  2.0720  0.4330
 8305SOL     OW36376   2.474   2.868   7.626  0.2257  0.0441 -0.2532
 8305SOL    HW136377   2.431   2.856   7.711 -0.8134 -0.7486 -0.8843
 8305SOL    HW236378   2.411   2.840   7.560 -0.1418  0.4535 -0.0743
 8306SOL     OW36379   2.485   1.524  16.302 -0.1207  0.4404  0.0527
 8306SOL    HW136380   2.444   1.509  16.216 -1.4720 -0.9098  0.9331
 8306SOL    HW236381   2.494   1.440  16.348 -2.6974 -0.1098 -0.4616
 8307SOL     OW36382   3.376   3.392   6.768 -0.6772  0.1988  0.4071
 8307SOL    HW136383   3.362   3.297   6.765  0.4442  0.0467 -0.0410
 8307SOL    HW236384   3.366   3.418   6.677  0.1805 -0.0589  0.2354
 8308SOL     OW36385   0.663   2.492   6.602  0.2627  0.4613 -0.1552
 8308SOL    HW136386   0.669   2.553   6.675 -1.2806  1.1839 -0.6208
 8308SOL    HW236387   0.699   2.413   6.642 -0.7170  0.6456  1.0981
 8309SOL     OW36388   0.425   3.732  10.860  0.1830  0.0030  0.2199
 8309SOL    HW136389   0.373   3.697  10.933 -0.6413  2.2257  0.6807
 8309SOL    HW236390   0.506   3.686  10.881 -0.1295 -0.5147  0.3109
 8310SOL     OW36391   2.978   0.221  10.024 -0.5668  0.3177  0.3119
 8310SOL    HW136392   2.959   0.244   9.933  1.6001  0.3916 -0.1243
 8310SOL    HW236393   2.900   0.251  10.071 -0.4588  0.3828  0.4487
 8311SOL     OW36394   4.327   1.712  15.523 -0.2088  0.5713  0.0685
 8311SOL    HW136395   4.292   1.731  15.610  0.1733 -1.7274  0.7263
 8311SOL    HW236396   4.344   1.804  15.503  2.5494  0.1978  0.6958
 8312SOL     OW36397   4.256   1.060   7.590  0.5051 -0.1890 -0.1906
 8312SOL    HW136398   4.279   1.058   7.682  0.7934 -0.5361 -0.2695
 8312SOL    HW236399   4.163   1.082   7.598  1.2447  2.8546 -0.2457
 8313SOL     OW36400   0.580   3.619  17.055 -0.0903  0.2374 -0.7314
 8313SOL    HW136401   0.594   3.528  17.082 -0.2521  0.6473  0.7229
 8313SOL    HW236402   0.588   3.615  16.959  0.3061  0.0511 -0.6901
 8314SOL     OW36403   3.699   2.213   9.389  0.7635  0.0485 -0.3290
 8314SOL    HW136404   3.652   2.283   9.343 -3.8017 -2.3746  0.6840
 8314SOL    HW236405   3.680   2.139   9.332  0.2049 -0.1819  0.1600
 8315SOL     OW36406   2.548   0.945   6.300  0.6483 -0.2119  0.4050
 8315SOL    HW136407   2.631   0.957   6.255 -0.4816 -0.2727 -1.6917
 8315SOL    HW236408   2.497   0.912   6.225  0.4631  1.4091 -0.1814
 8316SOL     OW36409   4.526   1.826  12.384 -0.1473 -0.2964 -0.2146
 8316SOL    HW136410   4.587   1.751  12.388  1.2793  0.9253  1.1491
 8316SOL    HW236411   4.515   1.844  12.291  1.0347 -0.7461 -0.4373
 8317SOL     OW36412   1.361   2.640  10.677 -0.3111 -0.1985 -0.3388
 8317SOL    HW136413   1.305   2.658  10.601 -1.2485  0.4791  0.5104
 8317SOL    HW236414   1.414   2.566  10.649 -1.3198 -0.6378 -1.1121
 8318SOL     OW36415   4.375   1.522   0.219  0.6870 -0.1694  0.7276
 8318SOL    HW136416   4.413   1.455   0.163  1.1883  0.4284  0.3548
 8318SOL    HW236417   4.452   1.575   0.240 -0.4867  1.9873 -0.4698
 8319SOL     OW36418   1.892   3.394   7.036  0.7771  0.2020  0.3418
 8319SOL    HW136419   1.906   3.451   7.112 -1.1877  1.3322 -0.1326
 8319SOL    HW236420   1.915   3.311   7.077 -0.4738  0.4237  1.4875
 8320SOL     OW36421   4.470   2.238   9.065 -0.1089  0.1477  0.1484
 8320SOL    HW136422   4.542   2.197   9.017 -1.2659 -0.7906 -0.7799
 8320SOL    HW236423   4.391   2.192   9.038 -0.8548  2.8827 -2.2630
 8321SOL     OW36424   3.348   2.355   7.391 -0.1109 -0.3849  0.1836
 8321SOL    HW136425   3.332   2.433   7.444  1.4586  0.3181 -0.3596
 8321SOL    HW236426   3.343   2.290   7.461 -0.7101 -1.2866 -0.7009
 8322SOL     OW36427   3.131   1.591   8.759  0.4603  0.1398 -0.4900
 8322SOL    HW136428   3.215   1.548   8.745  0.1611  0.0402 -1.9598
 8322SOL    HW236429   3.066   1.521   8.751 -0.4434  0.8829  0.2952
 8323SOL     OW36430   0.349   0.177   6.229  0.8328  0.1043 -0.6710
 8323SOL    HW136431   0.436   0.155   6.264 -0.7583 -1.1525  2.4704
 8323SOL    HW236432   0.306   0.092   6.232  2.1424 -0.5382  0.0475
 8324SOL     OW36433   3.349   1.903   2.848 -0.9901 -0.0161  0.2145
 8324SOL    HW136434   3.396   1.973   2.802 -0.3919 -0.2989  0.4039
 8324SOL    HW236435   3.392   1.830   2.804 -2.1221 -0.6838  0.2243
 8325SOL     OW36436   0.784   2.726  11.125 -0.2021 -0.2493 -0.7618
 8325SOL    HW136437   0.832   2.792  11.175 -0.6585 -0.9844  0.6513
 8325SOL    HW236438   0.690   2.736  11.138 -0.1072  0.4543 -0.6608
 8326SOL     OW36439   1.765   0.404   8.429 -0.2639  0.2863  0.1472
 8326SOL    HW136440   1.856   0.378   8.442 -1.6790 -2.3068  4.8315
 8326SOL    HW236441   1.761   0.498   8.411  2.3129  0.2642 -0.5549
 8327SOL     OW36442   4.668   2.770   7.365  0.1942  0.0082  0.1751
 8327SOL    HW136443   0.023   2.810   7.396  0.4460 -1.7276  1.7591
 8327SOL    HW236444   4.689   2.709   7.295  0.1038  1.3713 -1.0383
 8328SOL     OW36445   3.799   0.505  16.148  0.1907 -0.6395 -0.5585
 8328SOL    HW136446   3.810   0.579  16.088 -1.0137  0.4779  0.5930
 8328SOL    HW236447   3.711   0.518  16.183  0.4912  0.5703 -0.2450
 8329SOL     OW36448   1.698   1.771   7.333  0.3649  0.3649 -0.9159
 8329SOL    HW136449   1.653   1.821   7.265  1.0698  2.7513  0.3823
 8329SOL    HW236450   1.767   1.731   7.280 -0.1839  0.2009 -1.4950
 8330SOL     OW36451   0.875   0.702   8.495 -0.3489 -0.1465  0.6081
 8330SOL    HW136452   0.959   0.704   8.539  0.3079 -1.4749 -0.5702
 8330SOL    HW236453   0.905   0.689   8.405 -1.9397  0.5675 -0.0408
 8331SOL     OW36454   3.868   1.835   3.699  0.3658  0.1155  0.4811
 8331SOL    HW136455   3.782   1.839   3.655  0.0078 -3.0445  0.9296
 8331SOL    HW236456   3.855   1.911   3.756  0.8915  0.1416  0.5592
 8332SOL     OW36457   0.165   4.302   9.919 -0.7238 -0.2052  0.4548
 8332SOL    HW136458   0.232   4.255   9.869 -1.1367 -1.7212  1.3269
 8332SOL    HW236459   0.209   4.319  10.002  1.7140  2.2815 -1.3291
 8333SOL     OW36460   0.648   2.823   8.570  0.2852  0.0195 -0.2244
 8333SOL    HW136461   0.589   2.853   8.640  0.5587  0.3313 -0.1288
 8333SOL    HW236462   0.625   2.730   8.569  0.3268 -0.0026  1.4124
 8334SOL     OW36463   0.206   1.447   3.688 -0.2083 -0.8307 -0.1735
 8334SOL    HW136464   0.114   1.424   3.675  0.3330 -2.0526 -1.8361
 8334SOL    HW236465   0.240   1.368   3.646  0.4228 -1.1372  0.9209
 8335SOL     OW36466   2.621   3.164  15.658 -0.1039  0.4517 -0.4585
 8335SOL    HW136467   2.618   3.081  15.609  2.1753  0.0364  0.1155
 8335SOL    HW236468   2.526   3.163  15.669 -0.1130  0.5843 -0.5239
 8336SOL     OW36469   3.812   1.961   3.382  0.0031  0.3663  0.2036
 8336SOL    HW136470   3.840   2.036   3.435  1.2975  1.2085 -1.6345
 8336SOL    HW236471   3.717   1.954   3.390  0.2099 -2.4577 -0.0040
 8337SOL     OW36472   3.972   2.364  15.874  0.1385 -0.4625  1.3235
 8337SOL    HW136473   3.885   2.380  15.836  0.1347  1.7423  2.2979
 8337SOL    HW236474   3.950   2.359  15.967  1.0630 -1.5811  1.4759
 8338SOL     OW36475   3.434   0.538   2.226  0.1025  0.2824 -0.1366
 8338SOL    HW136476   3.438   0.499   2.314  2.3341 -0.9935 -0.8045
 8338SOL    HW236477   3.402   0.468   2.169  0.8700  0.8676 -1.2809
 8339SOL     OW36478   3.371   1.595   9.414 -0.0752  0.0868 -0.0812
 8339SOL    HW136479   3.414   1.664   9.364 -0.9493  0.4637 -0.3162
 8339SOL    HW236480   3.319   1.550   9.348  2.1222 -0.9985 -1.0800
 8340SOL     OW36481   1.868   0.422   5.448  0.4022  0.5374 -0.7941
 8340SOL    HW136482   1.877   0.346   5.506  0.7043 -1.0391 -2.8644
 8340SOL    HW236483   1.962   0.427   5.431  0.6154  1.0740  0.6003
 8341SOL     OW36484   3.858   3.091   8.865  0.6264 -0.1149  0.4212
 8341SOL    HW136485   3.843   3.177   8.826  1.2320  0.7902  2.1813
 8341SOL    HW236486   3.891   3.132   8.946 -1.5336 -1.1456  1.8140
 8342SOL     OW36487   2.749   0.599  12.357  0.2313 -0.4202  0.1689
 8342SOL    HW136488   2.684   0.579  12.289  2.1912  3.3486 -2.8274
 8342SOL    HW236489   2.713   0.555  12.434 -0.5974 -1.7955 -1.0055
 8343SOL     OW36490   2.697   2.101   6.566 -0.0859 -0.2740  0.3039
 8343SOL    HW136491   2.753   2.110   6.643 -1.1028 -1.3478  1.1652
 8343SOL    HW236492   2.761   2.106   6.495  0.9595  1.6499  1.3718
 8344SOL     OW36493   3.427   4.139  10.600  0.1242  0.0853  0.0686
 8344SOL    HW136494   3.360   4.206  10.586 -0.1651  0.0439  1.2322
 8344SOL    HW236495   3.508   4.180  10.568 -1.3138  2.0436 -1.0862
 8345SOL     OW36496   2.428   4.541   5.711 -0.5298 -0.0716  0.2121
 8345SOL    HW136497   2.344   4.499   5.730 -1.0681  1.2477  0.7891
 8345SOL    HW236498   2.429   4.537   5.616  0.0540  0.8932  0.1783
 8346SOL     OW36499   3.240   1.894   3.934  0.6397 -0.2151 -0.2437
 8346SOL    HW136500   3.207   1.808   3.909 -3.2290  0.5347  2.1610
 8346SOL    HW236501   3.310   1.886   3.870  1.7710  0.4835  0.9073
 8347SOL     OW36502   1.300   3.724  16.587  0.3634  0.0680  0.6073
 8347SOL    HW136503   1.283   3.630  16.592 -2.4986  0.6702  2.2347
 8347SOL    HW236504   1.266   3.740  16.499 -0.9876  0.7075  1.2286
 8348SOL     OW36505   1.020   3.634   3.281 -0.3673 -0.0651 -0.5473
 8348SOL    HW136506   1.088   3.700   3.291  1.3283 -1.6468 -1.6422
 8348SOL    HW236507   1.071   3.563   3.241  0.2469 -0.3477  0.7296
 8349SOL     OW36508   0.369   4.172   4.357  0.4187  0.2489  0.3983
 8349SOL    HW136509   0.358   4.265   4.377 -0.1818  0.5880 -1.4926
 8349SOL    HW236510   0.462   4.160   4.376  0.5973 -0.4650 -0.9449
 8350SOL     OW36511   3.192   1.793   5.271  0.4980 -0.0225  0.2349
 8350SOL    HW136512   3.194   1.886   5.248 -3.1802  0.0022  0.0552
 8350SOL    HW236513   3.206   1.746   5.189  2.2178 -0.7057  0.9245
 8351SOL     OW36514   4.214   2.783  16.118 -0.1823  0.0106  0.4299
 8351SOL    HW136515   4.216   2.766  16.212 -1.4264  4.4234  1.2668
 8351SOL    HW236516   4.288   2.842  16.104 -0.8028  0.4914 -0.7815
 8352SOL     OW36517   4.701   2.834  17.567 -0.3497  0.1903 -0.3114
 8352SOL    HW136518   0.045   2.899  17.571 -0.0707 -0.1922  1.2185
 8352SOL    HW236519   0.019   2.751  17.585 -0.0049  0.8856  2.0868
 8353SOL     OW36520   3.393   4.626   4.349 -0.2502 -0.2034  0.2332
 8353SOL    HW136521   3.308   4.598   4.316 -0.4835  0.4256  0.3196
 8353SOL    HW236522   3.363   4.708   4.387  2.2502  0.7576  0.1335
 8354SOL     OW36523   4.061   3.990   3.189  0.1486  0.0825 -0.4846
 8354SOL    HW136524   4.144   3.954   3.156  0.8867 -1.7364  3.3248
 8354SOL    HW236525   4.001   3.917   3.177  0.0050  0.0027  0.7383
 8355SOL     OW36526   1.489   1.057   9.032 -0.0285 -0.0615  0.2839
 8355SOL    HW136527   1.567   1.002   9.020 -0.4684 -0.2396 -1.7469
 8355SOL    HW236528   1.440   1.005   9.096 -1.7410 -2.2006 -2.8306
 8356SOL     OW36529   4.370   1.365  15.050 -0.1734  0.3679 -0.7557
 8356SOL    HW136530   4.451   1.319  15.070 -1.7854 -1.4587  1.5851
 8356SOL    HW236531   4.373   1.437  15.113  0.8873  1.3304 -1.8869
 8357SOL     OW36532   2.633   0.106   3.811 -0.6188 -0.1748  0.3608
 8357SOL    HW136533   2.548   0.146   3.797 -0.2357 -0.1055 -1.8464
 8357SOL    HW236534   2.635   0.070   3.900  0.9362 -1.5879 -0.2430
 8358SOL     OW36535   4.009   0.359   0.089  0.8599  0.2498 -0.2163
 8358SOL    HW136536   3.968   0.421   0.029 -0.2695  1.0922  1.4312
 8358SOL    HW236537   3.941   0.291   0.090  2.5175 -1.3704  1.5097
 8359SOL     OW36538   2.471   2.939   4.892  0.9326  0.3511  0.0499
 8359SOL    HW136539   2.391   2.992   4.883 -0.5959 -1.8061  1.0317
 8359SOL    HW236540   2.544   3.001   4.889  0.5220  0.7811 -1.0808
 8360SOL     OW36541   1.564   3.886   6.262 -0.2157  0.1707 -0.3720
 8360SOL    HW136542   1.655   3.910   6.278 -0.4647 -0.4476  1.9225
 8360SOL    HW236543   1.514   3.962   6.291 -0.1989  0.5714 -1.4086
 8361SOL     OW36544   4.246   1.493   8.385 -0.2675  0.0704 -0.0873
 8361SOL    HW136545   4.203   1.409   8.395  0.6049 -0.5892 -1.8313
 8361SOL    HW236546   4.312   1.472   8.319 -0.3560 -1.3949  0.3039
 8362SOL     OW36547   1.943   0.753  16.663  1.3606  0.0242 -0.7841
 8362SOL    HW136548   2.008   0.697  16.706 -1.8342 -3.4536 -0.5356
 8362SOL    HW236549   1.887   0.680  16.637 -0.8197  1.6908 -0.6843
 8363SOL     OW36550   4.418   2.923   8.888  0.1189  0.2766 -0.1400
 8363SOL    HW136551   4.440   3.016   8.892 -0.0992  0.3273 -0.1553
 8363SOL    HW236552   4.356   2.918   8.961  0.6870  0.9947  0.3885
 8364SOL     OW36553   4.093   4.237   4.956 -0.1961 -0.3562 -0.0433
 8364SOL    HW136554   4.107   4.252   5.049 -1.3746  1.2436 -0.1235
 8364SOL    HW236555   4.001   4.213   4.971 -0.9646  2.0419 -0.8679
 8365SOL     OW36556   2.071   3.721   0.964 -0.2392 -0.0872 -0.6563
 8365SOL    HW136557   2.069   3.639   1.014  1.5398 -0.0808 -0.5638
 8365SOL    HW236558   2.158   3.756   0.986  0.0841 -2.8674  2.5121
 8366SOL     OW36559   0.392   0.744   6.124 -0.4228  0.3241 -0.0852
 8366SOL    HW136560   0.371   0.837   6.133  0.0207  0.4401 -0.2371
 8366SOL    HW236561   0.440   0.739   6.041 -2.1439 -0.8159 -1.0050
 8367SOL     OW36562   1.567   2.253   4.490  0.4534  0.6645 -0.5719
 8367SOL    HW136563   1.603   2.301   4.564 -0.2659 -1.1069  0.9334
 8367SOL    HW236564   1.629   2.267   4.418 -0.4818  1.6631 -1.1856
 8368SOL     OW36565   3.972   3.629  13.122 -0.1843  0.0525  0.6472
 8368SOL    HW136566   3.918   3.708  13.133 -1.2389 -0.5878  0.0972
 8368SOL    HW236567   3.958   3.569  13.195  0.9025  0.0682  0.8722
 8369SOL     OW36568   3.035   0.547   7.552 -0.6049  0.0104 -0.2180
 8369SOL    HW136569   2.989   0.547   7.467 -0.6342 -0.9047 -0.1963
 8369SOL    HW236570   2.964   0.512   7.605  0.0862 -0.4169  0.4139
 8370SOL     OW36571   3.900   2.597   6.609 -0.1359 -0.3595 -0.5027
 8370SOL    HW136572   3.960   2.600   6.683  0.8397 -1.8747 -1.2202
 8370SOL    HW236573   3.886   2.690   6.595 -1.5485 -0.2467  1.8149
 8371SOL     OW36574   0.200   1.192  14.132 -0.0629 -0.0939 -0.2902
 8371SOL    HW136575   0.225   1.110  14.090 -0.6724  0.1734 -1.1742
 8371SOL    HW236576   0.280   1.215  14.179  0.7505 -0.1065 -1.6708
 8372SOL     OW36577   0.486   3.093   9.976 -0.2587  0.3633 -0.2439
 8372SOL    HW136578   0.560   3.037   9.998 -2.6244 -2.7005 -0.1503
 8372SOL    HW236579   0.421   3.031   9.943  0.6983 -1.0998  0.5971
 8373SOL     OW36580   1.704   3.142   6.894  0.1151  0.3728 -0.3505
 8373SOL    HW136581   1.699   3.227   6.852  2.8111  1.1079  0.7742
 8373SOL    HW236582   1.783   3.102   6.858  0.3260  0.7280 -0.2865
 8374SOL     OW36583   4.415   2.725   2.255  0.0774 -0.4413  0.0063
 8374SOL    HW136584   4.354   2.687   2.193 -1.6703  0.3548  1.2507
 8374SOL    HW236585   4.490   2.751   2.201  0.3570 -2.8047 -0.7573
 8375SOL     OW36586   3.454   2.101  17.603 -0.3106 -0.3388  0.0795
 8375SOL    HW136587   3.468   2.027  17.662  2.7075  0.7686  0.7509
 8375SOL    HW236588   3.497   2.168  17.656  0.0976 -0.0351 -0.6407
 8376SOL     OW36589   3.110   1.025  12.346 -0.2558 -0.4753  0.3152
 8376SOL    HW136590   3.056   0.949  12.370 -0.6806  0.0697  1.1251
 8376SOL    HW236591   3.180   0.973  12.307 -0.5483 -0.4539 -0.2354
 8377SOL     OW36592   4.678   3.238  12.392  0.0038 -0.1331 -0.0872
 8377SOL    HW136593   4.607   3.283  12.438 -0.8789 -3.2224  1.5966
 8377SOL    HW236594   4.699   3.310  12.332 -0.5288 -0.5161 -0.7320
 8378SOL     OW36595   4.540   3.486  17.301 -0.2824  0.5400 -0.0052
 8378SOL    HW136596   4.465   3.545  17.289 -1.6834 -0.8650  1.8075
 8378SOL    HW236597   4.596   3.515  17.373 -1.8579 -0.0365  1.4524
 8379SOL     OW36598   3.331   2.874  16.120  0.0483  0.2827  0.1682
 8379SOL    HW136599   3.253   2.912  16.159  0.4879 -0.7946  2.0838
 8379SOL    HW236600   3.401   2.862  16.184 -0.2543 -1.3365  0.2025
 8380SOL     OW36601   4.273   0.791   7.546 -0.0311  0.0448  0.2824
 8380SOL    HW136602   4.257   0.782   7.453 -1.5954 -0.0312  0.5638
 8380SOL    HW236603   4.234   0.877   7.562 -2.0431 -0.4549 -2.1727
 8381SOL     OW36604   2.983   3.290   6.010 -0.0144  0.1987  0.0440
 8381SOL    HW136605   3.014   3.368   6.056 -1.0288 -0.0629  1.1756
 8381SOL    HW236606   2.928   3.329   5.942 -0.5720  0.0661  0.4228
 8382SOL     OW36607   0.606   4.300   4.860  0.0743  0.2623  0.0096
 8382SOL    HW136608   0.543   4.229   4.846 -0.4070 -0.0895  4.0608
 8382SOL    HW236609   0.680   4.244   4.885 -1.5791 -2.2187 -0.6183
 8383SOL     OW36610   1.342   3.001  12.505  0.3501  0.1595 -0.2414
 8383SOL    HW136611   1.389   2.997  12.588  0.1322  0.9591 -0.0762
 8383SOL    HW236612   1.386   3.077  12.466 -1.6343  1.7367  0.6222
 8384SOL     OW36613   4.446   2.724  15.946 -0.1154 -0.4029  1.2973
 8384SOL    HW136614   4.503   2.720  15.869  0.6454  2.3934  1.7059
 8384SOL    HW236615   4.464   2.813  15.979  0.3206 -1.0709  2.8593
 8385SOL     OW36616   4.623   4.321   5.241  0.2602 -0.1549 -0.0331
 8385SOL    HW136617   4.621   4.229   5.264  1.5133 -0.2285 -0.1897
 8385SOL    HW236618   4.716   4.345   5.241  1.1126 -3.3880 -3.3673
 8386SOL     OW36619   4.563   3.930  11.284  0.5224  0.1358  0.2822
 8386SOL    HW136620   4.552   3.906  11.376 -0.6094  0.6659  0.2787
 8386SOL    HW236621   4.558   4.025  11.292  0.9492  0.3253 -1.7338
 8387SOL     OW36622   0.794   1.565   5.508 -0.4009  0.0442  0.3591
 8387SOL    HW136623   0.733   1.579   5.436 -0.7147 -1.7831  0.2575
 8387SOL    HW236624   0.858   1.502   5.473 -1.0848 -0.3239 -0.2210
 8388SOL     OW36625   1.920   1.585   5.387  0.3613  0.0875 -0.2981
 8388SOL    HW136626   1.922   1.563   5.480  0.2782 -0.1589 -0.3563
 8388SOL    HW236627   1.931   1.680   5.381 -1.1214  0.4075  1.9714
 8389SOL     OW36628   4.450   3.039   2.209  0.1597  1.0824  0.3161
 8389SOL    HW136629   4.387   3.055   2.139 -1.1508 -1.2076  0.9812
 8389SOL    HW236630   4.506   2.974   2.165 -1.2683  0.7057 -0.9199
 8390SOL     OW36631   3.280   1.188   6.562  0.3265  0.1960  0.1418
 8390SOL    HW136632   3.238   1.178   6.648  2.1466  0.4853  1.0588
 8390SOL    HW236633   3.290   1.283   6.554 -0.2424  0.3300  0.9930
 8391SOL     OW36634   2.267   2.641   6.826 -0.2392  1.1514 -0.1980
 8391SOL    HW136635   2.274   2.599   6.912  0.8187 -0.6035 -1.1622
 8391SOL    HW236636   2.350   2.619   6.784 -1.3626  0.0576 -1.7955
 8392SOL     OW36637   1.616   1.118  13.637 -0.3775  0.4031 -0.2117
 8392SOL    HW136638   1.611   1.181  13.709 -2.5664 -0.4116  0.3674
 8392SOL    HW236639   1.523   1.098  13.629 -0.5649  1.1177  0.1675
 8393SOL     OW36640   2.559   3.574   7.638 -0.4868 -0.3080 -0.0316
 8393SOL    HW136641   2.489   3.531   7.588 -0.1988  0.6266 -1.2658
 8393SOL    HW236642   2.616   3.506   7.672  1.7292  1.5833  0.0824
 8394SOL     OW36643   1.267   0.424   7.860 -0.2790 -0.1393  0.3601
 8394SOL    HW136644   1.338   0.450   7.919 -0.2655  0.4932  0.0676
 8394SOL    HW236645   1.302   0.455   7.776  1.7100  2.2069  2.0363
 8395SOL     OW36646   2.164   2.450   4.997  0.1918  0.1184  0.1992
 8395SOL    HW136647   2.115   2.376   4.962  0.4146 -1.0307  2.3168
 8395SOL    HW236648   2.248   2.409   5.018 -0.1699 -0.9781 -0.4908
 8396SOL     OW36649   3.626   4.457  16.224  0.4398 -0.1606 -0.4742
 8396SOL    HW136650   3.649   4.377  16.177 -0.2486 -0.7495  0.1989
 8396SOL    HW236651   3.669   4.520  16.166  0.9936 -0.7816 -0.7369
 8397SOL     OW36652   1.666   4.418   4.631 -0.5912  0.3032 -0.8133
 8397SOL    HW136653   1.685   4.428   4.725 -1.1577 -1.7960 -0.4644
 8397SOL    HW236654   1.639   4.326   4.632 -0.6179  0.3081 -1.9803
 8398SOL     OW36655   4.083   3.104  11.287 -0.2357 -0.0738 -0.2018
 8398SOL    HW136656   4.087   3.199  11.279 -0.3374 -0.1145 -0.7610
 8398SOL    HW236657   4.086   3.081  11.380  1.2366  0.5662 -0.0955
 8399SOL     OW36658   1.934   3.085  11.140 -0.6746 -0.2591  0.3875
 8399SOL    HW136659   1.966   3.141  11.211  1.9298 -1.5794  0.2656
 8399SOL    HW236660   2.018   3.056  11.103 -0.9427 -0.1521 -0.2980
 8400SOL     OW36661   1.546   2.838  12.326  0.2867  0.5266  0.6455
 8400SOL    HW136662   1.591   2.813  12.407 -2.2301 -0.8536  1.6113
 8400SOL    HW236663   1.603   2.914  12.313  0.1657  0.0254 -2.6512
 8401SOL     OW36664   2.558   4.259   9.624 -0.3244  0.2547 -0.3625
 8401SOL    HW136665   2.561   4.185   9.564  2.1249 -0.4379  0.6257
 8401SOL    HW236666   2.623   4.319   9.586 -0.8530  0.6461 -0.6533
 8402SOL     OW36667   1.439   2.424  14.412 -0.5875 -0.6153  0.2705
 8402SOL    HW136668   1.345   2.408  14.404 -0.7010  0.6918 -1.1992
 8402SOL    HW236669   1.451   2.484  14.486  2.3443 -0.6977 -0.1403
 8403SOL     OW36670   1.856   1.949   4.095  0.0224 -0.3333 -0.0950
 8403SOL    HW136671   1.773   1.998   4.098 -1.3050 -2.6899  1.0308
 8403SOL    HW236672   1.849   1.906   4.180 -0.4256 -1.6740 -0.8028
 8404SOL     OW36673   2.523   4.634   6.664 -1.2064  0.2111  0.6695
 8404SOL    HW136674   2.589   4.573   6.697 -2.0139 -2.4128 -2.4847
 8404SOL    HW236675   2.578   4.676   6.599 -1.3592 -1.1513 -0.3551
 8405SOL     OW36676   4.477   4.617   4.918 -0.1845 -0.2198  0.0670
 8405SOL    HW136677   4.474   4.541   4.977  0.5371 -0.5332 -0.3004
 8405SOL    HW236678   4.552   4.663   4.955 -0.9800  1.4315 -0.3875
 8406SOL     OW36679   2.911   1.389  12.771  0.1089 -0.1229 -0.2053
 8406SOL    HW136680   2.905   1.421  12.861  1.3842 -0.5622  0.0356
 8406SOL    HW236681   2.866   1.305  12.778 -0.9163  0.5131  0.7828
 8407SOL     OW36682   3.620   1.988   2.398 -0.1570 -0.3715  0.3924
 8407SOL    HW136683   3.596   1.938   2.320  0.6524  1.5218 -1.0665
 8407SOL    HW236684   3.609   2.073   2.355 -2.0255 -0.9555 -0.2795
 8408SOL     OW36685   2.592   3.908   1.238 -0.4541 -0.3992 -0.1938
 8408SOL    HW136686   2.624   3.842   1.176 -0.2386 -0.3878 -0.0938
 8408SOL    HW236687   2.592   3.865   1.323 -0.6739 -0.1757 -0.0798
 8409SOL     OW36688   1.608   1.834   0.393 -0.3736  0.4288 -0.2157
 8409SOL    HW136689   1.633   1.916   0.436  1.5257 -0.1625 -0.2022
 8409SOL    HW236690   1.535   1.803   0.447  0.0896 -3.7073 -2.0314
 8410SOL     OW36691   3.382   2.771   6.375 -0.0873 -0.5044  0.3412
 8410SOL    HW136692   3.445   2.786   6.445 -1.4726  5.1580  0.4000
 8410SOL    HW236693   3.435   2.769   6.295  1.0822 -1.4511  1.1442
 8411SOL     OW36694   4.695   4.436   0.043  0.1262  0.2176 -0.5177
 8411SOL    HW136695   4.720   4.359   0.095 -1.7946 -0.8530 -1.1991
 8411SOL    HW236696   0.058   4.461   0.020 -0.2587  0.1448 -2.0645
 8412SOL     OW36697   1.421   2.669   5.491 -0.0528  0.6967 -0.0319
 8412SOL    HW136698   1.384   2.583   5.512  1.0525  0.4084  0.7438
 8412SOL    HW236699   1.480   2.642   5.420 -1.1878 -0.9847 -0.3527
 8413SOL     OW36700   3.947   4.652  14.436  0.2082  0.0749  0.0387
 8413SOL    HW136701   3.998   4.665  14.357  0.7342  1.5437  0.6257
 8413SOL    HW236702   3.864   4.624  14.397 -0.7815 -1.2295  3.0136
 8414SOL     OW36703   3.101   1.012   8.908 -0.2562 -0.3496 -0.2240
 8414SOL    HW136704   3.139   1.019   8.996  0.6888 -1.6378 -0.5257
 8414SOL    HW236705   3.023   0.959   8.924 -1.3326  1.1454 -0.4725
 8415SOL     OW36706   3.264   3.059   8.595  0.0830 -0.2510 -0.0207
 8415SOL    HW136707   3.180   3.014   8.593  0.6861 -1.3818  0.1965
 8415SOL    HW236708   3.316   3.007   8.534  0.0789 -0.0318 -0.2097
 8416SOL     OW36709   3.789   0.263  12.001 -0.0033 -0.1166 -0.5551
 8416SOL    HW136710   3.841   0.189  12.033  0.6468  1.0514  1.0942
 8416SOL    HW236711   3.702   0.223  12.011 -0.1507  0.6266  1.1737
 8417SOL     OW36712   0.837   3.036  16.045 -0.6199 -0.3862  0.0810
 8417SOL    HW136713   0.752   2.992  16.045 -0.9263  0.2039 -1.9575
 8417SOL    HW236714   0.836   3.063  15.953 -0.0405 -2.2108 -0.4587
 8418SOL     OW36715   2.658   1.210  11.436 -0.5976 -0.5423 -0.2830
 8418SOL    HW136716   2.694   1.282  11.488 -1.6267  0.6942 -1.2766
 8418SOL    HW236717   2.615   1.255  11.363  1.4388 -0.7573 -1.5995
 8419SOL     OW36718   4.687   2.859   8.923  0.1000 -0.5034 -0.2277
 8419SOL    HW136719   4.688   2.896   9.011  0.0117  0.9420 -0.8354
 8419SOL    HW236720   4.600   2.821   8.912  0.5800 -1.6231 -0.1872
 8420SOL     OW36721   0.138   3.339   6.572  0.2288  0.3427  0.4382
 8420SOL    HW136722   0.217   3.304   6.531 -1.9034 -0.5839 -2.8449
 8420SOL    HW236723   0.166   3.428   6.595 -0.0763  0.3795  0.6706
 8421SOL     OW36724   3.878   0.209   3.904  0.0936  0.1041  0.1493
 8421SOL    HW136725   3.895   0.118   3.880 -0.5016 -0.2059  0.9214
 8421SOL    HW236726   3.819   0.191   3.977  1.9217  1.0881  1.8809
 8422SOL     OW36727   2.444   2.907   2.570  0.4930  0.3696  0.0031
 8422SOL    HW136728   2.521   2.870   2.613 -0.0166  0.4818  1.0225
 8422SOL    HW236729   2.433   2.853   2.492  0.4522  1.4784 -0.7573
 8423SOL     OW36730   4.526   2.398   4.168  0.0322  0.2261  0.0998
 8423SOL    HW136731   4.453   2.393   4.229 -1.2082 -1.0835 -1.5002
 8423SOL    HW236732   4.600   2.418   4.226 -0.6811 -1.1714  1.4719
 8424SOL     OW36733   0.405   4.556  12.221 -0.4759  0.0625 -0.3445
 8424SOL    HW136734   0.451   4.593  12.296  1.1238 -0.3852 -1.1206
 8424SOL    HW236735   0.474   4.514  12.170 -0.2472  0.9089 -0.7153
 8425SOL     OW36736   4.637   0.258  13.549 -0.3525 -0.1063  0.5371
 8425SOL    HW136737   4.556   0.240  13.596 -1.4701 -3.4164 -2.6587
 8425SOL    HW236738   4.696   0.217  13.613  0.3295  0.8576  0.5307
 8426SOL     OW36739   0.603   4.722   2.230 -0.3991 -0.7713  0.0371
 8426SOL    HW136740   0.532   0.041   2.185  0.6800  2.4975  1.5932
 8426SOL    HW236741   0.680   0.027   2.183 -0.6059  0.2128  0.3504
 8427SOL     OW36742   3.751   0.038   7.728  0.7229  0.5890 -0.3509
 8427SOL    HW136743   3.732   4.724   7.643 -0.1689  0.6096 -0.1613
 8427SOL    HW236744   3.709   4.705   7.790  0.7495 -1.5856 -2.4214
 8428SOL     OW36745   0.769   4.342   8.272 -0.0267 -0.1910  0.1820
 8428SOL    HW136746   0.755   4.437   8.273 -0.5126 -0.2595  0.0083
 8428SOL    HW236747   0.753   4.309   8.360 -1.9170 -0.5808 -0.3058
 8429SOL     OW36748   4.080   2.911  17.410  0.1378  0.3286  0.0155
 8429SOL    HW136749   4.088   2.817  17.422 -0.6215  0.0292 -1.7238
 8429SOL    HW236750   4.167   2.949  17.423 -1.1214  3.2303  0.0792
 8430SOL     OW36751   1.897   0.006   3.603 -0.3966  0.0260 -0.4296
 8430SOL    HW136752   1.820   4.719   3.659  0.4644 -1.8852  0.2748
 8430SOL    HW236753   1.862   0.080   3.554 -0.9564 -1.0410 -1.6281
 8431SOL     OW36754   0.789   2.990   7.086 -0.1161  0.7247 -0.0584
 8431SOL    HW136755   0.806   2.977   7.180  0.5828 -1.1465 -0.4357
 8431SOL    HW236756   0.828   2.914   7.042  1.2704  0.9893  0.6894
 8432SOL     OW36757   0.889   3.444   5.552 -0.1601 -0.8067 -0.1940
 8432SOL    HW136758   0.902   3.434   5.458 -0.2128  0.5956 -0.3495
 8432SOL    HW236759   0.823   3.514   5.554  0.9358  0.2495 -1.1135
 8433SOL     OW36760   4.418   3.032  14.341 -0.2491 -0.4282  0.5105
 8433SOL    HW136761   4.404   3.069  14.254 -0.1509 -0.8669  0.3131
 8433SOL    HW236762   4.464   2.952  14.318 -3.0146 -1.5784 -1.0035
 8434SOL     OW36763   0.949   1.062   7.154  0.1036  0.1743  0.1399
 8434SOL    HW136764   0.983   1.093   7.238  1.0301  2.7576 -1.1973
 8434SOL    HW236765   1.030   1.020   7.126  0.6812  0.8025  0.8734
 8435SOL     OW36766   3.215   2.419   1.438 -0.3305  0.1157  0.0203
 8435SOL    HW136767   3.151   2.420   1.509 -2.0083 -3.7574 -1.4339
 8435SOL    HW236768   3.187   2.491   1.381 -2.3374 -0.5673  0.1475
 8436SOL     OW36769   1.884   2.419   0.907 -0.0355  0.2385 -0.0085
 8436SOL    HW136770   1.917   2.436   0.819 -2.4138 -1.9964 -1.3464
 8436SOL    HW236771   1.927   2.488   0.958  1.0345  0.1364 -0.7899
 8437SOL     OW36772   3.484   0.144   7.411  0.1705  0.0987 -0.3590
 8437SOL    HW136773   3.554   0.200   7.377  0.2460  0.7384  0.8424
 8437SOL    HW236774   3.411   0.203   7.392  0.7194  0.1621 -2.2789
 8438SOL     OW36775   2.908   3.181  14.498  0.9082 -0.1642 -0.9292
 8438SOL    HW136776   2.988   3.205  14.546  0.1448  1.0415 -0.2519
 8438SOL    HW236777   2.949   3.106  14.455 -1.2451 -3.0706  2.0369
 8439SOL     OW36778   2.400   4.532  10.339  0.5848 -0.5676 -0.1655
 8439SOL    HW136779   2.366   4.473  10.272  0.7809  0.0961 -0.8333
 8439SOL    HW236780   2.488   4.495  10.345 -0.1294 -2.1484  0.8128
 8440SOL     OW36781   3.593   2.408   4.949  1.1588 -0.1061 -0.1826
 8440SOL    HW136782   3.568   2.473   4.883  2.1605  0.6867  0.2258
 8440SOL    HW236783   3.561   2.445   5.031  0.4191 -0.1414 -0.4484
 8441SOL     OW36784   2.402   2.677  16.336 -0.5714  0.1280  0.6648
 8441SOL    HW136785   2.365   2.765  16.338 -3.1364 -0.9539  0.5823
 8441SOL    HW236786   2.439   2.670  16.248 -3.8618 -0.0778 -0.7206
 8442SOL     OW36787   1.421   2.370  16.960  0.2605 -0.8991 -0.1626
 8442SOL    HW136788   1.345   2.312  16.963 -0.5972  0.4220  3.2293
 8442SOL    HW236789   1.447   2.364  17.052  2.5132 -0.1496 -0.7504
 8443SOL     OW36790   2.341   3.310   3.213 -0.4978  0.3391 -0.3414
 8443SOL    HW136791   2.263   3.365   3.221 -1.7137 -1.7774  2.1000
 8443SOL    HW236792   2.353   3.325   3.119 -1.8600 -2.1029 -0.8969
 8444SOL     OW36793   2.483   0.129   9.760  0.1260 -0.0979 -0.0920
 8444SOL    HW136794   2.516   0.040   9.748  1.2901  0.4232 -0.7274
 8444SOL    HW236795   2.388   0.117   9.754  0.4510 -1.4266 -2.6220
 8445SOL     OW36796   2.375   0.530   3.280 -0.2187 -0.0114  0.8246
 8445SOL    HW136797   2.411   0.455   3.234 -0.8383  1.7177 -2.5265
 8445SOL    HW236798   2.446   0.593   3.292 -1.0826  0.7282  2.1899
 8446SOL     OW36799   1.355   3.527   6.038 -0.0477 -0.1147  0.2050
 8446SOL    HW136800   1.369   3.617   6.069 -0.2909 -0.8610  2.4956
 8446SOL    HW236801   1.288   3.530   5.970 -0.9388 -0.0230  1.0795
 8447SOL     OW36802   4.230   1.047   7.068 -0.4232  0.0027 -0.4574
 8447SOL    HW136803   4.185   1.057   7.151 -1.1373 -0.4738 -0.7860
 8447SOL    HW236804   4.172   0.989   7.020 -1.6515 -1.4415  2.8058
 8448SOL     OW36805   2.470   0.375   2.791  0.1200 -0.1773 -0.4772
 8448SOL    HW136806   2.514   0.417   2.716  1.1316  2.7740  1.7695
 8448SOL    HW236807   2.378   0.378   2.765 -0.6080 -2.2217  1.9122
 8449SOL     OW36808   3.444   2.673  10.851  0.1441  0.5601 -0.2612
 8449SOL    HW136809   3.412   2.719  10.928 -0.6062 -2.0291  0.9535
 8449SOL    HW236810   3.371   2.619  10.820 -0.0301  0.9386 -0.5068
 8450SOL     OW36811   1.457   0.683  17.258  0.4159 -0.3259 -0.0284
 8450SOL    HW136812   1.540   0.643  17.285  0.0126  0.1785  1.9239
 8450SOL    HW236813   1.478   0.694  17.165 -0.1950  0.8946 -0.0132
 8451SOL     OW36814   1.526   0.078   8.632 -0.8813 -0.1705  0.0633
 8451SOL    HW136815   1.482   0.159   8.659 -3.7765 -1.3687 -1.0488
 8451SOL    HW236816   1.507   0.091   8.539 -2.2006  1.2822  0.5273
 8452SOL     OW36817   0.110   3.443  15.834  0.2718  0.9436 -0.3023
 8452SOL    HW136818   0.124   3.538  15.834 -0.5625  1.0815 -1.8080
 8452SOL    HW236819   0.183   3.405  15.882  0.3223  0.5665 -0.6786
 8453SOL     OW36820   3.030   3.567  15.861  0.3368 -0.3419 -0.0121
 8453SOL    HW136821   2.979   3.489  15.880 -0.1677 -0.5779 -2.3275
 8453SOL    HW236822   3.016   3.619  15.940 -1.6067 -1.9221  0.6758
 8454SOL     OW36823   3.662   0.223  13.531 -0.2449 -0.0972  0.4757
 8454SOL    HW136824   3.595   0.163  13.564  0.5719 -1.1952  0.1187
 8454SOL    HW236825   3.677   0.195  13.441  1.3719  0.9459  0.4271
 8455SOL     OW36826   2.387   1.833   3.111  0.5152 -0.0597 -0.3469
 8455SOL    HW136827   2.382   1.853   3.204 -1.3168 -2.0530 -0.0339
 8455SOL    HW236828   2.475   1.804   3.088 -0.1112 -1.9929 -0.2601
 8456SOL     OW36829   2.400   3.867   4.890 -0.0869  0.6956  0.0431
 8456SOL    HW136830   2.336   3.849   4.959 -2.4442  2.4451 -1.7084
 8456SOL    HW236831   2.478   3.891   4.939 -1.9618  0.8461  2.9522
 8457SOL     OW36832   4.482   2.507  17.587  0.1912 -0.7294  0.4730
 8457SOL    HW136833   4.459   2.430  17.638  1.0680 -2.4811 -1.7595
 8457SOL    HW236834   4.577   2.510  17.603 -0.0190  2.7370  1.0808
 8458SOL     OW36835   2.469   1.665   2.535  0.4610 -0.8376  0.3668
 8458SOL    HW136836   2.446   1.663   2.628 -0.9838  4.9542  0.1091
 8458SOL    HW236837   2.436   1.580   2.505  0.3531 -0.8225  0.4424
 8459SOL     OW36838   1.611   3.640   4.057  0.1972  0.3263  0.2832
 8459SOL    HW136839   1.682   3.680   4.008  0.1788 -1.4227 -1.1691
 8459SOL    HW236840   1.540   3.645   3.992 -0.2716  1.4590  0.8920
 8460SOL     OW36841   0.605   4.578   1.834  0.5022 -0.3753  0.0566
 8460SOL    HW136842   0.530   4.630   1.863 -0.2759 -0.7023 -1.3799
 8460SOL    HW236843   0.629   4.616   1.750 -3.9069 -0.7668 -1.3861
 8461SOL     OW36844   0.903   1.523   3.535 -0.2878  0.1874  0.5440
 8461SOL    HW136845   0.923   1.603   3.486  2.0614 -0.5342  0.3284
 8461SOL    HW236846   0.973   1.534   3.599  1.8694 -0.5795 -1.6778
 8462SOL     OW36847   1.436   3.611   5.650  0.5425 -0.2529 -0.9176
 8462SOL    HW136848   1.513   3.557   5.636  1.5554  0.9591  0.0276
 8462SOL    HW236849   1.360   3.557   5.627  1.0565 -2.4056  2.5938
 8463SOL     OW36850   1.321   2.736  13.547  0.7081  0.2669 -0.3042
 8463SOL    HW136851   1.361   2.711  13.631 -2.8054 -2.1013  0.6576
 8463SOL    HW236852   1.315   2.832  13.555  0.6498  0.0722  2.0360
 8464SOL     OW36853   0.430   4.669  13.607  0.0149  0.3301 -0.0698
 8464SOL    HW136854   0.393   0.012  13.661  0.0384  1.0839 -1.0218
 8464SOL    HW236855   0.382   4.599  13.651 -0.8163  0.8664 -0.1351
 8465SOL     OW36856   3.322   2.485   8.222 -0.2583 -0.4702  0.2806
 8465SOL    HW136857   3.319   2.399   8.265  3.4321 -1.0053 -0.5441
 8465SOL    HW236858   3.239   2.487   8.175 -0.6697  1.1073  1.0639
 8466SOL     OW36859   4.127   0.970   4.369  0.2993  0.3201  0.3295
 8466SOL    HW136860   4.085   0.996   4.287  0.6087  1.4526  0.5283
 8466SOL    HW236861   4.057   0.916   4.404  0.0624  1.4767  1.6499
 8467SOL     OW36862   3.240   3.144   7.993  0.5177 -0.0926  0.3342
 8467SOL    HW136863   3.305   3.074   7.984 -0.9848 -1.4204 -0.1057
 8467SOL    HW236864   3.205   3.128   8.080 -0.1740 -1.6773 -0.2393
 8468SOL     OW36865   1.557   1.141   3.107 -0.3817 -0.1844  0.4710
 8468SOL    HW136866   1.645   1.177   3.099  0.3585 -1.8755  0.8330
 8468SOL    HW236867   1.570   1.092   3.188  1.5482  0.7495  0.7411
 8469SOL     OW36868   3.551   3.520   0.101  0.7280  0.5866  0.0859
 8469SOL    HW136869   3.582   3.443   0.148 -1.3807  0.8354  1.8929
 8469SOL    HW236870   3.567   3.498   0.009 -1.1619 -0.3361 -0.0205
 8470SOL     OW36871   0.904   2.575   2.863 -0.1751  0.1356  0.1560
 8470SOL    HW136872   0.996   2.547   2.865 -0.0700  0.4337 -0.4220
 8470SOL    HW236873   0.909   2.624   2.781  1.7797  0.7652  0.6429
 8471SOL     OW36874   3.197   3.196  11.142  0.6169  0.3189 -0.5522
 8471SOL    HW136875   3.233   3.265  11.198  1.9212 -0.1054 -0.8646
 8471SOL    HW236876   3.115   3.238  11.116 -0.5707 -2.1392 -0.7704
 8472SOL     OW36877   0.832   4.586   8.779  0.3874  0.4904 -0.6087
 8472SOL    HW136878   0.899   4.565   8.844  0.1879  0.2361 -0.4835
 8472SOL    HW236879   0.783   4.640   8.841 -1.3295 -0.6275 -0.9839
 8473SOL     OW36880   1.010   0.896   8.150 -0.1913  0.2327 -0.5073
 8473SOL    HW136881   0.954   0.970   8.125 -2.2646 -1.7439 -1.7213
 8473SOL    HW236882   0.954   0.823   8.175 -0.8007  0.9492  0.2282
 8474SOL     OW36883   3.152   4.029   0.946 -0.6806  0.2367 -1.0808
 8474SOL    HW136884   3.220   3.962   0.940 -0.7182  0.1306 -0.3686
 8474SOL    HW236885   3.191   4.090   1.008 -0.5518  0.6854 -1.6020
 8475SOL     OW36886   2.673   1.579   2.055 -0.3449  0.0240 -0.0621
 8475SOL    HW136887   2.668   1.549   1.964 -1.3956  2.6514 -0.8782
 8475SOL    HW236888   2.584   1.610   2.070 -1.0978 -2.7869  1.2329
 8476SOL     OW36889   3.002   1.853   6.622  0.5673  0.2343 -0.1184
 8476SOL    HW136890   3.009   1.948   6.632 -1.5402  0.3122  0.7133
 8476SOL    HW236891   2.988   1.837   6.529 -0.5573 -0.8861  0.2478
 8477SOL     OW36892   2.492   1.056   0.251 -0.8948 -0.2165 -0.1905
 8477SOL    HW136893   2.547   1.135   0.245 -1.4249  0.1006 -0.7817
 8477SOL    HW236894   2.405   1.095   0.258 -1.1112 -0.5341 -1.1839
 8478SOL     OW36895   2.091   0.908   1.428 -0.1073 -0.2489  0.1698
 8478SOL    HW136896   2.029   0.883   1.496  0.2452 -2.5087 -0.3467
 8478SOL    HW236897   2.111   0.997   1.459  0.0745  1.2772 -4.2428
 8479SOL     OW36898   3.385   2.321  14.023 -0.0484 -0.1044  0.4072
 8479SOL    HW136899   3.475   2.315  14.057  0.5552 -0.1186 -1.1822
 8479SOL    HW236900   3.346   2.267  14.091  0.5272 -0.8177  0.1765
 8480SOL     OW36901   3.243   0.684   2.082 -0.4974 -0.4014  0.7130
 8480SOL    HW136902   3.230   0.768   2.127 -1.1546 -0.1271  0.0088
 8480SOL    HW236903   3.317   0.643   2.126 -1.2757 -2.3788  0.1902
 8481SOL     OW36904   1.672   2.249   0.907 -0.4545  0.2750 -0.4478
 8481SOL    HW136905   1.672   2.203   0.823  0.0351 -1.3486  0.4340
 8481SOL    HW236906   1.732   2.321   0.888 -0.5111  0.9448  1.8667
 8482SOL     OW36907   4.466   3.913  17.653 -0.0039  0.3802 -0.1040
 8482SOL    HW136908   4.490   3.983  17.592  0.8802  1.8595  1.9356
 8482SOL    HW236909   4.556   3.886  17.669 -0.3172 -0.9730 -0.5919
 8483SOL     OW36910   2.515   2.379   0.229  0.8683 -0.0948 -0.3304
 8483SOL    HW136911   2.596   2.329   0.232 -0.1974 -1.7620  0.3159
 8483SOL    HW236912   2.547   2.469   0.237 -0.0088  0.1819  0.0283
 8484SOL     OW36913   0.918   4.465  15.813  0.3835  0.1119 -0.1061
 8484SOL    HW136914   0.847   4.528  15.827  0.8900  0.5468  0.5085
 8484SOL    HW236915   0.945   4.487  15.724  1.4202 -1.4708 -0.1786
 8485SOL     OW36916   1.986   4.349   2.709  0.1575 -0.5054  0.4140
 8485SOL    HW136917   2.016   4.261   2.729  0.8408 -0.3634  0.0235
 8485SOL    HW236918   1.995   4.355   2.614  1.0608  0.7015  0.5687
 8486SOL     OW36919   2.354   4.467   7.238  0.7455  0.1008  0.5497
 8486SOL    HW136920   2.336   4.389   7.187  0.2106  0.3722  0.3247
 8486SOL    HW236921   2.448   4.486   7.231  0.8429 -0.5362  0.1420
 8487SOL     OW36922   1.150   0.494  15.410 -1.3478 -0.7511 -0.2302
 8487SOL    HW136923   1.168   0.559  15.342  0.6271  0.7873  1.7681
 8487SOL    HW236924   1.174   0.414  15.363 -1.2105 -1.3219  0.8025
 8488SOL     OW36925   0.695   4.524  12.846  0.4539  0.4730  0.3316
 8488SOL    HW136926   0.681   4.604  12.897 -2.5424 -0.3777  0.8219
 8488SOL    HW236927   0.608   4.493  12.822  0.9393 -0.3583 -0.3904
 8489SOL     OW36928   3.101   2.914  14.929  0.0434 -0.2724  0.1024
 8489SOL    HW136929   3.116   2.920  14.834  1.3397 -0.3922  0.3129
 8489SOL    HW236930   3.123   2.823  14.951  0.5937  0.4357  2.4435
 8490SOL     OW36931   1.668   0.254  10.574  0.1046  0.1644  0.0469
 8490SOL    HW136932   1.634   0.223  10.658  0.1613  1.8804  0.6981
 8490SOL    HW236933   1.763   0.241  10.583 -0.3419 -3.1017  0.2455
 8491SOL     OW36934   1.404   2.066   5.099 -0.2568 -0.4921 -0.6522
 8491SOL    HW136935   1.482   2.070   5.154 -1.3449  1.9553  0.7424
 8491SOL    HW236936   1.389   1.972   5.096 -0.2844 -0.5319  1.0637
 8492SOL     OW36937   0.616   0.943   7.124  0.2133  0.2346 -0.3610
 8492SOL    HW136938   0.614   0.847   7.121 -2.3467  0.3086 -1.1243
 8492SOL    HW236939   0.658   0.972   7.043  0.4525  2.7761  0.6739
 8493SOL     OW36940   2.692   3.032   6.467 -0.3103 -0.1802 -0.0273
 8493SOL    HW136941   2.748   3.046   6.544  0.5821 -1.6840 -0.3861
 8493SOL    HW236942   2.743   3.082   6.404 -1.6453  0.5657 -0.4995
 8494SOL     OW36943   0.698   3.177   7.736 -0.1623  0.0832 -0.3230
 8494SOL    HW136944   0.673   3.191   7.644 -0.0812  0.9270 -0.2156
 8494SOL    HW236945   0.663   3.090   7.755  1.1844 -0.0639  1.4798
 8495SOL     OW36946   0.560   3.396   4.045  0.2908  0.6677  0.3980
 8495SOL    HW136947   0.551   3.309   4.084  0.0166 -0.0247 -1.2280
 8495SOL    HW236948   0.577   3.379   3.952  0.1146  0.6033  0.3769
 8496SOL     OW36949   1.274   2.610   5.876 -0.3837 -0.1695 -0.8446
 8496SOL    HW136950   1.229   2.690   5.906 -0.8898 -0.4344 -0.9026
 8496SOL    HW236951   1.352   2.642   5.830  1.3985 -0.1595  2.1648
 8497SOL     OW36952   3.757   0.018   5.446 -0.2748  0.5884 -0.0611
 8497SOL    HW136953   3.851   0.026   5.424 -0.3105  0.6905 -0.1806
 8497SOL    HW236954   3.718   0.003   5.360 -0.2977 -0.1288  0.0793
 8498SOL     OW36955   0.905   4.405   4.309  0.1215  0.4820 -0.2190
 8498SOL    HW136956   0.814   4.432   4.297 -0.0612 -0.4099 -0.8458
 8498SOL    HW236957   0.929   4.358   4.229  1.2463  0.4368  0.1443
 8499SOL     OW36958   4.402   0.488   3.074  0.1923  0.4282  0.3379
 8499SOL    HW136959   4.345   0.428   3.027 -1.1661 -0.3827  2.9966
 8499SOL    HW236960   4.390   0.450   3.161 -1.7424 -2.2597 -1.1143
 8500SOL     OW36961   4.242   1.174   5.636  0.2744 -0.2966 -0.7262
 8500SOL    HW136962   4.232   1.173   5.540 -0.6711  0.2634 -0.6232
 8500SOL    HW236963   4.227   1.265   5.658  2.0017  0.4980 -2.8068
 8501SOL     OW36964   3.984   1.518   1.551 -0.2847 -0.3486  0.5208
 8501SOL    HW136965   3.967   1.494   1.643  0.7746  0.2356  0.8584
 8501SOL    HW236966   4.067   1.472   1.544  0.2569  1.1124 -2.5369
 8502SOL     OW36967   2.345   4.667   8.707  0.9837 -0.0738 -0.0741
 8502SOL    HW136968   2.287   4.723   8.656  1.5651  0.7632  0.1574
 8502SOL    HW236969   2.348   0.005   8.779  2.5242 -0.6264  0.3548
 8503SOL     OW36970   4.555   3.568  15.584 -0.4883  0.3916 -0.6703
 8503SOL    HW136971   4.522   3.652  15.552  0.3400  0.7780 -0.4899
 8503SOL    HW236972   4.649   3.583  15.574 -0.2800  0.6829  1.8541
 8504SOL     OW36973   0.468   2.934   8.723 -0.1590 -0.0251  0.3020
 8504SOL    HW136974   0.477   3.018   8.768  1.3628  0.2187 -0.4717
 8504SOL    HW236975   0.375   2.927   8.744  0.2088 -1.9220  1.3230
 8505SOL     OW36976   3.486   0.758   6.745 -0.1486  0.5125 -0.1788
 8505SOL    HW136977   3.483   0.854   6.739  1.3533  0.6456  1.2196
 8505SOL    HW236978   3.394   0.733   6.756 -0.1594  0.0793 -1.3454
 8506SOL     OW36979   0.228   2.856   6.760  0.1598 -0.8971  0.4310
 8506SOL    HW136980   0.280   2.849   6.680 -1.3144  0.3187 -0.6297
 8506SOL    HW236981   0.171   2.926   6.728  1.2244  0.0765  0.6598
 8507SOL     OW36982   1.435   2.521   6.140 -0.7811 -0.5095  0.1036
 8507SOL    HW136983   1.353   2.563   6.115 -2.0032 -3.2323 -0.4388
 8507SOL    HW236984   1.458   2.479   6.057 -0.0987  0.0632  0.0038
 8508SOL     OW36985   4.188   2.460   7.937  0.1719  0.1063 -0.3212
 8508SOL    HW136986   4.163   2.371   7.961  0.6186  0.0883  0.0744
 8508SOL    HW236987   4.259   2.475   7.999  0.3016 -1.3566 -0.1286
 8509SOL     OW36988   0.888   2.854  16.543 -0.1474  0.2467 -0.2744
 8509SOL    HW136989   0.973   2.898  16.537 -0.8636  1.8113  1.1125
 8509SOL    HW236990   0.834   2.909  16.486 -0.1798  1.1364  0.6202
 8510SOL     OW36991   3.783   1.000   9.167  0.3396 -0.2640 -0.3516
 8510SOL    HW136992   3.837   1.008   9.089 -0.2493 -1.0096 -0.8283
 8510SOL    HW236993   3.841   0.961   9.233  1.0858 -0.4811 -1.1376
 8511SOL     OW36994   2.773   4.417   7.741 -0.5389 -0.0699 -0.2074
 8511SOL    HW136995   2.680   4.395   7.739 -0.6591  0.6059 -1.5584
 8511SOL    HW236996   2.801   4.345   7.797 -0.6151 -0.1723 -0.3012
 8512SOL     OW36997   2.372   3.959   6.973  0.1954 -0.1290 -0.1619
 8512SOL    HW136998   2.455   4.006   6.967 -2.7309  5.0140  0.3658
 8512SOL    HW236999   2.312   4.012   7.024 -0.3770 -0.7860 -0.1497
 8513SOL     OW37000   1.350   3.558   8.777  0.5556  0.4498  0.7798
 8513SOL    HW137001   1.313   3.470   8.779  0.9512  0.2423 -0.8829
 8513SOL    HW237002   1.412   3.559   8.704  0.4699  0.2110  0.7021
 8514SOL     OW37003   4.354   2.663   1.925 -0.5133 -0.2652 -0.5841
 8514SOL    HW137004   4.429   2.717   1.900 -1.5282  2.1437  1.4621
 8514SOL    HW237005   4.316   2.637   1.841 -0.0258  1.2182 -1.2594
 8515SOL     OW37006   4.399   1.795  12.936  0.3500 -0.3478  0.2968
 8515SOL    HW137007   4.382   1.861  12.869  0.8584 -0.7734 -0.2661
 8515SOL    HW237008   4.379   1.714  12.888 -0.0485  0.2963 -0.6303
 8516SOL     OW37009   1.001   3.416   4.339 -0.1721 -0.0818 -0.2739
 8516SOL    HW137010   0.946   3.486   4.305  0.1129  0.1382 -0.2814
 8516SOL    HW237011   1.035   3.458   4.418  0.6971  0.5212 -0.9707
 8517SOL     OW37012   1.243   3.933  10.537  0.4858  0.2930  0.3707
 8517SOL    HW137013   1.205   3.891  10.614 -1.9481 -1.8407 -1.9877
 8517SOL    HW237014   1.221   4.025  10.544  0.5290  0.3327 -0.0225
 8518SOL     OW37015   0.880   2.102   3.560  0.5036  0.5468  0.7573
 8518SOL    HW137016   0.928   2.024   3.586  0.9845  0.0561 -1.6819
 8518SOL    HW237017   0.794   2.071   3.588  0.0820  1.2249  0.1938
 8519SOL     OW37018   4.096   1.719  10.208 -0.2681  0.7760  0.4210
 8519SOL    HW137019   4.057   1.650  10.261  0.5020  0.4750  0.5843
 8519SOL    HW237020   4.175   1.735  10.260  1.2489 -0.4136 -1.5481
 8520SOL     OW37021   3.997   1.107   8.099  0.0630  0.4517  0.4588
 8520SOL    HW137022   4.078   1.130   8.145  0.7236 -0.1070 -0.4346
 8520SOL    HW237023   4.023   1.030   8.049  1.4751  0.3524  1.3470
 8521SOL     OW37024   4.094   1.384  11.892  0.5846  0.2464 -0.0160
 8521SOL    HW137025   4.054   1.470  11.905 -0.3548 -0.3023  0.7491
 8521SOL    HW237026   4.073   1.367  11.800 -0.7862  1.9644 -0.0220
 8522SOL     OW37027   1.321   0.267   3.954  0.1787 -0.3960  0.1966
 8522SOL    HW137028   1.241   0.295   3.910  0.3650 -0.8178 -0.4188
 8522SOL    HW237029   1.339   0.331   4.023 -1.8235  2.2708 -1.7680
 8523SOL     OW37030   4.708   0.704  17.408  0.0605  0.3293 -0.0382
 8523SOL    HW137031   4.668   0.618  17.402  1.0317 -0.1201 -0.1072
 8523SOL    HW237032   4.637   0.754  17.447 -0.3062 -0.7644  0.6803
 8524SOL     OW37033   4.307   1.897   2.328  0.4991 -0.3368 -0.0513
 8524SOL    HW137034   4.301   1.926   2.419  1.7287  0.3971 -0.1939
 8524SOL    HW237035   4.327   1.981   2.285 -0.1336  0.3590  0.9997
 8525SOL     OW37036   0.220   2.898   3.668 -0.2217 -0.2486  0.4837
 8525SOL    HW137037   0.144   2.839   3.665 -0.4446 -0.0072  1.3150
 8525SOL    HW237038   0.168   2.974   3.640  2.0165  0.4747 -1.7690
 8526SOL     OW37039   2.232   0.441   7.629 -0.3787 -0.0260  0.2509
 8526SOL    HW137040   2.169   0.511   7.612 -0.7535  0.2367  2.8023
 8526SOL    HW237041   2.293   0.480   7.691  2.4333 -0.4909 -2.2095
 8527SOL     OW37042   1.207   2.597   7.722 -0.2825  0.8282 -0.0972
 8527SOL    HW137043   1.276   2.621   7.660  0.5583  1.5975  1.1425
 8527SOL    HW237044   1.132   2.560   7.676 -0.1573  0.3701  0.0705
 8528SOL     OW37045   0.631   0.248  17.302  0.0287 -0.3217 -1.5047
 8528SOL    HW137046   0.705   0.194  17.274  0.1134 -1.1514  0.3459
 8528SOL    HW237047   0.625   0.319  17.237 -0.0172  0.6263 -0.4542
 8529SOL     OW37048   1.932   1.312   8.443  0.3749  0.3614  0.2381
 8529SOL    HW137049   1.898   1.401   8.454  1.4221  0.3823  3.2485
 8529SOL    HW237050   1.903   1.293   8.354 -3.1234  1.0506  1.2248
 8530SOL     OW37051   0.366   1.219   3.593  0.2119  0.0656 -0.5821
 8530SOL    HW137052   0.400   1.216   3.504 -1.8229 -0.3787 -1.3364
 8530SOL    HW237053   0.445   1.224   3.647 -0.6726 -0.0939  0.7449
 8531SOL     OW37054   2.775   2.816   4.672  0.0778  0.2024  0.4873
 8531SOL    HW137055   2.767   2.910   4.691 -1.0291  0.3191 -0.5488
 8531SOL    HW237056   2.822   2.821   4.589  0.4346 -1.0817  0.6170
 8532SOL     OW37057   4.564   1.963   2.007 -0.1310  0.2347  0.4999
 8532SOL    HW137058   4.577   1.984   1.914 -0.0364  1.4091  0.7831
 8532SOL    HW237059   4.468   1.958   2.005 -0.0273 -1.2017 -1.4077
 8533SOL     OW37060   2.451   3.565  10.548 -0.3401  0.2688  0.4036
 8533SOL    HW137061   2.512   3.628  10.586 -0.4296  0.1979  0.6634
 8533SOL    HW237062   2.367   3.587  10.589 -0.2827  1.9130 -0.3693
 8534SOL     OW37063   0.690   1.278  10.934  0.1283 -0.7221 -0.0689
 8534SOL    HW137064   0.744   1.211  10.893  2.2857  1.0035 -0.0367
 8534SOL    HW237065   0.622   1.292  10.868 -0.5253 -0.3308  0.6875
 8535SOL     OW37066   2.112   2.287   7.857 -0.5131  0.0752 -0.2130
 8535SOL    HW137067   2.154   2.360   7.812  0.4164  0.1471  0.7668
 8535SOL    HW237068   2.095   2.327   7.943 -1.9682 -2.3317  0.6410
 8536SOL     OW37069   2.921   3.484   6.759  0.3975 -0.6018  0.1059
 8536SOL    HW137070   2.882   3.560   6.803  0.5082 -0.7116  0.3931
 8536SOL    HW237071   3.006   3.522   6.736  0.6220  0.5935  2.8884
 8537SOL     OW37072   4.064   3.475   8.506  0.2585  0.0894  1.0123
 8537SOL    HW137073   4.043   3.536   8.576  0.9924  3.4755 -1.7097
 8537SOL    HW237074   4.131   3.524   8.457 -0.8029  1.0315  0.5012
 8538SOL     OW37075   1.335   1.673   6.723  1.4118  0.5803 -0.6487
 8538SOL    HW137076   1.385   1.690   6.643  0.9762 -2.1277 -1.5097
 8538SOL    HW237077   1.278   1.601   6.696  0.0533  1.0789  0.8915
 8539SOL     OW37078   2.749   1.368   1.867 -0.2480 -0.1069 -0.1783
 8539SOL    HW137079   2.806   1.328   1.933  0.9735  1.9114 -0.0301
 8539SOL    HW237080   2.781   1.321   1.790 -0.7747  0.7812 -0.9347
 8540SOL     OW37081   0.829   2.118   7.252 -0.0378 -0.2773 -0.1615
 8540SOL    HW137082   0.762   2.052   7.239 -0.4418 -0.2690  1.9472
 8540SOL    HW237083   0.797   2.150   7.336  1.2284 -1.5675  0.7910
 8541SOL     OW37084   2.000   0.053   8.798 -0.0753  0.2321 -0.4917
 8541SOL    HW137085   1.959   0.137   8.820 -0.3832  0.2959 -1.3208
 8541SOL    HW237086   1.987   0.044   8.703  0.7705 -0.2440 -0.5553
 8542SOL     OW37087   3.774   0.865   2.098 -0.1900  0.3725 -0.2704
 8542SOL    HW137088   3.750   0.945   2.051  1.7279  0.0362 -1.8137
 8542SOL    HW237089   3.818   0.818   2.027 -2.6999 -2.2538 -0.0982
 8543SOL     OW37090   4.591   0.143   6.128  0.0116  0.5428  0.1059
 8543SOL    HW137091   4.523   0.209   6.144 -0.6524  0.1550 -1.0403
 8543SOL    HW237092   4.663   0.182   6.176  1.5115 -0.8797 -0.9827
 8544SOL     OW37093   3.440   2.186  12.851  0.2480 -0.8031 -0.1317
 8544SOL    HW137094   3.462   2.212  12.940  0.3959 -2.0625  0.2035
 8544SOL    HW237095   3.367   2.245  12.834 -0.3004 -1.5994 -0.5594
 8545SOL     OW37096   0.453   3.814  14.912 -0.2816  0.0357  1.0185
 8545SOL    HW137097   0.385   3.760  14.952 -1.0275 -1.4327 -2.2078
 8545SOL    HW237098   0.488   3.763  14.839 -0.5774 -0.2503  1.0737
 8546SOL     OW37099   1.168   2.932   2.077 -0.2083  0.4528 -0.0624
 8546SOL    HW137100   1.258   2.933   2.045 -0.2947  1.6697 -0.2396
 8546SOL    HW237101   1.123   2.991   2.016 -0.1415  1.0980  0.5204
 8547SOL     OW37102   4.232   2.647   3.860  0.1091 -0.5166 -0.3769
 8547SOL    HW137103   4.158   2.705   3.880  0.6808  0.7841 -2.0630
 8547SOL    HW237104   4.301   2.713   3.853 -0.5891  0.4062  1.4086
 8548SOL     OW37105   2.956   0.053   2.215  0.5966 -0.0322  0.2304
 8548SOL    HW137106   3.038   0.050   2.165 -0.9254 -0.1277 -2.2952
 8548SOL    HW237107   2.995   0.057   2.302  1.6350 -0.9659 -0.1826
 8549SOL     OW37108   0.391   2.105   6.310 -0.0077 -0.4879  0.1672
 8549SOL    HW137109   0.333   2.138   6.378  0.8624 -1.2372  1.2807
 8549SOL    HW237110   0.338   2.033   6.277 -1.2781 -0.0911  1.3677
 8550SOL     OW37111   0.888   4.687  14.568 -0.0085  0.5055  0.0776
 8550SOL    HW137112   0.847   4.604  14.592 -3.4705  2.2948  0.4212
 8550SOL    HW237113   0.876   0.013  14.647 -0.6492 -0.9059  0.9236
 8551SOL     OW37114   3.736   2.634   7.881 -0.5340  0.5241  0.4400
 8551SOL    HW137115   3.777   2.606   7.799  0.4770  1.4883  0.6070
 8551SOL    HW237116   3.738   2.547   7.919 -0.0857 -0.5623 -2.0816
 8552SOL     OW37117   2.339   4.504  12.283  0.2745  0.4709  0.1215
 8552SOL    HW137118   2.267   4.445  12.307 -0.8117  0.7655 -2.4716
 8552SOL    HW237119   2.390   4.458  12.216 -2.3684 -0.0362 -1.5395
 8553SOL     OW37120   1.702   3.234   7.155  0.6362 -0.4627  0.1767
 8553SOL    HW137121   1.608   3.246   7.166  0.5635  0.4549 -1.4101
 8553SOL    HW237122   1.699   3.187   7.072 -0.5484 -2.5401  1.4020
 8554SOL     OW37123   3.918   2.088  11.046  0.4276 -0.1758 -0.3048
 8554SOL    HW137124   3.877   2.160  10.998  0.6144  0.4504  0.4752
 8554SOL    HW237125   3.987   2.053  10.989  0.2331 -1.4108  0.2110
 8555SOL     OW37126   1.180   0.221   4.723 -0.1621  0.7477  0.0418
 8555SOL    HW137127   1.207   0.130   4.736 -1.2861  0.4530  0.3410
 8555SOL    HW237128   1.113   0.214   4.655 -0.5110  1.9738  0.2478
 8556SOL     OW37129   0.380   2.935   5.950 -0.3381 -0.0685 -0.4854
 8556SOL    HW137130   0.388   2.859   6.007  1.5035  1.3352  1.1242
 8556SOL    HW237131   0.312   2.904   5.889  0.1834 -1.5261 -0.3256
 8557SOL     OW37132   2.136   2.040   5.429 -0.0323 -0.0849 -0.1845
 8557SOL    HW137133   2.197   1.997   5.369 -1.0991 -2.0673  0.1283
 8557SOL    HW237134   2.091   2.103   5.374  1.2539  0.0440 -1.0795
 8558SOL     OW37135   1.230   4.487   6.907  0.0497 -0.5699 -0.3893
 8558SOL    HW137136   1.297   4.537   6.954 -2.0293  1.5619  0.3314
 8558SOL    HW237137   1.276   4.443   6.836  0.4070  0.5496 -0.8536
 8559SOL     OW37138   4.402   1.733   7.903 -0.0439  0.4261 -0.2366
 8559SOL    HW137139   4.383   1.743   7.996 -0.1148 -1.7472 -0.0330
 8559SOL    HW237140   4.374   1.644   7.881  0.7433  0.8112 -2.8508
 8560SOL     OW37141   1.595   1.023   4.264  0.3789 -0.2963  0.5330
 8560SOL    HW137142   1.597   1.076   4.184  1.8594 -0.8394  0.2261
 8560SOL    HW237143   1.511   0.979   4.256  1.1958 -0.9684 -4.1169
 8561SOL     OW37144   0.168   0.513   2.159 -0.6955 -1.1486  0.1930
 8561SOL    HW137145   0.100   0.460   2.116 -1.7779  0.6913 -0.3777
 8561SOL    HW237146   0.122   0.595   2.177 -0.9897 -0.8686 -1.7966
 8562SOL     OW37147   1.014   0.227   3.404  0.0289 -0.3433 -0.3524
 8562SOL    HW137148   1.036   0.162   3.470 -1.0026  0.8115  1.1299
 8562SOL    HW237149   0.940   0.181   3.365 -0.0643 -2.1999  2.0344
 8563SOL     OW37150   0.466   2.282   6.683 -0.0149 -0.6658 -0.5568
 8563SOL    HW137151   0.557   2.257   6.699  0.2359  0.5666  0.0067
 8563SOL    HW237152   0.469   2.373   6.653 -0.6289 -0.5125 -0.1521
 8564SOL     OW37153   2.054   1.804   7.277  0.3010  0.0311  0.0166
 8564SOL    HW137154   1.984   1.843   7.225 -0.4092  1.0427  1.7249
 8564SOL    HW237155   2.037   1.853   7.357 -0.8925  0.8855 -0.7718
 8565SOL     OW37156   2.440   2.150   7.030 -0.1614 -0.2744  0.3792
 8565SOL    HW137157   2.496   2.097   6.972  0.3383 -0.4332  1.0021
 8565SOL    HW237158   2.382   2.081   7.061  1.2540 -2.1121 -1.0067
 8566SOL     OW37159   2.507   0.501   8.832  0.6092 -0.1627  0.1758
 8566SOL    HW137160   2.519   0.520   8.739  0.5706  1.3708  0.4796
 8566SOL    HW237161   2.562   0.569   8.871  0.5474 -0.1475  0.2374
 8567SOL     OW37162   3.223   3.198  10.774 -0.2859 -0.2252 -0.3762
 8567SOL    HW137163   3.258   3.127  10.829 -0.2968  1.6368  2.0554
 8567SOL    HW237164   3.297   3.190  10.714 -1.4448  0.7311 -1.9044
 8568SOL     OW37165   1.549   0.577  16.774 -0.2224  0.4866 -0.4122
 8568SOL    HW137166   1.631   0.553  16.730  0.4299 -0.7728  1.5293
 8568SOL    HW237167   1.505   0.629  16.706 -1.3232  0.9048  0.6301
 8569SOL     OW37168   2.426   2.518   4.221  0.3136  0.1466 -0.0434
 8569SOL    HW137169   2.430   2.437   4.270  0.5804  0.4938  0.5102
 8569SOL    HW237170   2.494   2.578   4.252  1.7859 -1.5240 -0.0686
 8570SOL     OW37171   2.806   0.086   2.610  0.3867 -0.2587 -0.1681
 8570SOL    HW137172   2.789   0.080   2.516  1.8614  0.7664 -0.5012
 8570SOL    HW237173   2.717   0.107   2.640  0.2345 -1.9761  0.6039
 8571SOL     OW37174   4.480   4.511  13.437  0.9252 -0.0500  0.0944
 8571SOL    HW137175   4.467   4.417  13.442  1.2543 -0.0118  1.6468
 8571SOL    HW237176   4.487   4.532  13.530  0.4494  0.2457  0.0649
 8572SOL     OW37177   2.527   0.614   3.018  0.1816 -0.3572  0.2733
 8572SOL    HW137178   2.525   0.667   3.098  0.8805  0.4067 -0.2128
 8572SOL    HW237179   2.439   0.639   2.988  0.3978 -1.1674 -1.0228
 8573SOL     OW37180   3.226   1.077   2.568 -0.1449  0.1408 -0.4841
 8573SOL    HW137181   3.277   1.074   2.487 -0.9751  3.8597 -1.1263
 8573SOL    HW237182   3.171   1.152   2.550  1.2031  1.5576  1.2661
 8574SOL     OW37183   2.433   3.579   6.165  0.2592 -0.0832 -0.3813
 8574SOL    HW137184   2.458   3.566   6.256  0.3227 -1.8490 -0.6500
 8574SOL    HW237185   2.353   3.527   6.174 -1.1925  2.0213 -0.9591
 8575SOL     OW37186   0.944   3.451   1.738  0.2432 -0.5566 -0.8581
 8575SOL    HW137187   0.873   3.429   1.677 -1.8676  2.8147  0.3730
 8575SOL    HW237188   0.890   3.505   1.796  0.7991 -0.8306 -0.0881
 8576SOL     OW37189   0.387   1.284   6.964  0.3465 -0.2335 -0.5688
 8576SOL    HW137190   0.450   1.294   7.035  0.7367  0.6159 -1.0310
 8576SOL    HW237191   0.435   1.343   6.905 -1.3560 -0.0130 -1.7482
 8577SOL     OW37192   0.838   3.474   5.005  0.1528  0.8984 -0.6055
 8577SOL    HW137193   0.820   3.388   4.967 -0.1056  0.1237  1.2770
 8577SOL    HW237194   0.805   3.545   4.951 -1.7207 -0.6459 -1.4788
 8578SOL     OW37195   4.013   3.022   2.450  0.1583 -0.0494 -0.3299
 8578SOL    HW137196   3.985   3.016   2.359 -1.3172 -0.6320  0.1596
 8578SOL    HW237197   4.105   2.994   2.452 -0.5253 -2.0590  2.4113
 8579SOL     OW37198   4.029   2.390  17.626 -0.4902 -0.3517  0.0273
 8579SOL    HW137199   4.067   2.389  17.538  0.2821 -1.0687  0.3799
 8579SOL    HW237200   3.942   2.358  17.600 -1.0720 -0.2524  1.8521
 8580SOL     OW37201   1.797   2.734   1.345 -0.1650 -0.1004  0.3256
 8580SOL    HW137202   1.755   2.751   1.430 -2.0369  3.0165 -1.1998
 8580SOL    HW237203   1.879   2.689   1.363 -0.8122 -1.4261 -0.0943
 8581SOL     OW37204   3.310   3.082  11.391 -0.2038 -0.2760 -0.5163
 8581SOL    HW137205   3.349   3.134  11.461 -0.3001 -2.4617  1.1646
 8581SOL    HW237206   3.326   3.140  11.316  1.7181  1.9931  1.6571
 8582SOL     OW37207   4.194   4.508   1.762  0.0118  0.3074  0.0922
 8582SOL    HW137208   4.117   4.512   1.704  1.1122 -1.9856 -1.5448
 8582SOL    HW237209   4.217   4.600   1.751 -1.4590  0.8740  1.8308
 8583SOL     OW37210   2.333   1.272   1.061  0.6167  0.3214 -0.6388
 8583SOL    HW137211   2.417   1.317   1.068  0.8709 -0.6456  2.6292
 8583SOL    HW237212   2.290   1.324   1.129  0.8714 -1.3612  0.8174
 8584SOL     OW37213   2.666   1.033   4.916 -0.3002  0.0438 -0.2952
 8584SOL    HW137214   2.740   1.037   4.855 -0.8571  0.3333 -0.9530
 8584SOL    HW237215   2.682   1.108   4.973 -1.2616 -0.1668  0.2604
 8585SOL     OW37216   0.040   1.965   4.497  0.3780 -0.3359  0.2876
 8585SOL    HW137217   4.718   2.010   4.428 -1.7240 -0.4113  1.6999
 8585SOL    HW237218   0.090   2.042   4.524 -0.6542  0.9597 -1.5525
 8586SOL     OW37219   1.812   3.322  13.936  0.0792 -0.5314 -0.0970
 8586SOL    HW137220   1.868   3.245  13.946  1.0509  0.1027 -0.5287
 8586SOL    HW237221   1.772   3.314  13.849  0.6733  2.0704 -0.6126
 8587SOL     OW37222   1.397   0.305   2.782  0.1911 -0.3014 -0.1987
 8587SOL    HW137223   1.432   0.224   2.745 -2.9811 -2.0420  0.6488
 8587SOL    HW237224   1.377   0.292   2.875  0.3347 -3.1775 -0.5508
 8588SOL     OW37225   1.021   0.098  13.756 -0.1579  0.4215  0.3621
 8588SOL    HW137226   1.077   0.060  13.824 -1.7473  0.7020  1.8139
 8588SOL    HW237227   0.940   0.106  13.806 -1.3278 -0.2906 -1.4133
 8589SOL     OW37228   0.867   4.716  15.357  0.1115 -0.1361  0.0357
 8589SOL    HW137229   0.846   4.658  15.283  1.7941 -2.0926  1.0825
 8589SOL    HW237230   0.819   0.070  15.340  1.6724  0.8053  0.0731
 8590SOL     OW37231   4.321   0.048   4.376  0.0291 -0.0944 -0.0410
 8590SOL    HW137232   4.383   0.040   4.448 -1.7895  0.0070  1.5379
 8590SOL    HW237233   4.239   0.044   4.425  0.0667 -0.4828 -0.0076
 8591SOL     OW37234   0.871   1.585  13.337  0.1571 -0.4059 -0.4257
 8591SOL    HW137235   0.849   1.566  13.245  0.4187  1.0709 -0.7850
 8591SOL    HW237236   0.864   1.678  13.355 -0.5380  0.0680 -3.1309
 8592SOL     OW37237   1.457   3.554   2.585  0.5989  0.3685 -0.5211
 8592SOL    HW137238   1.495   3.546   2.673  0.0764 -1.0671 -0.4256
 8592SOL    HW237239   1.377   3.503   2.593 -0.4051  1.9121 -0.9315
 8593SOL     OW37240   4.465   4.386  17.600  0.0190  0.0219 -0.1865
 8593SOL    HW137241   4.488   4.302  17.561 -3.1432 -0.4437 -1.0964
 8593SOL    HW237242   4.536   4.400  17.663 -0.8147 -0.1041  0.7903
 8594SOL     OW37243   3.057   2.149   6.564  0.1772 -0.0009 -0.4221
 8594SOL    HW137244   3.149   2.130   6.550  0.0062 -0.0226 -1.4909
 8594SOL    HW237245   3.033   2.204   6.490  0.3696 -0.1212 -0.5733
 8595SOL     OW37246   4.636   3.664   3.221  0.0489 -0.6016  0.5513
 8595SOL    HW137247   4.582   3.626   3.153 -0.2721  1.5411 -0.3816
 8595SOL    HW237248   4.642   3.757   3.199  0.7621 -0.1980  2.4370
 8596SOL     OW37249   0.639   1.133   3.677 -0.2532  0.2608  0.5322
 8596SOL    HW137250   0.683   1.195   3.735  0.4233 -0.4508  0.7670
 8596SOL    HW237251   0.646   1.062   3.741 -1.3682 -0.8375 -0.5631
 8597SOL     OW37252   2.935   3.932   8.029  0.2069  0.1650 -0.3798
 8597SOL    HW137253   2.966   3.862   7.971 -1.3401 -0.4357 -0.4777
 8597SOL    HW237254   3.011   3.933   8.087  0.1282  0.0183 -0.2741
 8598SOL     OW37255   0.933   2.380   1.604 -0.3091 -0.0320  0.1504
 8598SOL    HW137256   0.932   2.474   1.624  0.5593 -0.1082  0.5811
 8598SOL    HW237257   1.019   2.355   1.638 -0.3465 -0.1653  0.1445
 8599SOL     OW37258   2.463   4.157   8.579  0.1684 -0.3905  0.4543
 8599SOL    HW137259   2.427   4.245   8.585 -0.9077 -0.8368  0.5681
 8599SOL    HW237260   2.556   4.177   8.587  0.4218  0.1459 -3.8333
 8600SOL     OW37261   2.316   4.700   7.588  0.2726  0.2268 -0.0133
 8600SOL    HW137262   2.362   4.669   7.666 -1.6654 -1.3717  0.4863
 8600SOL    HW237263   2.284   0.052   7.631 -1.8309 -0.4519 -0.3476
 8601SOL     OW37264   0.827   3.723  17.124 -0.2360 -0.1541  0.4735
 8601SOL    HW137265   0.731   3.729  17.132 -0.4916 -0.0469 -2.7296
 8601SOL    HW237266   0.823   3.633  17.092 -0.1812 -0.1191  0.3687
 8602SOL     OW37267   1.043   4.271   3.230 -0.5652  0.0259 -0.6146
 8602SOL    HW137268   1.019   4.246   3.319 -1.7872  0.7350 -0.7324
 8602SOL    HW237269   0.979   4.229   3.171 -0.5221 -1.4654  0.4172
 8603SOL     OW37270   4.686   3.807   6.048  0.2104  0.8566 -0.0118
 8603SOL    HW137271   4.592   3.813   6.060 -0.0509  1.7467 -2.5510
 8603SOL    HW237272   4.707   3.735   6.108 -1.9347  0.0536 -0.2373
 8604SOL     OW37273   1.765   3.186   2.616  0.1821 -0.1997 -0.1630
 8604SOL    HW137274   1.777   3.139   2.533  1.2048 -2.2514  1.1460
 8604SOL    HW237275   1.670   3.184   2.620  0.2917 -1.5248  1.6136
 8605SOL     OW37276   3.127   0.619   7.126 -0.0763 -0.3172 -0.5234
 8605SOL    HW137277   3.139   0.688   7.060 -1.9719  0.6287  0.1281
 8605SOL    HW237278   3.210   0.630   7.173  0.3738 -0.5916 -1.2467
 8606SOL     OW37279   3.967   3.352   7.124 -0.2519  0.4427  0.2705
 8606SOL    HW137280   3.909   3.365   7.049 -0.0696 -0.4947 -0.0309
 8606SOL    HW237281   4.024   3.281   7.097 -0.8844  0.4291 -1.0237
 8607SOL     OW37282   3.879   3.753  15.177 -0.0651 -0.2460  0.5267
 8607SOL    HW137283   3.833   3.677  15.140 -2.4514  1.2560  0.4031
 8607SOL    HW237284   3.894   3.739  15.271 -0.4887  0.1547  0.6509
 8608SOL     OW37285   4.491   2.974  11.712  0.2379 -0.1010 -0.2119
 8608SOL    HW137286   4.554   2.905  11.735  0.5542 -0.7319 -2.9558
 8608SOL    HW237287   4.530   3.051  11.752 -0.3716  0.4462 -0.6802
 8609SOL     OW37288   2.695   4.446   6.728  0.3392 -0.7032  0.5887
 8609SOL    HW137289   2.775   4.406   6.693 -0.2154  0.1904 -1.7314
 8609SOL    HW237290   2.707   4.432   6.822  1.6363  0.2363  0.5669
 8610SOL     OW37291   0.257   4.638   6.237 -0.3800 -0.1927 -0.2015
 8610SOL    HW137292   0.224   4.587   6.311  1.0544 -2.8281 -1.3507
 8610SOL    HW237293   0.325   4.578   6.204  0.5172  0.1629  1.0039
 8611SOL     OW37294   2.795   0.885   3.956 -0.7713 -0.3837  0.0725
 8611SOL    HW137295   2.717   0.844   3.920  0.0475 -1.3037 -0.6453
 8611SOL    HW237296   2.815   0.950   3.888 -3.0603 -3.2451 -3.3555
 8612SOL     OW37297   0.689   1.973   5.738 -0.0930 -0.6343  0.4541
 8612SOL    HW137298   0.775   2.015   5.746 -0.4878  0.0439  1.1431
 8612SOL    HW237299   0.649   1.992   5.823  1.5645  0.9434  0.8903
 8613SOL     OW37300   4.068   0.703   0.066 -0.0623  0.2237 -0.3785
 8613SOL    HW137301   4.024   0.618   0.072 -0.1425  0.3626  1.1791
 8613SOL    HW237302   4.080   0.704  17.678 -3.4526  0.4097 -0.8322
 8614SOL     OW37303   2.486   3.586  17.590 -0.1724 -0.4843 -0.8257
 8614SOL    HW137304   2.528   3.502  17.608 -0.2613 -0.3743 -0.0771
 8614SOL    HW237305   2.497   3.597  17.496  1.6444  2.4278 -0.2857
 8615SOL     OW37306   1.723   4.667  10.394 -0.4136  0.3640 -0.2844
 8615SOL    HW137307   1.752   4.714  10.316  1.7628  0.5662  0.6443
 8615SOL    HW237308   1.808   4.666  10.438 -0.9170  0.5755  0.6954
 8616SOL     OW37309   3.184   0.839  16.342  0.4562 -0.0450  0.1226
 8616SOL    HW137310   3.237   0.917  16.327  0.6384 -0.2141 -0.1151
 8616SOL    HW237311   3.131   0.873  16.415  0.0258 -2.6719  1.0517
 8617SOL     OW37312   2.571   2.061   3.886 -0.0102  0.3860 -0.0061
 8617SOL    HW137313   2.538   2.147   3.910  2.0501  0.9687  0.6913
 8617SOL    HW237314   2.574   2.075   3.791 -1.1527  1.5232  0.1286
 8618SOL     OW37315   4.626   2.678   5.441  0.2809  0.2143  0.4860
 8618SOL    HW137316   4.585   2.757   5.477 -1.7693 -1.2319  1.3390
 8618SOL    HW237317   4.718   2.693   5.462  0.1946  0.7756  0.4502
 8619SOL     OW37318   2.431   4.468   4.886  0.0755  0.2855 -0.6668
 8619SOL    HW137319   2.477   4.542   4.927 -0.9448 -0.7169  2.2494
 8619SOL    HW237320   2.506   4.413   4.862  0.2040 -0.8736  2.4089
 8620SOL     OW37321   1.408   0.976  17.022 -0.3275  0.7672 -0.3607
 8620SOL    HW137322   1.423   0.883  17.009  0.8628  0.6648  1.6805
 8620SOL    HW237323   1.383   0.993  16.932  0.7781  0.0011 -0.8052
 8621SOL     OW37324   0.436   1.312   4.368  0.4517 -0.6937  0.2645
 8621SOL    HW137325   0.461   1.295   4.459 -0.1738 -0.3342  0.4993
 8621SOL    HW237326   0.459   1.401   4.343 -1.6821 -0.1411  0.2414
 8622SOL     OW37327   0.955   0.573   8.888  0.3232  0.1109  0.4190
 8622SOL    HW137328   1.028   0.626   8.919 -1.4373  1.9465  1.4704
 8622SOL    HW237329   1.001   0.510   8.833 -0.1052 -0.4614  0.7248
 8623SOL     OW37330   0.549   0.859  12.286 -0.1272 -0.0562  0.3771
 8623SOL    HW137331   0.456   0.873  12.306 -0.5324  0.1980 -1.6268
 8623SOL    HW237332   0.593   0.937  12.319 -1.2500  1.0412 -0.6797
 8624SOL     OW37333   3.914   2.169  15.059 -0.1586  0.3208  0.0643
 8624SOL    HW137334   3.978   2.117  15.107 -0.0720 -0.5183 -0.9624
 8624SOL    HW237335   3.884   2.120  14.982 -1.3290  1.0635  0.0429
 8625SOL     OW37336   2.019   3.856   9.074  1.0034 -0.0868  0.7323
 8625SOL    HW137337   2.058   3.771   9.095 -1.4923 -0.9911  1.7673
 8625SOL    HW237338   1.927   3.840   9.095  1.5393 -0.6215  2.6942
 8626SOL     OW37339   1.929   0.342   7.791 -0.3193 -0.4256 -0.0516
 8626SOL    HW137340   1.945   0.268   7.732  0.4627  0.5848 -1.0990
 8626SOL    HW237341   1.880   0.297   7.860  0.2003 -1.0983 -0.1194
 8627SOL     OW37342   3.939   4.421   6.200 -0.3721 -0.2080 -0.2344
 8627SOL    HW137343   3.863   4.376   6.163 -0.4921  0.6145 -0.9785
 8627SOL    HW237344   3.964   4.366   6.275 -3.5505  1.1160  1.8023
 8628SOL     OW37345   0.064   1.259   8.419 -0.0765  0.3669 -0.0146
 8628SOL    HW137346   0.016   1.180   8.444 -2.1191  1.4732 -0.3493
 8628SOL    HW237347   0.008   1.288   8.347 -1.2845 -1.6128  0.1010
 8629SOL     OW37348   2.929   1.294   3.586 -0.2378  0.1923  0.4462
 8629SOL    HW137349   2.963   1.262   3.502  0.7687  0.9636  0.5587
 8629SOL    HW237350   2.847   1.339   3.569 -0.2167  0.8400  2.1024
 8630SOL     OW37351   0.767   3.249   3.256  0.1014 -0.0069 -0.1638
 8630SOL    HW137352   0.694   3.186   3.257 -0.8821  1.1334 -0.7721
 8630SOL    HW237353   0.740   3.304   3.330 -0.1167  0.4769 -0.6064
 8631SOL     OW37354   0.599   3.410   2.655  0.4431  0.4410  0.6989
 8631SOL    HW137355   0.568   3.322   2.676 -0.0197  0.3277 -0.4353
 8631SOL    HW237356   0.684   3.399   2.613 -0.5488  1.4217 -1.6105
 8632SOL     OW37357   1.418   2.184   8.606  0.4957 -0.1392  0.2746
 8632SOL    HW137358   1.439   2.225   8.690  0.4723  2.8232 -1.1705
 8632SOL    HW237359   1.323   2.175   8.615  0.4669 -1.7966 -1.7102
 8633SOL     OW37360   2.836   2.957   2.785  0.4890 -0.0193 -0.6885
 8633SOL    HW137361   2.837   2.970   2.690  0.1624 -1.1529 -0.8431
 8633SOL    HW237362   2.744   2.938   2.797  0.5281 -1.2964 -2.4452
 8634SOL     OW37363   0.798   1.888   3.327 -0.0490  0.0843  0.5059
 8634SOL    HW137364   0.719   1.879   3.381 -0.3340  1.5684  0.3416
 8634SOL    HW237365   0.865   1.847   3.380 -0.1467  0.2791  0.7769
 8635SOL     OW37366   1.851   0.141   5.572  0.2778 -0.1379  0.0375
 8635SOL    HW137367   1.795   0.121   5.648  3.3396 -0.6982  2.1610
 8635SOL    HW237368   1.794   0.120   5.498 -2.3185  1.3989  1.5817
 8636SOL     OW37369   1.484   2.647  11.160  0.2574  0.5466 -0.5508
 8636SOL    HW137370   1.468   2.604  11.076  0.7231 -1.2116  0.2639
 8636SOL    HW237371   1.435   2.728  11.148  0.0168  0.3398 -0.9578
 8637SOL     OW37372   4.383   1.065   3.069  0.1043  1.0780  0.6293
 8637SOL    HW137373   4.346   1.143   3.109  2.2994  2.1697  0.5533
 8637SOL    HW237374   4.388   1.010   3.147  0.0162  1.2553  0.7594
 8638SOL     OW37375   2.874   0.827  10.711 -0.2365  0.4863 -0.0229
 8638SOL    HW137376   2.850   0.896  10.772  0.5837 -1.1839  2.1667
 8638SOL    HW237377   2.967   0.831  10.688 -0.4775  1.1122 -0.9133
 8639SOL     OW37378   2.415   0.583  11.801 -0.0272  0.2695  0.2374
 8639SOL    HW137379   2.453   0.657  11.754 -0.6784  0.9192  0.7410
 8639SOL    HW237380   2.372   0.616  11.879 -1.2664  0.2360 -0.4306
 8640SOL     OW37381   0.052   3.700   7.343  0.1190  0.5460 -0.3227
 8640SOL    HW137382   0.050   3.708   7.247 -1.8423  0.1565 -0.3044
 8640SOL    HW237383   4.693   3.659   7.355  0.0172 -0.0770 -2.9898
 8641SOL     OW37384   4.098   2.656   7.524  0.1598 -0.0624  0.6770
 8641SOL    HW137385   4.084   2.573   7.569 -0.1715 -1.2128 -1.5296
 8641SOL    HW237386   4.188   2.641   7.495 -0.5600 -1.4102 -0.8857
 8642SOL     OW37387   3.342   1.685   0.393  0.2366  0.4832  0.0589
 8642SOL    HW137388   3.377   1.698   0.482  1.1384 -1.3216 -0.0302
 8642SOL    HW237389   3.265   1.742   0.399 -0.8541 -1.1695  1.7018
 8643SOL     OW37390   0.326   1.224   1.315  0.0400 -0.2071 -0.4396
 8643SOL    HW137391   0.277   1.240   1.234 -1.6608  0.2022  0.6826
 8643SOL    HW237392   0.387   1.297   1.323  0.0755 -0.2324 -0.4784
 8644SOL     OW37393   2.751   3.488   3.383  0.0581 -0.0638  0.0696
 8644SOL    HW137394   2.842   3.476   3.406  1.0835  1.9225 -2.8371
 8644SOL    HW237395   2.726   3.402   3.350  0.7774 -0.6147  1.0142
 8645SOL     OW37396   4.685   0.402   4.748 -0.1463 -0.2061  0.5637
 8645SOL    HW137397   0.049   0.426   4.770 -0.4224  1.0035  0.4197
 8645SOL    HW237398   4.647   0.370   4.829 -1.7273 -1.1593 -0.5652
 8646SOL     OW37399   1.662   0.626   0.680 -0.1752 -0.0493 -0.4868
 8646SOL    HW137400   1.614   0.673   0.612 -1.4706 -0.9020 -0.1588
 8646SOL    HW237401   1.731   0.590   0.626  0.3994 -0.3504  0.4420
 8647SOL     OW37402   1.330   4.496   6.074 -0.1753 -0.0386 -0.2411
 8647SOL    HW137403   1.360   4.459   6.158  2.0866  0.2990 -0.8999
 8647SOL    HW237404   1.392   4.566   6.056  1.4438 -0.7935  2.3233
 8648SOL     OW37405   3.162   1.194   8.694 -0.1526  0.5231  0.1459
 8648SOL    HW137406   3.138   1.137   8.767 -0.3993 -0.1960 -0.4950
 8648SOL    HW237407   3.257   1.205   8.700 -0.2958  1.0548  1.5227
 8649SOL     OW37408   3.212   2.934   9.555  0.0447 -0.3407  0.0620
 8649SOL    HW137409   3.226   2.897   9.467  0.8999 -0.3497  0.2012
 8649SOL    HW237410   3.121   2.937   9.582  0.3254  0.1277  0.9644
 8650SOL     OW37411   1.169   1.440   2.520  0.0636 -0.0089  0.0415
 8650SOL    HW137412   1.223   1.373   2.563  0.7331 -0.7361 -1.8870
 8650SOL    HW237413   1.167   1.408   2.429 -0.5844 -2.1306  0.7991
 8651SOL     OW37414   4.444   3.482   3.084  0.1715  0.1850 -0.2503
 8651SOL    HW137415   4.452   3.535   3.005 -0.2398  0.1585 -0.3061
 8651SOL    HW237416   4.351   3.494   3.102  0.1459  0.0641 -0.2977
 8652SOL     OW37417   1.025   2.866   3.037  0.4105 -0.1962  0.2602
 8652SOL    HW137418   1.020   2.915   2.955 -0.3133  2.1425  1.6938
 8652SOL    HW237419   1.009   2.939   3.097  0.9599  0.8786 -0.8977
 8653SOL     OW37420   4.131   3.668  12.108 -0.4853  0.1927 -0.3916
 8653SOL    HW137421   4.100   3.755  12.136 -0.5846  0.0017  0.0967
 8653SOL    HW237422   4.064   3.629  12.052  0.4962 -2.3699  0.2285
 8654SOL     OW37423   3.450   2.284   2.466  0.3122 -0.7013  0.5552
 8654SOL    HW137424   3.356   2.263   2.464  0.1626  0.1401 -1.9188
 8654SOL    HW237425   3.474   2.240   2.384 -1.1987 -0.4680 -0.0177
 8655SOL     OW37426   3.102   3.877   2.574 -0.1222 -0.5455 -0.4153
 8655SOL    HW137427   3.191   3.904   2.552  0.7680 -2.0762  1.2791
 8655SOL    HW237428   3.102   3.899   2.667 -0.0403 -1.4806 -0.1901
 8656SOL     OW37429   0.221   4.495  13.765 -0.8691 -0.1787 -0.0105
 8656SOL    HW137430   0.256   4.550  13.834  2.2187 -0.2462 -1.5249
 8656SOL    HW237431   0.220   4.408  13.805 -1.7652  0.1967  0.7738
 8657SOL     OW37432   4.436   3.157  16.888  0.5357 -1.2202  0.1107
 8657SOL    HW137433   4.525   3.177  16.858 -0.9924 -0.1578 -3.7247
 8657SOL    HW237434   4.450   3.065  16.909 -1.3701 -1.5315 -0.0020
 8658SOL     OW37435   0.131   1.854  17.461 -0.8923  0.3458  0.2435
 8658SOL    HW137436   0.066   1.852  17.391 -1.2702  1.4990  0.5527
 8658SOL    HW237437   0.195   1.794  17.425 -1.7213  1.6496 -3.4534
 8659SOL     OW37438   4.005   2.816  14.552 -0.0403 -0.4512 -0.1068
 8659SOL    HW137439   4.080   2.871  14.529  0.9763 -1.7491  0.0891
 8659SOL    HW237440   3.937   2.867  14.595  0.1780 -0.4191  0.2005
 8660SOL     OW37441   1.584   3.489  12.387 -0.5188 -0.3644 -0.9117
 8660SOL    HW137442   1.610   3.548  12.316  2.3225 -1.3850 -0.7116
 8660SOL    HW237443   1.631   3.534  12.457 -1.6214  1.0974 -1.1099
 8661SOL     OW37444   3.167   2.502   4.037  0.2804 -0.1591 -0.2489
 8661SOL    HW137445   3.170   2.413   4.073  1.0092 -0.2962 -0.6463
 8661SOL    HW237446   3.177   2.490   3.943 -0.9920 -1.6570 -0.1977
 8662SOL     OW37447   3.908   1.491  10.101  0.3911 -0.3778  0.0443
 8662SOL    HW137448   3.989   1.482  10.051  0.2184 -1.4823 -0.0288
 8662SOL    HW237449   3.927   1.573  10.146  1.8568 -1.6067  1.6082
 8663SOL     OW37450   3.481   0.291  16.001 -0.2132  0.1521 -0.0130
 8663SOL    HW137451   3.537   0.283  15.924  1.8259 -2.8956  1.8071
 8663SOL    HW237452   3.441   0.376  15.982 -3.3101 -0.4768  3.6739
 8664SOL     OW37453   3.539   0.656   3.009  0.9965  0.2772  0.1985
 8664SOL    HW137454   3.505   0.624   3.092  0.0482 -2.0460 -1.0769
 8664SOL    HW237455   3.566   0.570   2.977 -1.7517 -1.0247  1.3541
 8665SOL     OW37456   0.019   1.764   2.397  0.9220 -0.6988  0.0243
 8665SOL    HW137457   4.664   1.718   2.415  0.9450 -0.3178  1.1114
 8665SOL    HW237458   0.073   1.711   2.455 -0.1689 -1.0628  0.7028
 8666SOL     OW37459   2.536   3.572  15.880  0.4175  0.1291  0.1839
 8666SOL    HW137460   2.581   3.519  15.813 -0.0181  2.3367 -1.8497
 8666SOL    HW237461   2.603   3.638  15.892 -0.2881  1.1561 -1.5398
 8667SOL     OW37462   4.162   3.188  14.841  0.4400 -0.7316  0.1290
 8667SOL    HW137463   4.253   3.215  14.848  0.2433 -0.2965  0.9844
 8667SOL    HW237464   4.161   3.097  14.872 -0.3298 -0.1332  1.8955
 8668SOL     OW37465   3.058   0.137   1.452  0.1609 -0.2592 -0.4559
 8668SOL    HW137466   3.097   0.084   1.382  1.7126 -0.4061  0.5319
 8668SOL    HW237467   2.974   0.157   1.411  0.3780  1.6187  0.0090
 8669SOL     OW37468   1.322   4.188  12.386 -0.1542  0.1028  0.2305
 8669SOL    HW137469   1.296   4.166  12.297 -2.4548 -0.0037  0.9069
 8669SOL    HW237470   1.334   4.101  12.424 -2.2870 -0.6304 -0.7507
 8670SOL     OW37471   3.814   0.392  16.376 -0.1993  0.0455 -0.4333
 8670SOL    HW137472   3.799   0.299  16.363 -2.3124  0.3686 -0.3278
 8670SOL    HW237473   3.824   0.426  16.287  0.0914 -1.4581 -0.9706
 8671SOL     OW37474   1.374   4.093   4.001  0.5145  0.4072  0.3650
 8671SOL    HW137475   1.381   4.179   4.042  1.9060 -0.0881  1.1761
 8671SOL    HW237476   1.384   4.036   4.076 -0.4458  0.7686  0.7738
 8672SOL     OW37477   1.777   4.601   8.975 -0.5786 -0.5580  0.2177
 8672SOL    HW137478   1.710   4.665   8.951 -1.5196 -1.2699  0.9720
 8672SOL    HW237479   1.779   4.545   8.898 -0.1168  0.3185 -0.4140
 8673SOL     OW37480   1.691   3.224   9.038 -0.1109 -0.4932 -0.1431
 8673SOL    HW137481   1.625   3.158   9.017 -2.0649  0.5752  2.6121
 8673SOL    HW237482   1.666   3.292   8.975  0.2805 -0.8110 -0.6447
 8674SOL     OW37483   0.844   0.867   7.350  0.5822 -0.5189  0.0258
 8674SOL    HW137484   0.912   0.932   7.337 -0.6067  0.5899 -0.7045
 8674SOL    HW237485   0.796   0.877   7.268 -0.6874 -0.3715  0.7879
 8675SOL     OW37486   3.704   3.567   7.885 -0.5294  0.1175  0.3229
 8675SOL    HW137487   3.754   3.626   7.940  0.2776 -0.9615  0.7373
 8675SOL    HW237488   3.755   3.487   7.892 -0.6190 -0.0909 -1.2543
 8676SOL     OW37489   2.985   0.087  13.582  0.2413 -0.0944 -0.2613
 8676SOL    HW137490   3.005   0.004  13.539  0.0177  0.6524 -1.8047
 8676SOL    HW237491   2.891   0.088  13.561  0.1764 -1.6473 -0.0736
 8677SOL     OW37492   3.088   3.858   7.109  0.8094 -0.0686  0.1274
 8677SOL    HW137493   3.131   3.861   7.194  2.0615  1.2922 -0.5694
 8677SOL    HW237494   3.155   3.871   7.042  0.1900  2.5072  0.0146
 8678SOL     OW37495   0.345   2.163   8.611  0.4138 -0.3149  0.1806
 8678SOL    HW137496   0.331   2.080   8.565 -0.7181  0.6474 -1.2008
 8678SOL    HW237497   0.264   2.174   8.661  0.0948  0.8993 -0.6262
 8679SOL     OW37498   1.199   0.769   8.999 -0.2830 -0.0287 -0.3499
 8679SOL    HW137499   1.190   0.865   9.001 -0.0981 -0.0346  1.0121
 8679SOL    HW237500   1.277   0.752   9.052 -0.6615 -1.9689 -0.4387
 8680SOL     OW37501   0.213   2.620   2.913 -0.2515 -0.6459 -0.0933
 8680SOL    HW137502   0.174   2.597   2.997 -1.6095 -0.5124 -0.6816
 8680SOL    HW237503   0.280   2.552   2.906 -0.2200 -0.4793 -1.3998
 8681SOL     OW37504   2.447   2.317  16.377 -0.2873 -0.0464  0.2205
 8681SOL    HW137505   2.524   2.373  16.370 -0.3029 -0.0199  0.2658
 8681SOL    HW237506   2.447   2.314  16.472 -2.4370  0.1684  0.2307
 8682SOL     OW37507   4.528   0.227   6.417  0.2447 -0.1970 -0.4595
 8682SOL    HW137508   4.565   0.139   6.427  1.7243  0.7982  2.9312
 8682SOL    HW237509   4.556   0.270   6.498 -3.3342 -1.1246  1.2822
 8683SOL     OW37510   4.294   1.909   1.860 -0.0720  0.0794  0.7161
 8683SOL    HW137511   4.274   1.820   1.833  1.8475  0.7408 -2.9319
 8683SOL    HW237512   4.304   1.961   1.780 -0.7676  0.3343  0.7974
 8684SOL     OW37513   3.873   4.724   0.840  0.6440  0.4052  0.1950
 8684SOL    HW137514   3.968   4.711   0.834  0.5268  0.0395 -0.8002
 8684SOL    HW237515   3.851   4.676   0.920 -0.4052  0.6529  0.0544
 8685SOL     OW37516   4.647   2.896   3.451 -0.3047 -0.3331  0.3159
 8685SOL    HW137517   4.677   2.973   3.499  0.5389 -0.0461 -0.6721
 8685SOL    HW237518   4.576   2.926   3.395 -0.7667  0.6518  1.4362
 8686SOL     OW37519   0.657   3.672   2.735 -0.2444  0.0858  0.5725
 8686SOL    HW137520   0.663   3.595   2.677 -0.4201  0.5270 -0.0240
 8686SOL    HW237521   0.685   3.740   2.674  0.6135  1.8264  2.9303
 8687SOL     OW37522   0.373   2.694  10.000 -0.3594 -0.1924 -0.5751
 8687SOL    HW137523   0.287   2.654   9.984 -1.0007  0.8225  0.3573
 8687SOL    HW237524   0.423   2.627  10.046 -1.0844 -1.2023 -1.2382
 8688SOL     OW37525   3.953   2.166   5.081  0.4334  0.3782  0.2037
 8688SOL    HW137526   3.861   2.190   5.083 -0.0969 -1.5857 -0.2850
 8688SOL    HW237527   3.963   2.124   5.166  0.7233  1.3985  0.6742
 8689SOL     OW37528   2.262   4.312   2.384  0.3475 -0.2167  0.2975
 8689SOL    HW137529   2.280   4.292   2.293 -2.4228  2.2329 -0.7851
 8689SOL    HW237530   2.316   4.389   2.398 -0.3807  0.4215 -0.4388
 8690SOL     OW37531   1.202   2.709   2.276  0.3257  0.3755  0.3258
 8690SOL    HW137532   1.185   2.764   2.200  1.9033  0.1431 -0.1946
 8690SOL    HW237533   1.196   2.626   2.228 -1.8023  0.4824  0.4191
 8691SOL     OW37534   2.526   3.424   8.204  0.1154  0.1033 -0.5191
 8691SOL    HW137535   2.577   3.378   8.270  0.7050  1.0878 -0.2834
 8691SOL    HW237536   2.477   3.345   8.182 -1.8309  1.1545 -0.0076
 8692SOL     OW37537   1.018   0.884   2.501 -0.1581  0.7786 -0.0308
 8692SOL    HW137538   0.954   0.815   2.518  0.9615 -1.1482 -3.4955
 8692SOL    HW237539   1.055   0.847   2.420  0.1721 -1.8275  1.3026
 8693SOL     OW37540   3.001   4.296   8.590  0.4445  0.8053 -0.3899
 8693SOL    HW137541   3.031   4.210   8.559  2.5505  0.8350  1.5919
 8693SOL    HW237542   3.075   4.325   8.644  0.3216 -0.1500  0.2878
 8694SOL     OW37543   2.417   0.485   1.584  0.0435  0.6419 -0.0551
 8694SOL    HW137544   2.441   0.514   1.672 -1.0697 -0.1014  0.5020
 8694SOL    HW237545   2.325   0.462   1.598  0.2200  0.4356  0.7513
 8695SOL     OW37546   3.783   0.342   2.068  0.5076  0.4187  0.3324
 8695SOL    HW137547   3.830   0.270   2.110  0.6967  0.6371  0.4943
 8695SOL    HW237548   3.713   0.358   2.132 -0.9761 -2.5277 -0.5723
 8696SOL     OW37549   1.163   2.796   6.328  0.0990 -0.7939 -0.6377
 8696SOL    HW137550   1.128   2.716   6.290 -1.2756 -0.6330  0.2906
 8696SOL    HW237551   1.083   2.850   6.332 -0.9361 -2.5556  2.6062
 8697SOL     OW37552   0.835   2.099   4.997  0.6318  0.1202 -0.4601
 8697SOL    HW137553   0.878   2.164   5.053 -1.9149  1.2578  0.1842
 8697SOL    HW237554   0.795   2.158   4.933  1.8946  0.5120 -0.8737
 8698SOL     OW37555   3.603   4.528  17.646  0.0852  0.0736 -0.0015
 8698SOL    HW137556   3.661   4.543  17.571 -1.0620  2.0721 -0.5155
 8698SOL    HW237557   3.659   4.541   0.016  1.8080 -1.4370 -1.0192
 8699SOL     OW37558   3.133   0.252   7.544  0.4115 -0.4035 -0.1301
 8699SOL    HW137559   3.043   0.250   7.578  0.4263 -0.3485 -0.0889
 8699SOL    HW237560   3.181   0.237   7.626  2.4626  1.6069 -0.9862
 8700SOL     OW37561   3.656   4.510   9.351 -0.4373  0.6116 -0.5613
 8700SOL    HW137562   3.599   4.434   9.342  2.1874 -1.3364 -0.8610
 8700SOL    HW237563   3.722   4.460   9.398 -1.1266 -2.8514 -3.2819
 8701SOL     OW37564   1.833   0.179   7.124  0.4512  0.1254  0.1038
 8701SOL    HW137565   1.882   0.196   7.043  0.1332 -0.3151 -0.1863
 8701SOL    HW237566   1.809   0.270   7.142 -1.5815 -0.1810 -0.9900
 8702SOL     OW37567   3.159   1.857   0.929 -0.2999 -0.2117  0.1506
 8702SOL    HW137568   3.248   1.824   0.919  0.5750  2.3804 -0.5490
 8702SOL    HW237569   3.177   1.896   1.015 -0.9883 -0.9506  0.6303
 8703SOL     OW37570   1.253   3.878  13.525  0.0796  0.1299 -0.1134
 8703SOL    HW137571   1.285   3.804  13.577  2.6539  1.5560  0.3022
 8703SOL    HW237572   1.239   3.950  13.586  0.8108 -0.6800  1.0127
 8704SOL     OW37573   1.580   0.348   9.292 -0.1860 -0.3738  0.1390
 8704SOL    HW137574   1.520   0.390   9.230 -0.1873  1.4591  1.3659
 8704SOL    HW237575   1.638   0.418   9.321  1.4905 -0.4031 -3.2331
 8705SOL     OW37576   1.014   4.693  13.501 -0.5461  0.1511 -0.2279
 8705SOL    HW137577   1.018   0.017  13.583 -0.7251  0.3594 -0.3454
 8705SOL    HW237578   0.968   4.619  13.539 -1.4861  1.7012  1.6754
 8706SOL     OW37579   0.542   4.222   0.413  0.0466 -0.1104 -0.2117
 8706SOL    HW137580   0.544   4.126   0.408 -0.0979  0.1217 -4.8718
 8706SOL    HW237581   0.513   4.240   0.502 -1.3771 -0.7692 -0.5378
 8707SOL     OW37582   1.174   3.758   2.772  0.5318 -0.0513 -0.5752
 8707SOL    HW137583   1.247   3.819   2.761  2.9160 -2.6504  0.8841
 8707SOL    HW237584   1.102   3.811   2.737  2.1187  2.3107 -0.3136
 8708SOL     OW37585   0.301   0.230   3.839 -0.0635 -0.5451 -0.4948
 8708SOL    HW137586   0.247   0.308   3.829  0.8504 -0.2188 -2.9822
 8708SOL    HW237587   0.246   0.154   3.819  0.5704 -1.0246 -0.4088
 8709SOL     OW37588   0.189   0.681   5.811  0.0723 -0.4302  0.5566
 8709SOL    HW137589   0.108   0.707   5.766  0.1554 -1.6331 -0.3008
 8709SOL    HW237590   0.250   0.696   5.739  1.3377  0.7365  1.8827
 8710SOL     OW37591   1.116   2.793  12.318  0.0825 -0.5088 -0.6119
 8710SOL    HW137592   1.042   2.774  12.261 -0.1891 -1.3439  0.0179
 8710SOL    HW237593   1.189   2.747  12.276 -1.4201 -2.3321 -1.1967
 8711SOL     OW37594   1.738   0.637   8.698  0.4196  0.5110 -0.1636
 8711SOL    HW137595   1.666   0.692   8.729  0.1607  1.3443 -2.2320
 8711SOL    HW237596   1.782   0.691   8.633 -1.6677  1.8577 -0.4856
 8712SOL     OW37597   4.562   3.944  16.765 -0.2627 -0.3735  0.5017
 8712SOL    HW137598   4.470   3.931  16.741  0.4005  0.3395 -2.4870
 8712SOL    HW237599   4.610   3.864  16.786  4.1900  1.8046 -1.4014
 8713SOL     OW37600   3.360   1.644  10.211 -0.5565  0.3826  0.6651
 8713SOL    HW137601   3.286   1.588  10.187  1.1252 -1.5604  0.0418
 8713SOL    HW237602   3.314   1.721  10.244  2.4941  2.0355  1.0628
 8714SOL     OW37603   2.922   3.112   4.387 -0.1565  0.5603 -0.7242
 8714SOL    HW137604   2.857   3.154   4.330 -1.4324 -0.3685  0.0452
 8714SOL    HW237605   2.999   3.138   4.337  0.3751 -0.8757 -0.6514
 8715SOL     OW37606   3.741   0.224   6.220  0.0009  0.7012  0.2253
 8715SOL    HW137607   3.723   0.250   6.130  1.6719 -0.7999 -0.5528
 8715SOL    HW237608   3.806   0.153   6.215  0.9090  1.4211  1.7874
 8716SOL     OW37609   2.970   1.902   0.726 -0.0414 -0.6068  1.1896
 8716SOL    HW137610   2.897   1.861   0.772 -2.0466  0.6527 -0.8419
 8716SOL    HW237611   3.044   1.869   0.776  0.0355 -2.6079 -0.2510
 8717SOL     OW37612   3.441   2.671   9.481  0.3218 -0.4969  0.3068
 8717SOL    HW137613   3.435   2.576   9.486  0.2686 -0.5010  0.1515
 8717SOL    HW237614   3.397   2.690   9.564  0.8716 -0.5034  0.6047
 8718SOL     OW37615   2.783   1.362   4.997  0.1139  0.2292  0.5023
 8718SOL    HW137616   2.871   1.372   4.962  0.3004 -1.8192  0.4053
 8718SOL    HW237617   2.725   1.336   4.925  1.6938  0.3261 -0.7910
 8719SOL     OW37618   1.725   2.737   2.247  0.9360 -0.2088  0.2330
 8719SOL    HW137619   1.753   2.800   2.181 -2.6495  0.4739 -0.6722
 8719SOL    HW237620   1.727   2.789   2.327  0.9983  0.6101 -0.2990
 8720SOL     OW37621   2.990   0.892   6.035 -0.2181 -0.0039 -0.1578
 8720SOL    HW137622   3.045   0.825   6.075  1.0066  0.7057 -0.6681
 8720SOL    HW237623   3.050   0.966   6.027 -1.3714  0.7522 -1.8516
 8721SOL     OW37624   2.678   4.685   1.159 -0.1286 -0.1533 -0.3686
 8721SOL    HW137625   2.616   4.614   1.173  1.9139 -1.3438  2.4410
 8721SOL    HW237626   2.698   4.675   1.066  1.5377  0.0935 -0.0392
 8722SOL     OW37627   3.370   3.709   3.183 -0.1467 -0.0325 -0.6417
 8722SOL    HW137628   3.283   3.748   3.182  0.7582  2.0180 -0.2480
 8722SOL    HW237629   3.398   3.745   3.099 -0.2709  0.8366 -0.3201
 8723SOL     OW37630   0.565   4.240   7.003  0.0304  0.1422 -0.2779
 8723SOL    HW137631   0.605   4.174   7.060  1.6635  1.6774  0.3859
 8723SOL    HW237632   0.513   4.179   6.952  1.3255 -0.8463 -0.4252
 8724SOL     OW37633   3.130   2.463   4.961 -0.2553  0.2295  0.0476
 8724SOL    HW137634   3.174   2.539   4.923  0.3795  0.6085  1.5347
 8724SOL    HW237635   3.075   2.427   4.892 -0.4239  0.3124  0.1380
 8725SOL     OW37636   1.895   3.471  10.885 -0.5316 -0.6197 -0.5510
 8725SOL    HW137637   1.936   3.429  10.809  1.1704  2.4269 -1.3372
 8725SOL    HW237638   1.970   3.524  10.912  1.0546 -2.2219 -1.7843
 8726SOL     OW37639   2.436   4.350   0.538  0.3341 -0.0187 -0.3076
 8726SOL    HW137640   2.416   4.403   0.615 -2.5423 -0.0446 -1.0244
 8726SOL    HW237641   2.531   4.353   0.536  0.2865  3.9821  3.7277
 8727SOL     OW37642   0.648   2.461   2.529 -0.1446  0.4311  0.5686
 8727SOL    HW137643   0.666   2.493   2.617  1.5274 -5.7605  2.4914
 8727SOL    HW237644   0.675   2.537   2.477  0.1981 -1.2071 -1.6431
 8728SOL     OW37645   0.357   3.794   6.768 -0.1298 -0.2151 -0.4181
 8728SOL    HW137646   0.437   3.838   6.741  0.8712 -0.9265  1.4209
 8728SOL    HW237647   0.379   3.747   6.848 -1.9379  0.7470  0.6482
 8729SOL     OW37648   2.537   3.322   2.704 -0.0758 -0.4336 -0.0426
 8729SOL    HW137649   2.446   3.350   2.716  0.2107  1.0192 -1.1752
 8729SOL    HW237650   2.580   3.402   2.734  0.1045 -0.4325 -0.3050
 8730SOL     OW37651   4.051   1.836   7.302 -0.4203  0.0607 -0.3507
 8730SOL    HW137652   3.989   1.906   7.324 -0.5538  0.5178 -2.1236
 8730SOL    HW237653   4.118   1.881   7.250 -0.3554  0.0650 -0.2636
 8731SOL     OW37654   0.362   1.511  12.804 -0.7180  0.1137 -0.8817
 8731SOL    HW137655   0.279   1.552  12.826 -2.4140 -2.7972 -1.8673
 8731SOL    HW237656   0.334   1.455  12.732 -0.6579  2.1102 -2.4269
 8732SOL     OW37657   2.445   1.910  10.885  0.3127  0.7019  0.5302
 8732SOL    HW137658   2.390   1.957  10.822  0.1953  1.0880  0.9228
 8732SOL    HW237659   2.441   1.821  10.851  1.2482  0.6736  0.4999
 8733SOL     OW37660   2.009   4.248  17.069  0.5541  0.7999  0.3078
 8733SOL    HW137661   2.080   4.281  17.124 -0.7079  0.8892  1.8634
 8733SOL    HW237662   2.000   4.163  17.111 -2.0395  0.4517 -0.9875
 8734SOL     OW37663   2.773   1.745   7.915 -0.4133 -0.8190  0.1696
 8734SOL    HW137664   2.790   1.712   7.827  0.7806  1.0193 -0.2813
 8734SOL    HW237665   2.858   1.783   7.940 -0.6636  0.9084 -1.6919
 8735SOL     OW37666   0.397   1.663   6.663 -0.2188 -0.1655  0.2290
 8735SOL    HW137667   0.302   1.665   6.654 -0.3270  0.5364  1.4871
 8735SOL    HW237668   0.423   1.693   6.576 -0.5807 -0.8983 -0.1332
 8736SOL     OW37669   2.533   3.625   5.188  0.2760  0.1227  0.0095
 8736SOL    HW137670   2.515   3.592   5.275 -0.1266 -0.7675 -0.4137
 8736SOL    HW237671   2.451   3.594   5.149 -1.1407  0.3378  2.8719
 8737SOL     OW37672   4.348   4.435   5.502 -0.5107  0.5351 -0.2936
 8737SOL    HW137673   4.364   4.519   5.545  2.7733  0.7394 -1.8541
 8737SOL    HW237674   4.341   4.470   5.413  0.0946  1.6888  0.1124
 8738SOL     OW37675   3.817   2.839   6.519 -0.3212  0.5037 -0.0614
 8738SOL    HW137676   3.770   2.910   6.476 -3.5975 -1.4414  0.3660
 8738SOL    HW237677   3.743   2.779   6.519 -1.2280  1.6332  0.3730
 8739SOL     OW37678   0.944   4.537  15.554 -0.6310  0.2042 -0.2951
 8739SOL    HW137679   0.896   4.598  15.499 -3.0068 -1.0318  0.3987
 8739SOL    HW237680   0.994   4.501  15.481 -0.5330  0.4247 -0.3386
 8740SOL     OW37681   3.451   3.378   2.319 -0.0452 -0.1332 -0.1096
 8740SOL    HW137682   3.528   3.339   2.362 -0.3092  1.5978  1.9108
 8740SOL    HW237683   3.384   3.372   2.386 -1.0019 -1.2824 -1.1551
 8741SOL     OW37684   0.641   1.497   1.787 -0.3393  0.4338 -0.0370
 8741SOL    HW137685   0.627   1.426   1.851 -2.4348 -0.7188 -1.7854
 8741SOL    HW237686   0.579   1.558   1.827  0.8355  0.7102  1.3834
 8742SOL     OW37687   3.235   0.794   3.632  1.1567 -0.0943  0.1189
 8742SOL    HW137688   3.296   0.772   3.562 -1.6780 -1.4680 -1.9009
 8742SOL    HW237689   3.236   0.890   3.625 -0.5978  0.0015  0.9855
 8743SOL     OW37690   2.469   3.971   4.059  0.4328  0.9170  0.1869
 8743SOL    HW137691   2.451   4.032   3.988 -1.8700 -0.4636 -0.4160
 8743SOL    HW237692   2.379   3.960   4.091 -0.3547 -2.1219 -2.9763
 8744SOL     OW37693   2.006   0.145   3.186 -0.4961 -0.6355 -0.2870
 8744SOL    HW137694   2.020   0.051   3.190  0.4478 -0.5387 -1.3885
 8744SOL    HW237695   1.951   0.152   3.264  0.7571  0.9091  0.4376
 8745SOL     OW37696   3.021   1.611   7.440  0.6692  0.8168 -0.6251
 8745SOL    HW137697   3.070   1.533   7.469  0.1308 -0.3892 -2.9784
 8745SOL    HW237698   3.092   1.662   7.400  2.4306 -0.7548  0.4401
 8746SOL     OW37699   1.416   0.736  16.567  0.0339  0.6018 -0.0357
 8746SOL    HW137700   1.447   0.698  16.484  0.1358 -1.1724  0.8150
 8746SOL    HW237701   1.333   0.694  16.589  1.5383 -1.2062  2.1489
 8747SOL     OW37702   3.776   0.004   1.663 -0.0869 -0.2768  0.2500
 8747SOL    HW137703   3.768   0.030   1.571 -0.9046  0.3538  0.5036
 8747SOL    HW237704   3.761   0.084   1.712 -0.9174 -0.3646  0.1389
 8748SOL     OW37705   3.748   3.573   7.535 -0.0108 -0.4981 -0.4094
 8748SOL    HW137706   3.828   3.522   7.522  1.2740  0.7828  2.4219
 8748SOL    HW237707   3.685   3.505   7.558 -0.5386 -0.2858 -1.2095
 8749SOL     OW37708   1.507   0.500   2.105  0.3688  0.4076 -0.1990
 8749SOL    HW137709   1.579   0.444   2.133 -0.7019 -0.1921  1.3630
 8749SOL    HW237710   1.560   0.565   2.060 -1.8573  2.1128 -0.3819
 8750SOL     OW37711   0.283   0.278   4.474 -0.3227  0.4272 -0.0145
 8750SOL    HW137712   0.228   0.352   4.497 -1.4648 -0.8959  1.4972
 8750SOL    HW237713   0.274   0.280   4.379 -0.5652 -2.5408 -0.0653
 8751SOL     OW37714   1.817   0.017  15.588  0.1966  0.1866 -0.0972
 8751SOL    HW137715   1.736   4.696  15.569 -0.2924  0.8654  0.2731
 8751SOL    HW237716   1.796   0.091  15.645  0.2847 -0.5709  0.9198
 8752SOL     OW37717   3.295   2.290   5.102  0.1896  0.1119 -0.6269
 8752SOL    HW137718   3.247   2.339   5.035 -3.4677  0.0644  1.9776
 8752SOL    HW237719   3.355   2.358   5.133 -1.4798  1.5400 -0.5323
 8753SOL     OW37720   0.925   4.464   4.765  0.0203  0.4570 -0.3335
 8753SOL    HW137721   0.851   4.449   4.705 -1.9706  1.1825  1.9393
 8753SOL    HW237722   0.989   4.400   4.735  0.3001  0.2366  0.7466
 8754SOL     OW37723   0.596   0.180   7.745  0.4093 -1.0409  0.0514
 8754SOL    HW137724   0.515   0.135   7.771 -0.5762  0.6084 -0.1923
 8754SOL    HW237725   0.568   0.211   7.659 -0.0137  0.8413  0.8885
 8755SOL     OW37726   2.646   2.229   8.763 -0.6256  0.0680  0.7424
 8755SOL    HW137727   2.731   2.189   8.744 -0.4259 -0.0645  1.8896
 8755SOL    HW237728   2.600   2.145   8.762 -0.8753  0.2182 -0.1196
 8756SOL     OW37729   1.039   2.896   0.033  0.1426 -0.3638  0.1126
 8756SOL    HW137730   1.021   2.944   0.114 -0.1956  0.7381 -0.6116
 8756SOL    HW237731   1.049   2.810   0.074  0.3743  0.0869  0.9881
 8757SOL     OW37732   4.530   1.149  12.100 -0.4821  0.0575 -0.1941
 8757SOL    HW137733   4.581   1.225  12.126 -0.3400  0.3845 -1.4320
 8757SOL    HW237734   4.455   1.188  12.055 -0.6755 -1.4127 -1.1688
 8758SOL     OW37735   0.365   1.649   7.277  0.0863  0.4519  0.1142
 8758SOL    HW137736   0.379   1.698   7.196  2.2369  0.3840  0.4617
 8758SOL    HW237737   0.383   1.716   7.343  1.0233  1.2023 -0.9210
 8759SOL     OW37738   3.982   3.669   7.228 -0.3353  0.4037 -0.3614
 8759SOL    HW137739   3.943   3.609   7.164  2.5241 -2.1794  0.3154
 8759SOL    HW237740   4.007   3.608   7.297 -0.1472 -1.6294 -2.2178
 8760SOL     OW37741   2.052   4.088   2.325 -0.7173  0.7621  0.1760
 8760SOL    HW137742   2.012   4.078   2.239 -0.3811  3.9506 -0.3544
 8760SOL    HW237743   2.018   4.167   2.367  0.1610  1.7604 -1.0147
 8761SOL     OW37744   0.650   3.987   4.296 -0.5180 -0.3189 -0.0568
 8761SOL    HW137745   0.576   3.926   4.302  0.1247 -0.7099  4.2053
 8761SOL    HW237746   0.644   4.026   4.384  0.7256 -0.1661 -0.0490
 8762SOL     OW37747   1.668   3.034   4.473  0.3693  0.4142 -0.5296
 8762SOL    HW137748   1.726   3.039   4.548 -0.6536 -1.5370  0.3853
 8762SOL    HW237749   1.704   3.107   4.424  1.6291 -0.5074 -0.9767
 8763SOL     OW37750   2.350   1.425   2.444 -0.0539 -0.0019  0.2876
 8763SOL    HW137751   2.305   1.353   2.488 -1.9565  0.7209 -0.4800
 8763SOL    HW237752   2.338   1.393   2.355 -0.0718  1.9129 -0.4099
 8764SOL     OW37753   0.348   1.392   6.153  0.1252 -0.0395  0.6140
 8764SOL    HW137754   0.268   1.355   6.190 -1.0084  1.4319 -0.3474
 8764SOL    HW237755   0.383   1.317   6.107 -0.4545  1.1710 -1.7712
 8765SOL     OW37756   1.533   1.326   7.591  0.5255 -0.1559  0.5369
 8765SOL    HW137757   1.547   1.399   7.530  0.2685  0.4072  1.1557
 8765SOL    HW237758   1.621   1.290   7.577  0.6049  0.1528  0.2368
 8766SOL     OW37759   0.701   0.700   5.041  0.2238  0.7888  0.7625
 8766SOL    HW137760   0.699   0.774   4.981 -2.4010  0.0053 -0.1481
 8766SOL    HW237761   0.708   0.633   4.973 -1.2025  1.4697 -0.0519
 8767SOL     OW37762   3.734   0.820   2.837 -0.2776  0.4121  0.2561
 8767SOL    HW137763   3.716   0.728   2.858 -0.1326  0.7536  1.8767
 8767SOL    HW237764   3.817   0.811   2.790  0.2586  0.4495  1.1840
 8768SOL     OW37765   2.385   3.593  16.706  0.0739 -0.1180 -0.2077
 8768SOL    HW137766   2.367   3.645  16.628  0.0236  0.0631 -0.0755
 8768SOL    HW237767   2.303   3.543  16.711 -1.0855  1.7531 -0.4869
 8769SOL     OW37768   1.919   3.998  17.238 -0.4087  0.1520 -0.4054
 8769SOL    HW137769   2.014   3.992  17.235 -0.1853  1.9339  3.3429
 8769SOL    HW237770   1.899   3.949  17.317 -1.3182  2.2291  0.6773
 8770SOL     OW37771   3.802   4.530   8.513 -0.1054  0.2218 -0.0779
 8770SOL    HW137772   3.750   4.487   8.445  0.2244  0.9923 -0.8133
 8770SOL    HW237773   3.829   4.608   8.465 -1.1019 -0.3289 -1.5414
 8771SOL     OW37774   2.249   1.339   6.222 -0.5321 -0.5129 -0.7095
 8771SOL    HW137775   2.191   1.285   6.169 -1.7416  0.2713 -0.1675
 8771SOL    HW237776   2.298   1.275   6.274 -0.0117  0.3931 -0.0795
 8772SOL     OW37777   3.185   3.933   9.387 -0.0015  0.0170  0.4533
 8772SOL    HW137778   3.260   3.874   9.385 -1.4950 -1.8257 -1.2618
 8772SOL    HW237779   3.126   3.883   9.444  0.9093 -1.1844  0.3155
 8773SOL     OW37780   4.354   2.243   0.227  0.0993  0.4443 -0.0449
 8773SOL    HW137781   4.330   2.293   0.149  1.4631 -0.0678 -0.7985
 8773SOL    HW237782   4.340   2.154   0.195  0.2040  0.0322  1.0686
 8774SOL     OW37783   0.115   2.089   3.658  0.0414 -0.7780 -0.2690
 8774SOL    HW137784   0.189   2.028   3.658 -1.4359 -2.5519  0.1454
 8774SOL    HW237785   0.135   2.145   3.733 -1.1176 -1.8038  0.8026
 8775SOL     OW37786   0.399   4.711   5.640 -0.0169  0.5901 -0.2314
 8775SOL    HW137787   0.357   0.067   5.615 -1.1333 -0.0133 -0.3687
 8775SOL    HW237788   0.362   4.686   5.724 -0.7866 -1.2960 -1.1195
 8776SOL     OW37789   2.452   2.116   5.623  0.0492 -0.0794  0.5118
 8776SOL    HW137790   2.487   2.204   5.637  1.5006 -0.8805  1.9708
 8776SOL    HW237791   2.359   2.131   5.636 -0.3740 -2.8726  0.5788
 8777SOL     OW37792   4.160   3.694   3.867 -0.6805  0.2040  0.0616
 8777SOL    HW137793   4.067   3.702   3.888 -0.6420  0.2907  0.1964
 8777SOL    HW237794   4.176   3.600   3.865 -1.2642  0.0952  0.5792
 8778SOL     OW37795   3.061   4.691   2.660  0.3213  0.1434 -0.4793
 8778SOL    HW137796   3.116   0.012   2.598  0.3496 -2.2126 -2.2450
 8778SOL    HW237797   2.981   0.013   2.638 -1.1444 -2.0659  0.0430
 8779SOL     OW37798   2.633   2.443   6.218  0.5467 -0.4673  0.1097
 8779SOL    HW137799   2.712   2.398   6.248  1.7443  1.4202 -0.2050
 8779SOL    HW237800   2.661   2.459   6.128  1.5952 -1.1495  0.3150
 8780SOL     OW37801   1.142   2.091  11.062  0.1475  0.2581  0.0895
 8780SOL    HW137802   1.075   2.022  11.066 -1.5285  1.7652 -2.0377
 8780SOL    HW237803   1.214   2.048  11.109 -0.4582 -1.4099 -0.5042
 8781SOL     OW37804   1.748   0.234   2.852  0.3721 -0.1719 -0.4572
 8781SOL    HW137805   1.718   0.156   2.899  3.3843 -2.7356 -2.7276
 8781SOL    HW237806   1.833   0.203   2.820  0.3514 -0.5501 -0.1575
 8782SOL     OW37807   2.566   0.763   3.859 -0.2584  0.5009  0.1788
 8782SOL    HW137808   2.471   0.770   3.870 -0.1617 -0.9452  1.9349
 8782SOL    HW237809   2.574   0.756   3.764  0.2980 -0.9920  0.3413
 8783SOL     OW37810   3.841   2.987   3.242 -0.3216  0.0576  0.5856
 8783SOL    HW137811   3.791   2.914   3.278 -1.3317  0.6996  0.4845
 8783SOL    HW237812   3.875   3.019   3.325 -1.3455  1.6008  0.4102
 8784SOL     OW37813   3.140   4.463   1.331  0.3412 -0.4227 -0.5866
 8784SOL    HW137814   3.045   4.455   1.339  0.4704 -1.2162  0.2144
 8784SOL    HW237815   3.164   4.408   1.406  1.0284 -0.7091 -1.0182
 8785SOL     OW37816   3.936   4.678   3.892 -0.0298  0.1281 -0.2987
 8785SOL    HW137817   4.026   4.652   3.876 -0.2930  0.7356 -2.7746
 8785SOL    HW237818   3.888   4.595   3.892  0.1348  0.0409  1.5233
 8786SOL     OW37819   2.613   2.869  16.064 -0.4733  0.2951 -1.0662
 8786SOL    HW137820   2.658   2.874  15.980 -0.8577  0.1316 -1.2843
 8786SOL    HW237821   2.557   2.792  16.057  1.4343 -1.3292  1.2942
 8787SOL     OW37822   4.063   2.820   6.055 -1.0034  0.1592 -0.2927
 8787SOL    HW137823   3.981   2.776   6.034 -1.4685 -0.5052  2.8980
 8787SOL    HW237824   4.039   2.911   6.075 -0.9240  0.2130 -0.4380
 8788SOL     OW37825   3.522   2.972   6.145  0.4165  0.1584 -0.8061
 8788SOL    HW137826   3.511   2.877   6.146  0.8574  0.1302  1.6760
 8788SOL    HW237827   3.430   2.999   6.136  0.5285  1.0215  0.7582
 8789SOL     OW37828   2.742   0.306  10.684  0.1737 -0.0276 -0.4171
 8789SOL    HW137829   2.761   0.381  10.740 -1.4622  1.5987 -2.0363
 8789SOL    HW237830   2.647   0.316  10.678  0.2854  1.1529 -0.1839
 8790SOL     OW37831   4.413   1.738  17.163 -0.6913  0.4901  0.2560
 8790SOL    HW137832   4.462   1.664  17.128  1.1230  1.0517  1.6290
 8790SOL    HW237833   4.350   1.697  17.222  2.0755 -1.1036  2.1262
 8791SOL     OW37834   1.990   3.677   2.361  0.5776 -0.3719 -0.1695
 8791SOL    HW137835   2.035   3.593   2.371  0.7682 -0.4755 -1.8981
 8791SOL    HW237836   1.975   3.686   2.267  2.2662 -0.8300 -0.4819
 8792SOL     OW37837   2.163   4.579   4.335  0.0410  0.2371  0.0482
 8792SOL    HW137838   2.093   4.596   4.272  0.5566  2.9154  0.2076
 8792SOL    HW237839   2.126   4.599   4.421 -1.3091 -1.8563 -0.0599
 8793SOL     OW37840   0.679   3.589   6.794 -0.5265 -0.3560 -0.3559
 8793SOL    HW137841   0.680   3.541   6.878 -1.0549 -0.0871 -0.1924
 8793SOL    HW237842   0.608   3.541   6.752 -1.4758  0.7012  0.0267
 8794SOL     OW37843   0.468   1.982   2.306 -0.3975  0.2790  0.2352
 8794SOL    HW137844   0.519   2.032   2.370 -0.8980  0.2717  0.6299
 8794SOL    HW237845   0.498   1.891   2.310  1.5561  0.8737 -0.3402
 8795SOL     OW37846   3.977   4.264   9.394 -1.0601 -0.0048 -0.0997
 8795SOL    HW137847   3.901   4.292   9.446 -2.3773 -0.2271 -1.8907
 8795SOL    HW237848   3.984   4.179   9.437 -0.0704  0.9247  1.5496
 8796SOL     OW37849   2.341   2.832   2.972 -0.0689  0.6164  0.0633
 8796SOL    HW137850   2.311   2.912   3.014 -2.2358  0.1095 -0.5226
 8796SOL    HW237851   2.293   2.764   3.020  0.1610 -0.6738 -1.5031
 8797SOL     OW37852   3.215   3.531   2.933 -0.2082  0.2308 -0.0314
 8797SOL    HW137853   3.298   3.578   2.934  1.5462 -2.8956  2.0585
 8797SOL    HW237854   3.198   3.544   3.027 -0.4646 -0.9155  0.0815
 8798SOL     OW37855   2.837   3.227   3.638  0.0942 -0.0511 -0.1897
 8798SOL    HW137856   2.754   3.254   3.599 -0.8826  0.2396  2.0550
 8798SOL    HW237857   2.891   3.235   3.560 -2.6223  2.0580 -1.8415
 8799SOL     OW37858   2.551   1.539   8.791  0.0689 -0.0595 -0.4132
 8799SOL    HW137859   2.584   1.499   8.872  0.8125  0.9213 -0.2269
 8799SOL    HW237860   2.628   1.542   8.734 -1.3455 -2.8893 -2.4702
 8800SOL     OW37861   1.175   2.099   2.060 -0.0536 -0.4878  0.2512
 8800SOL    HW137862   1.264   2.131   2.075 -0.3075  0.0544  0.5766
 8800SOL    HW237863   1.196   2.063   1.973 -0.9631 -0.2192 -0.0787
 8801SOL     OW37864   4.528   2.161   2.651  0.3311  0.1071  0.1764
 8801SOL    HW137865   4.474   2.229   2.611  1.0771  0.4292 -0.2751
 8801SOL    HW237866   4.597   2.146   2.586  0.6575  1.8524  0.1203
 8802SOL     OW37867   2.180   0.753   0.746 -0.0596 -0.1907  0.2642
 8802SOL    HW137868   2.262   0.797   0.770 -0.1950  0.1265  0.1435
 8802SOL    HW237869   2.164   0.701   0.825 -1.3696  1.0715  0.8263
 8803SOL     OW37870   2.260   3.164  10.102  0.2684  0.3033 -0.6862
 8803SOL    HW137871   2.260   3.070  10.081  1.4360 -0.2697  1.8951
 8803SOL    HW237872   2.350   3.192  10.084  0.0149  0.6318 -1.4539
 8804SOL     OW37873   2.450   2.944   6.394  0.0340  0.2335  0.3107
 8804SOL    HW137874   2.540   2.965   6.419  0.9063 -3.0923 -0.0333
 8804SOL    HW237875   2.463   2.874   6.329 -1.5346 -0.9623  1.2686
 8805SOL     OW37876   1.682   4.047   2.023 -0.0168 -0.4226 -0.5652
 8805SOL    HW137877   1.607   4.071   1.968  0.8865  2.5312 -0.4865
 8805SOL    HW237878   1.648   4.055   2.112 -0.4038  1.1207 -0.8508
 8806SOL     OW37879   2.955   1.063   6.499  0.0320 -0.5503  0.1177
 8806SOL    HW137880   3.025   1.000   6.517 -0.7836 -1.8539 -1.2297
 8806SOL    HW237881   2.967   1.074   6.405 -1.2122  2.7702  0.3533
 8807SOL     OW37882   3.279   4.620  10.950  0.0075 -0.1266 -0.1762
 8807SOL    HW137883   3.209   4.645  11.009 -0.5150  0.1261 -0.9099
 8807SOL    HW237884   3.239   4.644  10.867 -0.1196  0.5731  0.0902
 8808SOL     OW37885   1.668   1.578   2.784 -0.2688  0.2284 -0.2948
 8808SOL    HW137886   1.669   1.598   2.877 -1.6332  1.7014 -0.6073
 8808SOL    HW237887   1.748   1.622   2.753  1.5488 -2.1556  0.9807
 8809SOL     OW37888   0.177   1.949   0.015 -0.5204  0.1038 -0.2267
 8809SOL    HW137889   0.136   1.927  17.637 -0.0683  0.0823 -0.4418
 8809SOL    HW237890   0.250   1.887   0.015 -1.1867 -0.6740 -0.2341
 8810SOL     OW37891   3.845   0.269   8.683  0.1513 -0.2173  0.1046
 8810SOL    HW137892   3.916   0.245   8.623 -0.5156 -1.7818 -0.0390
 8810SOL    HW237893   3.877   0.331   8.748 -0.7203 -1.1821  1.4352
 8811SOL     OW37894   4.351   4.533   2.204 -0.1238  0.0703 -0.2877
 8811SOL    HW137895   4.307   4.488   2.276  1.1630 -0.4682  0.1640
 8811SOL    HW237896   4.280   4.569   2.151 -0.0372  0.9796  0.2224
 8812SOL     OW37897   3.732   3.075  13.240  0.1615 -0.2195  0.3853
 8812SOL    HW137898   3.808   3.106  13.290 -0.1370  0.7410  0.2516
 8812SOL    HW237899   3.684   3.047  13.318 -0.5167 -0.6848 -0.2000
 8813SOL     OW37900   0.654   0.546  15.575 -0.4167  0.2518 -0.0692
 8813SOL    HW137901   0.663   0.630  15.530 -0.0898  1.0211  1.4224
 8813SOL    HW237902   0.744   0.514  15.578 -1.3413 -2.5727 -1.6754
 8814SOL     OW37903   0.809   4.610   4.955  0.7594  0.1201  0.4950
 8814SOL    HW137904   0.886   4.660   4.982  1.7483 -1.9122  1.4876
 8814SOL    HW237905   0.862   4.558   4.895  0.6674  0.2231  0.3264
 8815SOL     OW37906   1.912   1.617  13.729 -0.2331 -0.4919 -0.2001
 8815SOL    HW137907   1.953   1.559  13.793  0.3208  0.7981  0.5960
 8815SOL    HW237908   1.932   1.700  13.771  1.4384 -0.8764 -0.2465
 8816SOL     OW37909   2.075   3.350   7.335 -0.1449 -0.2815 -0.5155
 8816SOL    HW137910   1.990   3.328   7.373  0.4354 -2.8802 -0.7722
 8816SOL    HW237911   2.055   3.439   7.303  1.5485  0.7716  1.3684
 8817SOL     OW37912   3.735   3.284  15.512 -0.1504 -0.0193  0.0275
 8817SOL    HW137913   3.792   3.315  15.441  0.5487 -1.0951  0.1086
 8817SOL    HW237914   3.741   3.341  15.588  2.9568 -0.6217  0.2603
 8818SOL     OW37915   3.283   4.364  10.472  0.0776  0.2255  0.3488
 8818SOL    HW137916   3.274   4.457  10.453 -0.7512 -0.1655 -1.2409
 8818SOL    HW237917   3.286   4.323  10.385  2.2482  1.6076 -0.2279
 8819SOL     OW37918   3.068   3.494   8.796  0.2594  0.0986  0.0510
 8819SOL    HW137919   3.026   3.503   8.882 -1.7009 -1.1021 -0.7596
 8819SOL    HW237920   3.150   3.446   8.806 -0.8177 -1.2265  2.4243
 8820SOL     OW37921   0.435   4.412   2.495  0.3270 -0.5200 -0.2484
 8820SOL    HW137922   0.527   4.439   2.497  0.1194  0.0638  1.2281
 8820SOL    HW237923   0.391   4.495   2.476 -1.1386 -1.0986  0.6651
 8821SOL     OW37924   0.754   3.897   4.034 -0.1394  0.2917 -0.0657
 8821SOL    HW137925   0.728   3.938   4.117 -0.6025 -2.5463  1.1910
 8821SOL    HW237926   0.770   3.979   3.987 -0.3563  0.1638 -0.3581
 8822SOL     OW37927   3.617   2.566   7.589 -0.2503  0.6459 -0.2322
 8822SOL    HW137928   3.706   2.580   7.556 -0.0373 -0.9631 -0.3246
 8822SOL    HW237929   3.580   2.654   7.600 -1.1654  0.3145 -0.7072
 8823SOL     OW37930   3.315   2.198   7.607  0.5011  0.5593 -0.3658
 8823SOL    HW137931   3.395   2.241   7.637  1.0874  0.9322 -2.4695
 8823SOL    HW237932   3.252   2.219   7.676  1.4053  0.0359  0.6125
 8824SOL     OW37933   4.246   3.546  12.313 -0.7489  0.9935  0.4871
 8824SOL    HW137934   4.188   3.608  12.268 -1.9016  0.3917  1.1346
 8824SOL    HW237935   4.185   3.472  12.315  1.8028 -1.0974  1.3287
 8825SOL     OW37936   0.602   3.816   8.470  0.2220 -0.2420  0.2690
 8825SOL    HW137937   0.519   3.772   8.490  0.3352 -0.4127  0.3684
 8825SOL    HW237938   0.586   3.903   8.505 -1.6607 -0.6101  0.3253
 8826SOL     OW37939   2.530   1.064   5.713 -0.2363 -0.0837  0.0963
 8826SOL    HW137940   2.578   0.990   5.751 -0.7631 -0.0294  0.8732
 8826SOL    HW237941   2.547   1.049   5.620  0.6942 -1.2764  0.4552
 8827SOL     OW37942   3.605   0.811   4.323 -0.0825  0.0383 -0.1259
 8827SOL    HW137943   3.613   0.902   4.295 -1.3622  0.1228 -0.2423
 8827SOL    HW237944   3.533   0.784   4.266  0.0070 -0.7828  0.1583
 8828SOL     OW37945   1.425   2.555   4.473  0.0421  0.1198 -0.3511
 8828SOL    HW137946   1.521   2.554   4.464  0.3300 -0.6504  2.7245
 8828SOL    HW237947   1.421   2.558   4.568  1.7343 -1.0485 -0.2242
 8829SOL     OW37948   3.952   2.851   3.025  0.0124  0.5984  0.6608
 8829SOL    HW137949   3.897   2.778   2.996 -1.7531  1.7221  1.1349
 8829SOL    HW237950   3.910   2.874   3.108 -1.9356  1.7871 -0.6465
 8830SOL     OW37951   0.261   0.484   9.297 -0.5680 -0.1501  0.3306
 8830SOL    HW137952   0.261   0.509   9.205 -3.3744 -0.1112  0.3389
 8830SOL    HW237953   0.282   0.566   9.343  2.3100  0.4671 -2.1192
 8831SOL     OW37954   3.435   2.767  13.710 -0.3393  0.0948  0.2295
 8831SOL    HW137955   3.435   2.673  13.695 -1.6421  0.3867 -1.5366
 8831SOL    HW237956   3.513   2.769  13.766 -1.3506  1.7375  1.5936
 8832SOL     OW37957   2.362   0.094   5.759  0.4499  0.4699 -0.0637
 8832SOL    HW137958   2.369   0.009   5.716  0.2069  0.7345 -0.6374
 8832SOL    HW237959   2.319   0.060   5.838  0.2744  1.8668  0.4523
 8833SOL     OW37960   2.641   1.747   6.144 -0.2481  0.0889 -0.3055
 8833SOL    HW137961   2.642   1.728   6.238 -1.8415  0.8126 -0.1467
 8833SOL    HW237962   2.710   1.812   6.129 -0.4206 -0.1048 -1.8766
 8834SOL     OW37963   1.510   1.146   2.400  0.3360  0.0205  0.5891
 8834SOL    HW137964   1.519   1.208   2.472 -2.9449  0.2026  0.8566
 8834SOL    HW237965   1.481   1.064   2.440 -1.6260  0.7209  0.6304
 8835SOL     OW37966   3.051   4.055   8.509 -0.3572  0.3855 -0.0989
 8835SOL    HW137967   3.083   3.981   8.561 -1.5122 -0.1661 -0.1764
 8835SOL    HW237968   2.988   4.021   8.446  0.4536  3.3225 -2.4897
 8836SOL     OW37969   2.056   4.117   9.683  0.2387 -0.5710  0.1707
 8836SOL    HW137970   2.148   4.106   9.708  0.7433 -0.2455 -1.5748
 8836SOL    HW237971   2.057   4.187   9.618  0.2068  0.3817  1.1828
 8837SOL     OW37972   1.862   3.670  15.594 -0.4292 -0.5496 -0.1885
 8837SOL    HW137973   1.924   3.609  15.634 -0.3723 -0.6938 -0.4954
 8837SOL    HW237974   1.808   3.705  15.665  0.6686 -2.1421  1.4611
 8838SOL     OW37975   2.658   0.943   7.307  0.4206  0.1400 -0.1627
 8838SOL    HW137976   2.602   0.943   7.229  0.5593 -1.8108 -0.2538
 8838SOL    HW237977   2.711   1.022   7.292  0.6596 -0.4002 -2.1790
 8839SOL     OW37978   0.901   3.284   7.084  0.1440  0.1668  0.0224
 8839SOL    HW137979   0.958   3.306   7.158 -0.6235 -0.5267  0.8211
 8839SOL    HW237980   0.882   3.190   7.082 -0.3948  0.2388  1.5007
 8840SOL     OW37981   2.997   3.317   7.535 -0.0493 -0.5285  0.5709
 8840SOL    HW137982   3.062   3.381   7.563  0.2420 -0.9596  0.8766
 8840SOL    HW237983   3.049   3.277   7.466 -1.2249 -0.0090 -0.6205
 8841SOL     OW37984   2.883   4.007   6.824 -0.4713  0.1609 -0.0518
 8841SOL    HW137985   2.929   3.924   6.831 -1.2336 -0.1265  1.5843
 8841SOL    HW237986   2.790   3.986   6.822 -0.7435  1.5425 -2.0916
 8842SOL     OW37987   3.756   1.512   5.143  0.0710 -0.1748 -0.1727
 8842SOL    HW137988   3.698   1.470   5.206  0.1828  2.6278  1.8262
 8842SOL    HW237989   3.776   1.589   5.197  1.7184 -0.0925 -0.8870
 8843SOL     OW37990   4.353   2.667   8.537  0.0830 -0.2604  0.1002
 8843SOL    HW137991   4.326   2.743   8.486 -0.8405 -0.5354  0.1697
 8843SOL    HW237992   4.314   2.693   8.620  1.0103 -0.4223  0.5791
 8844SOL     OW37993   4.223   2.185  15.524 -0.3760  0.4934 -0.0944
 8844SOL    HW137994   4.206   2.206  15.432  1.6305  1.0325 -0.3294
 8844SOL    HW237995   4.205   2.269  15.567 -1.9965 -0.2165  0.6027
 8845SOL     OW37996   3.237   2.082   8.031 -1.0624  0.0833  0.4268
 8845SOL    HW137997   3.329   2.103   8.014 -0.5476 -0.4592  2.5626
 8845SOL    HW237998   3.211   2.168   8.065  1.5984  0.8018  0.6806
 8846SOL     OW37999   1.578   1.264   7.328 -0.2670  0.5019 -0.4485
 8846SOL    HW138000   1.488   1.257   7.360 -0.8221 -1.4159 -2.4137
 8846SOL    HW238001   1.592   1.356   7.349  0.3287 -0.3078  2.7869
 8847SOL     OW38002   3.443   0.975   7.799  0.0588 -0.0143 -0.2097
 8847SOL    HW138003   3.364   0.964   7.745  0.3906 -1.5465 -0.3687
 8847SOL    HW238004   3.438   0.908   7.867 -1.0179 -0.0258 -0.2858
 8848SOL     OW38005   4.319   1.042   8.525 -0.3988 -0.1658 -0.7134
 8848SOL    HW138006   4.230   1.037   8.560 -0.2606  0.0955 -0.3172
 8848SOL    HW238007   4.348   0.952   8.538 -0.2039 -0.0031  0.0180
 8849SOL     OW38008   1.705   4.291   8.843 -0.2539 -0.3532 -0.0270
 8849SOL    HW138009   1.788   4.278   8.890 -0.3851 -0.3991  0.1920
 8849SOL    HW238010   1.700   4.225   8.774  1.3530  1.0809 -1.4995
 8850SOL     OW38011   1.225   4.196   3.679 -0.4444 -0.3225  0.6231
 8850SOL    HW138012   1.167   4.197   3.603 -1.1528 -0.6451  1.1666
 8850SOL    HW238013   1.190   4.129   3.738  2.5308  0.2121  3.0080
 8851SOL     OW38014   3.477   4.719   1.625 -0.6344  0.3831  0.1336
 8851SOL    HW138015   3.561   4.683   1.655  0.0831  1.7547 -0.2353
 8851SOL    HW238016   3.433   4.647   1.579  0.9211 -1.4128  1.4115
 8852SOL     OW38017   2.583   4.567   3.320  0.5592 -0.0744 -0.7886
 8852SOL    HW138018   2.668   4.523   3.314  1.4156  1.4474 -0.0449
 8852SOL    HW238019   2.588   4.615   3.403 -1.8250  0.8165 -1.1731
 8853SOL     OW38020   3.424   2.368   4.184 -0.2501  0.2803 -0.6198
 8853SOL    HW138021   3.442   2.426   4.111 -0.6648  0.9359 -0.1940
 8853SOL    HW238022   3.503   2.376   4.237 -1.9765  1.6197  1.7808
 8854SOL     OW38023   1.685   4.321   9.351  0.2679 -0.1646  0.4514
 8854SOL    HW138024   1.661   4.375   9.276  0.4964 -3.1105 -1.7238
 8854SOL    HW238025   1.732   4.391   9.396 -0.0730  1.4608 -1.6795
 8855SOL     OW38026   0.065   3.858   5.074  0.0508  0.2053  0.4999
 8855SOL    HW138027   0.037   3.814   5.153 -2.3679  0.1667 -0.3909
 8855SOL    HW238028   0.092   3.939   5.118 -0.4414  1.7635 -2.0161
 8856SOL     OW38029   3.598   3.886  10.517 -0.2170 -0.1457 -0.0032
 8856SOL    HW138030   3.688   3.907  10.540  0.5429 -1.1946 -2.0469
 8856SOL    HW238031   3.610   3.875  10.422  2.1772  3.7604 -0.1700
 8857SOL     OW38032   2.750   2.367   7.783 -0.0997  0.0655 -0.0174
 8857SOL    HW138033   2.666   2.413   7.786 -0.4738 -0.6196  0.1217
 8857SOL    HW238034   2.799   2.448   7.773 -1.4410  0.7303 -1.2483
 8858SOL     OW38035   2.640   0.327   7.793 -0.5830 -0.4339  0.0296
 8858SOL    HW138036   2.642   0.326   7.698  2.4716 -0.3949  0.0803
 8858SOL    HW238037   2.647   0.237   7.825  1.1164  0.1719  1.3782
 8859SOL     OW38038   0.336   2.152   2.589 -0.5680 -0.0239 -0.6238
 8859SOL    HW138039   0.296   2.065   2.579 -0.7799  0.0365 -0.2963
 8859SOL    HW238040   0.413   2.136   2.644 -1.1064 -0.4634 -0.0015
 8860SOL     OW38041   2.009   1.631   6.162 -0.2016 -0.3045 -0.1708
 8860SOL    HW138042   2.030   1.725   6.162  0.4472 -0.4546 -0.3685
 8860SOL    HW238043   2.058   1.594   6.089 -0.5287 -0.1604 -0.4622
 8861SOL     OW38044   0.175   1.116  16.531  0.4374 -0.0055 -0.6227
 8861SOL    HW138045   0.182   1.052  16.602  1.7057 -0.5763 -1.2596
 8861SOL    HW238046   0.228   1.185  16.571 -0.9005 -1.8201  4.2846
 8862SOL     OW38047   0.762   1.343   6.859 -0.0672  0.3379 -0.5584
 8862SOL    HW138048   0.812   1.421   6.878  3.8269 -2.1658 -0.4954
 8862SOL    HW238049   0.676   1.383   6.870 -0.5405 -0.3707 -1.5880
 8863SOL     OW38050   0.849   1.952   7.832 -0.2243  0.2873  0.1867
 8863SOL    HW138051   0.872   1.912   7.915 -4.6498 -2.1758  0.1775
 8863SOL    HW238052   0.756   1.961   7.852 -0.8682  0.7808 -2.8725
 8864SOL     OW38053   4.179   2.883  17.102 -0.1421 -0.4301  0.3185
 8864SOL    HW138054   4.249   2.822  17.125  0.2465 -0.2501 -0.4021
 8864SOL    HW238055   4.122   2.856  17.174 -0.5548 -2.8450 -0.8911
 8865SOL     OW38056   2.458   2.885  16.857 -0.1244 -0.5948 -0.6837
 8865SOL    HW138057   2.392   2.949  16.884 -0.1739 -1.2236  0.6869
 8865SOL    HW238058   2.482   2.909  16.767  0.7833  3.3977  0.5864
 8866SOL     OW38059   3.358   1.517   8.188 -0.2976 -0.6537 -0.1158
 8866SOL    HW138060   3.377   1.571   8.264  1.7238  0.0807 -1.1284
 8866SOL    HW238061   3.263   1.514   8.179 -0.1013 -2.1797 -1.9182
 8867SOL     OW38062   0.648   2.046   2.962 -0.0893  0.2066  0.1417
 8867SOL    HW138063   0.664   1.959   2.997 -1.5255 -1.2495 -2.8294
 8867SOL    HW238064   0.676   2.095   3.039 -1.7887  0.6305  0.4868
 8868SOL     OW38065   1.705   1.206   6.480  0.0491 -0.1601 -0.3751
 8868SOL    HW138066   1.701   1.168   6.393 -0.9183 -0.6298 -0.1265
 8868SOL    HW238067   1.794   1.179   6.503 -0.5098 -0.4756  1.4590
 8869SOL     OW38068   3.490   3.708   9.278 -0.4622  0.1190 -0.3321
 8869SOL    HW138069   3.491   3.615   9.300 -0.8954 -0.0211 -0.9000
 8869SOL    HW238070   3.430   3.717   9.204  0.8126 -0.0011 -1.3671
 8870SOL     OW38071   3.408   4.388  16.386  0.1357 -0.1445  0.2869
 8870SOL    HW138072   3.499   4.418  16.375 -0.8258  2.3562 -0.8622
 8870SOL    HW238073   3.427   4.308  16.435  0.1194  0.1790  0.8217
 8871SOL     OW38074   3.976   2.474  10.753 -0.1218  0.2039  0.0310
 8871SOL    HW138075   4.023   2.442  10.830 -0.8798  0.8014  0.7330
 8871SOL    HW238076   3.891   2.435  10.772  0.2243 -0.6238 -0.1156
 8872SOL     OW38077   1.936   3.155   8.586  0.2105 -0.9688 -0.3437
 8872SOL    HW138078   1.971   3.079   8.634  3.1189  1.1862  0.9582
 8872SOL    HW238079   1.846   3.151   8.618 -0.0277 -2.5853 -1.2530
 8873SOL     OW38080   1.091   2.955   5.067  0.0172 -0.3343 -0.1752
 8873SOL    HW138081   0.997   2.972   5.061  0.4470  2.5036  1.4284
 8873SOL    HW238082   1.107   2.933   4.975  1.4286 -0.3673  0.0802
 8874SOL     OW38083   1.365   0.967  14.645  0.3232 -0.5014 -0.5976
 8874SOL    HW138084   1.276   0.933  14.633 -0.1183 -0.0895  1.4461
 8874SOL    HW238085   1.384   0.950  14.737 -2.1368 -0.1415 -0.0322
 8875SOL     OW38086   1.973   3.950   0.811 -0.3904  0.2860 -0.2636
 8875SOL    HW138087   1.990   3.873   0.866 -0.5508 -0.1071 -0.7660
 8875SOL    HW238088   2.017   3.911   0.736  0.2893  2.0490 -0.7749
 8876SOL     OW38089   4.344   0.154   6.675 -0.0343 -0.3277  0.0899
 8876SOL    HW138090   4.256   0.165   6.641 -0.5519 -1.4487  1.0608
 8876SOL    HW238091   4.371   0.072   6.634  1.3125  0.5708 -0.8484
 8877SOL     OW38092   0.911   1.595   6.855  0.2412  0.0019 -0.0596
 8877SOL    HW138093   0.949   1.681   6.875 -0.2485 -0.3063  2.1955
 8877SOL    HW238094   0.960   1.573   6.776  1.4161 -0.2785  0.7489
 8878SOL     OW38095   3.488   3.272   1.560  0.6483 -0.0820 -0.0543
 8878SOL    HW138096   3.440   3.288   1.642  1.1981 -0.6905  0.3961
 8878SOL    HW238097   3.460   3.183   1.539  0.7242 -0.2214  0.4335
 8879SOL     OW38098   1.580   4.478  10.586  0.6986  0.1866  0.3745
 8879SOL    HW138099   1.631   4.525  10.520 -0.2699 -0.4378 -0.8149
 8879SOL    HW238100   1.557   4.546  10.649  2.6044 -0.0154  1.3072
 8880SOL     OW38101   3.442   3.643   2.188  0.2232 -0.0661  0.0618
 8880SOL    HW138102   3.448   3.558   2.230  0.2956  0.4314  1.0642
 8880SOL    HW238103   3.357   3.640   2.144  0.2889 -0.5790 -0.0253
 8881SOL     OW38104   4.099   4.186   6.616 -0.3420  0.2883  0.3407
 8881SOL    HW138105   4.117   4.126   6.688  1.1541 -0.2878 -0.5242
 8881SOL    HW238106   4.125   4.265   6.663  0.9335 -0.7460  1.3687
 8882SOL     OW38107   0.454   2.211   7.443 -0.3310 -0.5248  0.1204
 8882SOL    HW138108   0.401   2.241   7.516 -0.0540  1.6558 -0.5902
 8882SOL    HW238109   0.406   2.237   7.365  0.5003 -1.4985 -0.7195
 8883SOL     OW38110   2.042   1.065  15.105  0.2636  0.1469 -0.4701
 8883SOL    HW138111   2.120   1.010  15.106  0.7791  0.8440 -1.9202
 8883SOL    HW238112   2.047   1.085  15.011 -0.1913  1.7599 -0.1381
 8884SOL     OW38113   0.055   1.085   3.088  0.4737  0.2321 -0.8865
 8884SOL    HW138114   0.006   1.102   3.008 -0.5645  1.8331  0.0799
 8884SOL    HW238115   0.088   1.171   3.115 -2.9301  0.7630  1.6405
 8885SOL     OW38116   4.489   3.419   2.727 -0.3754 -0.3005  0.5950
 8885SOL    HW138117   4.399   3.395   2.706  0.7362 -2.6903 -1.5125
 8885SOL    HW238118   4.515   3.455   2.643 -0.2977 -0.7236  0.4351
 8886SOL     OW38119   1.164   1.793  17.101 -0.2350  0.7433 -0.1284
 8886SOL    HW138120   1.247   1.745  17.094  1.2458  3.2066  0.2407
 8886SOL    HW238121   1.158   1.831  17.013 -1.8019 -0.6916 -0.6440
 8887SOL     OW38122   1.361   2.944  13.977 -0.0692 -0.6000 -0.3839
 8887SOL    HW138123   1.314   2.900  14.048 -0.7321 -1.5766 -1.4299
 8887SOL    HW238124   1.445   2.964  14.018 -1.6828  0.6314  2.3287
 8888SOL     OW38125   4.127   3.523   6.335  0.2299  0.4235 -0.3149
 8888SOL    HW138126   4.133   3.612   6.370  0.9002 -0.1979  1.1696
 8888SOL    HW238127   4.061   3.479   6.390  0.6383  0.5608  0.2836
 8889SOL     OW38128   1.377   2.409  11.816  0.1897  0.0780 -0.2291
 8889SOL    HW138129   1.348   2.319  11.830 -0.6893  0.2438 -0.9643
 8889SOL    HW238130   1.403   2.402  11.724 -3.2719 -0.5311 -1.1437
 8890SOL     OW38131   0.890   0.829   5.798  0.8098  0.6411 -0.0891
 8890SOL    HW138132   0.982   0.831   5.772  0.9643 -1.3728  0.3193
 8890SOL    HW238133   0.853   0.914   5.773  0.4330  0.7405  0.8235
 8891SOL     OW38134   3.304   3.876   6.924  0.2310  0.4214  0.1941
 8891SOL    HW138135   3.324   3.841   6.837 -3.2451  1.6427 -1.0890
 8891SOL    HW238136   3.389   3.869   6.968  0.1976 -0.8132  0.0615
 8892SOL     OW38137   0.477   1.781   3.324 -0.2048 -0.1241 -0.0957
 8892SOL    HW138138   0.413   1.817   3.263  1.0763 -0.2482 -1.5030
 8892SOL    HW238139   0.419   1.724   3.375  1.2484 -1.4865  0.0395
 8893SOL     OW38140   1.407   3.449  16.873  0.2107 -0.3198 -0.3957
 8893SOL    HW138141   1.411   3.363  16.916  1.9157  0.5606  1.2108
 8893SOL    HW238142   1.433   3.505  16.946  0.7388  1.0243 -1.6184
 8894SOL     OW38143   1.173   2.902   5.871  0.1330 -0.4419 -0.0473
 8894SOL    HW138144   1.161   2.965   5.943  1.7275 -0.2509  0.0367
 8894SOL    HW238145   1.254   2.939   5.837 -0.5356  3.4002  2.5607
 8895SOL     OW38146   4.080   1.644  12.930 -0.3560  0.0997  0.1137
 8895SOL    HW138147   4.095   1.647  12.836  0.9684 -0.5461  0.2998
 8895SOL    HW238148   4.007   1.582  12.934  0.4675 -0.8978 -0.0551
 8896SOL     OW38149   1.998   1.671   9.438  0.0273 -0.2369  0.3107
 8896SOL    HW138150   2.018   1.613   9.365  0.4680  0.4171 -0.0942
 8896SOL    HW238151   2.067   1.737   9.428  0.2007 -0.6256 -1.1477
 8897SOL     OW38152   3.508   2.582   4.367  0.3426  0.0702  0.2264
 8897SOL    HW138153   3.576   2.516   4.380 -1.7889 -2.2871 -0.6980
 8897SOL    HW238154   3.526   2.599   4.274 -0.6908  0.2579  0.0651
 8898SOL     OW38155   1.114   4.281   8.370  0.3796  0.4312  0.0221
 8898SOL    HW138156   1.101   4.372   8.398 -2.1793  1.0317 -3.0248
 8898SOL    HW238157   1.106   4.222   8.445 -0.1137  2.0295  1.2331
 8899SOL     OW38158   2.332   3.348  12.817  0.2735  0.0452 -0.2871
 8899SOL    HW138159   2.388   3.421  12.792  0.3761 -0.2460 -0.8926
 8899SOL    HW238160   2.397   3.291  12.858 -0.2771 -1.0170 -0.8757
 8900SOL     OW38161   1.068   2.434   6.282  0.1709 -0.6120 -0.7575
 8900SOL    HW138162   1.036   2.438   6.373 -0.5513  2.5353 -1.1333
 8900SOL    HW238163   0.988   2.398   6.243 -0.3810 -0.1416 -0.0862
 8901SOL     OW38164   0.044   3.312   9.626  0.6449  0.2460  0.6027
 8901SOL    HW138165   0.129   3.285   9.590  0.2460  2.4101 -2.0020
 8901SOL    HW238166   4.719   3.319   9.545 -0.1644 -2.0739  0.9126
 8902SOL     OW38167   0.400   4.667   5.363  0.3753 -0.7094  0.1768
 8902SOL    HW138168   0.420   4.666   5.457  1.7465  0.3664 -0.0912
 8902SOL    HW238169   0.453   0.018   5.342  0.1796 -0.0511  2.0848
 8903SOL     OW38170   3.215   1.871   3.463  0.3769  0.1126 -0.2770
 8903SOL    HW138171   3.231   1.859   3.369  2.8520  1.6100 -0.0356
 8903SOL    HW238172   3.231   1.965   3.466 -1.4418  0.4520 -1.3766
 8904SOL     OW38173   2.639   0.151   2.955 -0.5900  0.0361 -0.2852
 8904SOL    HW138174   2.595   0.075   2.993 -1.5168  1.2168  0.9788
 8904SOL    HW238175   2.678   0.104   2.881  0.7098 -0.5125  0.7283
 8905SOL     OW38176   2.705   3.764   2.962 -0.1543 -0.4931 -0.0563
 8905SOL    HW138177   2.626   3.811   2.988  0.4927  1.1404 -1.0597
 8905SOL    HW238178   2.749   3.833   2.912 -0.8271 -0.6503 -0.8811
 8906SOL     OW38179   0.676   2.898  10.626 -0.4380  0.0034  0.2413
 8906SOL    HW138180   0.609   2.887  10.558  1.1228  0.9569 -1.4437
 8906SOL    HW238181   0.669   2.993  10.636  0.0476 -0.4525  4.6953
 8907SOL     OW38182   4.102   3.228   1.348 -0.1769  0.0569  0.2222
 8907SOL    HW138183   4.154   3.191   1.419  0.7887  1.5403  0.2795
 8907SOL    HW238184   4.153   3.212   1.268 -0.6074  1.4504 -0.3377
 8908SOL     OW38185   1.471   4.628  10.230 -0.1051  0.6429 -0.3072
 8908SOL    HW138186   1.560   4.652  10.255 -0.4439  2.2965 -0.7153
 8908SOL    HW238187   1.421   4.666  10.302  1.2445 -0.0386  0.9851
 8909SOL     OW38188   0.139   2.158   3.933  0.4609  0.0076 -0.6136
 8909SOL    HW138189   0.176   2.129   4.017  1.1165  1.3779 -0.4331
 8909SOL    HW238190   0.047   2.161   3.958  0.7156 -2.3897  0.5883
 8910SOL     OW38191   1.687   3.058   5.597  0.1637 -0.0239  0.2502
 8910SOL    HW138192   1.608   3.048   5.543  0.1824 -0.9172  0.4010
 8910SOL    HW238193   1.749   3.097   5.536 -2.0237 -1.3864 -2.8596
 8911SOL     OW38194   1.655   0.677   4.422 -0.0513 -0.1243 -0.0827
 8911SOL    HW138195   1.666   0.748   4.358 -3.4256 -1.4672 -2.1448
 8911SOL    HW238196   1.742   0.640   4.436 -0.7288 -1.1267  1.4404
 8912SOL     OW38197   1.339   0.223   0.862 -0.1282 -0.2582  0.3175
 8912SOL    HW138198   1.300   0.201   0.946 -0.0074 -1.0770  0.1599
 8912SOL    HW238199   1.259   0.209   0.810  0.6760 -3.6529 -0.0156
 8913SOL     OW38200   0.370   2.095   3.045  0.4841  1.0925  0.7765
 8913SOL    HW138201   0.454   2.065   3.010 -0.3900 -2.0298  1.3546
 8913SOL    HW238202   0.344   2.016   3.092 -2.0260  2.4212  1.6190
 8914SOL     OW38203   2.210   1.651   1.895  0.9083 -0.1686 -0.0790
 8914SOL    HW138204   2.135   1.707   1.916  1.4853  0.7334 -0.4187
 8914SOL    HW238205   2.181   1.614   1.811 -1.7073  0.9271  0.3187
 8915SOL     OW38206   0.941   0.339  13.535 -0.5141 -0.2171  0.4026
 8915SOL    HW138207   1.016   0.294  13.495 -0.8279 -0.5871  0.2363
 8915SOL    HW238208   0.901   0.265  13.580 -0.5481  0.6495  1.8080
 8916SOL     OW38209   0.983   1.324   7.949  0.3479 -0.1941 -0.4752
 8916SOL    HW138210   1.047   1.394   7.961  0.4052 -0.2220 -0.6119
 8916SOL    HW238211   1.008   1.275   8.027 -1.2380 -1.2353 -0.6182
 8917SOL     OW38212   4.113   1.700  12.673 -0.2960 -0.4895 -0.0121
 8917SOL    HW138213   4.082   1.790  12.662 -1.2530 -1.0906 -2.2738
 8917SOL    HW238214   4.197   1.694  12.626 -0.7970  2.7468 -1.3101
 8918SOL     OW38215   4.237   1.768  11.960 -0.0791 -0.1179 -0.2017
 8918SOL    HW138216   4.287   1.758  11.879  2.5893  1.4282  1.2227
 8918SOL    HW238217   4.148   1.787  11.932 -0.4336 -2.1124 -0.3637
 8919SOL     OW38218   1.544   0.825   3.973 -0.2375  0.5011 -0.1220
 8919SOL    HW138219   1.581   0.781   3.897  0.5618 -1.9635  1.7027
 8919SOL    HW238220   1.617   0.881   4.000 -1.1906  1.2066  1.0236
 8920SOL     OW38221   4.224   0.435   3.909 -0.3076  0.7178 -0.3813
 8920SOL    HW138222   4.184   0.379   3.975  0.3221  1.7989  0.9318
 8920SOL    HW238223   4.316   0.412   3.921 -0.8182 -0.8571  0.4204
 8921SOL     OW38224   4.634   4.417   8.622 -0.2187 -0.1751  0.4317
 8921SOL    HW138225   4.666   4.493   8.573 -0.2888 -0.1959  0.3547
 8921SOL    HW238226   4.633   4.453   8.711  0.7408  1.9336 -0.4078
 8922SOL     OW38227   1.278   4.162   3.201 -0.2494 -0.3541 -0.5262
 8922SOL    HW138228   1.237   4.078   3.180 -0.7160 -0.4466  0.7230
 8922SOL    HW238229   1.205   4.207   3.244  0.8017  3.0920 -2.3871
 8923SOL     OW38230   2.231   4.288   4.226 -0.0498  0.4293  0.0970
 8923SOL    HW138231   2.201   4.371   4.264  0.6782 -0.3567  2.4337
 8923SOL    HW238232   2.244   4.234   4.305  1.2507 -1.4512 -1.3975
 8924SOL     OW38233   4.327   3.422   8.627 -0.3787  0.2468  0.3717
 8924SOL    HW138234   4.349   3.337   8.665 -0.5609  0.0858  0.1159
 8924SOL    HW238235   4.232   3.423   8.629 -0.3118  1.9583  2.7806
 8925SOL     OW38236   0.237   2.255  15.188  0.3586  0.4738 -0.6006
 8925SOL    HW138237   0.163   2.261  15.128 -0.0405  1.8321  0.0324
 8925SOL    HW238238   0.314   2.252  15.131  0.2218 -1.4020 -0.7035
 8926SOL     OW38239   4.662   3.792   8.752  0.1010  0.1811 -0.2265
 8926SOL    HW138240   4.582   3.755   8.790  1.7089 -1.3943  1.5896
 8926SOL    HW238241   4.618   3.830   8.675  1.3854 -0.7875 -1.4299
 8927SOL     OW38242   0.738   2.787   8.959 -0.3803  0.0274 -0.3141
 8927SOL    HW138243   0.748   2.862   9.018 -1.3696  0.1541 -0.3095
 8927SOL    HW238244   0.675   2.815   8.894  1.1378 -0.0953 -1.8349
 8928SOL     OW38245   0.573   0.230   4.705 -0.3182 -0.1097 -0.4262
 8928SOL    HW138246   0.546   0.188   4.623  2.2484 -4.5809  1.0710
 8928SOL    HW238247   0.618   0.310   4.674  0.4937 -0.7368 -0.8694
 8929SOL     OW38248   4.107   0.178  13.628 -0.0430  0.0993  0.6922
 8929SOL    HW138249   4.074   0.219  13.707  0.0124  0.1197  0.7045
 8929SOL    HW238250   4.179   0.129  13.667  0.1755  0.5077  0.7972
 8930SOL     OW38251   3.720   1.473   0.315 -0.2054  0.0496 -0.4420
 8930SOL    HW138252   3.635   1.490   0.274  0.2596  0.5027 -1.2095
 8930SOL    HW238253   3.749   1.403   0.257 -0.3338 -0.3715  0.0031
 8931SOL     OW38254   2.132   3.361   0.742 -0.4694 -0.4857  0.4884
 8931SOL    HW138255   2.205   3.300   0.749  0.8169  1.1491  1.4599
 8931SOL    HW238256   2.083   3.318   0.671 -0.1128 -1.6688  0.9666
 8932SOL     OW38257   1.999   0.493   3.908 -0.6078  0.2764  0.2425
 8932SOL    HW138258   1.979   0.498   4.002  1.4345 -1.2731  0.7673
 8932SOL    HW238259   1.969   0.581   3.883 -0.6351  0.1312 -0.2315
 8933SOL     OW38260   3.393   1.105  14.859  0.1564 -0.5522 -0.0753
 8933SOL    HW138261   3.423   1.028  14.907 -1.7473 -0.0344  1.9518
 8933SOL    HW238262   3.306   1.116  14.897  0.0729  1.9637 -1.0129
 8934SOL     OW38263   0.656   2.594   1.119 -0.6251 -0.4505 -0.2899
 8934SOL    HW138264   0.633   2.514   1.072 -2.2486  0.5433 -1.1782
 8934SOL    HW238265   0.720   2.618   1.051 -1.9366  2.8385 -0.3656
 8935SOL     OW38266   0.879   4.187   9.327  0.3708  0.3005  0.0169
 8935SOL    HW138267   0.901   4.144   9.410  0.7786 -1.2446 -0.8949
 8935SOL    HW238268   0.911   4.132   9.256  1.6954  0.4818  0.4731
 8936SOL     OW38269   4.234   2.829  10.802 -0.3407 -1.1711  0.4916
 8936SOL    HW138270   4.142   2.810  10.820 -0.6561 -1.3965 -1.4514
 8936SOL    HW238271   4.255   2.873  10.885 -2.1524 -1.4676  1.1074
 8937SOL     OW38272   4.451   2.674   4.606  0.2976 -0.0087 -0.1762
 8937SOL    HW138273   4.376   2.733   4.598 -1.1125 -1.9327 -0.9282
 8937SOL    HW238274   4.434   2.630   4.689  0.4568 -0.5743 -0.4478
 8938SOL     OW38275   2.424   3.524  11.709  0.2308 -0.7002 -0.6115
 8938SOL    HW138276   2.511   3.491  11.733  1.3798  2.1525 -0.8828
 8938SOL    HW238277   2.406   3.515  11.615 -2.3328  1.8343 -0.3681
 8939SOL     OW38278   1.513   3.122   2.682  0.1181 -0.1942  0.5246
 8939SOL    HW138279   1.425   3.144   2.710 -1.1013 -2.9715 -1.1262
 8939SOL    HW238280   1.519   3.038   2.727  2.8418 -1.1041 -1.4786
 8940SOL     OW38281   1.702   1.027   6.285 -0.0952  0.8480  0.3387
 8940SOL    HW138282   1.674   0.977   6.208  0.4953  1.5930 -0.3780
 8940SOL    HW238283   1.762   0.960   6.318 -1.1835 -0.8962 -1.1916
 8941SOL     OW38284   2.927   3.869   3.976  0.7636  0.2735  0.1499
 8941SOL    HW138285   2.960   3.818   4.050 -1.1293  0.5601  1.1797
 8941SOL    HW238286   2.871   3.942   4.001  0.4580  1.0379 -2.7136
 8942SOL     OW38287   3.416   0.302   0.375 -0.0285  0.0049 -0.2796
 8942SOL    HW138288   3.503   0.323   0.340  0.5675 -1.4882  0.2950
 8942SOL    HW238289   3.367   0.276   0.297  0.5193 -0.4023 -0.4890
 8943SOL     OW38290   1.164   3.103   2.479 -0.3955 -0.1555 -0.6289
 8943SOL    HW138291   1.128   3.159   2.411 -0.2347 -0.1281 -0.6918
 8943SOL    HW238292   1.256   3.092   2.455  0.4183  0.0155  2.3483
 8944SOL     OW38293   0.193   4.161  16.501 -0.1702  0.0940 -0.1172
 8944SOL    HW138294   0.202   4.087  16.561  0.0340 -0.7168 -1.1429
 8944SOL    HW238295   0.282   4.196  16.494  0.1260 -0.6938 -0.3199
 8945SOL     OW38296   0.597   0.925  12.021  0.3400  0.2580 -0.3021
 8945SOL    HW138297   0.590   0.853  12.084 -1.4254  1.9606  1.4482
 8945SOL    HW238298   0.691   0.941  12.012  0.2823  1.2757  0.9314
 8946SOL     OW38299   2.052   0.890  11.834 -0.7162  0.5922 -1.1652
 8946SOL    HW138300   2.005   0.972  11.824  1.4352  1.8509 -0.9977
 8946SOL    HW238301   2.129   0.890  11.777 -0.8328  2.0041 -1.3137
 8947SOL     OW38302   4.458   0.514   5.242  0.0884  0.4003 -0.2641
 8947SOL    HW138303   4.516   0.561   5.181  0.6307  2.9976  2.2588
 8947SOL    HW238304   4.493   0.425   5.237  2.6371  1.5004 -2.1584
 8948SOL     OW38305   2.656   4.585   5.378 -0.0383  0.3728 -0.2850
 8948SOL    HW138306   2.750   4.569   5.369 -0.3482 -1.7481  0.2431
 8948SOL    HW238307   2.630   4.493   5.374 -0.2729  0.5033 -1.8476
 8949SOL     OW38308   3.450   1.563   6.466  0.2720 -0.2456 -0.3501
 8949SOL    HW138309   3.517   1.536   6.530 -0.8206  0.9302  1.2648
 8949SOL    HW238310   3.508   1.631   6.432  1.2295 -0.2942  1.1726
 8950SOL     OW38311   2.197   0.524  10.900  0.4418  0.4935 -0.8842
 8950SOL    HW138312   2.229   0.439  10.871  0.2728 -0.0496  0.5558
 8950SOL    HW238313   2.158   0.511  10.986  0.7362  0.9366 -0.6818
 8951SOL     OW38314   3.026   0.653   9.038 -0.4750  0.0286 -0.1316
 8951SOL    HW138315   3.018   0.669   9.132 -0.8394 -0.5383 -0.0632
 8951SOL    HW238316   2.969   0.721   9.003 -0.5596 -0.3702 -0.7754
 8952SOL     OW38317   1.289   3.413  12.551 -0.3003  0.0968 -0.2161
 8952SOL    HW138318   1.248   3.444  12.632  0.0608 -0.4532  0.1801
 8952SOL    HW238319   1.322   3.495  12.515  0.4457 -0.4027 -0.6644
 8953SOL     OW38320   3.314   4.295   4.469 -0.3145 -0.2741 -0.8786
 8953SOL    HW138321   3.228   4.337   4.463  0.0913  0.8404  1.0880
 8953SOL    HW238322   3.356   4.379   4.489 -0.2426 -0.3129 -0.8690
 8954SOL     OW38323   3.647   1.902  16.113  0.1887  0.0896  0.2598
 8954SOL    HW138324   3.685   1.830  16.164  0.1327 -1.0910 -1.3567
 8954SOL    HW238325   3.556   1.896  16.143 -0.3196 -0.5029 -1.3741
 8955SOL     OW38326   0.380   3.096  15.994 -0.6715 -0.1687  0.2595
 8955SOL    HW138327   0.453   3.065  15.942  0.2683  1.5365  0.5472
 8955SOL    HW238328   0.413   3.085  16.083 -0.2823 -0.0463  0.1277
 8956SOL     OW38329   2.891   0.017   4.653 -0.5384  0.3260 -0.0927
 8956SOL    HW138330   2.848   4.695   4.582 -1.2101  0.4232  0.2501
 8956SOL    HW238331   2.824   0.082   4.671 -2.9661 -0.9353 -4.3943
 8957SOL     OW38332   1.676   0.315   6.311 -0.5978 -0.1296  0.0615
 8957SOL    HW138333   1.641   0.252   6.374 -1.0683  0.8919  0.8261
 8957SOL    HW238334   1.694   0.265   6.232 -2.0142 -3.2416  1.7020
 8958SOL     OW38335   0.912   3.894  16.926 -0.1116  0.1830  0.0014
 8958SOL    HW138336   0.890   3.835  16.998 -0.1037  1.3772  0.9774
 8958SOL    HW238337   0.873   3.846  16.853 -0.7495 -0.7125  0.9265
 8959SOL     OW38338   3.538   2.798   3.228 -0.4660  0.2532  0.4062
 8959SOL    HW138339   3.579   2.731   3.173 -2.2048 -0.2721 -0.2506
 8959SOL    HW238340   3.448   2.777   3.203 -0.5660 -0.3097  1.2576
 8960SOL     OW38341   3.280   0.158  14.833 -0.0349 -0.1532 -0.0068
 8960SOL    HW138342   3.361   0.113  14.860 -2.0585 -1.9010  3.2165
 8960SOL    HW238343   3.236   0.082  14.797  0.6659 -0.8365  0.5587
 8961SOL     OW38344   1.301   4.230   2.185  0.3809 -1.1130 -0.2445
 8961SOL    HW138345   1.211   4.237   2.152 -0.2957  1.8744  2.1827
 8961SOL    HW238346   1.277   4.201   2.274 -1.6916 -1.9939 -1.0816
 8962SOL     OW38347   2.039   1.147   6.126 -0.4713 -0.3658  0.0150
 8962SOL    HW138348   1.974   1.212   6.100  2.1425  2.5599  0.8452
 8962SOL    HW238349   2.021   1.091   6.051 -0.8321 -1.8352  1.2098
 8963SOL     OW38350   2.467   4.167   5.881  0.2427 -0.0342  0.0052
 8963SOL    HW138351   2.466   4.259   5.906 -2.6063 -0.0032 -0.2770
 8963SOL    HW238352   2.550   4.141   5.922  0.1400  1.7875  1.3752
 8964SOL     OW38353   3.534   3.479   2.828  0.2810 -0.3888 -0.1532
 8964SOL    HW138354   3.487   3.397   2.841 -1.2926  0.8062  1.8608
 8964SOL    HW238355   3.622   3.445   2.839  0.2030 -0.2105  0.9944
 8965SOL     OW38356   1.569   1.326   2.595  0.6875  0.2463 -0.6657
 8965SOL    HW138357   1.644   1.359   2.646  0.5094 -0.2336 -0.0848
 8965SOL    HW238358   1.516   1.293   2.668  0.5692  0.4744 -0.6492
 8966SOL     OW38359   3.541   4.267   3.581  0.2173 -0.4840  0.3239
 8966SOL    HW138360   3.491   4.196   3.541  0.9112 -2.1564  2.4281
 8966SOL    HW238361   3.500   4.254   3.666  0.9461 -0.4997  0.6757
 8967SOL     OW38362   0.346   1.410   2.633  0.1910  0.2375  0.1718
 8967SOL    HW138363   0.291   1.350   2.584  2.4273 -2.4461  0.9758
 8967SOL    HW238364   0.327   1.495   2.592  3.3014  0.6905 -0.3325
 8968SOL     OW38365   3.965   1.453  12.619  0.0231  0.7995  0.7857
 8968SOL    HW138366   3.982   1.546  12.636 -0.8570  1.4725 -1.9472
 8968SOL    HW238367   3.898   1.448  12.686 -0.2696  1.3771  0.5415
 8969SOL     OW38368   3.202   0.070   3.005  0.1084  0.0711 -0.0407
 8969SOL    HW138369   3.211   0.066   2.909 -2.6294 -0.2447 -0.2830
 8969SOL    HW238370   3.115   0.030   3.007  0.2700 -0.4437 -2.5169
 8970SOL     OW38371   0.531   4.050   1.752 -0.0803 -0.3167  0.1593
 8970SOL    HW138372   0.533   4.138   1.789 -0.5217 -0.0327 -0.4960
 8970SOL    HW238373   0.442   4.017   1.764  0.7148 -2.0325  1.3118
 8971SOL     OW38374   3.143   3.235   4.233  0.0991  0.3402  0.2898
 8971SOL    HW138375   3.104   3.320   4.213 -2.1169 -0.8410 -0.4486
 8971SOL    HW238376   3.155   3.193   4.148  1.7289 -1.9346  1.6125
 8972SOL     OW38377   2.790   3.403   5.850 -0.4051  0.2214  0.0859
 8972SOL    HW138378   2.748   3.483   5.885  0.4324  0.4920  0.4730
 8972SOL    HW238379   2.716   3.343   5.838 -0.1620  0.3385 -1.9951
 8973SOL     OW38380   0.228   1.823   8.225 -0.2828  0.5698  0.3871
 8973SOL    HW138381   0.235   1.866   8.140  4.1049  0.9991  1.0004
 8973SOL    HW238382   0.227   1.730   8.203 -1.0494  0.6256  0.1615
 8974SOL     OW38383   3.103   3.947   1.398  0.1486 -0.0511  0.3970
 8974SOL    HW138384   3.119   3.966   1.491 -0.9835  0.2117  0.5418
 8974SOL    HW238385   3.183   3.973   1.354  0.6659 -2.1173  0.1588
 8975SOL     OW38386   4.279   4.625   5.308 -0.2730  0.1831 -0.1211
 8975SOL    HW138387   4.336   4.577   5.248 -0.1034  0.3064 -0.0564
 8975SOL    HW238388   4.335   4.702   5.318  1.4792 -0.9907 -0.8703
 8976SOL     OW38389   1.109   1.012  15.739  0.1444  0.1290  0.2323
 8976SOL    HW138390   1.187   0.958  15.725  0.4148  0.8956 -1.2380
 8976SOL    HW238391   1.129   1.035  15.829  0.0926 -1.5487  0.6796
 8977SOL     OW38392   4.631   0.072   7.397 -0.0113  0.4576 -0.4903
 8977SOL    HW138393   4.637   4.705   7.376  0.9933  0.7739 -1.5889
 8977SOL    HW238394   4.598   0.067   7.487  2.3619  1.2413  0.4034
 8978SOL     OW38395   0.913   0.382   7.108  0.0588  0.3833  0.4208
 8978SOL    HW138396   0.833   0.397   7.158 -0.9055  0.7104 -1.2208
 8978SOL    HW238397   0.979   0.375   7.177  0.1200 -1.2929  0.1985
 8979SOL     OW38398   0.614   2.073   5.497  0.0106 -0.5516 -0.1893
 8979SOL    HW138399   0.543   2.016   5.470 -0.6785 -0.1908  0.8623
 8979SOL    HW238400   0.645   2.026   5.575 -1.8408  1.7154  1.9175
 8980SOL     OW38401   2.932   4.232   9.365 -0.1342 -0.5271 -0.0544
 8980SOL    HW138402   3.010   4.282   9.344 -0.7993  0.5193 -0.0395
 8980SOL    HW238403   2.916   4.270   9.451 -0.0210 -2.4570  0.8312
 8981SOL     OW38404   0.657   1.687  16.600  0.3590  0.2024  0.0683
 8981SOL    HW138405   0.645   1.734  16.682 -0.2959  2.6801 -1.4422
 8981SOL    HW238406   0.715   1.742  16.546 -0.6333 -0.2992 -1.5094
 8982SOL     OW38407   4.079   1.161   2.674  0.1086 -0.1516  0.6342
 8982SOL    HW138408   4.109   1.117   2.753  0.6335 -0.5257  0.2320
 8982SOL    HW238409   4.153   1.212   2.642 -0.5349  1.1956  1.2964
 8983SOL     OW38410   2.460   0.977   7.510  0.0661 -0.5758  0.4396
 8983SOL    HW138411   2.485   0.964   7.419  2.4090  3.1298  0.5496
 8983SOL    HW238412   2.541   1.006   7.553  0.1797 -0.7605  0.3474
 8984SOL     OW38413   0.741   3.485  16.815  0.3368 -0.1638  0.7523
 8984SOL    HW138414   0.805   3.464  16.747 -0.4245 -2.6735  0.8081
 8984SOL    HW238415   0.787   3.434  16.882  3.5185  2.2614  0.4119
 8985SOL     OW38416   3.286   2.643  11.304  0.3794  0.5440  0.6185
 8985SOL    HW138417   3.372   2.601  11.302 -0.3261 -0.9134  1.1736
 8985SOL    HW238418   3.272   2.665  11.212 -1.2113  0.7384  0.9040
 8986SOL     OW38419   4.326   2.995   0.280 -0.0623  0.5216 -0.5592
 8986SOL    HW138420   4.399   2.959   0.330 -0.7819  0.3785  0.3907
 8986SOL    HW238421   4.298   2.921   0.227  0.6166 -0.2030  0.0998
 8987SOL     OW38422   1.629   0.102  13.524  0.0777 -0.3650 -0.2452
 8987SOL    HW138423   1.665   0.123  13.610 -1.5441  0.0836  0.3326
 8987SOL    HW238424   1.663   0.174  13.471  0.0395 -1.4732 -1.7654
 8988SOL     OW38425   1.329   2.734   8.988  0.2261 -0.2075 -0.3629
 8988SOL    HW138426   1.351   2.791   8.914 -1.3183  0.9616  0.0713
 8988SOL    HW238427   1.276   2.671   8.940 -0.3876  1.1571 -1.4880
 8989SOL     OW38428   1.693   1.876   6.872 -0.0793  0.3614 -0.4549
 8989SOL    HW138429   1.663   1.911   6.788  0.2915 -0.0301 -0.7547
 8989SOL    HW238430   1.780   1.915   6.880  0.5201 -1.1682  0.5441
 8990SOL     OW38431   0.589   2.743   1.937 -0.1430 -0.0060 -0.4498
 8990SOL    HW138432   0.616   2.651   1.945 -2.6765 -0.7655 -0.4731
 8990SOL    HW238433   0.673   2.782   1.960 -0.1363 -0.2380 -0.0846
 8991SOL     OW38434   1.003   0.652   7.603 -0.4207 -0.0090  0.4872
 8991SOL    HW138435   0.952   0.614   7.675  1.4114  0.7756  2.1961
 8991SOL    HW238436   0.969   0.741   7.607 -1.5990 -0.3273 -2.7870
 8992SOL     OW38437   3.101   4.640  11.516  0.0820  0.8687 -0.5431
 8992SOL    HW138438   3.014   4.615  11.547 -0.3001  1.2786 -1.2886
 8992SOL    HW238439   3.103   4.606  11.427 -0.2614 -3.2468  1.0146
 8993SOL     OW38440   1.537   2.339   4.046 -0.2531 -0.3764 -0.3893
 8993SOL    HW138441   1.615   2.383   4.011 -0.9864 -0.7344 -2.4177
 8993SOL    HW238442   1.472   2.369   3.983  0.8452  1.9411 -0.4349
 8994SOL     OW38443   0.276   1.831   3.715 -0.2337 -0.1380  0.1671
 8994SOL    HW138444   0.220   1.814   3.791  0.0309 -1.4074  0.0776
 8994SOL    HW238445   0.356   1.809   3.762 -0.7598  0.6557  1.4529
 8995SOL     OW38446   2.229   4.016  17.652  0.5627  0.1509 -0.2229
 8995SOL    HW138447   2.219   4.027   0.041 -1.5886 -0.9992 -0.3102
 8995SOL    HW238448   2.259   3.926  17.658 -0.3607 -0.1377  0.0575
 8996SOL     OW38449   3.939   1.420   6.374  0.0238  0.0089 -0.0935
 8996SOL    HW138450   3.850   1.455   6.386  0.1279  0.8184 -1.5718
 8996SOL    HW238451   3.959   1.440   6.282  1.3339  0.6555  0.3314
 8997SOL     OW38452   3.130   1.349   8.994  0.4364 -0.4744  0.3487
 8997SOL    HW138453   3.162   1.340   8.904 -0.4425 -1.0453  0.0957
 8997SOL    HW238454   3.138   1.256   9.015  0.4879 -0.8598 -1.3706
 8998SOL     OW38455   0.424   3.349   7.108  0.6251  0.5782  0.5356
 8998SOL    HW138456   0.473   3.267   7.120  1.0111  0.8256  0.6568
 8998SOL    HW238457   0.453   3.398   7.185  3.3857 -0.1253 -0.0616
 8999SOL     OW38458   3.671   4.353   8.338 -0.3621 -0.3214 -0.7029
 8999SOL    HW138459   3.699   4.285   8.278  0.6555  0.9470 -1.6614
 8999SOL    HW238460   3.618   4.301   8.399 -0.4407  0.4458 -0.1065
 9000SOL     OW38461   4.054   0.239   5.977  0.1499  0.4300 -0.0865
 9000SOL    HW138462   3.966   0.204   5.988 -0.0532  0.8930 -0.2298
 9000SOL    HW238463   4.068   0.226   5.884 -0.2545  0.2357 -0.1171
 9001SOL     OW38464   0.332   3.799  12.368  0.3019  0.2573 -0.4203
 9001SOL    HW138465   0.287   3.799  12.453 -0.9199  2.2105 -1.0609
 9001SOL    HW238466   0.357   3.889  12.348 -4.1288  1.3460 -1.0173
 9002SOL     OW38467   0.119   1.136   9.511 -0.5193  0.0450  0.6480
 9002SOL    HW138468   0.117   1.061   9.570  1.1682  0.9852  1.8696
 9002SOL    HW238469   0.200   1.121   9.462 -1.0045 -0.6931  0.0565
 9003SOL     OW38470   1.736   3.104   2.903  0.4706 -0.5380 -0.3370
 9003SOL    HW138471   1.790   3.138   2.832  0.0022  0.4062 -0.2420
 9003SOL    HW238472   1.663   3.164   2.890  0.7220  0.0220  0.8349
 9004SOL     OW38473   3.511   1.084   7.380 -0.1982  0.0791 -0.2899
 9004SOL    HW138474   3.417   1.080   7.397 -0.4941  0.3075 -1.8355
 9004SOL    HW238475   3.521   1.173   7.413  0.3160  0.6860 -2.0775
 9005SOL     OW38476   2.008   2.404   2.356  0.1355 -0.0548  0.0872
 9005SOL    HW138477   1.997   2.461   2.432  1.2984 -0.8388  0.8411
 9005SOL    HW238478   1.952   2.449   2.292 -2.6365 -2.1606  1.0419
 9006SOL     OW38479   2.344   0.131   1.004  0.0454 -0.6648  0.2671
 9006SOL    HW138480   2.386   0.145   1.089 -0.0404  0.3770  0.1383
 9006SOL    HW238481   2.360   0.037   1.006  1.6747 -0.3612  1.7760
 9007SOL     OW38482   3.135   3.011   2.694 -0.6545 -0.6189  0.3774
 9007SOL    HW138483   3.130   3.065   2.773 -1.6042  0.7340 -0.5885
 9007SOL    HW238484   3.084   2.932   2.711 -2.3880  0.6939  1.2699
 9008SOL     OW38485   0.102   0.879   8.037  0.6195 -0.6417  0.0820
 9008SOL    HW138486   0.125   0.796   7.995 -1.8574 -0.5707 -1.4410
 9008SOL    HW238487   0.166   0.885   8.108  0.9896 -1.0411 -0.2226
 9009SOL     OW38488   1.438   3.692   6.613 -0.1545  0.0383  0.6530
 9009SOL    HW138489   1.498   3.767   6.616 -1.6351  1.1869  1.1884
 9009SOL    HW238490   1.362   3.727   6.660  0.0385 -0.0425  1.0302
 9010SOL     OW38491   4.557   1.868  13.488  0.1150 -0.1583 -0.3983
 9010SOL    HW138492   4.614   1.920  13.431  1.6874  1.5245  2.7118
 9010SOL    HW238493   4.523   1.809  13.421  1.5620 -0.3064 -1.0070
 9011SOL     OW38494   3.035   4.477  10.833  0.5586  0.0523 -0.3124
 9011SOL    HW138495   3.021   4.548  10.770 -2.5188 -1.4081 -1.2648
 9011SOL    HW238496   3.128   4.469  10.809  1.1623 -0.7650  2.3598
 9012SOL     OW38497   1.252   0.827  13.666  0.2974 -0.1421  0.4780
 9012SOL    HW138498   1.219   0.862  13.583 -0.5523 -2.0434  0.0024
 9012SOL    HW238499   1.256   0.908  13.717  0.2282 -0.1869  0.5530
 9013SOL     OW38500   4.675   0.265  14.827 -0.3705  0.1871  0.0761
 9013SOL    HW138501   4.611   0.248  14.896  2.5850  2.1017  3.2755
 9013SOL    HW238502   0.019   0.306  14.878 -1.1231  1.7491 -0.1549
 9014SOL     OW38503   4.519   2.553  10.213 -0.3296 -0.1076  0.3660
 9014SOL    HW138504   4.455   2.615  10.177  3.5616  1.6585 -3.5180
 9014SOL    HW238505   4.561   2.534  10.129 -0.8448 -1.4542  0.4123
 9015SOL     OW38506   1.473   0.384  16.957  0.3936 -0.1719  0.1969
 9015SOL    HW138507   1.513   0.432  16.884 -0.6844  2.3330  1.2468
 9015SOL    HW238508   1.437   0.447  17.021  0.7267  0.4229 -0.1967
 9016SOL     OW38509   4.163   1.269   2.246 -0.2507 -0.6856 -0.8856
 9016SOL    HW138510   4.211   1.195   2.283 -0.8311 -0.0272  1.1774
 9016SOL    HW238511   4.221   1.307   2.179 -0.9181  0.0787 -1.0281
 9017SOL     OW38512   1.034   1.531  13.644 -1.0821 -0.5890 -0.5776
 9017SOL    HW138513   0.960   1.553  13.700 -0.4245  0.0669  0.0398
 9017SOL    HW238514   1.053   1.619  13.610  0.9075  0.5999  3.5796
 9018SOL     OW38515   1.160   1.514  15.244  0.1397 -0.1662  0.8433
 9018SOL    HW138516   1.090   1.490  15.184  0.8380 -0.3523  0.1020
 9018SOL    HW238517   1.122   1.486  15.327 -0.6445 -3.6751 -0.7098
 9019SOL     OW38518   2.287   3.702   6.436  0.3077  0.6665  0.3850
 9019SOL    HW138519   2.306   3.634   6.501  1.8834  0.7627  0.0232
 9019SOL    HW238520   2.224   3.663   6.375 -0.2640  0.1908  1.2825
 9020SOL     OW38521   4.042   3.408  15.509 -0.2441 -0.5267  0.5920
 9020SOL    HW138522   4.136   3.423  15.506 -0.4251  0.4318 -0.3931
 9020SOL    HW238523   4.012   3.415  15.418 -1.3714 -1.4775  0.8945
 9021SOL     OW38524   4.258   2.935   9.135  0.3555 -0.3149  0.1631
 9021SOL    HW138525   4.336   2.889   9.166  0.5297 -0.4563 -0.4941
 9021SOL    HW238526   4.221   2.976   9.214  1.6757 -0.9066  1.0857
 9022SOL     OW38527   0.114   0.335   0.625 -0.1854 -0.4006  0.0322
 9022SOL    HW138528   0.020   0.315   0.622 -0.3445  0.4284 -0.4397
 9022SOL    HW238529   0.123   0.380   0.709  2.1740 -0.4479 -0.1959
 9023SOL     OW38530   3.321   0.537   3.284  0.0184 -0.4182 -0.5943
 9023SOL    HW138531   3.349   0.461   3.336 -0.3402 -0.0124  0.1964
 9023SOL    HW238532   3.245   0.501   3.240  0.1210 -1.6832  0.2699
 9024SOL     OW38533   4.044   3.438   3.568 -0.5727  0.6173 -0.3071
 9024SOL    HW138534   3.989   3.439   3.647 -0.1355 -0.2034  0.0063
 9024SOL    HW238535   4.072   3.529   3.562  1.9977 -0.0832  1.0917
 9025SOL     OW38536   4.297   2.468  15.921 -0.5671  0.2493 -0.1017
 9025SOL    HW138537   4.234   2.477  15.992  0.7811 -0.4042  1.1752
 9025SOL    HW238538   4.348   2.545  15.943  0.8978 -0.1767 -1.9807
 9026SOL     OW38539   0.651   1.051   0.999  0.2640 -0.1412 -0.2726
 9026SOL    HW138540   0.729   1.039   0.945 -0.5317 -1.1188 -1.1879
 9026SOL    HW238541   0.688   1.030   1.085  0.6679  0.3809 -0.3176
 9027SOL     OW38542   3.385   0.270  11.580 -0.2928  0.1481 -0.0782
 9027SOL    HW138543   3.404   0.364  11.577  0.5884 -0.0335  0.0359
 9027SOL    HW238544   3.442   0.225  11.641  1.3136  3.1961  0.6260
 9028SOL     OW38545   3.466   1.862   6.784 -0.3935 -0.3346 -0.3764
 9028SOL    HW138546   3.375   1.833   6.783 -0.2941 -0.6426 -0.2687
 9028SOL    HW238547   3.492   1.842   6.874  1.2901 -0.8426 -0.9841
 9029SOL     OW38548   1.889   3.701  10.160 -0.1967  0.1834 -0.0528
 9029SOL    HW138549   1.818   3.659  10.208 -0.2946  1.8641  1.2536
 9029SOL    HW238550   1.958   3.693  10.226  1.0262  0.0229 -1.3576
 9030SOL     OW38551   2.802   1.477  13.144 -0.2215  0.8849 -0.3895
 9030SOL    HW138552   2.893   1.481  13.114 -0.4183 -1.0962 -1.2801
 9030SOL    HW238553   2.815   1.424  13.223  1.3514  2.7463  0.5837
 9031SOL     OW38554   0.449   1.257   0.744  0.6120  0.0008  0.8184
 9031SOL    HW138555   0.454   1.285   0.836 -1.8555  1.2053  0.5773
 9031SOL    HW238556   0.518   1.190   0.744 -0.8108 -1.4644  0.3896
 9032SOL     OW38557   4.552   2.504   0.897  0.1743  0.2273 -0.1317
 9032SOL    HW138558   4.497   2.453   0.837  0.9708  0.3626 -0.9780
 9032SOL    HW238559   4.500   2.520   0.975 -0.3859 -1.4817 -0.1532
 9033SOL     OW38560   2.140   2.186   7.314  0.0975 -0.0588 -0.6534
 9033SOL    HW138561   2.152   2.091   7.323  1.8754  0.4004  1.9009
 9033SOL    HW238562   2.100   2.186   7.227 -1.8485 -2.7045  0.2266
 9034SOL     OW38563   1.288   4.686  15.631 -0.5883 -0.0028  0.1391
 9034SOL    HW138564   1.234   0.029  15.593 -1.7712 -0.5310  0.8548
 9034SOL    HW238565   1.275   4.623  15.559  0.0108 -0.4305  0.4059
 9035SOL     OW38566   0.314   0.623   7.958  0.2280  0.2828 -0.0380
 9035SOL    HW138567   0.357   0.674   7.890 -0.9905  0.5773 -0.5898
 9035SOL    HW238568   0.351   0.676   8.029  0.5367 -0.3782  0.2961
 9036SOL     OW38569   4.351   3.985   7.114  0.3457  0.0042  0.5720
 9036SOL    HW138570   4.292   4.057   7.136  1.8734  0.6296  2.6006
 9036SOL    HW238571   4.430   3.998   7.167  0.5088  2.9764 -0.3673
 9037SOL     OW38572   1.051   1.953   7.356 -0.0137  0.1100 -0.5434
 9037SOL    HW138573   0.971   2.000   7.333 -0.1325  0.2964  0.2627
 9037SOL    HW238574   1.099   1.953   7.272 -0.6645  1.6269 -0.9230
 9038SOL     OW38575   2.348   0.927   6.022 -0.2298 -0.1325  0.7094
 9038SOL    HW138576   2.358   0.863   5.952  0.7587  0.5496  0.2309
 9038SOL    HW238577   2.349   0.866   6.096  0.2091 -0.6099  0.3054
 9039SOL     OW38578   1.521   0.130   0.107 -0.1500 -0.0142 -0.2102
 9039SOL    HW138579   1.518   0.070   0.181  1.7603  1.4962  1.0912
 9039SOL    HW238580   1.558   0.082   0.032  0.1711  1.2908 -0.8867
 9040SOL     OW38581   0.508   2.424   0.192 -0.4099  0.1957 -0.0665
 9040SOL    HW138582   0.455   2.347   0.212 -0.3867 -0.3311 -2.1178
 9040SOL    HW238583   0.476   2.448   0.106  2.2670 -1.0160 -1.4329
 9041SOL     OW38584   3.015   0.108   6.384  0.1391 -0.2272 -0.4473
 9041SOL    HW138585   3.104   0.076   6.369  0.9052  1.1984  1.0365
 9041SOL    HW238586   2.962   0.029   6.370 -0.1099 -0.1621  0.1630
 9042SOL     OW38587   1.714   4.637   8.691  0.8288  0.2297 -0.0061
 9042SOL    HW138588   1.655   4.709   8.670  0.9894  0.2004 -0.5780
 9042SOL    HW238589   1.794   4.689   8.682  1.1199  0.0277  1.4309
 9043SOL     OW38590   0.405   1.728   0.011  0.0617  0.5882  0.2483
 9043SOL    HW138591   0.473   1.731  17.650  1.6078  3.2143  1.9144
 9043SOL    HW238592   0.407   1.635   0.033  0.2676  0.1736 -1.5189
 9044SOL     OW38593   0.827   4.436   2.933 -0.1943  0.3256  0.2241
 9044SOL    HW138594   0.887   4.426   2.859  0.1218  0.4275  0.4697
 9044SOL    HW238595   0.826   4.346   2.966 -0.0871  1.0549  2.1607
 9045SOL     OW38596   0.271   2.341   8.212  0.3748  0.0053  0.7817
 9045SOL    HW138597   0.345   2.370   8.266 -1.1192  2.0087  1.7876
 9045SOL    HW238598   0.305   2.314   8.127  2.5831 -0.4198  1.8108
 9046SOL     OW38599   3.854   1.245   8.996 -0.1699  0.3407  0.3674
 9046SOL    HW138600   3.903   1.315   8.954  0.3439  0.5027  1.2170
 9046SOL    HW238601   3.857   1.277   9.086 -2.4557 -0.9848  0.9033
 9047SOL     OW38602   0.709   3.876   9.551 -0.3256  0.2304 -0.1143
 9047SOL    HW138603   0.749   3.961   9.532 -1.4796  1.1057  1.3856
 9047SOL    HW238604   0.691   3.876   9.645 -0.3990  0.8930 -0.1292
 9048SOL     OW38605   3.203   0.120   2.461  0.0812 -0.2165  0.2589
 9048SOL    HW138606   3.280   0.083   2.418 -0.4757  1.3707 -2.1136
 9048SOL    HW238607   3.190   0.201   2.411 -2.1204  1.0848  2.9216
 9049SOL     OW38608   4.051   1.298   8.524  0.2865  0.5169 -0.3827
 9049SOL    HW138609   3.959   1.326   8.521 -0.2907 -1.2279  0.6424
 9049SOL    HW238610   4.059   1.203   8.534 -0.3277  0.5345  0.2643
 9050SOL     OW38611   2.179   0.754  14.628  0.2668  0.4068 -0.3436
 9050SOL    HW138612   2.246   0.734  14.563  0.7757 -1.0279  0.6233
 9050SOL    HW238613   2.137   0.668  14.632 -0.9982  1.1289  1.8515
 9051SOL     OW38614   3.874   3.054   8.483  0.4699  0.4325  0.2296
 9051SOL    HW138615   3.895   3.007   8.402  1.6066 -0.1369  0.8524
 9051SOL    HW238616   3.861   3.146   8.461 -1.2715 -0.0756 -0.8701
 9052SOL     OW38617   2.651   0.843   9.905  0.6229  0.2349 -0.2167
 9052SOL    HW138618   2.657   0.761   9.953 -0.4746  1.3075  1.7734
 9052SOL    HW238619   2.557   0.853   9.897  0.8326  0.9302 -1.7442
 9053SOL     OW38620   4.621   4.656   6.840 -0.3576  0.0117 -0.1651
 9053SOL    HW138621   4.596   4.582   6.895 -0.8312  1.0090  0.9814
 9053SOL    HW238622   4.578   4.724   6.892 -1.3501 -0.9031  0.2134
 9054SOL     OW38623   1.408   0.103   9.994  0.3859 -0.3460  0.3913
 9054SOL    HW138624   1.321   0.063   9.988  0.9900 -1.9118  1.8656
 9054SOL    HW238625   1.449   0.031  10.042  0.6194 -1.2958 -1.2204
 9055SOL     OW38626   4.449   3.296  11.423 -0.3212  0.0220  0.1844
 9055SOL    HW138627   4.423   3.204  11.416 -3.1484  0.7903  0.6964
 9055SOL    HW238628   4.388   3.325  11.490 -1.0381  1.5172 -1.1373
 9056SOL     OW38629   0.560   0.217   3.222 -1.0159  0.4194 -0.7576
 9056SOL    HW138630   0.513   0.268   3.287  0.4926  1.9795 -0.8788
 9056SOL    HW238631   0.517   0.221   3.136 -1.2062 -1.0471 -0.7334
 9057SOL     OW38632   2.876   1.620   6.749  0.5507 -0.0522  0.5595
 9057SOL    HW138633   2.958   1.572   6.737  0.2666 -0.5854  0.7552
 9057SOL    HW238634   2.876   1.706   6.706  1.5733 -1.0764 -1.4879
 9058SOL     OW38635   2.603   0.078   7.918 -0.6142 -0.3849 -0.1663
 9058SOL    HW138636   2.639   4.726   7.960  1.3812 -0.7147 -2.5112
 9058SOL    HW238637   2.556   0.031   7.849 -1.4711 -1.6343  1.2574
 9059SOL     OW38638   2.924   4.496   3.506 -0.4844  0.9051  0.2939
 9059SOL    HW138639   2.886   4.555   3.441 -0.8724  1.9640  1.4800
 9059SOL    HW238640   3.011   4.533   3.523 -0.4613  2.3723 -2.8736
 9060SOL     OW38641   0.251   3.051   6.241  0.2978  0.3030  0.2678
 9060SOL    HW138642   0.212   3.046   6.153  0.6280 -1.7355  0.2420
 9060SOL    HW238643   0.316   3.119   6.219 -1.1863  1.8234  0.5657
 9061SOL     OW38644   1.749   3.723  15.843  0.0741  0.1147  0.5052
 9061SOL    HW138645   1.824   3.751  15.895  0.7789 -1.6463  0.4121
 9061SOL    HW238646   1.707   3.808  15.833  2.5184  1.2166 -0.4693
 9062SOL     OW38647   0.452   3.432   6.673 -0.2749 -0.4880 -0.4009
 9062SOL    HW138648   0.388   3.397   6.735 -2.2945  0.3797 -2.0135
 9062SOL    HW238649   0.438   3.364   6.607 -1.6433  1.7234 -2.3558
 9063SOL     OW38650   0.159   1.106   0.341  0.0827 -0.6252  0.2865
 9063SOL    HW138651   0.182   1.099   0.433  0.3541  0.3516  0.2942
 9063SOL    HW238652   0.198   1.029   0.300  0.1657  0.0477 -0.9208
 9064SOL     OW38653   2.974   1.756   9.864 -0.2404 -0.7629  0.3879
 9064SOL    HW138654   3.045   1.749   9.800 -0.3012 -0.1273  0.2476
 9064SOL    HW238655   2.935   1.840   9.841  0.7115 -0.2365  0.6557
 9065SOL     OW38656   0.075   0.515   1.785  0.3193  0.0660 -0.1406
 9065SOL    HW138657   0.030   0.473   1.858  0.0418 -0.4384 -0.6036
 9065SOL    HW238658   0.170   0.509   1.796  0.2282 -0.2113  0.4521
 9066SOL     OW38659   1.347   3.156   3.665 -0.1285 -0.0866 -0.5305
 9066SOL    HW138660   1.267   3.104   3.660 -0.8484  1.2321 -2.5395
 9066SOL    HW238661   1.389   3.135   3.582  2.3937  2.2580  0.1405
 9067SOL     OW38662   3.314   3.489   3.976 -0.3824  0.4665 -0.6087
 9067SOL    HW138663   3.237   3.508   3.922 -0.2303  1.2011 -0.5621
 9067SOL    HW238664   3.303   3.552   4.047 -0.2321 -0.8252  0.5580
 9068SOL     OW38665   2.855   4.590   9.692  0.0100  0.1939  0.7232
 9068SOL    HW138666   2.913   4.666   9.702  0.7870 -0.0269 -2.0863
 9068SOL    HW238667   2.909   4.537   9.634  0.2251 -0.0385  1.1433
 9069SOL     OW38668   4.527   1.756   1.552 -0.6632 -0.3450 -0.0854
 9069SOL    HW138669   4.472   1.802   1.489 -0.0654  0.5754  0.0838
 9069SOL    HW238670   4.597   1.729   1.494 -1.5822 -0.4688 -1.1354
 9070SOL     OW38671   0.695   0.391   7.284  0.1452 -0.3472 -0.1238
 9070SOL    HW138672   0.706   0.389   7.379  3.7233 -1.0867 -0.5557
 9070SOL    HW238673   0.679   0.298   7.263 -0.9936 -0.1436 -0.1657
 9071SOL     OW38674   3.919   0.158   2.486 -0.3312  0.8467 -0.0598
 9071SOL    HW138675   3.963   0.242   2.500  0.4223  0.5776 -0.7938
 9071SOL    HW238676   3.965   0.107   2.553  2.2233  0.5867 -1.9972
 9072SOL     OW38677   1.586   3.837   3.465  0.7121  0.1571 -0.2303
 9072SOL    HW138678   1.543   3.774   3.522  1.5988  2.2011  2.6895
 9072SOL    HW238679   1.678   3.832   3.490  1.4710  2.1990 -2.5493
 9073SOL     OW38680   0.101   4.203   5.549 -0.7095  0.1716 -0.2493
 9073SOL    HW138681   0.126   4.240   5.465  1.1830  1.2365  0.7895
 9073SOL    HW238682   0.075   4.282   5.594  2.7606  0.5643  1.0896
 9074SOL     OW38683   4.017   0.446   4.301  0.5378  0.2824  0.3347
 9074SOL    HW138684   3.945   0.508   4.292  0.9685  1.1302  2.9047
 9074SOL    HW238685   3.975   0.390   4.366 -2.5304  1.1728 -0.8910
 9075SOL     OW38686   1.253   3.940  12.777 -0.4606  0.3747  0.0837
 9075SOL    HW138687   1.278   3.918  12.867 -0.8891  1.8600  0.5672
 9075SOL    HW238688   1.319   4.004  12.750 -1.4901  1.2326 -0.4050
 9076SOL     OW38689   3.258   2.556   6.482 -0.3728  0.1046  0.4648
 9076SOL    HW138690   3.279   2.616   6.411 -1.4343  0.5918  0.5734
 9076SOL    HW238691   3.249   2.614   6.557  3.9373  0.3966  0.7730
 9077SOL     OW38692   1.159   3.540  17.119 -0.8331 -0.1121 -0.4422
 9077SOL    HW138693   1.236   3.561  17.173 -0.0475  0.1787 -1.6769
 9077SOL    HW238694   1.172   3.596  17.043 -1.4744 -0.9482 -1.1743
 9078SOL     OW38695   3.503   3.374  16.576 -0.5585 -0.6388 -0.1381
 9078SOL    HW138696   3.563   3.428  16.626 -0.1316 -1.4844  0.2666
 9078SOL    HW238697   3.542   3.363  16.489 -0.3300 -0.1205 -0.0959
 9079SOL     OW38698   0.027   3.479   3.702 -0.4351 -0.2961  0.2824
 9079SOL    HW138699   4.676   3.440   3.662 -1.1625 -0.1013  1.4956
 9079SOL    HW238700   0.091   3.490   3.632 -1.1254 -0.1883 -0.3297
 9080SOL     OW38701   1.722   2.353   4.306  0.4893  0.1281 -0.2034
 9080SOL    HW138702   1.813   2.324   4.295  0.4482  0.0702 -0.3999
 9080SOL    HW238703   1.718   2.434   4.256 -1.9979  0.2392  0.1787
 9081SOL     OW38704   2.345   0.654   2.302  0.2599  0.4388 -0.8112
 9081SOL    HW138705   2.268   0.704   2.273 -1.3622 -1.0957  0.8065
 9081SOL    HW238706   2.323   0.565   2.271 -0.6559  0.9161 -1.5514
 9082SOL     OW38707   1.862   3.882   2.741  0.3680  0.6883  0.1169
 9082SOL    HW138708   1.785   3.866   2.686 -0.2116  0.3898  1.0374
 9082SOL    HW238709   1.922   3.913   2.672  0.3874  2.6938  1.0456
 9083SOL     OW38710   2.418   1.372   2.169 -0.1478  0.2628  0.6396
 9083SOL    HW138711   2.324   1.385   2.156 -0.1494  1.5356  1.8564
 9083SOL    HW238712   2.446   1.460   2.193  0.4565  0.4551 -0.7439
 9084SOL     OW38713   0.243   2.840  13.816  0.0749 -0.3387 -0.6597
 9084SOL    HW138714   0.175   2.898  13.781 -1.5262 -0.9977  1.4489
 9084SOL    HW238715   0.184   2.774  13.851 -1.4627  2.5564  2.2170
 9085SOL     OW38716   3.638   4.569  12.374  0.9381 -0.1623  0.0195
 9085SOL    HW138717   3.698   4.573  12.300  2.6354 -2.4595  1.2802
 9085SOL    HW238718   3.613   4.477  12.366 -0.4234  0.0609  1.6157
 9086SOL     OW38719   0.129   2.743   1.708 -0.6909  0.5560 -0.0137
 9086SOL    HW138720   0.195   2.716   1.645  0.8802  1.4097  1.2623
 9086SOL    HW238721   0.145   2.676   1.775 -0.6362  1.6675  1.0895
 9087SOL     OW38722   2.069   2.316   3.634 -0.2344  0.3035  0.8706
 9087SOL    HW138723   1.995   2.299   3.692 -0.5158 -0.6198  0.2519
 9087SOL    HW238724   2.067   2.231   3.589  0.9134  0.3107  0.7872
 9088SOL     OW38725   4.688   3.534   2.911 -0.0302  0.1144  0.0460
 9088SOL    HW138726   4.624   3.477   2.867 -1.1489  1.7072 -0.3666
 9088SOL    HW238727   4.713   3.579   2.830 -0.7469  0.6058  0.0915
 9089SOL     OW38728   3.433   0.105   0.798 -0.0120 -0.0745  0.4616
 9089SOL    HW138729   3.464   0.191   0.826  2.8891 -1.1927  0.6278
 9089SOL    HW238730   3.482   0.042   0.851  1.6079  1.7728  1.1171
 9090SOL     OW38731   0.557   1.690  15.393 -0.5207 -0.4582 -0.2869
 9090SOL    HW138732   0.596   1.659  15.311 -0.2568 -0.7082 -0.0644
 9090SOL    HW238733   0.475   1.641  15.399  0.5578 -2.0426  1.5198
 9091SOL     OW38734   3.437   1.542   5.553  0.4050 -0.0977 -0.7358
 9091SOL    HW138735   3.478   1.601   5.617 -0.3058  0.8844 -1.1885
 9091SOL    HW238736   3.374   1.609   5.528  1.5335  1.0697 -0.4622
 9092SOL     OW38737   4.332   1.936  16.750  0.1299  0.5704  0.6492
 9092SOL    HW138738   4.335   2.019  16.703 -0.2516  0.0053 -0.3764
 9092SOL    HW238739   4.369   1.869  16.692 -0.8440  0.6851 -0.1127
 9093SOL     OW38740   2.291   4.536   3.833  0.2768  0.5809  0.0792
 9093SOL    HW138741   2.315   4.565   3.745  0.2116 -2.1537 -0.8190
 9093SOL    HW238742   2.196   4.541   3.822  0.0457  0.3885  1.8778
 9094SOL     OW38743   1.135   0.952  15.231  0.7011 -0.5936 -0.5482
 9094SOL    HW138744   1.106   0.865  15.258 -1.9654  1.0653  1.8973
 9094SOL    HW238745   1.229   0.945  15.210 -0.4123 -0.4392 -5.6230
 9095SOL     OW38746   1.044   3.382   2.017 -0.2403  0.0648 -0.1266
 9095SOL    HW138747   0.960   3.424   1.999  1.2474  2.7714 -0.8808
 9095SOL    HW238748   1.095   3.442   1.962  0.2966 -1.0867 -0.8598
 9096SOL     OW38749   1.660   2.122   9.040 -0.6725 -0.6038  0.4066
 9096SOL    HW138750   1.618   2.206   9.055  1.0425  0.1775  0.8665
 9096SOL    HW238751   1.692   2.125   8.950 -0.0045  0.9884  0.6953
 9097SOL     OW38752   3.645   0.438   2.856 -0.2497  0.2146  0.3564
 9097SOL    HW138753   3.584   0.394   2.796 -0.8903 -0.4230  1.4682
 9097SOL    HW238754   3.711   0.369   2.865 -0.4292 -0.0903 -0.7227
 9098SOL     OW38755   3.596   1.600   8.335  0.7867 -0.4093 -0.0912
 9098SOL    HW138756   3.674   1.547   8.349  1.1485 -0.1596 -1.1621
 9098SOL    HW238757   3.541   1.556   8.400  1.3590 -1.4113 -0.2924
 9099SOL     OW38758   2.057   3.897   6.467  0.1777 -0.4678 -0.1155
 9099SOL    HW138759   2.057   3.809   6.505 -1.2909 -1.5587 -2.6229
 9099SOL    HW238760   2.151   3.918   6.472 -0.6001  2.6755  1.4826
 9100SOL     OW38761   2.634   4.001   5.459 -0.1416  0.2994  0.3781
 9100SOL    HW138762   2.562   3.940   5.473 -0.9802  1.6392  1.9508
 9100SOL    HW238763   2.682   3.947   5.397 -1.2397  1.0638 -1.1470
 9101SOL     OW38764   1.388   4.342   8.331  0.0914  0.7590 -0.0691
 9101SOL    HW138765   1.297   4.315   8.315  0.2503 -0.5074  1.1484
 9101SOL    HW238766   1.402   4.300   8.416  0.2045 -0.2982 -0.6112
 9102SOL     OW38767   3.149   2.065   5.204  0.0002  0.3032 -0.5893
 9102SOL    HW138768   3.209   2.133   5.172 -0.4213  0.8314 -0.2576
 9102SOL    HW238769   3.093   2.040   5.130 -0.4833  0.6298 -0.3350
 9103SOL     OW38770   0.155   0.407   0.915 -0.5817  0.7203  0.1470
 9103SOL    HW138771   0.152   0.319   0.952 -0.8754  0.6370 -0.0794
 9103SOL    HW238772   0.231   0.452   0.952  0.9569 -0.5592 -1.4070
 9104SOL     OW38773   1.210   0.400   7.023 -0.6390  0.2683 -0.1891
 9104SOL    HW138774   1.116   0.414   7.029 -0.2584  2.0506  1.7692
 9104SOL    HW238775   1.216   0.305   7.022  0.1017  0.3203 -0.5914
 9105SOL     OW38776   2.802   4.078   7.773 -0.1931 -0.4416  0.2423
 9105SOL    HW138777   2.743   4.048   7.704 -0.0860  0.1319 -0.1015
 9105SOL    HW238778   2.787   4.009   7.838 -0.2925 -2.9305 -2.3972
 9106SOL     OW38779   2.947   2.842  15.423 -0.5450  0.1077  0.0770
 9106SOL    HW138780   2.953   2.936  15.440  1.1588  0.1316 -0.6409
 9106SOL    HW238781   2.964   2.802  15.509 -0.7968 -0.6401 -0.2198
 9107SOL     OW38782   2.133   3.957   7.416 -0.5598  0.2396  0.7993
 9107SOL    HW138783   2.173   3.955   7.503  0.0528 -0.2902  0.5071
 9107SOL    HW238784   2.122   4.051   7.403 -2.0387  0.1860  1.5774
 9108SOL     OW38785   4.196   2.109   5.667 -0.2065  0.5839  0.5923
 9108SOL    HW138786   4.184   2.089   5.574 -1.6834  1.0091  0.6893
 9108SOL    HW238787   4.237   2.025   5.687  1.4439  1.5921  1.4555
 9109SOL     OW38788   4.347   0.952   4.564 -0.1871 -0.0274 -0.0686
 9109SOL    HW138789   4.254   0.930   4.552 -0.0488 -0.9055  0.4895
 9109SOL    HW238790   4.367   0.928   4.474  2.0508 -1.6140  0.8699
 9110SOL     OW38791   4.104   2.953  10.101  0.1262  0.9466  0.0028
 9110SOL    HW138792   4.179   2.915  10.147 -1.1385 -1.8430 -0.2164
 9110SOL    HW238793   4.041   2.955  10.173  0.6379 -1.1813  0.5224
 9111SOL     OW38794   4.686   2.500   6.603  0.0891 -0.8154 -0.5543
 9111SOL    HW138795   4.674   2.446   6.681  1.0504  0.4279  0.4463
 9111SOL    HW238796   0.033   2.553   6.634 -1.1869 -0.2750  1.4998
 9112SOL     OW38797   2.767   0.400   1.257  0.1006  0.0172 -0.1625
 9112SOL    HW138798   2.805   0.312   1.251  0.6661  0.0834  2.2636
 9112SOL    HW238799   2.699   0.381   1.322 -2.2648  2.3059 -1.9816
 9113SOL     OW38800   2.289   0.162   1.644  0.0145  0.0418 -0.2002
 9113SOL    HW138801   2.379   0.133   1.655 -0.1194  0.1788  1.2275
 9113SOL    HW238802   2.270   0.132   1.555 -1.8347 -0.0146  0.2190
 9114SOL     OW38803   2.367   2.356   3.606 -0.4577 -0.3867 -0.0821
 9114SOL    HW138804   2.384   2.268   3.571 -0.9254 -0.5162  0.0198
 9114SOL    HW238805   2.275   2.350   3.631 -0.5989 -0.6536 -0.6458
 9115SOL     OW38806   2.356   3.444   7.935 -0.3664  0.4089  0.4677
 9115SOL    HW138807   2.354   3.438   8.031  2.1133  2.8641  0.6861
 9115SOL    HW238808   2.397   3.528   7.917 -2.0349  0.9405 -0.8595
 9116SOL     OW38809   1.488   2.690   9.541 -0.1267  0.1512  0.2802
 9116SOL    HW138810   1.522   2.624   9.482  0.1417  0.0611  0.5340
 9116SOL    HW238811   1.570   2.718   9.583 -0.8981  2.4833  0.2715
 9117SOL     OW38812   0.410   3.293   9.800 -0.1696 -0.3306  0.4793
 9117SOL    HW138813   0.488   3.348   9.791 -0.3138 -0.4127 -1.1134
 9117SOL    HW238814   0.452   3.224   9.852 -1.4193 -2.7117 -1.6745
 9118SOL     OW38815   0.502   2.897   4.969 -0.0854  0.2065 -0.3752
 9118SOL    HW138816   0.595   2.874   4.966 -0.1536 -0.1544  0.1350
 9118SOL    HW238817   0.466   2.854   4.892 -0.4688  0.8492 -0.5546
 9119SOL     OW38818   0.595   2.643   3.701 -0.0216  0.2246 -0.2311
 9119SOL    HW138819   0.513   2.600   3.722  0.2337  0.3968  1.1298
 9119SOL    HW238820   0.633   2.588   3.632 -1.5856 -1.9595  0.6534
 9120SOL     OW38821   0.463   1.281   1.028  0.3525  0.9783  0.0537
 9120SOL    HW138822   0.509   1.326   1.099  0.2949 -0.0171  0.7113
 9120SOL    HW238823   0.516   1.204   1.010 -1.6512 -0.3281 -0.2747
 9121SOL     OW38824   1.887   1.024   2.123 -0.7333  0.5589 -0.7706
 9121SOL    HW138825   1.982   1.027   2.134 -0.5998 -0.9629 -1.5598
 9121SOL    HW238826   1.873   1.073   2.042  0.4747  2.7620  0.3683
 9122SOL     OW38827   3.092   2.295   6.073 -0.1309  0.4159  0.2727
 9122SOL    HW138828   3.144   2.234   6.022  0.2823  1.0399 -0.0563
 9122SOL    HW238829   3.129   2.381   6.050 -2.3640  1.1718 -0.5463
 9123SOL     OW38830   3.941   4.377  14.521 -0.2057  0.5423  0.0287
 9123SOL    HW138831   3.914   4.462  14.487  3.2558  2.7579  2.7656
 9123SOL    HW238832   4.023   4.368  14.471  0.3972 -1.7853  1.4199
 9124SOL     OW38833   3.715   1.895  14.599  0.1356  0.8070  0.8305
 9124SOL    HW138834   3.807   1.870  14.612  0.2042  1.2300  1.1667
 9124SOL    HW238835   3.694   1.964  14.662  3.7859  1.4415  1.3840
 9125SOL     OW38836   2.757   0.008  11.544 -0.8214  0.7672 -0.3695
 9125SOL    HW138837   2.691   0.071  11.574 -2.6905 -0.9551 -0.9661
 9125SOL    HW238838   2.838   0.057  11.527  0.8223 -1.7923  0.0412
 9126SOL     OW38839   1.630   3.963   8.236  0.2785 -0.4993  0.2082
 9126SOL    HW138840   1.605   3.943   8.146  1.0196 -0.1240 -0.0816
 9126SOL    HW238841   1.679   4.044   8.224  1.6924 -1.6743 -2.1395
 9127SOL     OW38842   2.885   1.695   1.404  0.0299  0.0225 -0.0284
 9127SOL    HW138843   2.974   1.725   1.386 -0.8536  2.6963  0.0674
 9127SOL    HW238844   2.875   1.697   1.499  0.1979  1.2865 -0.0413
 9128SOL     OW38845   4.227   4.051   8.361  0.5330 -0.3021  0.1304
 9128SOL    HW138846   4.314   4.087   8.347 -0.2326  1.2381 -0.7140
 9128SOL    HW238847   4.235   4.056   8.457 -1.3823  3.6910  0.1003
 9129SOL     OW38848   0.264   0.875   0.240  0.1159 -0.4137 -0.2888
 9129SOL    HW138849   0.337   0.885   0.179  0.3380 -1.6560 -0.2309
 9129SOL    HW238850   0.254   0.780   0.233  1.8146 -0.6918  1.0291
 9130SOL     OW38851   1.100   2.566   8.339 -0.1765 -0.4410  0.7364
 9130SOL    HW138852   1.044   2.547   8.415 -0.6443  1.0628  0.7652
 9130SOL    HW238853   1.112   2.476   8.310  0.1517  0.0009 -0.4999
 9131SOL     OW38854   3.266   2.764   3.742  0.0362  0.5484 -1.0628
 9131SOL    HW138855   3.234   2.851   3.717 -1.1838 -0.1253 -1.8332
 9131SOL    HW238856   3.361   2.772   3.733 -0.1497  0.9539 -2.5547
 9132SOL     OW38857   1.135   0.447   1.847  0.7536 -0.3140  0.0041
 9132SOL    HW138858   1.140   0.541   1.830  0.2807 -0.2476  0.2440
 9132SOL    HW238859   1.043   0.426   1.830  0.4085  1.9487 -0.9236
 9133SOL     OW38860   1.164   0.116   6.968  0.2058 -0.1432 -0.7472
 9133SOL    HW138861   1.091   0.061   6.997  0.4657  0.5979  1.3008
 9133SOL    HW238862   1.162   0.091   6.876  1.6030  3.9260 -1.8817
 9134SOL     OW38863   0.120   2.412   0.547  0.3957 -0.5517  0.4038
 9134SOL    HW138864   0.185   2.481   0.534 -0.0348 -0.2313 -0.0551
 9134SOL    HW238865   0.115   2.420   0.642 -0.5349  1.7095  0.1659
 9135SOL     OW38866   2.765   2.996   2.275 -0.1506 -0.1466 -0.1678
 9135SOL    HW138867   2.813   3.046   2.208 -0.1848 -1.2310 -1.0041
 9135SOL    HW238868   2.797   2.908   2.258  0.2739  0.1800 -1.0545
 9136SOL     OW38869   2.439   3.547   9.034 -0.1907 -0.0984 -0.4552
 9136SOL    HW138870   2.515   3.524   9.088 -0.3871  1.1789  0.3659
 9136SOL    HW238871   2.472   3.612   8.973 -1.0057  1.2449  0.5426
 9137SOL     OW38872   0.846   0.998  12.052  0.3408  0.8222 -0.0853
 9137SOL    HW138873   0.875   1.076  12.099  2.3900  0.2501 -0.4216
 9137SOL    HW238874   0.923   0.955  12.015 -0.6616 -0.5274 -0.6600
 9138SOL     OW38875   2.368   3.782  10.900  0.0669  0.0973  0.6016
 9138SOL    HW138876   2.461   3.775  10.919  0.5092  2.1126 -0.7365
 9138SOL    HW238877   2.366   3.877  10.885  0.4721 -0.1093 -0.7020
 9139SOL     OW38878   3.724   1.638   6.955 -0.0303 -0.1749  0.3155
 9139SOL    HW138879   3.815   1.639   6.984  0.0160  0.1372  0.1617
 9139SOL    HW238880   3.730   1.576   6.882 -2.2442 -0.3652  0.2699
 9140SOL     OW38881   1.486   0.539   6.210  0.7531  0.2079 -0.2417
 9140SOL    HW138882   1.566   0.581   6.178  0.9137  2.3196  2.8819
 9140SOL    HW238883   1.519   0.450   6.212  3.7560  1.3070 -1.5325
 9141SOL     OW38884   2.986   2.252   0.954  0.0042 -0.0729  0.2033
 9141SOL    HW138885   2.953   2.219   0.870 -0.1515  0.6389 -0.0190
 9141SOL    HW238886   2.997   2.345   0.935 -1.0265 -0.4003 -2.0283
 9142SOL     OW38887   1.092   3.126  16.567 -0.3239 -0.0480  0.1291
 9142SOL    HW138888   1.019   3.178  16.534  1.6586  4.7464  3.2942
 9142SOL    HW238889   1.175   3.133  16.521  0.3329  1.4226  1.5339
 9143SOL     OW38890   4.700   0.397   7.553  0.3688 -0.8272 -0.0818
 9143SOL    HW138891   4.688   0.490   7.533 -2.2009 -0.6191  2.4216
 9143SOL    HW238892   0.068   0.385   7.562  0.3249  0.7965  2.3576
 9144SOL     OW38893   0.022   1.270   4.180 -0.0763 -0.2113  0.5344
 9144SOL    HW138894   4.724   1.258   4.271  2.1180 -0.1475  1.1247
 9144SOL    HW238895   4.707   1.352   4.155  0.5220 -0.0874 -0.0597
 9145SOL     OW38896   2.360   2.030   4.117  0.1713  0.0914 -0.0528
 9145SOL    HW138897   2.313   2.006   4.196  0.3082  0.0826  0.0257
 9145SOL    HW238898   2.450   2.028   4.152 -0.0213  0.4819  0.4715
 9146SOL     OW38899   2.440   4.436   5.982 -0.3400  0.3899 -0.0858
 9146SOL    HW138900   2.347   4.448   5.960 -0.1348  1.3983 -0.4353
 9146SOL    HW238901   2.479   4.500   5.923 -1.8082  1.7600  0.4208
 9147SOL     OW38902   1.945   1.293   8.139  0.2928 -0.0578  0.1853
 9147SOL    HW138903   1.902   1.208   8.135 -1.2319  0.9341 -4.4034
 9147SOL    HW238904   2.017   1.277   8.079 -0.0609 -1.5242  0.1386
 9148SOL     OW38905   1.302   1.412   6.565 -0.0756 -0.7844 -0.4320
 9148SOL    HW138906   1.393   1.385   6.552 -0.0846 -1.2530  0.5139
 9148SOL    HW238907   1.270   1.374   6.483  1.1254 -0.8998 -0.8483
 9149SOL     OW38908   3.578   1.797   3.070 -0.3967 -0.0755 -1.2592
 9149SOL    HW138909   3.493   1.840   3.073 -0.1296  0.3681 -0.0337
 9149SOL    HW238910   3.592   1.784   2.976 -0.0211  0.3816 -1.2716
 9150SOL     OW38911   3.441   4.544   6.044  0.8573  0.0606  0.1993
 9150SOL    HW138912   3.524   4.518   6.006  0.4578  0.3074 -0.8253
 9150SOL    HW238913   3.468   4.624   6.089  0.8055 -0.7484  1.6816
 9151SOL     OW38914   3.833   4.218  10.660 -0.3966  0.0259 -0.1030
 9151SOL    HW138915   3.852   4.133  10.621 -0.3566 -0.7279  1.5560
 9151SOL    HW238916   3.783   4.195  10.738 -0.0056 -1.2589 -0.2310
 9152SOL     OW38917   0.743   3.023   4.800  0.1815  0.1865 -0.2899
 9152SOL    HW138918   0.781   3.064   4.723 -0.1876 -0.1911 -0.6778
 9152SOL    HW238919   0.713   3.099   4.851  0.1095  0.1899 -0.3373
 9153SOL     OW38920   0.692   1.796  14.659  0.7409  0.7867  0.0572
 9153SOL    HW138921   0.623   1.765  14.717  2.3239 -1.1613  0.8987
 9153SOL    HW238922   0.718   1.877  14.704 -2.1486  0.4499  2.3089
 9154SOL     OW38923   4.151   3.237   4.790 -0.3532  0.0542  0.4486
 9154SOL    HW138924   4.204   3.171   4.745 -1.0915 -0.8140  0.8368
 9154SOL    HW238925   4.212   3.310   4.778 -2.3154  1.7206  0.6803
 9155SOL     OW38926   0.882   1.763  16.756 -0.0508 -0.1032 -0.0721
 9155SOL    HW138927   0.888   1.733  16.847  1.5850  0.0460 -0.1243
 9155SOL    HW238928   0.958   1.822  16.760  0.0331 -0.2159  0.0224
 9156SOL     OW38929   0.977   3.864   4.902  0.0175 -0.5193  0.2240
 9156SOL    HW138930   1.046   3.807   4.868 -1.4625 -1.7138 -0.7671
 9156SOL    HW238931   0.982   3.844   4.996 -0.3856  0.9663  0.5644
 9157SOL     OW38932   3.072   1.976   2.621  0.1005  0.3912  0.0146
 9157SOL    HW138933   3.070   1.880   2.623 -0.0387  0.4009  0.3343
 9157SOL    HW238934   3.162   1.984   2.653 -0.3146  1.1499  0.9956
 9158SOL     OW38935   2.638   1.011   4.400 -0.1263 -0.0853  0.2875
 9158SOL    HW138936   2.709   1.054   4.352  1.0230  0.0245  2.0772
 9158SOL    HW238937   2.603   0.955   4.331 -1.8816 -0.0227  1.1501
 9159SOL     OW38938   3.220   4.472  16.809  0.2390  0.1701 -0.4036
 9159SOL    HW138939   3.314   4.483  16.821  0.4167 -1.1258 -0.5265
 9159SOL    HW238940   3.224   4.387  16.764 -2.0699 -0.1464 -0.0479
 9160SOL     OW38941   0.939   1.657  17.694  0.4060  0.1092 -0.1146
 9160SOL    HW138942   0.951   1.749  17.672  0.3923  0.5830  1.8947
 9160SOL    HW238943   0.853   1.655   0.030 -0.5197 -1.1538 -2.0635
 9161SOL     OW38944   2.113   0.336   5.375 -0.1294 -0.4248 -0.0504
 9161SOL    HW138945   2.197   0.302   5.405 -1.1204 -0.2722  2.9063
 9161SOL    HW238946   2.100   0.264   5.314 -1.0248 -0.0242 -0.3391
 9162SOL     OW38947   4.465   3.024   6.969  0.3696  0.9058 -0.2871
 9162SOL    HW138948   4.506   2.971   6.900  3.1009  1.5042  0.9002
 9162SOL    HW238949   4.511   2.990   7.046 -0.1777  0.4053 -0.1794
 9163SOL     OW38950   1.936   2.047   4.560 -0.2159 -0.3118  0.7461
 9163SOL    HW138951   1.869   2.045   4.629  2.3769  0.4363  3.2995
 9163SOL    HW238952   2.018   2.058   4.608  0.1323  1.9161 -0.3908
 9164SOL     OW38953   0.265   1.939   3.270  0.1318  0.3597  0.4991
 9164SOL    HW138954   0.224   1.898   3.346 -1.7824 -0.8953 -1.2196
 9164SOL    HW238955   0.225   2.025   3.282  0.7031  0.6768  0.0976
 9165SOL     OW38956   2.500   1.726   8.490  0.0417 -0.5541  0.1640
 9165SOL    HW138957   2.423   1.721   8.433 -0.5602 -0.9901  1.0157
 9165SOL    HW238958   2.570   1.770   8.442  0.3679 -1.1950  0.0489
 9166SOL     OW38959   2.002   4.617   3.271  0.2853  0.2686  0.2014
 9166SOL    HW138960   2.024   4.557   3.343  0.4423  0.7522  0.5608
 9166SOL    HW238961   1.941   4.570   3.214 -1.5896  1.0787  1.5160
 9167SOL     OW38962   0.229   3.543   7.068  0.8596  0.5726  0.1694
 9167SOL    HW138963   0.307   3.586   7.034  1.4002  1.0273  1.9431
 9167SOL    HW238964   0.267   3.456   7.076 -0.4208 -0.3058 -3.2623
 9168SOL     OW38965   4.353   3.768   1.132  0.2352 -0.2145 -0.1568
 9168SOL    HW138966   4.361   3.797   1.222  2.6109 -2.3468  0.3170
 9168SOL    HW238967   4.284   3.830   1.109  0.4676  0.2368  0.3855
 9169SOL     OW38968   1.166   2.494   0.837 -0.6007  0.0088  0.4897
 9169SOL    HW138969   1.217   2.575   0.838  1.0302 -0.9866 -1.4225
 9169SOL    HW238970   1.171   2.484   0.742  0.8133 -0.1401  0.5785
 9170SOL     OW38971   0.162   3.755   8.204 -0.2585 -0.0692 -0.1682
 9170SOL    HW138972   0.132   3.776   8.293  1.9518 -0.0449  0.5753
 9170SOL    HW238973   0.096   3.691   8.180  1.0868 -2.0714  1.4309
 9171SOL     OW38974   0.332   1.582   1.034  0.2603 -0.4629 -0.1762
 9171SOL    HW138975   0.283   1.626   0.965  1.0125 -0.6158 -0.8107
 9171SOL    HW238976   0.387   1.514   0.995  2.0617  0.5593  0.5937
 9172SOL     OW38977   4.488   4.571   0.171  0.3064 -0.1345  0.3484
 9172SOL    HW138978   4.493   4.527   0.256  0.7028  1.8013  1.3421
 9172SOL    HW238979   4.535   4.508   0.117  0.5341 -0.2015  0.6243
 9173SOL     OW38980   0.128   1.869   5.555 -0.1601 -0.5228  0.0691
 9173SOL    HW138981   0.125   1.793   5.497 -1.5495 -1.7321  1.7483
 9173SOL    HW238982   0.141   1.821   5.636  2.3722 -2.2038 -1.3336
 9174SOL     OW38983   1.917   3.111   3.120  0.0134 -0.1398 -0.5263
 9174SOL    HW138984   1.845   3.145   3.067  0.9453  1.1793 -0.9342
 9174SOL    HW238985   1.984   3.101   3.053  1.1292  0.4170  0.5077
 9175SOL     OW38986   0.542   3.788  12.073 -0.1466 -0.2843  0.0788
 9175SOL    HW138987   0.615   3.784  12.135 -0.0472 -0.2678 -0.0372
 9175SOL    HW238988   0.488   3.712  12.093 -0.8731  0.2102  0.0089
 9176SOL     OW38989   1.874   4.235  13.341  0.3892 -0.0952  0.1214
 9176SOL    HW138990   1.852   4.328  13.330  1.6607  0.1806 -0.0744
 9176SOL    HW238991   1.872   4.240  13.436  1.0459  1.1894  0.0690
 9177SOL     OW38992   3.106   2.254   7.786 -0.1947 -0.8073 -0.1602
 9177SOL    HW138993   3.030   2.201   7.762 -0.4273 -0.4232 -0.2690
 9177SOL    HW238994   3.095   2.329   7.728 -0.8572  0.0787  1.1111
 9178SOL     OW38995   1.706   1.127   8.268 -0.0080  0.5636  0.4434
 9178SOL    HW138996   1.664   1.207   8.237 -0.9893  0.5205  1.6653
 9178SOL    HW238997   1.738   1.090   8.185 -1.5462 -1.2688  0.6574
 9179SOL     OW38998   3.221   0.020   6.225  0.1351  0.5065 -0.3474
 9179SOL    HW138999   3.302   0.059   6.193 -0.6143  2.7892  0.5693
 9179SOL    HW239000   3.162   0.052   6.156 -2.5383 -0.5086  1.4534
 9180SOL     OW39001   0.502   1.142   7.287 -0.2046 -0.1583  0.3099
 9180SOL    HW139002   0.536   1.210   7.229 -2.4151 -1.3434 -2.3800
 9180SOL    HW239003   0.526   1.066   7.233  0.1361  0.4675 -0.4156
 9181SOL     OW39004   3.741   0.253   1.785 -0.5260 -0.0814 -0.8444
 9181SOL    HW139005   3.722   0.336   1.743 -1.6123  0.7133  1.2294
 9181SOL    HW239006   3.750   0.281   1.876 -0.4577  0.0328 -0.8868
 9182SOL     OW39007   0.000   2.192  17.075  0.8897 -0.3110  0.2330
 9182SOL    HW139008   4.658   2.242  17.121 -0.0619 -1.6068  0.2182
 9182SOL    HW239009   0.061   2.264  17.057  1.1231 -0.3646  0.7981
 9183SOL     OW39010   3.244   3.416   0.472  0.9182 -0.2036 -0.0796
 9183SOL    HW139011   3.155   3.438   0.500  0.8045 -0.6118 -0.1105
 9183SOL    HW239012   3.286   3.497   0.499  1.6860  0.1137 -2.2483
 9184SOL     OW39013   3.351   3.561   9.034  0.0774  0.1631 -0.3301
 9184SOL    HW139014   3.323   3.649   9.009 -0.0233  0.1006 -0.4372
 9184SOL    HW239015   3.350   3.520   8.948  1.0622 -0.8339  0.1253
 9185SOL     OW39016   2.467   1.115   8.490 -0.3413  0.1565 -0.4961
 9185SOL    HW139017   2.468   1.020   8.479 -1.4477  0.3186 -2.0052
 9185SOL    HW239018   2.432   1.111   8.579  0.3388 -1.9861 -0.3289
 9186SOL     OW39019   4.470   1.782  10.742 -0.0606  0.2032 -0.3180
 9186SOL    HW139020   4.376   1.801  10.751  0.0603 -0.0090  1.4816
 9186SOL    HW239021   4.503   1.871  10.730 -0.0056  0.1955 -0.2212
 9187SOL     OW39022   4.201   1.978   9.186 -0.2867  0.0593 -0.2410
 9187SOL    HW139023   4.209   2.027   9.104 -1.0640 -1.4397 -1.2116
 9187SOL    HW239024   4.281   1.994   9.236  0.2727  1.8477 -1.7503
 9188SOL     OW39025   3.082   2.633  15.000  0.9790 -0.2933 -0.0012
 9188SOL    HW139026   3.038   2.566  15.052 -0.0546 -1.7297 -2.6795
 9188SOL    HW239027   3.135   2.582  14.938 -0.0561 -0.9933 -0.3114
 9189SOL     OW39028   2.510   3.219   8.003 -0.2184  0.2133  0.6484
 9189SOL    HW139029   2.419   3.194   8.015 -0.6274  0.5996 -1.6916
 9189SOL    HW239030   2.503   3.305   7.961  1.5547 -0.7661 -1.6296
 9190SOL     OW39031   2.219   1.532   1.372  0.3522 -0.1258  0.4597
 9190SOL    HW139032   2.288   1.466   1.379  0.2540 -0.2578  0.1725
 9190SOL    HW239033   2.178   1.507   1.290  2.2368 -1.4927 -0.0538
 9191SOL     OW39034   4.288   1.588   7.030  0.0111  0.2879 -0.1763
 9191SOL    HW139035   4.272   1.636   7.110  0.7527  0.3053 -0.0450
 9191SOL    HW239036   4.336   1.511   7.061 -0.4838 -0.2221 -0.6461
 9192SOL     OW39037   3.783   0.120   4.726  0.1564  0.3021 -0.1240
 9192SOL    HW139038   3.828   0.113   4.811  0.3355 -0.1897 -0.2593
 9192SOL    HW239039   3.798   0.035   4.685 -0.8318 -0.0109  0.1496
 9193SOL     OW39040   3.144   1.300   7.198 -0.2383  0.3038 -0.4225
 9193SOL    HW139041   3.058   1.326   7.230 -0.1887  1.2722 -1.0760
 9193SOL    HW239042   3.169   1.363   7.130  0.0064  1.6425  0.8796
 9194SOL     OW39043   2.377   3.906   6.706 -0.1793 -0.2404  0.3021
 9194SOL    HW139044   2.293   3.862   6.703  0.1524 -0.6275 -2.7052
 9194SOL    HW239045   2.378   3.930   6.799  4.1827 -2.3371  0.8166
 9195SOL     OW39046   4.283   1.842   0.660 -0.9530 -0.3533  0.4477
 9195SOL    HW139047   4.319   1.888   0.585  2.8392 -1.0060  1.8352
 9195SOL    HW239048   4.191   1.844   0.635 -1.2121 -1.5052  1.3183
 9196SOL     OW39049   1.117   4.565   3.394  0.3851  0.6005 -0.1821
 9196SOL    HW139050   1.084   4.527   3.313  1.5593 -2.3573  0.7188
 9196SOL    HW239051   1.212   4.552   3.391  0.4012  0.8758 -0.9816
 9197SOL     OW39052   0.258   0.387  13.414 -0.2592  0.2906  0.3360
 9197SOL    HW139053   0.204   0.466  13.414 -0.5123  0.1149 -0.0471
 9197SOL    HW239054   0.212   0.324  13.359 -1.6269 -0.2864  2.1398
 9198SOL     OW39055   2.664   0.474   5.040 -0.4868 -0.6666  0.2490
 9198SOL    HW139056   2.698   0.560   5.014  0.5014 -0.9420  0.6311
 9198SOL    HW239057   2.577   0.505   5.066 -0.1327  1.1791 -0.7655
 9199SOL     OW39058   1.424   1.460   2.972 -0.3428  0.1461 -0.1640
 9199SOL    HW139059   1.475   1.523   3.023 -1.1904  0.6449  0.0701
 9199SOL    HW239060   1.490   1.422   2.914 -0.1904 -0.8420  0.6557
 9200SOL     OW39061   0.986   4.454   7.028  0.5013  0.1051 -0.4476
 9200SOL    HW139062   1.066   4.492   6.991  0.3843  0.1806 -0.6246
 9200SOL    HW239063   0.914   4.516   7.040 -0.0837 -0.2709 -1.9851
 9201SOL     OW39064   3.438   3.632  10.192 -0.0589  0.3460 -0.3238
 9201SOL    HW139065   3.513   3.597  10.143 -0.1522 -0.9743  0.4699
 9201SOL    HW239066   3.416   3.558  10.249  2.2804 -1.5192 -1.8550
 9202SOL     OW39067   3.495   4.032   6.488 -0.4649  0.5729  0.1618
 9202SOL    HW139068   3.492   4.053   6.581  0.0535  1.5287 -0.0392
 9202SOL    HW239069   3.567   4.094   6.475  0.0728 -0.4986 -2.1068
 9203SOL     OW39070   4.349   2.324   0.743  0.1834  0.2784 -0.1964
 9203SOL    HW139071   4.407   2.248   0.742 -0.1488  0.0174  0.6157
 9203SOL    HW239072   4.317   2.318   0.653 -0.0847 -0.6999 -0.0387
 9204SOL     OW39073   1.268   3.237   2.754 -0.1663  0.3218 -0.1899
 9204SOL    HW139074   1.176   3.226   2.779 -0.6002  0.2998 -1.7575
 9204SOL    HW239075   1.256   3.287   2.673 -0.1765 -0.3041 -0.5706
 9205SOL     OW39076   1.704   3.517   0.891 -0.6922 -0.0450  0.5253
 9205SOL    HW139077   1.741   3.574   0.958  1.6230 -3.3612  2.0687
 9205SOL    HW239078   1.688   3.577   0.819  0.8438  0.1978  0.3989
 9206SOL     OW39079   4.658   1.715   3.287 -0.4111 -0.3875 -0.2218
 9206SOL    HW139080   4.713   1.750   3.356 -1.5852  1.0543 -0.0014
 9206SOL    HW239081   4.632   1.793   3.237 -0.7937 -0.7894 -0.6554
 9207SOL     OW39082   1.038   4.156  17.379 -0.1861 -0.1380 -0.5858
 9207SOL    HW139083   1.117   4.189  17.336  0.9552 -1.0686  0.8126
 9207SOL    HW239084   1.010   4.084  17.322 -1.8524 -0.4845  0.6800
 9208SOL     OW39085   2.773   0.902   2.721  0.3449 -0.2575 -0.3972
 9208SOL    HW139086   2.760   0.967   2.652 -0.6917  0.3407  0.3665
 9208SOL    HW239087   2.832   0.848   2.669  0.0480 -0.4558 -0.5248
 9209SOL     OW39088   1.670   1.927   3.201  0.3642 -0.0017 -0.2762
 9209SOL    HW139089   1.654   1.959   3.113  0.5715  1.3945  0.1850
 9209SOL    HW239090   1.721   2.006   3.221 -0.9793 -0.2580  4.1484
 9210SOL     OW39091   0.567   3.243   6.222 -0.0957  0.3568  0.3294
 9210SOL    HW139092   0.555   3.229   6.128 -0.6229  0.3043  0.4020
 9210SOL    HW239093   0.569   3.338   6.226  2.0395  0.2444  1.8571
 9211SOL     OW39094   3.559   3.125  14.337 -0.0128  0.0951  0.0975
 9211SOL    HW139095   3.538   3.195  14.399 -0.1138 -0.7344  0.9959
 9211SOL    HW239096   3.612   3.064  14.388 -1.0524  0.9185  2.1313
 9212SOL     OW39097   1.607   1.407  10.251 -0.0028  0.1799 -0.4505
 9212SOL    HW139098   1.528   1.388  10.199  1.5897 -0.6306 -2.5839
 9212SOL    HW239099   1.640   1.318  10.266 -0.7197 -0.2441 -1.3537
 9213SOL     OW39100   2.262   2.167  12.592 -0.6284  0.7902  0.4013
 9213SOL    HW139101   2.258   2.253  12.551  4.6693  0.1749 -1.4534
 9213SOL    HW239102   2.173   2.148  12.621 -0.7567 -2.6700 -2.1196
 9214SOL     OW39103   2.220   0.122   9.709  0.1140 -0.1321  0.3442
 9214SOL    HW139104   2.154   0.184   9.740 -2.1820 -2.1087 -0.6987
 9214SOL    HW239105   2.173   0.040   9.700 -0.1793 -0.2365  2.9865
 9215SOL     OW39106   0.755   2.942   7.443 -0.3407  0.3091  1.1110
 9215SOL    HW139107   0.828   2.893   7.405  0.2406  3.1628 -1.4700
 9215SOL    HW239108   0.805   3.016   7.476  0.4736  0.1611  0.2202
 9216SOL     OW39109   3.893   2.459  16.744  0.4229  0.3495 -0.0619
 9216SOL    HW139110   3.904   2.450  16.649 -0.5834  0.8858 -0.2311
 9216SOL    HW239111   3.858   2.547  16.760  1.2017  0.7255 -0.4192
 9217SOL     OW39112   1.905   3.848  17.466 -0.2964 -0.0549 -0.0210
 9217SOL    HW139113   1.939   3.769  17.509 -1.8655 -0.4868  0.4348
 9217SOL    HW239114   1.855   3.877  17.542  0.1260 -1.9103  0.9639
 9218SOL     OW39115   2.239   0.576  12.701  0.4025  0.5891  0.1031
 9218SOL    HW139116   2.161   0.558  12.649  0.6003 -2.0032  0.6830
 9218SOL    HW239117   2.255   0.669  12.683  0.5613  0.0567 -2.4396
 9219SOL     OW39118   2.867   3.577  17.560  0.4269  0.9156 -0.0030
 9219SOL    HW139119   2.811   3.540  17.628 -0.3478  1.6044 -0.2794
 9219SOL    HW239120   2.945   3.586  17.615  0.8004 -2.8168  0.1121
 9220SOL     OW39121   4.677   0.156   3.582  0.4485 -0.0300 -0.0700
 9220SOL    HW139122   4.650   0.209   3.507 -0.7448  0.2372  0.5498
 9220SOL    HW239123   0.029   0.115   3.546 -0.1450 -1.3583  0.1245
 9221SOL     OW39124   0.407   3.758   6.004 -0.7801 -0.7893  0.0832
 9221SOL    HW139125   0.351   3.835   6.000 -0.0226 -0.1971  0.7531
 9221SOL    HW239126   0.455   3.783   6.083  1.4378 -1.1096 -1.1476
 9222SOL     OW39127   3.449   4.125   1.140 -0.7490  0.7803  0.2972
 9222SOL    HW139128   3.457   4.088   1.228  1.6292 -2.4352 -1.2338
 9222SOL    HW239129   3.374   4.184   1.144  0.4350  2.3926 -1.0618
 9223SOL     OW39130   0.375   2.295   5.894  0.4902  0.3603  0.4243
 9223SOL    HW139131   0.333   2.379   5.879 -1.9636 -0.1702  4.2873
 9223SOL    HW239132   0.419   2.274   5.812 -0.3253  1.8640 -0.3973
 9224SOL     OW39133   4.237   3.468   1.153  0.6632  0.2320 -0.1708
 9224SOL    HW139134   4.188   3.547   1.175 -2.2395 -1.4288 -0.7246
 9224SOL    HW239135   4.172   3.439   1.089  0.3812 -0.1180  0.2772
 9225SOL     OW39136   0.374   3.453  14.694 -0.1972  0.0229 -0.4418
 9225SOL    HW139137   0.390   3.490  14.607 -3.4684 -1.4191 -1.6488
 9225SOL    HW239138   0.434   3.380  14.704 -0.0204 -0.0433 -1.9792
 9226SOL     OW39139   2.997   4.278   0.786  0.4340 -0.1247  0.2951
 9226SOL    HW139140   3.017   4.371   0.794  1.2042 -0.3029  0.4072
 9226SOL    HW239141   2.939   4.284   0.709  0.6514  0.5301  0.1882
 9227SOL     OW39142   0.562   2.614   0.381 -0.7309 -0.4359 -0.0130
 9227SOL    HW139143   0.528   2.558   0.312  0.0956 -0.7430 -0.1743
 9227SOL    HW239144   0.632   2.556   0.412  0.3521 -0.0337 -1.7383
 9228SOL     OW39145   2.195   1.106  13.454 -0.3670  0.1254  0.9109
 9228SOL    HW139146   2.266   1.103  13.519 -0.7313 -0.3615  1.2940
 9228SOL    HW239147   2.133   1.034  13.468 -0.0688 -0.5550 -1.2698
 9229SOL     OW39148   3.601   4.002   9.128  0.1864 -0.4849 -0.4737
 9229SOL    HW139149   3.530   4.049   9.172  1.0567 -0.1307  0.5645
 9229SOL    HW239150   3.552   3.931   9.087  1.9508 -0.6685 -2.2916
 9230SOL     OW39151   3.446   3.224  14.894 -0.3999 -0.2040  0.1486
 9230SOL    HW139152   3.524   3.264  14.933  0.5058  1.0325 -2.9095
 9230SOL    HW239153   3.459   3.141  14.939  2.1245 -0.3859 -0.9504
 9231SOL     OW39154   3.912   2.127   8.597 -0.1367 -0.0612 -0.4859
 9231SOL    HW139155   3.844   2.151   8.534  1.5363 -1.3056 -2.7970
 9231SOL    HW239156   3.993   2.136   8.547 -0.1768 -2.0366 -0.9112
 9232SOL     OW39157   1.233   3.107   4.009  0.0065  0.0875 -0.1064
 9232SOL    HW139158   1.307   3.159   3.976  0.5929 -2.8755 -3.3793
 9232SOL    HW239159   1.167   3.171   4.035 -1.7425  0.1812 -4.6999
 9233SOL     OW39160   1.007   0.198   4.494  0.5501 -0.2890 -0.6819
 9233SOL    HW139161   1.066   0.269   4.471  1.1483 -0.3262  0.7250
 9233SOL    HW239162   1.005   0.142   4.416 -0.1554 -0.5252 -0.4978
 9234SOL     OW39163   2.821   1.867   6.952 -0.4304  0.2885 -0.4181
 9234SOL    HW139164   2.861   1.862   6.865 -1.6433  0.0596 -0.9683
 9234SOL    HW239165   2.877   1.935   6.990 -1.1606  0.2545  0.7052
 9235SOL     OW39166   3.664   4.342  16.693 -0.0716  0.2997 -0.6531
 9235SOL    HW139167   3.733   4.277  16.685 -0.0377  0.1481  0.7516
 9235SOL    HW239168   3.719   4.420  16.702  0.1334  0.0213  0.4749
 9236SOL     OW39169   2.306   3.158  15.055 -0.6238  0.1639  0.1817
 9236SOL    HW139170   2.243   3.098  15.095  0.6233 -0.4636  1.1786
 9236SOL    HW239171   2.267   3.244  15.071  0.2223  0.2875  1.5427
 9237SOL     OW39172   1.708   0.381  16.025 -0.0528 -0.2158  0.7876
 9237SOL    HW139173   1.717   0.476  16.025  0.6251 -0.2827 -0.1530
 9237SOL    HW239174   1.797   0.355  16.047 -0.1800  0.2859  1.8836
 9238SOL     OW39175   2.987   0.930  16.106  0.4426 -0.9659  0.5902
 9238SOL    HW139176   2.959   0.953  16.018  0.7585  3.3754  1.6162
 9238SOL    HW239177   3.068   0.981  16.115 -0.1493  0.1498 -0.4082
 9239SOL     OW39178   4.252   0.279   5.295 -0.4074 -0.1869  0.2830
 9239SOL    HW139179   4.267   0.244   5.207 -3.1418 -0.5778 -0.0150
 9239SOL    HW239180   4.329   0.250   5.344  0.6888  1.2015 -0.6124
 9240SOL     OW39181   1.475   3.254  12.456 -0.0396 -0.0676 -0.1026
 9240SOL    HW139182   1.515   3.340  12.442 -0.4743  0.2433  0.5997
 9240SOL    HW239183   1.410   3.273  12.523  0.4621 -0.9341  0.6362
 9241SOL     OW39184   1.144   0.097   6.682 -0.2733  0.1030  0.5695
 9241SOL    HW139185   1.123   0.025   6.622  1.0413  1.1206 -1.0987
 9241SOL    HW239186   1.234   0.121   6.660  1.3996 -3.5459  3.4095
 9242SOL     OW39187   0.684   4.241   1.542 -0.0489 -0.9324 -0.0574
 9242SOL    HW139188   0.761   4.298   1.542 -0.3149 -0.5733 -0.1855
 9242SOL    HW239189   0.668   4.242   1.637 -4.1602  2.3859 -0.7975
 9243SOL     OW39190   0.145   4.396  12.964  0.0325 -0.3088  0.0439
 9243SOL    HW139191   0.180   4.308  12.953 -1.6716 -0.9983  0.2598
 9243SOL    HW239192   0.210   4.435  13.023  0.4411  1.5789 -1.6427
 9244SOL     OW39193   0.101   2.758   4.708 -0.0494  0.2703 -0.0921
 9244SOL    HW139194   0.030   2.757   4.772 -0.0644  0.2846 -0.1087
 9244SOL    HW239195   0.132   2.668   4.717 -1.4596 -0.2596 -0.6073
 9245SOL     OW39196   4.605   2.220   7.525  0.2223  0.1357  0.2707
 9245SOL    HW139197   4.678   2.199   7.583  1.0723  2.8959  0.1900
 9245SOL    HW239198   4.542   2.258   7.588 -3.1772 -0.7309 -2.6405
 9246SOL     OW39199   4.316   3.439  15.569  0.3774  0.1368 -0.4933
 9246SOL    HW139200   4.381   3.502  15.536  0.9153 -0.9875 -1.5297
 9246SOL    HW239201   4.370   3.367  15.601  0.5326 -0.9324 -3.1955
 9247SOL     OW39202   3.226   3.474   2.066 -0.1251  0.1896  0.8679
 9247SOL    HW139203   3.273   3.396   2.038  1.0998  1.8171 -1.6290
 9247SOL    HW239204   3.151   3.432   2.109 -0.1516  0.3001  0.9311
 9248SOL     OW39205   2.666   0.075   7.510  0.5814 -0.3705  0.3205
 9248SOL    HW139206   2.704   0.031   7.587  2.7177 -0.7315 -0.9646
 9248SOL    HW239207   2.664   0.007   7.442  0.7807 -0.0855  0.0337
 9249SOL     OW39208   3.721   0.626   6.404 -0.1940 -0.2992  0.6422
 9249SOL    HW139209   3.657   0.601   6.472 -2.6673  1.5442 -1.0155
 9249SOL    HW239210   3.667   0.649   6.329 -0.3500  0.9626  1.1479
 9250SOL     OW39211   0.312   0.028   7.707  0.2592 -0.1873 -0.0706
 9250SOL    HW139212   0.229   0.004   7.665 -1.0109  0.7027  1.9429
 9250SOL    HW239213   0.269   0.040   7.792 -1.0296 -0.7045 -0.6532
 9251SOL     OW39214   0.840   4.007  12.329  0.3540 -0.0145 -0.7566
 9251SOL    HW139215   0.876   4.006  12.418  0.1036 -2.3530 -0.6669
 9251SOL    HW239216   0.876   4.095  12.317 -1.0967  0.9621  2.1136
 9252SOL     OW39217   4.448   3.487   1.646  0.1671 -0.4379  0.1867
 9252SOL    HW139218   4.499   3.565   1.624 -0.8711  0.2976  0.4340
 9252SOL    HW239219   4.399   3.443   1.577  2.7722 -2.6499 -0.2614
 9253SOL     OW39220   0.486   1.036   8.140  0.3754 -0.6517 -0.5653
 9253SOL    HW139221   0.445   1.116   8.111  0.5654 -0.2972  0.1307
 9253SOL    HW239222   0.492   1.053   8.234 -0.8980  1.1144 -0.8219
 9254SOL     OW39223   4.326   4.570   8.312  0.3924  0.4041 -0.2394
 9254SOL    HW139224   4.339   4.557   8.218  0.1529  0.2171 -0.2469
 9254SOL    HW239225   4.361   4.490   8.351  0.3454 -0.5751 -2.1863
 9255SOL     OW39226   3.793   3.151   0.538 -0.1315  0.4690  0.0938
 9255SOL    HW139227   3.736   3.083   0.503 -1.1041 -0.1178  2.7903
 9255SOL    HW239228   3.871   3.100   0.564 -2.0135 -1.5047  1.8975
 9256SOL     OW39229   0.808   4.536   6.564 -0.2224 -0.5222  0.4872
 9256SOL    HW139230   0.766   4.576   6.640 -3.1691 -1.8015 -0.4708
 9256SOL    HW239231   0.725   4.519   6.520 -0.0586  1.0721 -0.4528
 9257SOL     OW39232   0.187   3.816  13.166 -0.3326  0.4766  0.3222
 9257SOL    HW139233   0.153   3.727  13.163 -0.4303  0.4524  1.9463
 9257SOL    HW239234   0.273   3.800  13.126 -1.4748  0.3506 -2.0871
 9258SOL     OW39235   0.321   1.952   5.754 -0.2864 -0.1526  0.4918
 9258SOL    HW139236   0.231   1.967   5.784  0.1439  2.0284  0.7272
 9258SOL    HW239237   0.364   2.035   5.774  0.2933 -0.5737  0.9702
 9259SOL     OW39238   0.621   2.002   7.974 -0.2204  0.0452  0.2676
 9259SOL    HW139239   0.657   2.080   8.016 -0.5234 -0.7751  2.0616
 9259SOL    HW239240   0.548   1.972   8.028 -0.1568 -2.0531 -0.7856
 9260SOL     OW39241   2.376   4.390   3.279 -0.1481 -0.2212 -0.4112
 9260SOL    HW139242   2.402   4.338   3.202 -1.4297 -0.2832 -0.7884
 9260SOL    HW239243   2.458   4.439   3.285 -0.6347  0.6956 -1.5330
 9261SOL     OW39244   2.843   0.122   5.286 -0.6863  0.0734 -0.1710
 9261SOL    HW139245   2.808   0.086   5.368 -0.4552 -1.4631 -0.7537
 9261SOL    HW239246   2.907   0.186   5.317 -0.7124  0.0578 -0.0840
 9262SOL     OW39247   0.069   2.382   5.710  0.0565  0.1286 -0.0035
 9262SOL    HW139248   0.137   2.444   5.734  1.1463 -1.3711  0.7831
 9262SOL    HW239249   0.077   2.397   5.615 -1.3754  0.1724 -0.1159
 9263SOL     OW39250   4.603   0.717   3.044 -0.6076  0.1689  0.1259
 9263SOL    HW139251   4.565   0.660   3.111 -1.6835  4.2806  2.9724
 9263SOL    HW239252   4.637   0.792   3.092 -0.3761  0.6414 -0.7636
 9264SOL     OW39253   0.694   3.346   6.527  0.0789  0.2050  0.6594
 9264SOL    HW139254   0.659   3.311   6.609 -1.3099  1.7046  0.6921
 9264SOL    HW239255   0.626   3.407   6.501 -0.5941 -0.8506 -0.0730
 9265SOL     OW39256   0.589   2.731  15.277 -0.0051  0.1795  0.5360
 9265SOL    HW139257   0.604   2.731  15.372  0.2360 -3.4935  0.4783
 9265SOL    HW239258   0.494   2.738  15.266 -0.0318  0.0340  0.6721
 9266SOL     OW39259   2.013   3.698   5.060 -0.0826  0.4784  0.2810
 9266SOL    HW139260   1.968   3.660   4.985 -2.0559 -1.0008  2.2303
 9266SOL    HW239261   2.100   3.713   5.021 -0.2709 -1.0893 -0.7257
 9267SOL     OW39262   2.325   3.176   7.014  0.5474  0.5330 -0.8338
 9267SOL    HW139263   2.357   3.113   6.950 -0.3028 -0.6930 -0.0462
 9267SOL    HW239264   2.392   3.155   7.079  0.5692  1.3666 -0.5773
 9268SOL     OW39265   1.849   3.192   7.377 -0.2689  0.6651  1.0277
 9268SOL    HW139266   1.803   3.220   7.298  1.5714  2.1706  0.5054
 9268SOL    HW239267   1.892   3.121   7.328  1.0052  0.7671  2.0111
 9269SOL     OW39268   0.717   0.275   1.637 -0.2992  0.0034  0.3785
 9269SOL    HW139269   0.634   0.248   1.597  1.3601 -2.5205 -1.3397
 9269SOL    HW239270   0.778   0.279   1.563 -2.2633  0.2887 -1.2205
 9270SOL     OW39271   1.733   1.043   6.886  0.0973  0.0437 -0.0765
 9270SOL    HW139272   1.689   1.125   6.864  0.0748  0.3038  0.9552
 9270SOL    HW239273   1.741   1.042   6.981 -1.5474  1.1153  0.0747
 9271SOL     OW39274   3.746   4.455   9.089  0.0140  0.9276 -0.6599
 9271SOL    HW139275   3.733   4.494   9.176 -0.1211 -2.5029  0.8528
 9271SOL    HW239276   3.742   4.361   9.103  0.1985  1.3946  2.4754
 9272SOL     OW39277   0.754   2.279   7.025  0.6313 -0.7218  0.6645
 9272SOL    HW139278   0.744   2.348   7.090  0.1276 -0.5618  0.4198
 9272SOL    HW239279   0.697   2.213   7.065  1.2373  0.0608  2.8251
 9273SOL     OW39280   1.605   3.921   6.579  0.6289 -0.4605  0.1648
 9273SOL    HW139281   1.660   3.941   6.503  1.0308 -0.6706  0.3968
 9273SOL    HW239282   1.625   3.990   6.642  0.6047 -0.1421 -0.1730
 9274SOL     OW39283   1.829   0.304   1.778 -0.2411 -0.0004 -0.2115
 9274SOL    HW139284   1.893   0.375   1.769  0.2042 -0.3188  0.5142
 9274SOL    HW239285   1.773   0.321   1.702  0.2842  1.1000 -0.3649
 9275SOL     OW39286   3.677   4.323   0.861 -0.9102  0.0448 -0.0410
 9275SOL    HW139287   3.721   4.363   0.936 -0.3200 -0.1570 -0.2845
 9275SOL    HW239288   3.617   4.393   0.834 -1.0613  0.1647  0.5967
 9276SOL     OW39289   1.183   4.512   9.212 -0.3285  0.7258 -0.4131
 9276SOL    HW139290   1.199   4.419   9.227  0.4090  0.7922 -0.7532
 9276SOL    HW239291   1.257   4.552   9.257  0.5276 -2.0600  0.6802
 9277SOL     OW39292   3.515   0.681  17.414  0.2349 -0.6943  0.1640
 9277SOL    HW139293   3.471   0.597  17.428 -0.2640 -0.3404  0.6826
 9277SOL    HW239294   3.450   0.737  17.372  0.5733 -1.5566 -1.5139
 9278SOL     OW39295   2.618   0.465   0.065 -0.4989  0.4232  0.3495
 9278SOL    HW139296   2.646   0.477  17.680 -4.2949 -0.5562 -0.9328
 9278SOL    HW239297   2.650   0.376   0.081 -1.6625  0.2323  1.6235
 9279SOL     OW39298   2.742   0.940   0.317  0.1524  0.2864 -0.5741
 9279SOL    HW139299   2.731   1.029   0.351  0.4522  0.3394 -0.6119
 9279SOL    HW239300   2.658   0.906   0.347  0.8425 -0.9077 -0.0288
 9280SOL     OW39301   2.260   0.094   0.314 -0.1763  0.0924 -0.6696
 9280SOL    HW139302   2.169   0.123   0.308 -0.0321  0.5235 -0.8140
 9280SOL    HW239303   2.310   0.176   0.322 -0.6229  0.1280  1.8991
 9281SOL     OW39304   2.454   0.078   2.392  0.5428  0.1496  0.3288
 9281SOL    HW139305   2.547   0.059   2.379  0.8225  2.4715 -1.0205
 9281SOL    HW239306   2.464   0.108   2.482  0.4004 -0.5496  0.5809
 9282SOL     OW39307   0.258   4.006   5.463 -0.0860  0.3224 -0.0356
 9282SOL    HW139308   0.192   4.063   5.503  0.2759  0.7521 -0.0519
 9282SOL    HW239309   0.310   3.978   5.538  0.2814  2.3505  0.4685
 9283SOL     OW39310   0.294   3.184   5.852  0.0461  0.2995 -0.3006
 9283SOL    HW139311   0.203   3.166   5.877  0.4135  2.0991  2.3474
 9283SOL    HW239312   0.341   3.124   5.910 -0.0006  0.0687 -0.5056
 9284SOL     OW39313   4.360   4.056   3.016  0.5352 -0.7559  0.3912
 9284SOL    HW139314   4.382   4.018   2.931 -0.6436  0.2658 -0.3756
 9284SOL    HW239315   4.351   3.978   3.069  0.5296 -1.7483 -1.0672
 9285SOL     OW39316   4.286   4.054   4.165  0.4060  0.2245  0.3529
 9285SOL    HW139317   4.322   4.096   4.243 -0.0248  1.2299  0.0028
 9285SOL    HW239318   4.374   4.047   4.126  0.4862 -0.9698  0.7394
 9286SOL     OW39319   0.699   3.672   8.258  0.4281  0.4027  0.3395
 9286SOL    HW139320   0.608   3.688   8.235  0.6946  0.5497 -0.6352
 9286SOL    HW239321   0.710   3.737   8.328  0.0369 -0.5939  1.3222
 9287SOL     OW39322   4.389   2.006  17.199 -0.2006 -0.5471 -0.1292
 9287SOL    HW139323   4.401   1.913  17.184  1.8436 -0.1406 -1.0266
 9287SOL    HW239324   4.419   2.050  17.119  0.6653  2.0469  1.6011
 9288SOL     OW39325   3.109   0.226   3.961 -0.4188 -0.4710  0.2150
 9288SOL    HW139326   3.032   0.247   3.909 -0.1458 -0.8956 -0.3654
 9288SOL    HW239327   3.119   0.305   4.014  1.1203 -1.0610  0.8184
 9289SOL     OW39328   3.260   4.199   7.530 -0.1673  0.0069  0.4299
 9289SOL    HW139329   3.259   4.105   7.547 -2.4965 -0.1412 -0.5936
 9289SOL    HW239330   3.251   4.239   7.617 -0.4056  0.1855  0.3190
 9290SOL     OW39331   1.949   1.302   0.946 -0.2373  0.3103 -0.3838
 9290SOL    HW139332   1.856   1.294   0.923 -0.0502  0.5867 -1.2562
 9290SOL    HW239333   1.984   1.321   0.859  2.4033 -2.4687  0.0762
 9291SOL     OW39334   1.006   3.787   2.005 -0.9864  0.1475  0.1084
 9291SOL    HW139335   0.987   3.833   2.087 -0.0665  1.8732 -0.6496
 9291SOL    HW239336   1.094   3.818   1.983 -0.1099 -1.8801  0.7689
 9292SOL     OW39337   0.126   0.785   2.909  0.3432  0.5620 -0.1355
 9292SOL    HW139338   0.167   0.701   2.926 -0.9764 -0.3504 -1.5074
 9292SOL    HW239339   0.035   0.769   2.935 -0.3230  0.6583 -2.4291
 9293SOL     OW39340   1.772   3.622   6.704 -0.3408 -0.4505 -0.7332
 9293SOL    HW139341   1.748   3.561   6.773  0.5161  0.5335  0.4501
 9293SOL    HW239342   1.736   3.702   6.743 -0.7073  0.2236 -2.4831
 9294SOL     OW39343   1.846   3.281   4.971  0.2555 -0.1822 -0.2624
 9294SOL    HW139344   1.928   3.265   4.924  0.1838 -1.7692  0.1342
 9294SOL    HW239345   1.795   3.341   4.918 -0.5599 -1.0464 -0.4591
 9295SOL     OW39346   0.754   2.235   8.407 -0.4180  0.4293 -0.1539
 9295SOL    HW139347   0.834   2.216   8.358  0.8422  1.2954  1.5478
 9295SOL    HW239348   0.731   2.317   8.363  1.1193 -0.0984 -1.9603
 9296SOL     OW39349   3.750   3.299   7.359 -0.0252  0.4432  0.6968
 9296SOL    HW139350   3.788   3.287   7.446  1.1102 -0.2955  0.0958
 9296SOL    HW239351   3.826   3.312   7.302 -0.4480  0.4059  0.1212
 9297SOL     OW39352   2.262   2.414  17.521  0.3823  0.3701  0.1714
 9297SOL    HW139353   2.323   2.340  17.519 -1.2878 -1.0436  2.0859
 9297SOL    HW239354   2.302   2.458  17.596  2.3785 -0.7706 -0.2078
 9298SOL     OW39355   3.260   0.546   4.427 -0.0986  0.4342  0.2782
 9298SOL    HW139356   3.213   0.474   4.385  0.5177  0.3609 -0.2898
 9298SOL    HW239357   3.266   0.606   4.352 -0.2871 -0.1345 -0.1880
 9299SOL     OW39358   4.047   0.569   7.266  0.2087  0.0553 -0.3942
 9299SOL    HW139359   4.030   0.578   7.172 -0.5398  1.1116 -0.1474
 9299SOL    HW239360   4.086   0.481   7.270 -0.4755 -0.2059  0.3922
 9300SOL     OW39361   2.657   0.593   9.222 -0.1060 -0.1395  0.0848
 9300SOL    HW139362   2.632   0.539   9.148 -1.0784 -0.5780  0.7304
 9300SOL    HW239363   2.726   0.545   9.267  0.1594  0.2665  0.1145
 9301SOL     OW39364   3.672   2.822   1.619  0.3046 -0.1032  0.3920
 9301SOL    HW139365   3.725   2.742   1.613  0.5186  0.0508  0.2213
 9301SOL    HW239366   3.586   2.796   1.587 -0.0706  0.6935  0.7622
 9302SOL     OW39367   3.787   1.101   8.752  0.0727 -0.0061  0.3930
 9302SOL    HW139368   3.798   1.143   8.837  0.4889  2.1148 -0.7195
 9302SOL    HW239369   3.760   1.012   8.775 -0.4240  0.3852  1.3440
 9303SOL     OW39370   3.073   4.219   3.752  0.8806 -0.4843 -0.2825
 9303SOL    HW139371   3.007   4.151   3.738  0.2862  0.6005 -2.6979
 9303SOL    HW239372   3.094   4.205   3.845  0.4632 -0.5530 -0.1973
 9304SOL     OW39373   3.670   2.309   5.399 -0.2525  0.5729  0.2352
 9304SOL    HW139374   3.765   2.301   5.408 -0.2986 -0.2295  0.0801
 9304SOL    HW239375   3.641   2.271   5.481  0.5376  0.5161  0.4899
 9305SOL     OW39376   3.133   3.736   0.534 -0.0866  0.1691 -0.1081
 9305SOL    HW139377   3.155   3.812   0.479 -0.1428 -1.1112 -1.9088
 9305SOL    HW239378   3.221   3.696   0.535 -0.6220 -0.9691  1.1810
 9306SOL     OW39379   0.115   1.852   7.977  0.0936 -0.0916 -0.4988
 9306SOL    HW139380   0.050   1.921   7.960 -0.8233 -0.5851  0.9844
 9306SOL    HW239381   0.057   1.780   8.003 -0.6415  0.6222 -0.1612
 9307SOL     OW39382   1.304   2.991  13.566  0.0982 -0.0178  0.1955
 9307SOL    HW139383   1.238   3.054  13.593  1.2330  1.2750 -0.0496
 9307SOL    HW239384   1.375   3.023  13.622 -0.3413 -0.5580  1.0611
 9308SOL     OW39385   4.252   1.968   0.128 -0.3659 -0.0869  0.4340
 9308SOL    HW139386   4.242   1.875   0.145  1.1280 -0.2464  0.3795
 9308SOL    HW239387   4.161   1.996   0.135 -0.4702  0.2066 -2.0525
 9309SOL     OW39388   4.537   4.580   3.884  0.0620  0.4148 -0.1488
 9309SOL    HW139389   4.521   4.623   3.968 -1.9305 -2.5119  0.9607
 9309SOL    HW239390   4.619   4.534   3.904  0.1781  0.7768  0.2342
 9310SOL     OW39391   2.318   0.631   5.054  0.6571 -0.2990 -0.7216
 9310SOL    HW139392   2.295   0.645   4.962  0.9620 -0.4089 -0.8149
 9310SOL    HW239393   2.340   0.718   5.088 -1.0708 -1.3678  3.1191
 9311SOL     OW39394   4.148   2.414  15.671  0.5074  0.6502 -0.6113
 9311SOL    HW139395   4.219   2.449  15.725  0.3266 -0.8024  0.5494
 9311SOL    HW239396   4.094   2.382  15.743  2.3572  0.7014  0.8193
 9312SOL     OW39397   1.152   3.656   4.892 -1.2612 -0.0366  0.1636
 9312SOL    HW139398   1.247   3.650   4.893 -1.1705  1.9093  1.5052
 9312SOL    HW239399   1.128   3.607   4.971  4.0146 -2.0730  0.4625
 9313SOL     OW39400   0.772   4.440  12.296 -0.1984  0.1216 -0.0294
 9313SOL    HW139401   0.850   4.385  12.302 -0.7107 -0.7137 -0.9779
 9313SOL    HW239402   0.761   4.471  12.386  1.0804 -0.2979  0.2661
 9314SOL     OW39403   1.545   2.679   5.808 -0.3746  0.3627 -0.3226
 9314SOL    HW139404   1.597   2.738   5.753  1.4587 -1.7215 -0.8362
 9314SOL    HW239405   1.552   2.724   5.892 -0.3146 -0.2031 -0.0234
 9315SOL     OW39406   4.343   1.528  12.869 -0.0229  0.2125 -0.4321
 9315SOL    HW139407   4.295   1.483  12.800  2.6237 -2.3289 -0.6161
 9315SOL    HW239408   4.419   1.472  12.882 -1.2303 -1.7158 -1.7322
 9316SOL     OW39409   4.327   2.695  11.136 -0.2587  0.8501 -0.6709
 9316SOL    HW139410   4.356   2.666  11.222 -0.9120 -0.1303 -0.7849
 9316SOL    HW239411   4.366   2.783  11.136  0.1433  0.6806 -2.4594
 9317SOL     OW39412   0.551   3.827   6.217  0.1826  0.6698  0.0595
 9317SOL    HW139413   0.634   3.873   6.234  0.5829 -0.2810  0.6173
 9317SOL    HW239414   0.513   3.842   6.303  0.2588 -0.3187  0.2614
 9318SOL     OW39415   0.188   2.525  11.498 -0.0907 -0.6111 -0.2056
 9318SOL    HW139416   0.192   2.569  11.413  2.2701 -0.8822 -0.2476
 9318SOL    HW239417   0.218   2.439  11.469  0.6925 -0.5946  0.5476
 9319SOL     OW39418   2.034   0.097  17.505  0.0155 -0.2570 -0.4827
 9319SOL    HW139419   2.026   0.045  17.584  1.4661  1.2035  0.6099
 9319SOL    HW239420   1.979   0.045  17.446 -1.5370 -0.4482  1.1426
 9320SOL     OW39421   4.414   3.769   1.649  0.0284 -0.1574 -0.4662
 9320SOL    HW139422   4.363   3.724   1.715 -0.4189  3.1595  1.4658
 9320SOL    HW239423   4.478   3.817   1.701 -1.9424  0.5048  1.3610
 9321SOL     OW39424   3.828   2.749   7.433 -0.3843 -0.5975  0.8205
 9321SOL    HW139425   3.911   2.733   7.478  0.3977  0.3815 -0.2660
 9321SOL    HW239426   3.833   2.685   7.361  2.6064 -1.1639  1.5198
 9322SOL     OW39427   4.245   3.183  12.374 -0.2173 -0.2198 -0.1871
 9322SOL    HW139428   4.335   3.170  12.344 -0.3729 -1.1956 -0.2374
 9322SOL    HW239429   4.196   3.240  12.316 -1.1670  0.9416  1.7597
 9323SOL     OW39430   3.400   4.122   9.574 -0.1701  0.2334  0.1203
 9323SOL    HW139431   3.473   4.154   9.627  1.2193 -0.0835 -1.6007
 9323SOL    HW239432   3.421   4.029   9.572  0.9479  0.5092 -0.8743
 9324SOL     OW39433   1.394   4.385   4.403 -0.1953 -0.3724 -0.5282
 9324SOL    HW139434   1.351   4.465   4.435  0.4133 -0.3606  0.2664
 9324SOL    HW239435   1.341   4.315   4.442  0.3524 -0.5295 -0.0670
 9325SOL     OW39436   4.672   3.194   7.750 -0.4315 -0.3204  0.0864
 9325SOL    HW139437   0.035   3.218   7.774 -0.1104 -1.9688  0.5254
 9325SOL    HW239438   4.679   3.103   7.778  1.3558 -0.1614  0.1289
 9326SOL     OW39439   2.426   3.442   0.127  0.3240  0.2479  0.2448
 9326SOL    HW139440   2.372   3.480   0.058  0.1338 -0.9287 -0.2543
 9326SOL    HW239441   2.421   3.521   0.181 -0.8987 -0.4581  1.1587
 9327SOL     OW39442   2.682   4.515  11.661  0.3733  0.3740 -0.2601
 9327SOL    HW139443   2.696   4.608  11.639  0.8051 -0.0692 -1.8667
 9327SOL    HW239444   2.702   4.511  11.754 -1.8916 -0.1286  0.1861
 9328SOL     OW39445   3.406   2.567   2.617 -0.0644 -0.0550  0.4294
 9328SOL    HW139446   3.431   2.474   2.619 -0.0838 -0.0322  1.5367
 9328SOL    HW239447   3.489   2.610   2.595 -0.3134 -0.0673 -0.5279
 9329SOL     OW39448   2.035   4.465   6.323 -0.1260 -0.0467  0.1024
 9329SOL    HW139449   2.050   4.374   6.299 -1.5041  0.0551 -1.1435
 9329SOL    HW239450   2.040   4.452   6.418  0.8464  0.5423  0.1422
 9330SOL     OW39451   3.264   0.793   9.211 -0.4357 -0.0551 -0.7312
 9330SOL    HW139452   3.303   0.807   9.297  2.4881  1.6538 -2.3483
 9330SOL    HW239453   3.182   0.840   9.226  1.0995  2.0979  0.8642
 9331SOL     OW39454   2.415   4.723  15.933 -0.5033 -0.1669  0.4922
 9331SOL    HW139455   2.332   0.019  15.891 -1.2578  0.5410  2.3341
 9331SOL    HW239456   2.466   0.015  15.855  0.6444 -0.0433  1.2657
 9332SOL     OW39457   3.944   3.129  12.471 -0.3062 -0.4966  0.5515
 9332SOL    HW139458   3.917   3.154  12.383  0.8648  1.6813  0.8048
 9332SOL    HW239459   4.027   3.177  12.471 -0.4685 -0.2219 -0.5426
 9333SOL     OW39460   4.051   3.628   4.976  0.2630 -0.2445 -0.4026
 9333SOL    HW139461   3.961   3.639   4.947 -0.0628  2.3178  1.7105
 9333SOL    HW239462   4.045   3.540   5.014  0.3022  0.0149  0.1960
 9334SOL     OW39463   1.073   3.494  16.338 -0.3985  0.2872  0.2106
 9334SOL    HW139464   0.978   3.505  16.345 -0.3138  1.5276 -0.6598
 9334SOL    HW239465   1.093   3.401  16.326 -0.0220  0.4995 -0.7991
 9335SOL     OW39466   2.723   3.346   6.605  0.6809 -0.0427 -0.2185
 9335SOL    HW139467   2.660   3.308   6.667  0.5643  1.8803  0.8278
 9335SOL    HW239468   2.784   3.397   6.658  0.8771 -1.0204  0.4989
 9336SOL     OW39469   4.558   3.258   8.800 -0.1240  0.4709  0.3038
 9336SOL    HW139470   4.470   3.234   8.769 -0.1086 -0.0037  0.6374
 9336SOL    HW239471   4.544   3.233   8.891 -1.1469  0.1399  0.0548
 9337SOL     OW39472   2.440   0.271   4.383  0.5702  0.0788 -0.2418
 9337SOL    HW139473   2.373   0.296   4.319  1.2538 -1.9960 -1.7699
 9337SOL    HW239474   2.390   0.212   4.439 -2.7692  3.0015 -0.1204
 9338SOL     OW39475   3.618   1.268   7.071  0.0168 -0.0581  0.0043
 9338SOL    HW139476   3.698   1.297   7.114 -0.3629  1.5575 -0.3667
 9338SOL    HW239477   3.618   1.173   7.078  2.6474 -0.1087 -0.6074
 9339SOL     OW39478   0.808   3.838  12.543  0.5280  0.1032 -0.1382
 9339SOL    HW139479   0.865   3.867  12.614 -0.3361  2.1868 -0.3013
 9339SOL    HW239480   0.862   3.767  12.508  1.5183  1.2920 -1.0079
 9340SOL     OW39481   3.569   0.469   4.949 -0.2396  0.5754 -0.0253
 9340SOL    HW139482   3.554   0.561   4.928 -2.2733 -0.2779 -2.2360
 9340SOL    HW239483   3.665   0.467   4.940 -0.1478 -1.9059  1.2607
 9341SOL     OW39484   4.561   2.067  10.721  0.5368 -0.5496 -0.3885
 9341SOL    HW139485   4.630   2.134  10.717  0.5822 -0.6999 -2.2756
 9341SOL    HW239486   4.544   2.063  10.815  2.3526  0.8614  0.0195
 9342SOL     OW39487   2.319   3.293   3.505 -0.0009  0.3166 -0.4457
 9342SOL    HW139488   2.359   3.337   3.430  0.3332  0.9265  0.0899
 9342SOL    HW239489   2.253   3.240   3.460  1.3226 -2.1156  0.4498
 9343SOL     OW39490   2.861   1.313   3.984 -0.1332 -0.1686 -0.3873
 9343SOL    HW139491   2.826   1.400   3.970 -0.9361 -0.2774  0.9369
 9343SOL    HW239492   2.938   1.314   3.927  0.3891 -0.7628  0.2972
 9344SOL     OW39493   3.699   0.123   5.698  0.1028 -0.4380  0.8042
 9344SOL    HW139494   3.723   0.091   5.611  0.6527  1.1061  0.3800
 9344SOL    HW239495   3.604   0.137   5.698 -0.1166 -1.9048  2.1748
 9345SOL     OW39496   4.688   2.882  16.819 -0.2505  0.2899  0.3226
 9345SOL    HW139497   4.709   2.963  16.773  1.1829  0.0853  0.6063
 9345SOL    HW239498   4.654   2.920  16.900 -1.6682 -0.2537 -0.0302
 9346SOL     OW39499   0.177   1.137  12.503 -0.2199  0.0912 -0.1725
 9346SOL    HW139500   0.186   1.165  12.412  2.9365 -1.2714 -0.2758
 9346SOL    HW239501   0.251   1.076  12.504 -0.6679 -0.4313  0.9268
 9347SOL     OW39502   1.141   2.387   0.076  0.5092 -0.2621 -0.6317
 9347SOL    HW139503   1.237   2.392   0.069  0.3825  1.0958 -1.2579
 9347SOL    HW239504   1.133   2.306   0.025  0.1217 -1.3766  1.1966
 9348SOL     OW39505   1.823   1.812   9.011  0.0547  0.1435  0.5798
 9348SOL    HW139506   1.742   1.838   9.054  0.3244  0.4421  0.9040
 9348SOL    HW239507   1.800   1.829   8.919 -2.0427  0.4541  1.1693
 9349SOL     OW39508   1.197   4.684   2.772 -0.2780 -0.0102 -0.5728
 9349SOL    HW139509   1.259   0.030   2.762  0.0988 -0.4807 -1.7208
 9349SOL    HW239510   1.133   4.706   2.704  0.2574  0.7075 -0.8404
 9350SOL     OW39511   2.818   4.515   9.189  0.7482 -0.1130  0.6862
 9350SOL    HW139512   2.741   4.466   9.159  3.0603 -2.2348 -1.7171
 9350SOL    HW239513   2.848   4.553   9.107 -0.7556  3.2392  1.6935
 9351SOL     OW39514   3.810   2.168  12.934 -0.0361  0.5785 -0.0115
 9351SOL    HW139515   3.837   2.196  13.022 -0.5974 -0.2635  0.4282
 9351SOL    HW239516   3.808   2.247  12.880 -1.3102  0.7575  0.3200
 9352SOL     OW39517   2.731   0.450   5.313  0.4808  0.3531  0.4153
 9352SOL    HW139518   2.815   0.495   5.303  0.9167 -1.1246 -2.8880
 9352SOL    HW239519   2.727   0.438   5.218  1.3921  1.2516  0.2573
 9353SOL     OW39520   4.311   1.921   9.519  0.2338  0.4136  0.2798
 9353SOL    HW139521   4.401   1.936   9.546  1.7123 -0.1797 -4.4322
 9353SOL    HW239522   4.323   1.935   9.425  2.6228 -3.7973  0.0126
 9354SOL     OW39523   0.684   0.859   7.909 -0.2771 -0.2358 -0.0975
 9354SOL    HW139524   0.598   0.825   7.933 -0.0108 -3.0635 -3.2201
 9354SOL    HW239525   0.733   0.779   7.891  0.6893  0.1424  0.8376
 9355SOL     OW39526   1.141   3.197   8.441 -0.5464 -0.1337  0.4326
 9355SOL    HW139527   1.141   3.283   8.482  2.2232  0.7521 -1.4084
 9355SOL    HW239528   1.218   3.205   8.385 -1.4246 -1.6809 -0.9921
 9356SOL     OW39529   0.987   2.046   6.202 -0.3144  0.4101 -0.0043
 9356SOL    HW139530   1.029   1.960   6.210 -0.1262  0.3504 -1.5993
 9356SOL    HW239531   0.939   2.053   6.284  1.8371 -0.4823  1.3451
 9357SOL     OW39532   0.488   0.080   2.459 -0.0842 -0.3372  0.0818
 9357SOL    HW139533   0.526   0.029   2.387 -0.3432  0.5887 -0.7213
 9357SOL    HW239534   0.560   0.085   2.521 -0.0192  1.7042 -0.1626
 9358SOL     OW39535   0.351   4.473   5.193  0.2614  0.4473 -0.6164
 9358SOL    HW139536   0.369   4.536   5.263  1.2499 -0.9532  0.4162
 9358SOL    HW239537   0.438   4.480   5.153  0.6347 -2.2975 -0.3281
 9359SOL     OW39538   1.382   0.161   2.232 -0.0583  0.2613 -0.2793
 9359SOL    HW139539   1.417   0.125   2.151  2.1749  0.1041  0.7506
 9359SOL    HW239540   1.307   0.210   2.197  1.3548  1.1058 -2.0817
 9360SOL     OW39541   2.943   2.978   9.303  0.6087 -0.2660 -0.4358
 9360SOL    HW139542   2.899   2.903   9.263  1.0066 -0.3242 -0.7653
 9360SOL    HW239543   3.004   2.922   9.351 -1.7073 -1.5208  1.0418
 9361SOL     OW39544   4.415   1.065   2.780  0.0136 -0.7938 -0.4226
 9361SOL    HW139545   4.417   1.159   2.764 -0.8094 -0.9447 -1.4287
 9361SOL    HW239546   4.395   1.070   2.873 -0.5769  0.0838 -0.5941
 9362SOL     OW39547   2.945   4.704   2.909  0.7608 -0.1276 -0.2926
 9362SOL    HW139548   2.856   4.682   2.882 -0.7590  2.8642  2.4146
 9362SOL    HW239549   2.986   4.668   2.830  1.8267 -2.3288  1.2775
 9363SOL     OW39550   2.715   0.930   3.313  0.2086  0.2627 -0.2698
 9363SOL    HW139551   2.809   0.918   3.301 -0.1911 -1.7551 -1.4021
 9363SOL    HW239552   2.704   0.938   3.408 -1.2499 -0.0392 -0.4258
 9364SOL     OW39553   4.027   2.436   0.401 -0.6340  0.3275  0.1195
 9364SOL    HW139554   4.032   2.502   0.331  1.5531 -0.3485 -0.3468
 9364SOL    HW239555   3.951   2.380   0.384 -1.8418  1.9850 -0.0374
 9365SOL     OW39556   4.037   0.639   7.008 -0.2547  0.0394 -0.5435
 9365SOL    HW139557   4.066   0.562   6.960 -2.2364 -0.9444 -0.1796
 9365SOL    HW239558   4.078   0.712   6.961  0.1726  0.5217  0.5847
 9366SOL     OW39559   4.642   1.936   3.726  0.1922 -0.0109  0.3891
 9366SOL    HW139560   4.578   2.000   3.756 -3.3010 -2.9510 -0.8503
 9366SOL    HW239561   4.716   1.995   3.715 -1.5643  2.5803  2.4006
 9367SOL     OW39562   2.225   1.146   7.646  0.6146 -0.1966  0.4100
 9367SOL    HW139563   2.181   1.117   7.566 -1.7659 -1.2611  2.0730
 9367SOL    HW239564   2.301   1.088   7.644 -0.5816 -1.8644  2.2203
 9368SOL     OW39565   2.540   4.304   1.967 -0.4072  0.6036  0.2590
 9368SOL    HW139566   2.568   4.277   2.055  0.1546 -0.1241 -0.1471
 9368SOL    HW239567   2.463   4.249   1.954 -0.8511  1.0562  0.9331
 9369SOL     OW39568   2.436   4.173   1.035 -0.4708 -0.2810 -0.0840
 9369SOL    HW139569   2.514   4.209   1.077 -0.8645  1.8110 -1.1928
 9369SOL    HW239570   2.472   4.161   0.947 -0.7035 -0.7817 -0.1111
 9370SOL     OW39571   3.565   3.166   3.465 -0.4159 -0.1284 -0.2747
 9370SOL    HW139572   3.537   3.200   3.380 -0.0186  2.8802  0.7947
 9370SOL    HW239573   3.487   3.185   3.518  2.0537  0.5772  3.1003
 9371SOL     OW39574   0.628   3.391  15.213  0.0826 -0.1855 -0.3695
 9371SOL    HW139575   0.682   3.341  15.152 -1.3283 -0.8125 -1.1141
 9371SOL    HW239576   0.586   3.463  15.165  0.8466  1.0120  0.7600
 9372SOL     OW39577   1.638   3.786   2.588  0.5767 -0.2022 -0.6078
 9372SOL    HW139578   1.630   3.700   2.629 -0.0836 -0.5660 -1.5071
 9372SOL    HW239579   1.670   3.755   2.503  2.6275 -0.3943  0.2444
 9373SOL     OW39580   0.793   0.646   3.219 -0.1949 -0.0852 -0.1657
 9373SOL    HW139581   0.731   0.599   3.163 -1.0800 -0.0244  0.7633
 9373SOL    HW239582   0.868   0.588   3.224 -0.4798 -0.3188  1.2180
 9374SOL     OW39583   0.543   2.683   5.700 -0.1947 -0.0786  0.1779
 9374SOL    HW139584   0.507   2.764   5.664  0.6767 -0.0811 -0.7008
 9374SOL    HW239585   0.550   2.619   5.629 -0.4075  0.6014 -0.4654
 9375SOL     OW39586   1.667   3.452   6.888  0.0587 -0.1728  0.2747
 9375SOL    HW139587   1.578   3.461   6.921  0.1300  0.9379  0.1470
 9375SOL    HW239588   1.716   3.436   6.969 -0.9131 -2.3612  0.4463
 9376SOL     OW39589   3.357   4.458  13.943  0.0012  0.1367 -1.0665
 9376SOL    HW139590   3.294   4.389  13.923  2.7244 -2.4885 -0.6055
 9376SOL    HW239591   3.372   4.470  13.849  1.4737  0.2826 -0.8105
 9377SOL     OW39592   2.523   4.249  13.078  0.0821 -0.5840  0.0041
 9377SOL    HW139593   2.570   4.310  13.021 -0.9993 -0.0853 -0.3656
 9377SOL    HW239594   2.570   4.167  13.067  0.6293 -0.2125 -0.4315
 9378SOL     OW39595   0.375   2.924   9.786  0.6819  0.1029 -0.4037
 9378SOL    HW139596   0.339   2.865   9.720 -0.5685  2.0093 -1.4187
 9378SOL    HW239597   0.341   2.884   9.866 -1.2009  0.3116 -1.1062
 9379SOL     OW39598   3.661   1.325   2.335  0.0402  0.7263 -0.4771
 9379SOL    HW139599   3.750   1.292   2.329  0.6822  2.1828  0.9967
 9379SOL    HW239600   3.673   1.401   2.277  2.0403  0.7966  0.0271
 9380SOL     OW39601   4.653   0.627   2.290 -0.1955  0.2414  0.0720
 9380SOL    HW139602   4.586   0.614   2.222  0.1826  0.1633 -0.2897
 9380SOL    HW239603   4.635   0.553   2.348 -0.4431 -0.3589 -0.7694
 9381SOL     OW39604   1.108   3.707   8.155  0.1720  0.4530 -0.9789
 9381SOL    HW139605   1.045   3.778   8.144  0.8514  0.8602 -2.3260
 9381SOL    HW239606   1.142   3.688   8.067  0.3456 -1.1881 -0.5548
 9382SOL     OW39607   3.435   4.401   4.132 -0.0436 -0.2643 -0.0757
 9382SOL    HW139608   3.504   4.466   4.141  1.4972 -2.1831  1.9042
 9382SOL    HW239609   3.483   4.319   4.144 -1.1861 -0.8461  0.5652
 9383SOL     OW39610   2.345   1.745   6.385  0.3933  0.7121  0.0622
 9383SOL    HW139611   2.372   1.837   6.379 -0.0303  0.8699  0.5959
 9383SOL    HW239612   2.255   1.770   6.405  1.4315  2.9312  1.9935
 9384SOL     OW39613   3.146   4.253   5.800  0.4403  0.3731  0.0176
 9384SOL    HW139614   3.144   4.259   5.704  0.1432 -0.5054 -0.0317
 9384SOL    HW239615   3.157   4.158   5.803 -0.4111  0.2432 -1.0101
 9385SOL     OW39616   1.974   4.069  11.883  0.3805  0.3975  0.2478
 9385SOL    HW139617   1.905   4.004  11.880  2.9741 -2.2746 -1.4953
 9385SOL    HW239618   1.985   4.078  11.788  0.7038 -1.0489  0.1607
 9386SOL     OW39619   0.553   2.793   4.046  0.3458 -0.3976  0.0823
 9386SOL    HW139620   0.507   2.878   4.050 -1.8097 -1.3628 -3.7199
 9386SOL    HW239621   0.495   2.740   3.991  1.9969 -1.0964 -0.9999
 9387SOL     OW39622   1.517   4.542   2.732 -0.2026 -0.2074 -0.3251
 9387SOL    HW139623   1.481   4.506   2.651 -0.2167 -0.1632 -0.3384
 9387SOL    HW239624   1.524   4.461   2.783  0.0533  1.2190  1.9199
 9388SOL     OW39625   2.631   4.205  10.156 -0.2871  0.3182  0.1548
 9388SOL    HW139626   2.638   4.110  10.166  2.0585  0.7936  2.9905
 9388SOL    HW239627   2.605   4.212  10.064 -2.1343  0.5394  0.6856
 9389SOL     OW39628   0.432   3.898   3.945 -0.7447  0.6620  0.4946
 9389SOL    HW139629   0.401   3.983   3.913  0.2070  0.8191 -0.0044
 9389SOL    HW239630   0.370   3.832   3.914  1.1452 -1.2635  0.8726
 9390SOL     OW39631   0.877   4.196   5.247 -0.1667 -0.7480  0.1113
 9390SOL    HW139632   0.925   4.278   5.251 -0.1565 -0.6946 -1.1094
 9390SOL    HW239633   0.896   4.158   5.161  0.8653  1.2663 -0.5633
 9391SOL     OW39634   2.400   3.381   0.429 -0.7760  0.3214 -0.4490
 9391SOL    HW139635   2.429   3.323   0.360 -0.9386 -0.7574  0.3888
 9391SOL    HW239636   2.398   3.468   0.389 -1.5719  0.4205 -0.1890
 9392SOL     OW39637   0.955   1.372   2.700  0.1035  0.0173 -0.7701
 9392SOL    HW139638   0.950   1.283   2.667  1.0612 -0.3876  0.1914
 9392SOL    HW239639   1.019   1.413   2.642 -1.8860  2.8229 -1.0078
 9393SOL     OW39640   3.719   1.743   6.390  0.4475 -0.5769 -0.3552
 9393SOL    HW139641   3.796   1.790   6.422 -2.0044  1.7683  2.1326
 9393SOL    HW239642   3.755   1.687   6.321  2.0613 -0.4129  0.3716
 9394SOL     OW39643   1.104   4.679   0.476  0.3217  0.5506  0.2902
 9394SOL    HW139644   1.056   0.034   0.492 -0.2769  0.2406  0.0532
 9394SOL    HW239645   1.032   4.621   0.499 -0.1983  1.9884  2.2631
 9395SOL     OW39646   3.267   4.303  11.296  0.1849  0.4655 -0.0996
 9395SOL    HW139647   3.305   4.349  11.221  1.5480  0.3073  0.4821
 9395SOL    HW239648   3.180   4.341  11.287  0.1209 -0.2670 -2.6608
 9396SOL     OW39649   0.288   3.280   2.441  0.0330 -0.4497  0.1374
 9396SOL    HW139650   0.211   3.314   2.394 -1.1490  1.0556  3.1339
 9396SOL    HW239651   0.248   3.262   2.526 -0.5774 -0.1686 -0.0816
 9397SOL     OW39652   1.452   2.820  13.776  0.2132 -0.3406 -0.2487
 9397SOL    HW139653   1.425   2.862  13.857  1.7134  3.3390 -1.6214
 9397SOL    HW239654   1.505   2.892  13.739 -1.3956  1.2299  0.5269
 9398SOL     OW39655   1.660   0.040   2.256 -0.2859 -0.2697  0.1288
 9398SOL    HW139656   1.590   0.058   2.193 -1.4663 -0.2541  1.4393
 9398SOL    HW239657   1.685   4.676   2.239  2.2935  0.3590  0.6340
 9399SOL     OW39658   3.005   3.392   5.614  0.0673  0.3034  0.7605
 9399SOL    HW139659   3.062   3.446   5.669 -1.9925  2.7422  0.5113
 9399SOL    HW239660   2.930   3.396   5.673  0.1637  0.3804  0.8771
 9400SOL     OW39661   3.167   3.088  12.047 -0.1718  0.1485  0.0866
 9400SOL    HW139662   3.115   3.009  12.063 -1.2003  1.1723  1.8614
 9400SOL    HW239663   3.141   3.102  11.956 -2.1350  1.5218  0.8702
 9401SOL     OW39664   1.592   3.724   8.418  0.9174 -0.2466  0.6433
 9401SOL    HW139665   1.512   3.750   8.374  1.6446  0.7779 -0.0831
 9401SOL    HW239666   1.646   3.801   8.400  0.9238 -0.3472  0.2403
 9402SOL     OW39667   1.301   0.447   1.611 -0.0619  0.4322 -0.4322
 9402SOL    HW139668   1.373   0.505   1.639  1.5898 -1.5026 -0.6797
 9402SOL    HW239669   1.278   0.414   1.698 -0.1821  2.5014  0.3207
 9403SOL     OW39670   0.415   2.034   8.179 -0.1992  0.2655 -0.7444
 9403SOL    HW139671   0.376   1.965   8.232 -1.6463  1.7170  0.0638
 9403SOL    HW239672   0.507   2.030   8.207 -0.2144  1.6935 -0.5027
 9404SOL     OW39673   1.656   4.053   5.862 -0.4690  0.4339 -0.3490
 9404SOL    HW139674   1.706   4.029   5.784  0.8543 -0.9824  0.9096
 9404SOL    HW239675   1.625   3.963   5.875  0.7322  0.4050  2.2571
 9405SOL     OW39676   0.762   2.346   2.865  0.3745 -0.4696 -0.1321
 9405SOL    HW139677   0.720   2.377   2.946 -0.9591 -1.5983 -0.4052
 9405SOL    HW239678   0.800   2.431   2.843  1.6872 -0.6398  1.4090
 9406SOL     OW39679   3.769   3.135   1.473  0.0450 -0.0057 -0.0603
 9406SOL    HW139680   3.811   3.221   1.469  0.9995 -0.4613  0.1195
 9406SOL    HW239681   3.744   3.114   1.382  1.0947  1.4740 -0.6862
 9407SOL     OW39682   2.358   4.232   2.672 -0.6184 -0.2362  0.1529
 9407SOL    HW139683   2.344   4.244   2.578  2.6427  1.2870 -0.1601
 9407SOL    HW239684   2.420   4.160   2.681  0.0352  0.3904  0.7108
 9408SOL     OW39685   3.616   1.508  16.959 -0.6539 -0.1547 -0.5174
 9408SOL    HW139686   3.551   1.493  16.891 -2.5830  4.5090  0.3268
 9408SOL    HW239687   3.591   1.593  16.993  1.4448  0.2925 -0.1137
 9409SOL     OW39688   2.995   1.842  11.783 -0.5086 -0.2437 -0.4890
 9409SOL    HW139689   3.051   1.766  11.799  0.4211  1.0094  2.3989
 9409SOL    HW239690   3.055   1.916  11.795 -0.0128 -0.8624  0.8831
 9410SOL     OW39691   4.687   1.504  15.247  0.5851 -0.6228 -0.2256
 9410SOL    HW139692   4.618   1.443  15.273 -0.0723  0.8619  1.5308
 9410SOL    HW239693   4.651   1.589  15.272  2.2245 -0.1275  0.4609
 9411SOL     OW39694   0.961   0.461  17.577  0.1852  0.6106  0.0785
 9411SOL    HW139695   1.045   0.482  17.618  0.8692 -0.0573 -0.9784
 9411SOL    HW239696   0.996   0.441  17.490  1.8215  2.6978  0.2585
 9412SOL     OW39697   2.786   1.746   3.675  0.0342 -0.1160 -0.0446
 9412SOL    HW139698   2.814   1.665   3.718  0.5487  0.9353  1.6437
 9412SOL    HW239699   2.872   1.784   3.660 -0.9155  1.5859 -1.2425
 9413SOL     OW39700   1.702   0.902   6.043  0.3059 -0.0407  0.8909
 9413SOL    HW139701   1.797   0.915   6.040  0.0935  1.3250 -0.1836
 9413SOL    HW239702   1.692   0.807   6.052  1.5375 -0.4733 -2.0708
 9414SOL     OW39703   2.023   2.267   4.869 -0.1225  1.0880 -0.2636
 9414SOL    HW139704   1.927   2.267   4.867 -0.1487 -0.6221  1.7505
 9414SOL    HW239705   2.037   2.179   4.904  1.6811  1.6544  0.4451
 9415SOL     OW39706   1.637   3.578  10.263  0.4900 -0.4265  0.1866
 9415SOL    HW139707   1.580   3.502  10.252  1.3697 -0.8943 -1.1442
 9415SOL    HW239708   1.591   3.626  10.332 -0.0683 -1.7526  0.7348
 9416SOL     OW39709   2.085   0.762   1.945  0.1098 -0.5361 -0.0421
 9416SOL    HW139710   2.028   0.687   1.963  1.1655 -1.3055  0.0849
 9416SOL    HW239711   2.115   0.791   2.032  1.8645 -1.7047 -0.2516
 9417SOL     OW39712   1.882   2.476   0.603  0.0791 -0.0381  0.6008
 9417SOL    HW139713   1.976   2.458   0.600  0.3255  1.3799 -0.2449
 9417SOL    HW239714   1.874   2.552   0.545 -1.8349 -2.3888 -2.2130
 9418SOL     OW39715   4.308   3.182   6.483  0.1962 -0.1940 -0.0348
 9418SOL    HW139716   4.324   3.227   6.400  0.6669 -2.4651 -1.1892
 9418SOL    HW239717   4.222   3.142   6.469 -1.4418  3.2903  0.3084
 9419SOL     OW39718   2.198   4.408   7.010 -0.5806  0.4508  0.0894
 9419SOL    HW139719   2.148   4.481   7.049 -0.4221  0.1773  0.8010
 9419SOL    HW239720   2.265   4.466   6.974 -0.3811 -0.2091 -0.5865
 9420SOL     OW39721   3.614   1.165   9.297  0.2994 -0.9461 -0.6249
 9420SOL    HW139722   3.697   1.145   9.253  0.4522  0.0580 -0.8091
 9420SOL    HW239723   3.596   1.251   9.257 -1.4837 -1.4402 -0.8469
 9421SOL     OW39724   4.080   4.503   7.800 -0.0782  0.6455 -0.3117
 9421SOL    HW139725   4.015   4.508   7.871  0.7187  0.0009  0.4623
 9421SOL    HW239726   4.067   4.421   7.753  0.1647  1.6448 -2.1204
 9422SOL     OW39727   2.363   2.429  12.771 -0.0867  0.5316 -0.0929
 9422SOL    HW139728   2.448   2.470  12.756 -0.3858  1.6571  1.3199
 9422SOL    HW239729   2.306   2.503  12.753 -0.1659  0.6735  0.7560
 9423SOL     OW39730   2.837   3.377   5.150 -0.6399  0.2558  0.4515
 9423SOL    HW139731   2.854   3.426   5.230 -1.3657  3.5756 -1.4200
 9423SOL    HW239732   2.903   3.310   5.139 -0.7970  0.4412 -1.6845
 9424SOL     OW39733   0.016   3.338   6.811 -0.5374  0.1721 -0.1647
 9424SOL    HW139734   4.684   3.268   6.782 -0.4504  0.4307 -0.9569
 9424SOL    HW239735   0.060   3.360   6.729  0.1393  1.2924  0.5096
 9425SOL     OW39736   0.555   3.158  10.737  0.5031 -0.1226  0.1902
 9425SOL    HW139737   0.556   3.252  10.757 -1.2971 -0.0551 -0.0632
 9425SOL    HW239738   0.478   3.150  10.680  1.3965  1.6420 -1.2541
 9426SOL     OW39739   0.798   4.163  13.464 -0.5610 -0.2407 -0.2264
 9426SOL    HW139740   0.775   4.149  13.372  1.2404 -0.6606 -0.6083
 9426SOL    HW239741   0.733   4.223  13.500  0.7253  2.2929 -2.0901
 9427SOL     OW39742   3.184   3.977   5.717 -0.2785 -0.0499 -0.3003
 9427SOL    HW139743   3.262   3.956   5.666 -0.3968 -0.3186 -0.3690
 9427SOL    HW239744   3.194   3.918   5.791 -1.1137  1.7224  1.2416
 9428SOL     OW39745   0.299   1.909   8.499  0.3002  0.0125 -0.5164
 9428SOL    HW139746   0.370   1.845   8.486  0.8280  0.7183 -1.1448
 9428SOL    HW239747   0.247   1.901   8.419  2.2780 -0.5347 -1.7644
 9429SOL     OW39748   4.314   4.566   3.432 -0.2599  0.2672 -0.0679
 9429SOL    HW139749   4.257   4.615   3.491  0.3527  1.0900 -0.1608
 9429SOL    HW239750   4.395   4.551   3.480 -0.3929  1.0219  0.3980
 9430SOL     OW39751   3.070   4.608   5.051  0.7522 -0.2248  0.2715
 9430SOL    HW139752   3.157   4.649   5.051  0.4953  0.3012 -1.8654
 9430SOL    HW239753   3.026   4.655   5.121  1.0533  1.9602 -1.0114
 9431SOL     OW39754   3.123   4.412   1.956 -0.2600  0.1273 -0.5675
 9431SOL    HW139755   3.093   4.459   1.878  0.3409 -0.7114 -1.3025
 9431SOL    HW239756   3.186   4.348   1.922  1.1804  1.8889 -1.2212
 9432SOL     OW39757   1.863   2.288   6.348  0.7156 -0.5302 -0.5942
 9432SOL    HW139758   1.785   2.340   6.327  0.8027 -0.9035 -1.8258
 9432SOL    HW239759   1.926   2.337   6.401  0.8610 -1.7643  0.3740
 9433SOL     OW39760   3.325   3.135   6.800  0.4783 -0.1264 -0.6758
 9433SOL    HW139761   3.352   3.077   6.729 -0.5927 -1.0110 -0.3548
 9433SOL    HW239762   3.271   3.082   6.859  0.6285 -1.3632 -1.6513
 9434SOL     OW39763   0.419   4.214   3.988  0.0539 -0.0398 -0.0329
 9434SOL    HW139764   0.499   4.206   3.936  1.3505  2.2398  1.6441
 9434SOL    HW239765   0.442   4.221   4.080  1.7989 -0.0360 -0.4730
 9435SOL     OW39766   2.343   1.497   9.174 -0.0064 -0.3840  0.1159
 9435SOL    HW139767   2.308   1.580   9.206  0.9549  0.5386 -1.2521
 9435SOL    HW239768   2.286   1.481   9.100  0.1855 -2.9140  0.5254
 9436SOL     OW39769   1.812   3.131   6.411 -0.4881  0.4986  0.1155
 9436SOL    HW139770   1.773   3.056   6.457 -0.1888 -0.2816 -0.9120
 9436SOL    HW239771   1.733   3.178   6.384 -1.4066 -2.4936 -2.4333
 9437SOL     OW39772   4.199   2.903   8.420  0.3529  0.5225 -0.0300
 9437SOL    HW139773   4.198   2.864   8.333 -0.3143  0.1927  0.1280
 9437SOL    HW239774   4.191   2.996   8.396  1.1519  0.7486  0.5658
 9438SOL     OW39775   0.135   0.175   1.612  0.0930  0.5299  0.0972
 9438SOL    HW139776   0.112   0.115   1.541  0.4017 -1.1418  1.3998
 9438SOL    HW239777   0.092   0.257   1.588 -0.6854  0.7149  2.0440
 9439SOL     OW39778   3.299   4.041  11.229 -0.1335  0.1240  0.6255
 9439SOL    HW139779   3.207   4.025  11.207  0.7948 -1.7333 -1.9333
 9439SOL    HW239780   3.289   4.128  11.267  3.4128  1.1181 -0.6310
 9440SOL     OW39781   3.017   0.742   4.063 -0.5207 -0.2357 -0.1257
 9440SOL    HW139782   2.939   0.786   4.030 -1.1409  0.1921  1.9030
 9440SOL    HW239783   2.994   0.653   4.036 -0.0896 -0.2398 -0.4944
 9441SOL     OW39784   4.137   2.143   4.872 -0.4217 -0.4091  0.7275
 9441SOL    HW139785   4.104   2.156   4.961 -0.3464 -1.6309  0.9264
 9441SOL    HW239786   4.227   2.175   4.877  0.1003 -1.8286  0.2202
 9442SOL     OW39787   3.982   1.702   4.448 -0.0880  0.2857 -0.1289
 9442SOL    HW139788   3.935   1.704   4.365 -1.2958  1.8714  0.5963
 9442SOL    HW239789   3.931   1.757   4.508 -1.6922 -0.5334 -0.7295
 9443SOL     OW39790   3.994   2.926   8.691  0.4372  0.2238 -0.0876
 9443SOL    HW139791   3.939   2.981   8.748 -0.2556  0.2764 -0.8084
 9443SOL    HW239792   3.969   2.971   8.610  0.3350  0.1211 -0.1141
 9444SOL     OW39793   2.194   4.527   7.945  0.3388 -0.0025  0.7160
 9444SOL    HW139794   2.150   4.472   8.009  0.0232  0.7135  1.1253
 9444SOL    HW239795   2.118   4.577   7.913  1.1474  1.6404  1.3390
 9445SOL     OW39796   3.834   2.613   3.343 -0.2711 -0.2664  0.0130
 9445SOL    HW139797   3.885   2.540   3.306 -0.3215 -0.6676  0.7421
 9445SOL    HW239798   3.758   2.562   3.369  0.6747 -0.6773  1.9476
 9446SOL     OW39799   2.110   3.366  16.037  0.1114  0.3283  0.1656
 9446SOL    HW139800   2.116   3.278  16.075 -0.3017 -0.5506 -1.8292
 9446SOL    HW239801   2.193   3.384  15.992  0.6738 -1.4154  0.4809
 9447SOL     OW39802   1.255   2.946  10.332  0.7372  0.2403 -0.1720
 9447SOL    HW139803   1.188   2.895  10.287  1.9240 -1.9384  0.5490
 9447SOL    HW239804   1.311   2.954  10.255  0.2414  1.8669 -0.3599
 9448SOL     OW39805   3.928   4.105   8.912  0.0547  0.1602 -0.1987
 9448SOL    HW139806   3.908   4.134   9.001 -2.2289 -0.7931 -0.3814
 9448SOL    HW239807   3.859   4.144   8.858 -1.0269 -1.2702  0.1598
 9449SOL     OW39808   4.194   1.982  13.999  0.2283 -0.3712 -0.3633
 9449SOL    HW139809   4.288   1.966  14.000  0.4971  1.1530 -0.6554
 9449SOL    HW239810   4.198   2.075  14.019 -2.6103 -0.6246  1.4392
 9450SOL     OW39811   3.423   3.231   3.687 -0.1384 -0.3263 -0.0242
 9450SOL    HW139812   3.473   3.287   3.747 -0.2895 -0.8487  0.5984
 9450SOL    HW239813   3.334   3.255   3.712 -1.4983 -4.0744 -1.3538
 9451SOL     OW39814   3.104   4.185   4.037 -0.6936 -0.1534  0.1635
 9451SOL    HW139815   3.117   4.216   4.127  1.0690  0.2415 -0.2193
 9451SOL    HW239816   3.016   4.154   4.055 -0.5229 -0.1895  0.9476
 9452SOL     OW39817   3.159   3.382   7.871 -0.0192 -0.0546  0.2419
 9452SOL    HW139818   3.204   3.314   7.921  0.4222  1.1530  1.5048
 9452SOL    HW239819   3.111   3.420   7.945  1.5931 -0.1239  1.3184
 9453SOL     OW39820   0.575   1.803   3.815 -0.8487 -0.7021 -0.3038
 9453SOL    HW139821   0.564   1.713   3.846 -0.0540 -0.2772  1.2372
 9453SOL    HW239822   0.647   1.828   3.873 -1.0019  0.7516 -0.7501
 9454SOL     OW39823   4.198   3.817   6.335  0.0269  0.7651  0.1067
 9454SOL    HW139824   4.273   3.837   6.391  0.4457  0.9197 -0.4975
 9454SOL    HW239825   4.124   3.868   6.368  0.0853 -0.1108  1.5722
 9455SOL     OW39826   2.617   1.257  12.152  0.4708 -0.1383  0.2966
 9455SOL    HW139827   2.556   1.235  12.222 -1.0931 -0.5734 -1.2107
 9455SOL    HW239828   2.628   1.349  12.172  2.0787 -0.7579  2.2332
 9456SOL     OW39829   4.246   2.542   8.903 -0.1398 -0.1229  0.1876
 9456SOL    HW139830   4.163   2.495   8.914 -1.0425  1.2550 -0.6226
 9456SOL    HW239831   4.217   2.626   8.867 -0.3728 -1.0739 -1.8413
 9457SOL     OW39832   3.404   2.930  13.937 -0.6100 -0.1166 -0.1382
 9457SOL    HW139833   3.368   2.869  13.874 -0.0868 -0.3426 -0.2154
 9457SOL    HW239834   3.456   2.991  13.884 -0.6395 -0.2079 -0.2699
 9458SOL     OW39835   4.495   3.221   7.528 -0.4031  0.8373 -0.5898
 9458SOL    HW139836   4.447   3.143   7.502 -0.0704  0.8170 -1.1504
 9458SOL    HW239837   4.532   3.194   7.612  0.4403 -0.7900 -1.4816
 9459SOL     OW39838   1.264   1.623   7.708 -0.1727 -0.0543 -0.0795
 9459SOL    HW139839   1.176   1.648   7.735 -0.9573 -2.7618 -0.1856
 9459SOL    HW239840   1.277   1.680   7.632  3.1928  1.1659  1.4210
 9460SOL     OW39841   2.203   3.557  10.646  0.3722  0.2931  0.5055
 9460SOL    HW139842   2.211   3.586  10.737  0.7298 -0.2820  0.6571
 9460SOL    HW239843   2.126   3.502  10.661 -0.1257  1.1320  1.0547
 9461SOL     OW39844   3.406   0.639   0.449  0.9165  0.1532 -0.3592
 9461SOL    HW139845   3.437   0.611   0.535 -0.3656  0.0381  0.0601
 9461SOL    HW239846   3.339   0.702   0.473  0.0844 -2.1103  3.1910
 9462SOL     OW39847   2.230   4.298   1.682  0.0260  0.0917  0.4611
 9462SOL    HW139848   2.193   4.255   1.605 -0.1995 -1.3945  1.4000
 9462SOL    HW239849   2.235   4.389   1.651 -1.2415  0.2990  0.8828
 9463SOL     OW39850   2.043   1.113  14.848  0.7512  0.2415 -0.3041
 9463SOL    HW139851   2.009   1.199  14.822 -0.7001 -0.2045  0.1496
 9463SOL    HW239852   2.093   1.087  14.771  0.6388 -2.2913  0.4663
 9464SOL     OW39853   0.974   1.574   7.282 -0.2159 -0.4255  0.2768
 9464SOL    HW139854   0.962   1.493   7.332  2.5830 -0.4180  0.9366
 9464SOL    HW239855   0.884   1.586   7.251  0.2983 -0.7104 -1.3260
 9465SOL     OW39856   3.266   3.182   5.131  0.2405 -0.4146  0.7852
 9465SOL    HW139857   3.272   3.262   5.183  3.6187 -0.4755  0.4799
 9465SOL    HW239858   3.337   3.127   5.162  2.0564  1.2020 -0.4632
 9466SOL     OW39859   2.606   0.598   4.086  0.2875  0.1663 -0.1523
 9466SOL    HW139860   2.527   0.545   4.103  0.3030  0.0773 -0.3582
 9466SOL    HW239861   2.608   0.610   3.991 -3.0956 -1.5872 -0.4672
 9467SOL     OW39862   1.162   3.629   1.629 -0.2017  0.4140 -0.4946
 9467SOL    HW139863   1.082   3.582   1.654  0.8111  0.4621  2.8502
 9467SOL    HW239864   1.233   3.587   1.679 -0.3648 -0.3397 -0.8922
 9468SOL     OW39865   0.273   1.594   7.629  0.4250 -0.5126  0.6163
 9468SOL    HW139866   0.333   1.654   7.673 -1.7144  2.1879 -0.1020
 9468SOL    HW239867   0.285   1.513   7.677  0.2665  1.0771  3.3071
 9469SOL     OW39868   1.649   3.437   5.569  0.5021 -0.2546  0.7380
 9469SOL    HW139869   1.588   3.414   5.500 -0.2004  0.0212  1.2720
 9469SOL    HW239870   1.723   3.376   5.559  2.2253  2.0686 -0.6328
 9470SOL     OW39871   1.882   4.377   4.385 -0.1499 -0.0684 -0.1643
 9470SOL    HW139872   1.800   4.339   4.355 -0.9553  1.2111  0.4164
 9470SOL    HW239873   1.906   4.436   4.313 -1.0755  0.6564  0.1156
 9471SOL     OW39874   3.409   2.290   5.760  0.0187 -0.0979  0.3187
 9471SOL    HW139875   3.438   2.288   5.852  1.3664  4.1669 -0.0356
 9471SOL    HW239876   3.495   2.289   5.717  0.4236  0.4758  1.1079
 9472SOL     OW39877   0.048   4.417   2.218 -0.2898  0.2434 -0.0331
 9472SOL    HW139878   4.703   4.408   2.154 -0.5062 -0.5869  0.3331
 9472SOL    HW239879   0.005   4.416   2.303  2.4181  0.8302  1.3352
 9473SOL     OW39880   3.657   1.039  17.623  0.0229 -0.1268 -0.0344
 9473SOL    HW139881   3.694   1.055  17.537 -0.5798 -0.7411 -0.4054
 9473SOL    HW239882   3.678   1.122  17.666  0.7889  0.1071 -0.8640
 9474SOL     OW39883   2.568   4.583   8.978 -0.0876  0.2198  0.4105
 9474SOL    HW139884   2.474   4.586   8.994 -0.3304 -2.4712 -0.3938
 9474SOL    HW239885   2.578   4.489   8.960  2.7587  0.1677  2.4126
 9475SOL     OW39886   3.639   2.727   0.005  0.1008 -0.3570  0.4307
 9475SOL    HW139887   3.686   2.809   0.017 -3.7403  1.9792 -0.2465
 9475SOL    HW239888   3.689   2.705  17.632 -1.4335 -1.5330 -0.2184
 9476SOL     OW39889   1.981   2.785   7.571  1.0422 -0.5570  0.5840
 9476SOL    HW139890   1.920   2.712   7.574  0.4433 -0.0371  0.8271
 9476SOL    HW239891   1.925   2.835   7.512  0.0419  1.2729  3.1281
 9477SOL     OW39892   1.291   1.746   5.823 -0.6924  0.2328 -0.1076
 9477SOL    HW139893   1.245   1.707   5.749  0.3748 -0.7541 -0.2438
 9477SOL    HW239894   1.229   1.724   5.893  1.3739  2.1490  2.3451
 9478SOL     OW39895   1.519   1.533   2.268 -0.3276  0.1496 -0.4356
 9478SOL    HW139896   1.435   1.489   2.250  0.3143 -1.5219  0.6335
 9478SOL    HW239897   1.491   1.593   2.337  0.4319  0.1607 -0.1375
 9479SOL     OW39898   1.502   2.784   7.296 -0.3211 -0.1675 -0.4252
 9479SOL    HW139899   1.447   2.853   7.333 -0.3185  0.4580 -1.5922
 9479SOL    HW239900   1.457   2.765   7.214 -2.0503 -0.3486  0.5582
 9480SOL     OW39901   1.836   3.812   3.567  0.0865  0.3499  0.1188
 9480SOL    HW139902   1.860   3.739   3.624  0.7943 -0.0214 -0.6358
 9480SOL    HW239903   1.849   3.875   3.637  0.0742  0.3747  0.0987
 9481SOL     OW39904   1.968   0.804   9.003 -0.4142  0.7114 -0.2785
 9481SOL    HW139905   2.040   0.836   8.947 -0.0520 -0.0115 -0.2200
 9481SOL    HW239906   2.003   0.827   9.089  1.9811 -3.3187 -0.1516
 9482SOL     OW39907   3.365   4.458   8.897  0.2748  0.1647 -0.3521
 9482SOL    HW139908   3.432   4.526   8.906  0.0875  0.1679  1.1041
 9482SOL    HW239909   3.292   4.514   8.870 -1.2161 -1.8128 -0.4167
 9483SOL     OW39910   1.013   3.809   2.434 -0.6086 -0.2353  0.4715
 9483SOL    HW139911   0.999   3.880   2.371 -0.5910  1.5292  2.4624
 9483SOL    HW239912   0.998   3.857   2.516  0.0916  2.3512 -0.9206
 9484SOL     OW39913   0.342   3.484   6.116  0.1530  0.0875  0.4033
 9484SOL    HW139914   0.342   3.570   6.075  0.5930 -1.6690 -3.3375
 9484SOL    HW239915   0.399   3.502   6.190  0.6378  1.4369 -0.3069
 9485SOL     OW39916   1.725   0.905   9.042 -0.2988  0.6384  0.5009
 9485SOL    HW139917   1.787   0.833   9.050 -0.9165  0.1280  0.6429
 9485SOL    HW239918   1.783   0.976   9.014 -0.7859  0.4560 -0.9556
 9486SOL     OW39919   3.180   3.178  13.745  0.0940  0.2826  0.3089
 9486SOL    HW139920   3.242   3.122  13.699 -3.5583 -1.9072 -1.9042
 9486SOL    HW239921   3.104   3.180  13.688 -1.1009 -1.0593  1.8481
 9487SOL     OW39922   3.766   1.384   3.091  0.4583 -0.1058  0.1187
 9487SOL    HW139923   3.761   1.362   3.184 -1.9480  0.0034  0.0242
 9487SOL    HW239924   3.841   1.443   3.095 -0.8027  1.4698  0.7827
 9488SOL     OW39925   0.907   0.514  15.533  0.1886  0.2668 -0.0954
 9488SOL    HW139926   0.993   0.541  15.502  1.7189 -2.0316  2.1292
 9488SOL    HW239927   0.937   0.432  15.572  0.9573  0.9795  0.8090
 9489SOL     OW39928   2.204   0.163   0.574  0.2287  0.4089  0.2203
 9489SOL    HW139929   2.265   0.139   0.644  1.7827  1.4393 -0.7635
 9489SOL    HW239930   2.221   0.100   0.504 -1.8684 -1.4548  1.4286
 9490SOL     OW39931   1.124   1.773   5.563  0.3563  0.2524  0.4219
 9490SOL    HW139932   1.032   1.787   5.585 -0.1244 -2.3807  0.0432
 9490SOL    HW239933   1.164   1.856   5.589  0.9523 -0.1639  0.8355
 9491SOL     OW39934   2.407   3.011  13.114  0.1447 -0.2320 -0.2725
 9491SOL    HW139935   2.440   3.043  13.029 -1.2914  2.1071  0.0519
 9491SOL    HW239936   2.479   3.045  13.167 -2.2731  0.7824  2.3549
 9492SOL     OW39937   3.431   1.282   6.851  0.8768  0.6319  0.5765
 9492SOL    HW139938   3.468   1.348   6.792 -0.3426  1.6446  0.9614
 9492SOL    HW239939   3.489   1.292   6.927 -2.2649 -1.8721  3.3203
 9493SOL     OW39940   3.181   2.148   5.866 -0.7354  0.2918  0.1469
 9493SOL    HW139941   3.229   2.091   5.927 -1.2398  0.0756  0.3397
 9493SOL    HW239942   3.257   2.181   5.817 -0.4290 -1.4414 -0.5876
 9494SOL     OW39943   1.794   2.271  16.852 -0.0495 -0.6317 -0.2577
 9494SOL    HW139944   1.863   2.281  16.918 -2.1876 -0.3591  1.9496
 9494SOL    HW239945   1.842   2.244  16.774  1.1784  1.7466 -0.2999
 9495SOL     OW39946   0.278   0.239   5.585  0.1606 -0.3002 -0.4517
 9495SOL    HW139947   0.247   0.271   5.500  1.0962 -0.0319 -0.6916
 9495SOL    HW239948   0.365   0.278   5.572  1.1577 -2.1090  0.6885
 9496SOL     OW39949   0.269   4.008   7.319  0.3102  0.0904 -0.1549
 9496SOL    HW139950   0.306   4.096   7.327  0.7449  0.0048 -1.1460
 9496SOL    HW239951   0.242   3.986   7.408  0.7025 -0.3766 -0.1560
 9497SOL     OW39952   1.628   2.224   0.081 -0.5287 -0.5515 -0.4144
 9497SOL    HW139953   1.689   2.205   0.152  0.3946  0.5905 -0.8937
 9497SOL    HW239954   1.550   2.169   0.087 -1.2416  0.6660  1.1611
 9498SOL     OW39955   0.737   1.860  11.213 -0.0179 -0.0636 -0.0271
 9498SOL    HW139956   0.823   1.892  11.240 -0.9743  0.4502  2.3715
 9498SOL    HW239957   0.681   1.905  11.277  1.1619  0.8581  0.3586
 9499SOL     OW39958   0.514   0.313  12.543  0.0595  0.3179  0.5036
 9499SOL    HW139959   0.601   0.313  12.503  0.6412  0.3992  1.7681
 9499SOL    HW239960   0.496   0.403  12.516  2.6641  1.2424  1.9284
 9500SOL     OW39961   1.826   2.213   8.487  0.3160  0.1786  0.8550
 9500SOL    HW139962   1.816   2.307   8.504 -1.0203  0.4112 -1.1138
 9500SOL    HW239963   1.920   2.209   8.472  0.2777  0.2879  0.5833
 9501SOL     OW39964   2.043   2.116   9.306 -0.2275  0.5066  0.2377
 9501SOL    HW139965   2.033   2.031   9.348 -1.2853  0.0237 -0.9592
 9501SOL    HW239966   2.062   2.170   9.382  0.0434 -0.3385  0.7630
 9502SOL     OW39967   2.044   4.440   5.542 -0.0852 -0.2718  0.0677
 9502SOL    HW139968   2.051   4.536   5.538 -1.1745 -0.2228 -0.8897
 9502SOL    HW239969   1.961   4.432   5.588  0.4301 -0.4447  0.9645
 9503SOL     OW39970   0.403   1.489   2.880 -0.2327 -0.9159 -0.4971
 9503SOL    HW139971   0.384   1.468   2.789  0.8241 -1.6271 -0.5444
 9503SOL    HW239972   0.480   1.546   2.869 -0.7590 -0.1643 -0.3352
 9504SOL     OW39973   4.394   2.418   4.434  0.6952 -0.3284  0.4752
 9504SOL    HW139974   4.470   2.361   4.450  0.5328 -0.4427  0.8365
 9504SOL    HW239975   4.413   2.498   4.483 -2.5523  1.6676 -1.5526
 9505SOL     OW39976   0.010   0.522  13.250  0.0560 -0.8950  0.0350
 9505SOL    HW139977   4.654   0.536  13.203  0.6470  0.1616 -0.7059
 9505SOL    HW239978   0.070   0.561  13.186 -1.0074  2.3901  1.0398
 9506SOL     OW39979   3.240   1.160   4.064 -0.3878  0.0156 -0.1121
 9506SOL    HW139980   3.205   1.228   4.123 -1.8139 -0.3735 -0.5129
 9506SOL    HW239981   3.249   1.212   3.985 -1.3682 -2.4407 -1.8360
 9507SOL     OW39982   3.132   3.617   1.502 -0.3843  0.1118  0.1811
 9507SOL    HW139983   3.216   3.606   1.459 -1.4170 -1.4028 -1.4657
 9507SOL    HW239984   3.092   3.543   1.456  1.7424 -2.0738  1.8692
 9508SOL     OW39985   3.266   2.254  12.168 -0.4356  0.2299 -0.0173
 9508SOL    HW139986   3.268   2.300  12.251 -0.7230 -0.7624  0.5369
 9508SOL    HW239987   3.174   2.230  12.155 -0.2431 -1.6615  2.1701
 9509SOL     OW39988   0.932   0.096   4.236  0.0750  0.0209 -0.0236
 9509SOL    HW139989   0.888   0.146   4.167 -0.7443  0.3866  0.7688
 9509SOL    HW239990   1.017   0.075   4.197  0.2845 -1.3470  1.1414
 9510SOL     OW39991   1.706   0.559   9.592  0.1496  0.3645 -0.1727
 9510SOL    HW139992   1.757   0.486   9.629  0.7176 -0.2358 -2.1676
 9510SOL    HW239993   1.721   0.547   9.499  0.0209 -1.0706 -0.0090
 9511SOL     OW39994   2.786   4.281   8.281 -0.1686 -0.1688  0.0334
 9511SOL    HW139995   2.716   4.347   8.277  0.4248  0.4718  0.2672
 9511SOL    HW239996   2.754   4.205   8.329  1.7431 -0.3279  1.0355
 9512SOL     OW39997   2.297   3.045   3.176 -0.6600  0.3064 -0.1102
 9512SOL    HW139998   2.280   3.137   3.198 -2.5644  0.0882 -0.6709
 9512SOL    HW239999   2.225   2.999   3.220 -0.0864 -1.8074 -1.4004
 9513SOL     OW40000   1.628   1.974   3.748  0.3666 -0.3778  0.4942
 9513SOL    HW140001   1.602   2.062   3.722  0.5818 -0.2358  0.7608
 9513SOL    HW240002   1.624   1.982   3.843 -0.8181  0.3509  0.3704
 9514SOL     OW40003   0.544   3.288   0.833  0.1858 -0.0764  0.4149
 9514SOL    HW140004   0.543   3.379   0.801  1.8781  0.1918  1.1249
 9514SOL    HW240005   0.634   3.261   0.818 -0.4880 -1.7413 -0.6129
 9515SOL     OW40006   1.343   4.429   3.543 -0.0022 -0.0346  0.0186
 9515SOL    HW140007   1.267   4.480   3.574  0.8539  0.9502  0.5000
 9515SOL    HW240008   1.333   4.359   3.608  1.2194 -2.2357 -2.1746
 9516SOL     OW40009   3.964   3.501   1.021 -0.8065  0.1476  0.7422
 9516SOL    HW140010   3.916   3.500   1.104  0.0730 -1.8627  1.2347
 9516SOL    HW240011   3.932   3.584   0.986 -0.1441 -0.0008 -0.2018
 9517SOL     OW40012   3.282   3.350   8.830 -0.1041 -0.3534 -0.1853
 9517SOL    HW140013   3.273   3.266   8.874 -2.7998  1.4822  2.8424
 9517SOL    HW240014   3.327   3.329   8.749 -1.6496  0.9313 -1.3793
 9518SOL     OW40015   2.183   1.926   9.470  0.1055  0.0818 -0.0087
 9518SOL    HW140016   2.186   1.978   9.550 -0.0490 -1.1450  0.7988
 9518SOL    HW240017   2.276   1.924   9.445  0.3528 -1.6980  1.0053
 9519SOL     OW40018   3.676   1.883   7.781  0.3863  0.6204  0.5744
 9519SOL    HW140019   3.599   1.895   7.726  0.3391 -0.0846  0.4874
 9519SOL    HW240020   3.655   1.791   7.794 -0.7783  0.6545 -1.0567
 9520SOL     OW40021   0.523   4.434   7.750 -0.2023  0.0486  0.3067
 9520SOL    HW140022   0.476   4.358   7.716  1.5870 -1.5536  1.3640
 9520SOL    HW240023   0.607   4.443   7.705  0.6718 -0.2815  1.8531
 9521SOL     OW40024   1.478   1.911   2.413  0.2710 -0.3177  0.2284
 9521SOL    HW140025   1.507   1.825   2.445 -0.7176 -0.0382  1.8570
 9521SOL    HW240026   1.396   1.884   2.371  0.2339  0.1504  0.0076
 9522SOL     OW40027   2.423   3.255   2.238  0.6333 -0.1432  0.3290
 9522SOL    HW140028   2.399   3.214   2.321  2.4376 -0.1488  0.8433
 9522SOL    HW240029   2.340   3.294   2.211  0.9803  0.3490 -0.0304
 9523SOL     OW40030   0.064   3.227   3.011 -0.4011 -0.2214  0.4340
 9523SOL    HW140031   0.032   3.316   3.028 -2.0652 -0.3358 -2.1621
 9523SOL    HW240032   4.718   3.200   2.953  1.4415  1.4740 -2.6410
 9524SOL     OW40033   4.409   2.379   8.092  0.2741  0.6926 -0.1053
 9524SOL    HW140034   4.491   2.409   8.053 -0.0867  0.2598 -1.1884
 9524SOL    HW240035   4.432   2.288   8.111  1.6522  0.7060 -1.7037
 9525SOL     OW40036   1.543   2.611  15.822 -0.4245 -0.2035 -0.3046
 9525SOL    HW140037   1.610   2.546  15.845  0.1209  0.8106  0.9707
 9525SOL    HW240038   1.508   2.627  15.910  4.5945  1.5843  1.4044
 9526SOL     OW40039   2.047   4.022  14.458  0.2289 -0.3074 -0.1404
 9526SOL    HW140040   2.074   4.114  14.456  0.3328 -0.2904  2.5224
 9526SOL    HW240041   2.103   3.986  14.526 -0.4359  0.1626  0.6612
 9527SOL     OW40042   2.254   0.998   4.229 -0.3605  0.4579 -0.8365
 9527SOL    HW140043   2.344   0.998   4.198 -0.2588 -1.9957 -0.5587
 9527SOL    HW240044   2.226   1.085   4.200  0.2039  0.9804  0.1939
 9528SOL     OW40045   3.229   4.477   6.200  0.5494 -0.5485  0.1615
 9528SOL    HW140046   3.289   4.501   6.129  0.8130 -1.4345  0.0864
 9528SOL    HW240047   3.226   4.559   6.249  0.6157 -0.6652  0.3596
 9529SOL     OW40048   3.270   4.672  12.752  0.0737  0.3116  0.0496
 9529SOL    HW140049   3.282   4.613  12.827 -0.5906 -2.3109 -1.8861
 9529SOL    HW240050   3.189   4.639  12.713 -0.7533  1.7974  0.5510
 9530SOL     OW40051   0.627   2.804  15.552 -0.9039  0.2895 -0.3851
 9530SOL    HW140052   0.547   2.802  15.603 -0.0679  2.8667  1.0173
 9530SOL    HW240053   0.697   2.783  15.614  1.3177 -0.0091 -2.9685
 9531SOL     OW40054   2.530   0.622  10.063 -0.1617 -0.4130 -0.2264
 9531SOL    HW140055   2.566   0.660  10.144  1.1398 -1.7224 -0.1828
 9531SOL    HW240056   2.586   0.545  10.054 -0.2562 -0.2927 -1.8279
 9532SOL     OW40057   2.824   1.604   8.702 -0.1147 -0.7129 -0.0921
 9532SOL    HW140058   2.857   1.531   8.650 -0.6905 -2.0371  1.4244
 9532SOL    HW240059   2.849   1.584   8.792 -1.0023  0.0414  0.3244
 9533SOL     OW40060   0.901   0.796   3.871  0.5342 -0.0553 -0.1071
 9533SOL    HW140061   0.819   0.845   3.863 -2.1961 -4.5700  0.3611
 9533SOL    HW240062   0.952   0.817   3.792 -1.0576  1.2405 -0.7997
 9534SOL     OW40063   2.508   0.220   0.457  0.0040 -0.5704 -0.0396
 9534SOL    HW140064   2.601   0.227   0.435  0.1475  2.0896  1.4364
 9534SOL    HW240065   2.507   0.134   0.498 -0.2969  0.3450  1.8867
 9535SOL     OW40066   0.765   2.080   8.825 -0.1116  0.0204  0.6541
 9535SOL    HW140067   0.825   2.146   8.860 -0.7827  0.3301  1.2292
 9535SOL    HW240068   0.726   2.126   8.750 -2.2292  0.4145  1.9907
 9536SOL     OW40069   2.262   0.454   1.995 -0.5480  0.5718  0.1657
 9536SOL    HW140070   2.237   0.374   1.949  2.8435 -0.2934 -0.1819
 9536SOL    HW240071   2.215   0.457   2.078 -1.8922 -0.3930 -0.5747
 9537SOL     OW40072   2.121   1.536   5.605  0.0406 -0.5203  0.3970
 9537SOL    HW140073   2.201   1.504   5.564 -1.5592 -0.5324 -2.6972
 9537SOL    HW240074   2.142   1.629   5.606  1.2402 -0.7908 -0.7237
 9538SOL     OW40075   4.672   3.818   2.967  0.6975 -0.6093  0.1018
 9538SOL    HW140076   4.613   3.846   2.897 -2.1910 -2.4132  1.7760
 9538SOL    HW240077   4.666   3.727   2.939 -0.8688 -0.6728  0.6058
 9539SOL     OW40078   4.166   3.217   8.441 -0.2544 -0.2592  0.2712
 9539SOL    HW140079   4.103   3.289   8.436  0.8666  0.7284  0.4487
 9539SOL    HW240080   4.206   3.226   8.354 -2.3471  1.7313 -0.4928
 9540SOL     OW40081   0.435   0.379  11.352 -0.0692 -0.3869  0.2496
 9540SOL    HW140082   0.358   0.419  11.311  0.0974 -0.6470 -0.3146
 9540SOL    HW240083   0.398   0.347  11.435 -1.5400 -0.2254 -0.3449
 9541SOL     OW40084   4.518   1.398  13.303  0.2501  0.1127  0.5624
 9541SOL    HW140085   4.495   1.320  13.353 -0.4965  1.1922  1.9167
 9541SOL    HW240086   4.613   1.386  13.292  0.3146  0.9735  0.1726
 9542SOL     OW40087   3.457   4.239   1.431  0.0186 -0.3053  0.3996
 9542SOL    HW140088   3.464   4.324   1.388  3.0527  0.0119  1.5371
 9542SOL    HW240089   3.380   4.245   1.488 -0.0989  0.2736  0.1820
 9543SOL     OW40090   3.185   0.057   9.990  0.3684  0.5134  0.2560
 9543SOL    HW140091   3.137   0.139  10.001 -1.3509 -0.3292 -0.8847
 9543SOL    HW240092   3.199   0.052   9.895  0.6427  0.4617  0.2978
 9544SOL     OW40093   2.882   0.754   8.690 -0.2608 -0.1004  0.3135
 9544SOL    HW140094   2.846   0.842   8.685  0.8265  0.3447  0.3935
 9544SOL    HW240095   2.809   0.695   8.672 -0.9313  1.3230 -1.5984
 9545SOL     OW40096   4.009   1.004   8.986  0.5542  0.2526  0.5191
 9545SOL    HW140097   4.097   0.968   8.997  0.3224 -1.0047 -1.6916
 9545SOL    HW240098   4.022   1.090   8.947  1.4087 -1.2094 -2.3916
 9546SOL     OW40099   2.784   3.592   8.747 -0.1478 -0.5550  0.2447
 9546SOL    HW140100   2.811   3.585   8.655  0.0853  2.3611  0.0999
 9546SOL    HW240101   2.835   3.518   8.781 -1.3309 -0.5988  1.9257
 9547SOL     OW40102   1.782   4.327  14.768  0.3215 -0.0907 -0.2612
 9547SOL    HW140103   1.792   4.404  14.712 -1.1974  0.4532  0.2126
 9547SOL    HW240104   1.877   4.316  14.782  0.3886  1.5315  0.4897
 9548SOL     OW40105   1.443   1.838   6.957 -0.0611 -0.7588  0.5158
 9548SOL    HW140106   1.538   1.827   6.962 -0.1677 -1.3543  1.3726
 9548SOL    HW240107   1.423   1.805   6.870 -1.2252  2.3177 -0.3544
 9549SOL     OW40108   0.439   3.582   7.618 -0.1671  0.2254 -0.2436
 9549SOL    HW140109   0.429   3.490   7.592 -3.0278  0.4267  0.1640
 9549SOL    HW240110   0.386   3.616   7.546  0.0242 -0.8948 -0.9142
 9550SOL     OW40111   1.426   4.224   7.353  0.4220 -0.4512 -0.5285
 9550SOL    HW140112   1.501   4.262   7.399  0.9635 -0.7166 -1.1997
 9550SOL    HW240113   1.349   4.254   7.401  0.9367 -1.8918  1.2349
 9551SOL     OW40114   3.654   2.254   4.439  0.2658  0.0683 -0.0925
 9551SOL    HW140115   3.639   2.161   4.458 -0.4138  0.5333  1.6334
 9551SOL    HW240116   3.667   2.281   4.530  0.8494 -0.4310 -0.0270
 9552SOL     OW40117   0.340   1.778  11.536  0.1967  0.5342 -0.3649
 9552SOL    HW140118   0.430   1.748  11.527  0.6938  2.3329 -1.3545
 9552SOL    HW240119   0.352   1.856  11.591 -2.1912  0.2281  0.6064
 9553SOL     OW40120   2.625   0.283   8.092  0.1582  0.0443  0.4248
 9553SOL    HW140121   2.539   0.322   8.106 -0.3284 -0.8572 -0.0999
 9553SOL    HW240122   2.616   0.246   8.004 -1.5192 -0.6326  0.8753
 9554SOL     OW40123   4.013   0.014   3.131 -0.4947  0.1429  0.0213
 9554SOL    HW140124   4.028   4.708   3.042  1.8155 -0.4205  0.6239
 9554SOL    HW240125   3.917   0.012   3.135 -0.4925 -2.3055 -1.2967
 9555SOL     OW40126   0.042   3.206  10.617 -0.0056  0.3538  0.3960
 9555SOL    HW140127   0.048   3.126  10.566  3.1484  1.2311 -0.6006
 9555SOL    HW240128   0.129   3.210  10.658  0.2328 -0.9545 -0.0030
 9556SOL     OW40129   2.269   3.102   5.141  0.1762 -0.3979 -0.6687
 9556SOL    HW140130   2.180   3.112   5.173  0.6481  4.6928 -0.8551
 9556SOL    HW240131   2.252   3.100   5.047  0.9609 -3.8361 -0.7258
 9557SOL     OW40132   4.369   3.003   5.286  0.2046 -0.0104  0.2953
 9557SOL    HW140133   4.455   2.981   5.322  0.2449 -2.0666 -1.0203
 9557SOL    HW240134   4.376   3.096   5.266  1.3723 -0.1932 -0.1648
 9558SOL     OW40135   4.081   0.764   2.899  0.1059  0.5274  0.2131
 9558SOL    HW140136   4.080   0.859   2.893 -1.8094  0.4772 -0.4055
 9558SOL    HW240137   4.172   0.745   2.875  0.6823  2.0406  1.2108
 9559SOL     OW40138   2.467   0.578   9.523  0.2633  0.0916 -0.1707
 9559SOL    HW140139   2.441   0.543   9.438  0.4260 -2.3272  0.7723
 9559SOL    HW240140   2.522   0.648   9.488  0.0061  0.5310  0.3279
 9560SOL     OW40141   1.280   0.187  12.373  0.2580  0.2029  0.1845
 9560SOL    HW140142   1.197   0.150  12.403  0.5915 -2.1721 -1.8097
 9560SOL    HW240143   1.317   0.231  12.450 -0.7240 -0.6139  1.1278
 9561SOL     OW40144   0.638   1.263   5.782  1.0165  0.4238 -0.2601
 9561SOL    HW140145   0.602   1.340   5.739  1.9139  0.6005 -0.7033
 9561SOL    HW240146   0.597   1.270   5.868 -1.0331 -0.0147 -1.2135
 9562SOL     OW40147   3.684   1.085   6.540 -0.2457 -0.2961 -0.1654
 9562SOL    HW140148   3.715   0.996   6.557  0.4631 -0.3389 -1.7135
 9562SOL    HW240149   3.760   1.140   6.524  1.5376 -1.4400  4.4458
 9563SOL     OW40150   0.817   0.618   4.075 -0.0570  0.4729  0.2414
 9563SOL    HW140151   0.842   0.662   3.993  0.5578 -0.4599 -0.0663
 9563SOL    HW240152   0.724   0.601   4.058 -0.4123  0.7378  2.0041
 9564SOL     OW40153   2.025   1.000   8.698 -0.7743  0.4270 -0.1170
 9564SOL    HW140154   2.091   0.960   8.755 -1.7800  2.7499  2.6844
 9564SOL    HW240155   1.957   1.033   8.757 -0.0279 -1.2383  1.6658
 9565SOL     OW40156   1.638   4.466   6.201 -0.1624 -0.0726 -0.0639
 9565SOL    HW140157   1.568   4.429   6.255  0.2840 -1.4106 -0.4050
 9565SOL    HW240158   1.631   4.414   6.122  1.3367  1.7196 -1.3839
 9566SOL     OW40159   0.953   0.321   7.703 -0.2879 -0.0362 -0.2994
 9566SOL    HW140160   0.956   0.342   7.796 -0.6870 -1.5967  0.0702
 9566SOL    HW240161   1.008   0.386   7.660 -0.7416  0.2409 -0.4614
 9567SOL     OW40162   0.827   3.582   1.969  0.3422  0.5117  0.4288
 9567SOL    HW140163   0.881   3.660   1.955 -0.6389  1.2237  0.5661
 9567SOL    HW240164   0.788   3.608   2.052  0.1842 -0.9452  0.8075
 9568SOL     OW40165   2.821   1.011  10.914 -0.2731  0.0964 -0.3404
 9568SOL    HW140166   2.871   1.087  10.943 -1.2121  1.2309 -1.6972
 9568SOL    HW240167   2.774   0.994  10.995  2.1526  0.0737  1.0589
   4.72626   4.72626  17.70614
