Membrane in water
40167
    1TCq1    O1    1   2.388   0.395  11.290 -0.3803  0.3801 -0.1179
    1TCq1    C1    2   2.488   0.332  11.216  0.6739  0.2240 -0.0334
    1TCq1    O2    3   2.469   0.312  11.095  0.3036 -0.3038 -0.3928
    1TCq1    C2    4   2.611   0.374  11.280 -0.0257 -0.3913 -0.4550
    1TCq1    C3    5   2.699   0.445  11.205  0.0086  0.2689 -0.4670
    1TCq1    C4    6   2.814   0.490  11.273 -0.4183 -0.2801 -0.8380
    1TCq1    C5    7   2.822   0.483  11.410 -0.4092  0.0806  0.4176
    1TCq1    C6    8   2.730   0.410  11.481 -0.2146 -0.2573 -0.4305
    1TCq1    C7    9   2.625   0.357  11.415 -0.2356 -0.8294 -0.3991
    1TCq1    C8   10   2.726   0.408  11.623  0.3696 -0.8886 -0.2282
    1TCq1    O4   11   2.628   0.366  11.681 -0.3443 -0.1093  0.5675
    1TCq1    C9   12   2.906   0.571  11.192 -0.3475 -0.4830  0.2813
    1TCq1    O5   13   2.862   0.595  11.078  0.0959  0.0658  0.0085
    1TCq1    O6   14   3.025   0.606  11.222  0.2291  0.0435  0.7214
    1TCq1    H1   15   2.417   0.435  11.374 -2.7539 -0.6803  1.1991
    1TCq1    H2   16   2.694   0.459  11.098 -2.2269  1.9592 -0.1268
    1TCq1    H3   17   2.909   0.522  11.461  0.4485 -0.7353 -0.4248
    1TCq1    H4   18   2.551   0.302  11.472 -0.3561 -0.6492 -0.3840
    2MPD2     C   19   2.919   0.594  12.067 -0.3680 -0.5706  0.2714
    2MPD2    C1   20   2.792   0.603  12.014  0.4424  0.1909  0.0606
    2MPD2    C2   21   2.766   0.543  11.888  0.5429 -0.0530 -0.3088
    2MPD2    C3   22   2.864   0.486  11.817 -0.5848  0.3126 -0.3081
    2MPD2    C4   23   2.990   0.489  11.865  0.4081  0.4083  0.2548
    2MPD2    C5   24   3.014   0.534  11.991 -0.3135 -0.4522  0.9912
    2MPD2     H   25   2.665   0.541  11.849  0.4664  1.1286 -0.1629
    2MPD2    H1   26   3.074   0.457  11.804  1.4257  2.5887  0.5091
    2MPD2    H2   27   2.958   0.645  12.154  0.7339  0.8506 -1.0631
    2MPD2    H3   28   3.116   0.544  12.026  0.0162 -1.7079  0.3763
    2MPD2     N   29   2.848   0.439  11.679 -0.2925  0.5180  0.3503
    2MPD2    H5   30   2.928   0.436  11.617  0.2243 -1.1282  1.1035
    2MPD2    N1   31   2.681   0.667  12.075 -0.4647 -0.0141  0.1414
    2MPD2    H7   32   2.599   0.688  12.020 -0.4168  1.7666  0.7474
    3TCq1    O1   33   3.075   1.909  10.496  0.2293  0.0032 -0.0889
    3TCq1    C1   34   3.046   1.929  10.366  0.5812 -0.6876 -0.4847
    3TCq1    O2   35   3.110   1.872  10.278 -0.0932  0.3300 -0.6687
    3TCq1    C2   36   2.921   1.995  10.349 -0.5410  0.1101 -0.1631
    3TCq1    C3   37   2.894   2.031  10.219  0.5396  0.1972 -0.3969
    3TCq1    C4   38   2.766   2.078  10.203 -0.2239 -0.0823  0.2179
    3TCq1    C5   39   2.677   2.095  10.302  0.6614 -0.2240  0.4548
    3TCq1    C6   40   2.704   2.052  10.427  0.3100  0.3671  0.8465
    3TCq1    C7   41   2.826   1.993  10.450 -0.1618 -1.0668 -0.2484
    3TCq1    C8   42   2.598   2.005  10.509  0.1440 -0.5602 -0.3966
    3TCq1    O4   43   2.619   1.914  10.588  0.4366 -0.2942  0.0784
    3TCq1    C9   44   2.728   2.124  10.071 -0.5674  0.7875 -0.4732
    3TCq1    O5   45   2.802   2.086   9.972 -0.0282  0.1631  0.0378
    3TCq1    O6   46   2.612   2.174  10.053 -0.0067  0.0803  0.0237
    3TCq1    H1   47   3.028   1.974  10.552 -0.4887 -0.1617 -0.4874
    3TCq1    H2   48   2.963   1.998  10.142 -1.4664 -0.6017 -1.8510
    3TCq1    H3   49   2.576   2.130  10.281  1.7900  2.2862 -0.8221
    3TCq1    H4   50   2.844   1.970  10.554  0.6395 -1.6785 -0.5177
    4MPD2     C   51   2.159   2.065  10.766  0.3889 -0.3882 -0.3769
    4MPD2    C1   52   2.191   2.185  10.695  0.5729 -0.8732  0.0838
    4MPD2    C2   53   2.291   2.171  10.601  0.3892  0.4595 -0.7366
    4MPD2    C3   54   2.371   2.067  10.590  0.1344  0.3770  0.5385
    4MPD2    C4   55   2.345   1.953  10.670  0.2023 -0.4116  0.5713
    4MPD2    C5   56   2.241   1.952  10.756  0.0519  1.1836 -0.7774
    4MPD2     H   57   2.337   2.257  10.554 -1.5247  1.3471 -1.0212
    4MPD2    H1   58   2.415   1.871  10.662  0.5844 -0.1199  0.9353
    4MPD2    H2   59   2.069   2.061  10.827  1.8697 -2.1715  1.7210
    4MPD2    H3   60   2.204   1.861  10.802  0.8848  1.4467  0.3958
    4MPD2     N   61   2.481   2.079  10.501  0.8911 -0.3370 -0.3837
    4MPD2    H5   62   2.491   2.166  10.449  2.2027 -0.5148 -0.4388
    4MPD2    N1   63   2.130   2.314  10.719 -0.0446 -0.2325 -1.0366
    4MPD2    H7   64   2.176   2.383  10.660  0.9946 -0.4525 -0.4785
    5TCq1    O1   65   2.686   4.336  12.117 -0.2765 -0.2702  0.1049
    5TCq1    C1   66   2.714   4.244  12.018  0.2348  0.5909  0.1376
    5TCq1    O2   67   2.827   4.229  11.971 -0.2340 -0.8778  0.0828
    5TCq1    C2   68   2.597   4.230  11.939 -0.4257  0.2465  0.2314
    5TCq1    C3   69   2.472   4.234  12.004  0.1146  0.5181 -0.7742
    5TCq1    C4   70   2.355   4.216  11.930 -0.4365 -0.6210 -0.2118
    5TCq1    C5   71   2.359   4.196  11.800 -0.1496 -0.3006  0.1055
    5TCq1    C6   72   2.486   4.179  11.741 -0.8788  0.7096 -0.2728
    5TCq1    C7   73   2.602   4.189  11.810  0.3596 -0.7339 -0.1721
    5TCq1    C8   74   2.490   4.107  11.619 -0.5614  0.4579 -0.7066
    5TCq1    O4   75   2.597   4.073  11.567  0.8158 -0.4055 -0.0088
    5TCq1    C9   76   2.229   4.224  12.000  0.0552 -0.7110 -0.2864
    5TCq1    O5   77   2.243   4.230  12.127  0.0432  0.1683  0.4101
    5TCq1    O6   78   2.121   4.204  11.940 -0.2198  0.0576 -0.4078
    5TCq1    H1   79   2.607   4.386  12.089 -0.1600 -0.8727 -1.2744
    5TCq1    H2   80   2.458   4.238  12.112 -2.6217  1.2863 -1.1597
    5TCq1    H3   81   2.265   4.191  11.747 -0.4464 -0.5896  0.6568
    5TCq1    H4   82   2.705   4.186  11.774 -0.7439 -1.1927 -3.3035
    6MPD2     C   83   2.195   3.961  11.455 -0.6653 -0.0855  0.5778
    6MPD2    C1   84   2.327   3.969  11.485  1.4358  0.8117 -0.3551
    6MPD2    C2   85   2.422   3.905  11.411 -0.0180 -0.6939  1.2835
    6MPD2    C3   86   2.376   3.834  11.295  0.0641 -0.1781 -0.2604
    6MPD2    C4   87   2.245   3.827  11.267 -0.0873  0.3136 -0.5012
    6MPD2    C5   88   2.157   3.886  11.351  0.0851 -0.2842  0.0353
    6MPD2     H   89   2.526   3.914  11.440  0.1483  0.6913  0.2466
    6MPD2    H1   90   2.206   3.761  11.191 -1.5475 -0.2761  0.7492
    6MPD2    H2   91   2.123   4.004  11.524 -0.0144  1.5612  0.2229
    6MPD2    H3   92   2.049   3.881  11.339  0.1418 -0.0996 -0.5716
    6MPD2     N   93   2.472   3.766  11.216 -0.0036  0.5106  0.4422
    6MPD2    H5   94   2.568   3.771  11.250  0.0373  0.9890  0.2627
    6MPD2    N1   95   2.368   4.052  11.593 -0.9778 -0.7362  0.4574
    6MPD2    H7   96   2.293   4.089  11.650  1.2695  0.1678  2.8199
    7TCq1    O1   97   0.418   3.759  12.994 -0.4555 -0.7088 -0.3429
    7TCq1    C1   98   0.500   3.662  12.962 -0.0714 -0.1964 -0.2904
    7TCq1    O2   99   0.615   3.649  13.002  0.4873 -0.8194 -0.0657
    7TCq1    C2  100   0.421   3.544  12.959 -0.0248  0.0692 -0.1622
    7TCq1    C3  101   0.334   3.522  12.854 -1.0306  0.4565 -0.1410
    7TCq1    C4  102   0.264   3.406  12.845 -0.3816  0.2820 -0.1496
    7TCq1    C5  103   0.276   3.312  12.943  0.5002 -0.5796  0.7787
    7TCq1    C6  104   0.371   3.336  13.041  0.1366  0.3257  0.4440
    7TCq1    C7  105   0.450   3.441  13.047  0.3486 -0.0789  0.0340
    7TCq1    C8  106   0.368   3.237  13.144 -0.3577  0.3486  0.1158
    7TCq1    O4  107   0.303   3.138  13.120 -0.5839  0.2899  0.2615
    7TCq1    C9  108   0.177   3.380  12.737  0.2892  0.7491 -0.6682
    7TCq1    O5  109   0.095   3.288  12.756 -1.3377  0.0630  0.3820
    7TCq1    O6  110   0.164   3.475  12.656 -0.0378  0.4195  0.1084
    7TCq1    H1  111   0.342   3.763  12.932 -1.1019 -1.3838  0.4124
    7TCq1    H2  112   0.324   3.596  12.775  0.0846  0.0734 -0.6426
    7TCq1    H3  113   0.218   3.222  12.925  3.3617 -2.1720 -0.5144
    7TCq1    H4  114   0.524   3.468  13.122 -1.3844 -0.2480  1.7947
    8MPD2     C  115   0.501   3.028  13.590  0.1715  0.2129 -0.3352
    8MPD2    C1  116   0.442   2.969  13.484  0.2645  0.2983 -0.2534
    8MPD2    C2  117   0.425   3.041  13.366  0.1655  0.5938  0.7619
    8MPD2    C3  118   0.467   3.176  13.363  0.8893 -0.1511 -0.3500
    8MPD2    C4  119   0.530   3.234  13.471 -0.2120 -0.2486  0.4686
    8MPD2    C5  120   0.555   3.155  13.581 -0.5147 -0.0922  0.7487
    8MPD2     H  121   0.368   3.002  13.281  0.8307 -0.8859  0.9909
    8MPD2    H1  122   0.576   3.332  13.466  1.1954 -0.9749 -1.2029
    8MPD2    H2  123   0.536   2.972  13.676  1.3397  1.5128  0.0251
    8MPD2    H3  124   0.600   3.209  13.663  1.8174  0.0452 -0.6006
    8MPD2     N  125   0.449   3.259  13.250 -0.7979  0.7685  0.2900
    8MPD2    H5  126   0.487   3.353  13.256  0.1336  0.3378  1.2177
    8MPD2    N1  127   0.410   2.831  13.501  0.7457 -0.3337  0.3900
    8MPD2    H7  128   0.434   2.780  13.585  2.6612 -0.9700 -0.5453
    9TCq1    O1  129   3.112   2.283  10.643  0.6243  0.1574 -0.0243
    9TCq1    C1  130   3.015   2.220  10.714 -0.0524 -0.3955 -0.2946
    9TCq1    O2  131   2.989   2.101  10.698  0.2060  0.0577 -0.2305
    9TCq1    C2  132   2.962   2.297  10.828  0.7161  0.1022 -0.4363
    9TCq1    C3  133   2.945   2.435  10.812  0.6830 -0.5288 -0.3846
    9TCq1    C4  134   2.900   2.505  10.921  0.3709 -0.5093  0.5214
    9TCq1    C5  135   2.873   2.435  11.036 -0.6954 -0.2220 -0.4996
    9TCq1    C6  136   2.867   2.302  11.044  0.2837  0.2850  0.0160
    9TCq1    C7  137   2.906   2.236  10.934  0.0896 -0.3222  0.1842
    9TCq1    C8  138   2.780   2.230  11.135  0.1183  0.4818 -0.0390
    9TCq1    O4  139   2.778   2.105  11.127  0.2408  0.5052  0.0427
    9TCq1    C9  140   2.895   2.648  10.918  0.8892 -0.2155 -0.0668
    9TCq1    O5  141   2.934   2.703  10.812  0.7617  0.2112  0.6290
    9TCq1    O6  142   2.827   2.712  11.005  0.4696  0.1682 -0.4721
    9TCq1    H1  143   3.147   2.370  10.672  1.7365 -0.5502  0.7580
    9TCq1    H2  144   2.977   2.481  10.719  0.1772 -1.2912 -0.9292
    9TCq1    H3  145   2.852   2.498  11.122 -0.7468 -2.4949  1.1315
    9TCq1    H4  146   2.896   2.128  10.924  1.0648 -0.4260  0.3612
   10MPD2     C  147   2.507   2.361  11.341  0.0672 -0.0620  0.0222
   10MPD2    C1  148   2.606   2.269  11.306  0.1374  0.2060 -0.1306
   10MPD2    C2  149   2.623   2.148  11.369 -0.4602 -0.6703  0.4283
   10MPD2    C3  150   2.532   2.106  11.461 -0.5942 -0.0784 -0.2801
   10MPD2    C4  151   2.428   2.191  11.491  0.2914 -0.5094 -0.2742
   10MPD2    C5  152   2.421   2.315  11.436  0.0658  0.1187 -0.6476
   10MPD2     H  153   2.707   2.084  11.344  0.3540 -0.1090  1.7055
   10MPD2    H1  154   2.349   2.164  11.560 -0.1414  3.5788  0.8388
   10MPD2    H2  155   2.483   2.452  11.286 -1.8873 -0.2891  0.4989
   10MPD2    H3  156   2.335   2.377  11.459 -1.9885 -3.4000  1.2082
   10MPD2     N  157   2.535   1.980  11.528 -0.1661 -0.8258  0.5766
   10MPD2    H5  158   2.457   1.970  11.592 -1.7248  1.3694 -0.9567
   10MPD2    N1  159   2.694   2.311  11.200  0.2058  0.1161  0.4218
   10MPD2    H7  160   2.704   2.411  11.184 -2.5990  0.6563  2.0064
   11TCq1    O1  161   4.071   1.640  14.670  0.6563 -0.0797 -0.0020
   11TCq1    C1  162   3.981   1.575  14.744  0.4057 -0.3613  1.0606
   11TCq1    O2  163   3.980   1.545  14.864 -0.1644 -0.4956 -0.1254
   11TCq1    C2  164   3.857   1.626  14.673 -0.0548  0.1499  0.3599
   11TCq1    C3  165   3.737   1.636  14.747 -0.3044  0.1831  0.2202
   11TCq1    C4  166   3.636   1.692  14.680  0.7986  0.5274 -0.3221
   11TCq1    C5  167   3.638   1.711  14.544 -0.6066 -0.1505 -0.0493
   11TCq1    C6  168   3.751   1.684  14.477  0.3867 -0.2513  0.2540
   11TCq1    C7  169   3.868   1.653  14.535 -0.0501  0.2578  0.3634
   11TCq1    C8  170   3.751   1.677  14.328 -0.5674 -0.6712  0.1546
   11TCq1    O4  171   3.855   1.702  14.269 -0.2388  0.3691  0.6642
   11TCq1    C9  172   3.518   1.732  14.750 -0.2286 -0.4783 -0.4783
   11TCq1    O5  173   3.408   1.751  14.687 -0.7425  0.0899  0.0489
   11TCq1    O6  174   3.527   1.731  14.874  0.2506 -0.3299  0.8214
   11TCq1    H1  175   4.040   1.696  14.596 -0.0570 -2.0079 -1.1441
   11TCq1    H2  176   3.724   1.620  14.854 -1.0475  0.0485  0.1118
   11TCq1    H3  177   3.559   1.768  14.497 -1.8096 -2.1791 -0.4541
   11TCq1    H4  178   3.956   1.627  14.478 -3.0939 -1.7155 -3.3583
   12MPD2     C  179   3.673   1.679  14.038 -0.5781  0.4494  0.9694
   12MPD2    C1  180   3.585   1.654  14.153 -0.3964  0.1298 -1.3587
   12MPD2    C2  181   3.456   1.630  14.129 -0.6273 -0.4351  0.5488
   12MPD2    C3  182   3.400   1.638  13.999  0.5332  0.0170 -0.4114
   12MPD2    C4  183   3.487   1.678  13.891  1.1635 -0.0455  0.3061
   12MPD2    C5  184   3.625   1.690  13.914  0.5154 -0.4636  0.2768
   12MPD2     H  185   3.387   1.607  14.210 -1.3474 -2.2303 -0.5658
   12MPD2    H1  186   3.455   1.708  13.792 -1.4037 -1.6789  0.6445
   12MPD2    H2  187   3.778   1.702  14.055 -0.4349  2.0850 -2.0845
   12MPD2    H3  188   3.692   1.698  13.829  2.8442  2.0495  2.3653
   12MPD2     N  189   3.265   1.618  13.980 -0.4818  0.2456 -0.1088
   12MPD2    H5  190   3.210   1.596  14.062 -1.5889 -0.6271 -1.0879
   12MPD2    N1  191   3.624   1.658  14.283 -0.2109  0.1279  0.3932
   12MPD2    H7  192   3.553   1.643  14.354 -0.5937  0.2046  0.0224
   13TCq1    O1  193   3.226   2.807  11.250 -0.4193  0.0080 -0.2298
   13TCq1    C1  194   3.198   2.686  11.296  0.0521 -0.1482  0.7005
   13TCq1    O2  195   3.100   2.654  11.364  0.1548  0.2802  0.0695
   13TCq1    C2  196   3.252   2.593  11.197 -0.4193  0.7530 -0.3799
   13TCq1    C3  197   3.271   2.630  11.068 -0.7627 -0.4431 -0.1823
   13TCq1    C4  198   3.263   2.528  10.975 -0.5668  0.5167 -0.1288
   13TCq1    C5  199   3.239   2.397  11.000  0.0738 -0.1941  0.3476
   13TCq1    C6  200   3.230   2.368  11.131  0.6994  0.0162 -0.1899
   13TCq1    C7  201   3.238   2.456  11.235  0.4583 -0.6654 -0.2758
   13TCq1    C8  202   3.188   2.234  11.167 -0.2621  0.3796  0.5032
   13TCq1    O4  203   3.130   2.225  11.273 -0.9253 -0.4087  0.8414
   13TCq1    C9  204   3.280   2.563  10.833 -0.6168  0.6643 -0.3752
   13TCq1    O5  205   3.236   2.488  10.737  0.2138  0.4293  0.4244
   13TCq1    O6  206   3.316   2.683  10.817  0.3348  0.0254 -0.4926
   13TCq1    H1  207   3.303   2.825  11.191  0.4267 -3.1931 -0.0857
   13TCq1    H2  208   3.273   2.734  11.035 -2.1675 -0.4014 -0.1465
   13TCq1    H3  209   3.215   2.326  10.922 -1.9779  1.0607 -0.1665
   13TCq1    H4  210   3.230   2.423  11.338 -2.0199 -1.4175 -0.7166
   14MPD2     C  211   3.229   1.910  10.979  0.2860 -0.3670  0.0100
   14MPD2    C1  212   3.173   2.011  11.065  0.1689 -0.6530  0.2376
   14MPD2    C2  213   3.053   1.981  11.123  0.4301 -0.0536  0.1278
   14MPD2    C3  214   2.993   1.853  11.117 -0.0569 -0.6836 -0.8563
   14MPD2    C4  215   3.057   1.755  11.042 -0.2543 -0.2015  0.2510
   14MPD2    C5  216   3.178   1.783  10.981  1.0918  0.2517  0.3004
   14MPD2     H  217   2.999   2.050  11.186  1.6185 -0.4044  1.5212
   14MPD2    H1  218   3.027   1.651  11.043  1.3253 -0.6622 -0.4934
   14MPD2    H2  219   3.319   1.933  10.922  0.5439  0.0988  0.6049
   14MPD2    H3  220   3.230   1.708  10.922  0.4804 -0.9663  1.3323
   14MPD2     N  221   2.861   1.842  11.167  0.1687  0.3011  0.4994
   14MPD2    H5  222   2.828   1.930  11.205 -0.8742 -0.2150  0.8159
   14MPD2    N1  223   3.225   2.143  11.064 -0.2510  0.4942  0.7107
   14MPD2    H7  224   3.293   2.178  10.997 -0.8618 -0.5007 -0.4368
   15TCq1    O1  225   3.628   1.008   1.590  0.1428  0.4051  0.3160
   15TCq1    C1  226   3.745   0.968   1.536  0.5394  0.0647  0.0174
   15TCq1    O2  227   3.794   1.007   1.435  0.0167  0.3973  0.2738
   15TCq1    C2  228   3.767   0.839   1.595 -0.3998  0.6155 -0.4543
   15TCq1    C3  229   3.780   0.831   1.734 -0.0060 -0.6445 -0.1825
   15TCq1    C4  230   3.795   0.714   1.788 -0.6440 -0.2603 -0.0464
   15TCq1    C5  231   3.818   0.601   1.709  0.2817 -0.0941  0.4458
   15TCq1    C6  232   3.820   0.620   1.568 -0.1807 -0.7059 -0.1204
   15TCq1    C7  233   3.788   0.737   1.505 -0.0407 -1.1167  0.4289
   15TCq1    C8  234   3.849   0.505   1.486  0.5192 -0.0835 -0.2639
   15TCq1    O4  235   3.886   0.410   1.553 -0.3966  0.9626 -0.0191
   15TCq1    C9  236   3.801   0.694   1.933 -0.3547  0.2174 -0.3658
   15TCq1    O5  237   3.815   0.579   1.982  0.1398  0.8008 -0.0907
   15TCq1    O6  238   3.783   0.795   2.004  1.0827  0.4474  0.3496
   15TCq1    H1  239   3.590   0.945   1.655 -1.3536 -0.5298 -1.4803
   15TCq1    H2  240   3.771   0.921   1.794  0.7628 -2.3398  2.4744
   15TCq1    H3  241   3.819   0.503   1.757  1.0851 -0.1438  0.3360
   15TCq1    H4  242   3.779   0.745   1.398 -0.5243 -2.8413  0.3416
   16MPD2     C  243   3.694   0.410   1.164  0.1825 -0.4510  0.6155
   16MPD2    C1  244   3.783   0.406   1.267 -0.3089  0.1235 -0.3474
   16MPD2    C2  245   3.896   0.325   1.260  0.3500 -0.5337  0.2864
   16MPD2    C3  246   3.921   0.249   1.150  0.0260  0.2569 -0.2642
   16MPD2    C4  247   3.829   0.242   1.054 -0.2650 -0.1185  0.3951
   16MPD2    C5  248   3.712   0.319   1.062  1.0830 -0.4056 -0.1612
   16MPD2     H  249   3.969   0.322   1.340  1.2411 -1.7503 -0.5806
   16MPD2    H1  250   3.837   0.169   0.974  0.9465 -0.0393  0.4558
   16MPD2    H2  251   3.617   0.486   1.169 -0.2437 -0.8113 -0.4728
   16MPD2    H3  252   3.639   0.317   0.982  1.9136  1.9509 -0.9898
   16MPD2     N  253   4.044   0.179   1.148  0.8690  0.6640 -0.1807
   16MPD2    H5  254   4.095   0.191   1.235 -0.9991 -0.2845  1.0409
   16MPD2    N1  255   3.773   0.502   1.374  0.1585 -0.0087 -0.1771
   16MPD2    H7  256   3.708   0.580   1.367  0.5179  0.2340 -0.8954
   17TCq1    O1  257   1.534   1.787   9.752  0.1315  0.2280  0.6635
   17TCq1    C1  258   1.630   1.860   9.706  0.2162 -0.5144 -0.0969
   17TCq1    O2  259   1.619   1.928   9.605  0.1102 -0.1984 -0.2409
   17TCq1    C2  260   1.750   1.794   9.743 -1.3079  0.6710 -0.0531
   17TCq1    C3  261   1.832   1.765   9.645  0.1846 -0.4135  0.4293
   17TCq1    C4  262   1.957   1.711   9.684  0.0889 -0.1432  0.1535
   17TCq1    C5  263   1.978   1.671   9.808 -0.0132  0.5117  0.1639
   17TCq1    C6  264   1.888   1.708   9.905 -0.2499  0.1764  0.2871
   17TCq1    C7  265   1.775   1.769   9.876  0.3072 -0.3297  0.4658
   17TCq1    C8  266   1.926   1.710  10.050  0.0135 -0.0633  0.1339
   17TCq1    O4  267   1.840   1.712  10.134  0.1024 -0.1864  0.1624
   17TCq1    C9  268   2.058   1.692   9.583  0.5888 -0.3158 -0.4970
   17TCq1    O5  269   2.018   1.665   9.465 -0.1013  0.0067 -0.3754
   17TCq1    O6  270   2.175   1.672   9.621  0.3562 -0.1720 -0.2666
   17TCq1    H1  271   1.560   1.711   9.808  2.9386  1.0830  0.5098
   17TCq1    H2  272   1.814   1.783   9.539 -0.6885 -0.6023  0.5460
   17TCq1    H3  273   2.067   1.612   9.828  0.3854  1.0489 -0.0237
   17TCq1    H4  274   1.715   1.808   9.957 -1.4558  0.1153 -1.0517
   18MPD2     C  275   2.072   1.682  10.311  0.0417 -0.2611  0.4653
   18MPD2    C1  276   2.128   1.719  10.186  0.6510 -0.6070 -0.0151
   18MPD2    C2  277   2.266   1.746  10.185 -0.4092 -0.5035 -0.2020
   18MPD2    C3  278   2.338   1.737  10.303 -0.6781 -0.3336  0.4235
   18MPD2    C4  279   2.273   1.713  10.422 -0.0406 -0.0604 -0.9709
   18MPD2    C5  280   2.136   1.684  10.428  0.3280 -0.0163  0.2654
   18MPD2     H  281   2.310   1.755  10.087 -0.0447  1.1943  0.1174
   18MPD2    H1  282   2.332   1.703  10.512  0.3301 -2.1957 -1.4483
   18MPD2    H2  283   1.969   1.648  10.311 -0.6235  1.7070 -0.4909
   18MPD2    H3  284   2.081   1.674  10.520  0.1195 -0.2966  0.1098
   18MPD2     N  285   2.480   1.731  10.303  0.3899 -0.1919 -0.4090
   18MPD2    H5  286   2.521   1.714  10.394 -3.1506 -1.5656  0.9452
   18MPD2    N1  287   2.059   1.715  10.066  0.0026  0.0594  0.0066
   18MPD2    H7  288   2.114   1.734   9.983  1.1433  0.6043  0.8874
   19TMC2    C1  289   4.363   0.426  13.634 -0.4772  0.0130 -0.0160
   19TMC2    C2  290   4.359   0.379  13.505 -0.2873  0.5688 -0.0955
   19TMC2    C3  291   4.245   0.371  13.440  0.3146 -0.4163  0.2581
   19TMC2    C4  292   4.248   0.450  13.702  0.1183  0.3365  0.6468
   19TMC2    C5  293   4.131   0.444  13.629  0.2765  0.2463 -0.2771
   19TMC2    C6  294   4.127   0.393  13.502  0.1085 -0.1319 -0.3881
   19TMC2     C  295   4.482   0.486  13.688 -0.3666  0.5433 -0.2923
   19TMC2     O  296   4.563   0.521  13.603 -0.5575 -0.5845  0.2125
   19TMC2     H  297   4.452   0.378  13.449  0.7281  0.6445  1.6111
   19TMC2    H1  298   4.239   0.478  13.806 -2.1789 -0.2425  0.6017
   19TMC2    H2  299   4.034   0.390  13.446 -0.3729 -2.3448  0.5723
   19TMC2    C7  300   4.010   0.476  13.696 -0.0404 -0.1120 -0.4301
   19TMC2    C8  301   4.254   0.347  13.301 -0.2642  0.2281  0.5033
   19TMC2    O1  302   4.000   0.471  13.817  0.6537  0.5539 -0.1842
   19TMC2    O2  303   4.343   0.277  13.257 -0.3172 -0.3096 -0.3774
   19TMC2    O5  304   4.159   0.417  13.244 -0.1058 -0.6427  0.1628
   19TMC2    H5  305   4.116   0.487  13.297  1.9793  2.8435 -2.8134
   20MPD2     C  306   4.665   0.675  13.823 -0.2584 -0.1790 -0.1185
   20MPD2    C1  307   4.577   0.596  13.887 -1.0453 -0.2163 -1.0292
   20MPD2    C2  308   4.563   0.601  14.024 -0.4393 -0.4596 -0.6752
   20MPD2    C3  309   4.626   0.706  14.086 -0.1110 -0.3653  0.8099
   20MPD2    C4  310   0.007   0.775  14.029  0.1428  0.0115  0.1360
   20MPD2    C5  311   0.030   0.751  13.896 -0.2092 -0.0506  0.0066
   20MPD2     H  312   4.477   0.549  14.066 -0.2757 -0.7786 -0.7323
   20MPD2    H1  313   0.062   0.856  14.075  0.3126 -2.4388  4.2242
   20MPD2    H2  314   4.688   0.673  13.717 -1.4780 -1.1178 -0.3668
   20MPD2    H3  315   0.099   0.809  13.836 -1.4132  0.1813 -1.1407
   20MPD2     N  316   4.603   0.740  14.217 -0.0827  0.5171  0.5018
   20MPD2    H5  317   4.651   0.823  14.250  0.5564 -0.0920  1.1125
   20MPD2    N1  318   4.492   0.500  13.826  0.1658  0.6665  0.0110
   20MPD2    H7  319   4.424   0.452  13.884  1.0718 -0.4939  0.0935
   21MPD2     C  320   2.326   2.105  14.359  0.5560 -0.3859  0.0481
   21MPD2    C1  321   2.319   1.973  14.405 -0.2728 -0.2759  0.7435
   21MPD2    C2  322   2.206   1.933  14.471 -0.0762 -0.2541 -0.0934
   21MPD2    C3  323   2.099   2.014  14.491  1.1315  0.3372 -0.3003
   21MPD2    C4  324   2.104   2.149  14.445  0.1398 -0.5746 -0.6611
   21MPD2    C5  325   2.220   2.193  14.386 -0.5708  0.1186  0.7488
   21MPD2     H  326   2.214   1.829  14.501  1.3815  0.5568  2.3043
   21MPD2    H1  327   2.014   2.209  14.453  0.0433 -1.0501  1.5637
   21MPD2    H2  328   2.411   2.139  14.301  1.0907  0.7955  1.4930
   21MPD2    H3  329   2.224   2.292  14.342  1.3737 -0.4319 -0.3266
   21MPD2     N  330   1.971   1.968  14.540 -0.3474 -0.3808  0.4716
   21MPD2    H5  331   1.896   2.036  14.535  0.6097  0.5939 -0.6787
   21MPD2    N1  332   2.421   1.883  14.401  0.7638  0.3367  0.0037
   21MPD2    H7  333   2.398   1.786  14.420  0.9287 -0.0622 -1.8875
   22TCq2    C1  334   1.943   1.838  14.565  0.4729  0.1309  0.3743
   22TCq2    O2  335   2.015   1.740  14.581  0.3892 -0.0466 -0.3466
   22TCq2    C2  336   1.808   1.817  14.595  0.3220  0.2013 -0.1282
   22TCq2    C3  337   1.773   1.710  14.677 -0.1189  0.9079  0.7753
   22TCq2    C4  338   1.647   1.703  14.726  0.2081  1.2537  0.3924
   22TCq2    C5  339   1.547   1.791  14.694 -0.3270 -0.2877  0.2800
   22TCq2    C6  340   1.585   1.904  14.632  0.0591  0.2003 -0.2856
   22TCq2    C7  341   1.713   1.918  14.570  0.0926 -0.1079 -0.1079
   22TCq2    C8  342   1.491   1.956  14.536  0.0387 -0.5993 -1.0939
   22TCq2    O4  343   1.499   2.076  14.510  0.2864 -0.3332 -0.1137
   22TCq2    C9  344   1.616   1.602  14.820  0.2820 -0.2912  0.6944
   22TCq2    O5  345   1.714   1.551  14.886 -0.2071 -0.7130  0.2859
   22TCq2    O6  346   1.497   1.548  14.821 -0.0618 -0.0729  0.1145
   22TCq2    H2  347   1.848   1.637  14.705  1.1616  1.9361  0.0453
   22TCq2    H3  348   1.444   1.782  14.726  0.0994  0.6247  1.9402
   22TCq2    H4  349   1.730   2.005  14.508 -0.7736 -1.3700 -2.1033
   23MPD2     C  350   3.842   2.377  14.993 -0.3378 -0.4280 -0.5227
   23MPD2    C1  351   3.734   2.424  15.072 -0.3571 -0.5950  0.7342
   23MPD2    C2  352   3.643   2.515  15.024 -0.6181 -0.5768 -0.8317
   23MPD2    C3  353   3.652   2.557  14.897 -0.9664  0.6986 -0.2897
   23MPD2    C4  354   3.758   2.516  14.820 -1.0661  0.4299 -1.2126
   23MPD2    C5  355   3.852   2.425  14.861  0.8839 -0.1179 -0.2870
   23MPD2     H  356   3.569   2.555  15.092 -0.1311 -2.5829  0.8791
   23MPD2    H1  357   3.772   2.566  14.725 -3.1791  0.3242 -1.5652
   23MPD2    H2  358   3.910   2.298  15.023 -0.9555 -0.0833  1.7309
   23MPD2    H3  359   3.927   2.392  14.790  0.4199  1.8522 -1.6821
   23MPD2     N  360   3.557   2.645  14.849 -0.3348 -0.0855  0.1466
   23MPD2    H5  361   3.588   2.710  14.777  0.8326  0.7915  1.4420
   23MPD2    N1  362   3.720   2.382  15.205 -0.3844 -0.1847  0.0325
   23MPD2    H7  363   3.657   2.432  15.268 -2.0482 -2.0222 -0.1765
   24TCq2    C1  364   3.429   2.658  14.891 -0.3965 -0.2563 -0.2179
   24TCq2    O2  365   3.374   2.590  14.978 -0.0552  0.3969  0.3636
   24TCq2    C2  366   3.351   2.762  14.826 -0.2299  0.2058  0.5299
   24TCq2    C3  367   3.378   2.809  14.698  0.2819  0.5453  0.1107
   24TCq2    C4  368   3.268   2.857  14.631 -0.6067 -0.1754  0.3257
   24TCq2    C5  369   3.142   2.870  14.686  0.4906 -0.2659  1.1808
   24TCq2    C6  370   3.123   2.826  14.813 -0.1867  0.0085 -0.0535
   24TCq2    C7  371   3.226   2.769  14.878 -0.0071  0.1699  0.4735
   24TCq2    C8  372   2.990   2.779  14.849 -0.1771  0.4942 -0.1304
   24TCq2    O4  373   2.976   2.744  14.966  0.8052  0.6554 -0.1094
   24TCq2    C9  374   3.291   2.914  14.498 -0.2061  0.0480  0.3529
   24TCq2    O5  375   3.409   2.938  14.464  0.1205  0.0039  0.4260
   24TCq2    O6  376   3.186   2.957  14.436 -0.4194 -0.3048  0.8973
   24TCq2    H2  377   3.467   2.791  14.639  1.0995  0.6099  1.3371
   24TCq2    H3  378   3.058   2.913  14.633  0.0777 -2.0980  0.3308
   24TCq2    H4  379   3.197   2.716  14.968 -0.9087 -2.9068 -1.6443
   25TMC2    C1  380   2.071   0.241  11.921  0.2779  0.3132 -1.1386
   25TMC2    C2  381   1.955   0.312  11.894 -0.7553  0.5914 -0.2584
   25TMC2    C3  382   1.863   0.318  11.995 -0.3088 -0.1413 -0.6205
   25TMC2    C4  383   2.101   0.187  12.044 -0.2411 -0.1972  0.0720
   25TMC2    C5  384   1.999   0.192  12.134 -0.0031  0.5157 -0.0562
   25TMC2    C6  385   1.877   0.246  12.111  0.1891 -0.8732  0.1950
   25TMC2     C  386   2.157   0.209  11.813 -0.5127 -0.4065  0.0746
   25TMC2     O  387   2.276   0.184  11.833 -0.2363 -0.0710 -0.3828
   25TMC2     H  388   1.937   0.338  11.791  1.7001  1.0326 -0.5689
   25TMC2    H1  389   2.191   0.129  12.058 -0.1180  0.0890  0.4625
   25TMC2    H2  390   1.806   0.255  12.192 -1.6869 -1.8852 -1.3346
   25TMC2    C7  391   2.026   0.144  12.270 -0.7563 -0.3508 -0.6487
   25TMC2    C8  392   1.729   0.358  11.963 -0.2918  0.0912  0.0412
   25TMC2    O1  393   1.926   0.135  12.337  0.5452 -0.2880  0.1190
   25TMC2    O2  394   1.629   0.311  12.012  0.5065  0.2264  0.0106
   25TMC2    O5  395   1.745   0.478  11.900  0.2256  0.2616  0.2973
   25TMC2    H5  396   1.838   0.503  11.881 -0.1707  2.2620  0.9265
   26MPD2     C  397   2.219   0.073  11.319  1.6933  0.1616 -0.6259
   26MPD2    C1  398   2.084   0.058  11.353  0.1696 -0.0567 -0.3341
   26MPD2    C2  399   2.044   0.086  11.480 -0.5948 -0.1137 -0.3371
   26MPD2    C3  400   2.136   0.141  11.575 -0.2679 -0.4535  0.1064
   26MPD2    C4  401   2.267   0.153  11.540  0.1724  0.0758  0.2910
   26MPD2    C5  402   2.308   0.128  11.413  0.3684  0.5487  0.5907
   26MPD2     H  403   1.944   0.066  11.516 -0.3633 -1.3111 -0.3671
   26MPD2    H1  404   2.342   0.198  11.605 -1.1998 -0.2709  2.1101
   26MPD2    H2  405   2.257   0.035  11.225  0.1240 -1.6135 -0.5402
   26MPD2    H3  406   2.414   0.129  11.391  0.4463  1.4011  1.0125
   26MPD2     N  407   2.083   0.169  11.704 -0.0283 -0.3920  0.5067
   26MPD2    H5  408   1.986   0.148  11.724  0.4302 -2.0677  0.9637
   26MPD2    N1  409   1.997   0.002  11.255 -0.6382  0.6111  0.5118
   26MPD2    H7  410   2.037   4.712  11.163  0.3757  1.8633  0.7555
   27TMC2    C1  411   1.040   1.870  11.735 -0.3808  0.0386 -0.4049
   27TMC2    C2  412   0.908   1.842  11.705  0.5033 -0.4272  0.2256
   27TMC2    C3  413   0.832   1.951  11.664 -0.0363  0.1912 -0.7412
   27TMC2    C4  414   1.087   2.000  11.746 -0.6604 -0.7230  0.5558
   27TMC2    C5  415   1.008   2.108  11.712  0.4234  0.0694  0.3600
   27TMC2    C6  416   0.880   2.079  11.673  0.5198 -0.0742  0.1049
   27TMC2     C  417   1.072   1.791  11.849 -0.2701 -1.0227 -0.0818
   27TMC2     O  418   1.076   1.670  11.826  0.4013 -0.3937  0.2815
   27TMC2     H  419   0.865   1.743  11.716  0.7439 -0.6286 -0.6061
   27TMC2    H1  420   1.187   2.018  11.783 -1.2452  2.8193  0.4106
   27TMC2    H2  421   0.808   2.159  11.668  1.1577  0.4590 -0.5213
   27TMC2    C7  422   1.011   2.205  11.815 -0.1165 -0.4082  0.4441
   27TMC2    C8  423   0.694   1.926  11.607  0.1856  0.0749 -0.3322
   27TMC2    O1  424   1.070   2.161  11.910 -0.1045 -0.1787 -0.0915
   27TMC2    O2  425   0.596   1.994  11.631 -0.3726  0.2549  0.3282
   27TMC2    O5  426   0.708   1.804  11.552  0.2718 -0.1554 -0.4566
   27TMC2    H5  427   0.794   1.788  11.509 -0.5474  0.2188 -2.2266
   28MPD2     C  428   0.931   1.750  12.331  0.2045  0.0188 -0.1703
   28MPD2    C1  429   0.901   1.880  12.288  0.2928  0.4848 -0.0805
   28MPD2    C2  430   0.956   1.921  12.172  0.1902  0.1270  0.3979
   28MPD2    C3  431   1.014   1.829  12.086  0.0944 -0.8218  0.5355
   28MPD2    C4  432   1.032   1.698  12.124 -0.3145  0.1155 -0.6991
   28MPD2    C5  433   0.995   1.661  12.249  0.1373  0.3937 -0.0099
   28MPD2     H  434   0.942   2.023  12.138  0.8883  0.0802 -0.0365
   28MPD2    H1  435   1.090   1.631  12.062  1.5892  0.9012  0.2638
   28MPD2    H2  436   0.904   1.713  12.429  0.8455  1.7541  0.6656
   28MPD2    H3  437   1.026   1.562  12.278 -0.4017 -0.0441 -0.9348
   28MPD2     N  438   1.054   1.872  11.958  0.3960 -0.0520 -0.2485
   28MPD2    H5  439   1.055   1.971  11.940 -1.6567 -0.0563 -0.3163
   28MPD2    N1  440   0.821   1.961  12.372 -0.5572  0.8990 -0.5605
   28MPD2    H7  441   0.784   1.927  12.460  3.2794 -1.3714  0.1906
   29MPD2     C  442   0.217   4.491  13.881 -0.2988  0.4713  1.1302
   29MPD2    C1  443   0.354   4.489  13.918 -0.2273 -0.0105 -0.4205
   29MPD2    C2  444   0.413   4.609  13.957  0.3093 -0.0710 -0.6041
   29MPD2    C3  445   0.338   0.001  13.965  0.4146 -0.3782 -0.0116
   29MPD2    C4  446   0.200   4.719  13.951 -0.0511 -0.1062 -0.0711
   29MPD2    C5  447   0.149   4.610  13.890 -0.2638 -0.4772  0.3589
   29MPD2     H  448   0.518   4.608  13.983  0.2862 -2.4980 -0.6788
   29MPD2    H1  449   0.134   0.081  13.963 -0.7586 -0.5545 -0.7453
   29MPD2    H2  450   0.157   4.409  13.843 -0.5833  2.1337 -1.9702
   29MPD2    H3  451   0.045   4.605  13.858 -0.4392 -0.9434  1.0015
   29MPD2     N  452   0.393   0.129  13.986 -0.4067  0.1516 -0.1980
   29MPD2    H5  453   0.327   0.205  14.000  0.0866  0.9284 -2.0263
   29MPD2    N1  454   0.431   4.368  13.929  0.1974 -0.1513  0.2339
   29MPD2    H7  455   0.527   4.375  13.961  0.4962 -0.1708 -0.6610
   30TCq2    C1  456   0.524   0.161  13.975 -0.5353 -0.1188  0.1175
   30TCq2    O2  457   0.618   0.087  13.941  0.5808  0.2768  0.0735
   30TCq2    C2  458   0.547   0.291  14.021 -0.4323  0.1948 -0.7173
   30TCq2    C3  459   0.443   0.371  14.063 -0.1184 -0.0076 -0.2578
   30TCq2    C4  460   0.477   0.505  14.094  0.1921  0.2688 -0.0651
   30TCq2    C5  461   0.599   0.551  14.082 -0.8501  0.0357  0.4309
   30TCq2    C6  462   0.700   0.468  14.043  0.2809 -0.6470  0.2745
   30TCq2    C7  463   0.671   0.338  13.993 -0.2037 -0.7751  0.0196
   30TCq2    C8  464   0.838   0.510  14.044 -0.1458 -0.2814 -0.1038
   30TCq2    O4  465   0.909   0.448  13.964 -0.1603 -0.5377 -0.3357
   30TCq2    C9  466   0.382   0.600  14.134  0.1165 -0.5986 -0.4958
   30TCq2    O5  467   0.294   0.559  14.210  0.3805  0.4836  0.3961
   30TCq2    O6  468   0.411   0.721  14.127 -0.0180 -0.2946  0.6052
   30TCq2    H2  469   0.340   0.345  14.083 -0.0491  0.4155  0.6392
   30TCq2    H3  470   0.614   0.658  14.085 -1.4986  0.1039  1.2370
   30TCq2    H4  471   0.757   0.274  13.980  0.5022  0.3519 -0.8537
   31MPD2     C  472   3.027   3.642  14.797 -0.2037 -0.6887 -0.4190
   31MPD2    C1  473   2.888   3.663  14.786 -0.3915 -0.3564 -0.0753
   31MPD2    C2  474   2.796   3.601  14.872 -0.7481  0.1689 -0.1979
   31MPD2    C3  475   2.849   3.531  14.976  0.1135  0.3411  1.1047
   31MPD2    C4  476   2.986   3.504  14.987  0.9321 -0.2589  0.2812
   31MPD2    C5  477   3.067   3.553  14.897 -0.6100  0.0309  0.1588
   31MPD2     H  478   2.691   3.623  14.863 -1.1326 -0.4646  2.6503
   31MPD2    H1  479   3.022   3.442  15.069 -1.1622 -0.4950  1.0009
   31MPD2    H2  480   3.099   3.684  14.728  0.0537  0.8735  0.7906
   31MPD2    H3  481   3.171   3.530  14.912 -1.3553 -2.3347  1.6248
   31MPD2     N  482   2.773   3.456  15.072  0.2809  0.1772 -0.4510
   31MPD2    H5  483   2.822   3.390  15.132 -0.9993  0.1449  0.5419
   31MPD2    N1  484   2.854   3.748  14.674 -0.2862 -0.5823  0.5700
   31MPD2    H7  485   2.940   3.774  14.627 -1.7256  0.2905 -1.5700
   32TCq2    C1  486   2.640   3.453  15.083  0.6063  0.6076  0.2430
   32TCq2    O2  487   2.558   3.520  15.018 -0.2345 -0.3461 -0.8795
   32TCq2    C2  488   2.587   3.359  15.178  0.5659  0.4157  0.2435
   32TCq2    C3  489   2.457   3.327  15.174 -0.4831  0.0374  0.0553
   32TCq2    C4  490   2.407   3.238  15.266 -0.0893  0.7198 -0.3315
   32TCq2    C5  491   2.488   3.170  15.357  0.5170 -0.9322 -0.6746
   32TCq2    C6  492   2.622   3.210  15.362  0.4545 -0.4541  0.9836
   32TCq2    C7  493   2.676   3.292  15.268 -0.2006  0.3349 -0.3742
   32TCq2    C8  494   2.701   3.144  15.465 -0.7646 -0.6539 -0.0536
   32TCq2    O4  495   2.823   3.145  15.448 -0.1086  0.1886  0.0306
   32TCq2    C9  496   2.271   3.194  15.266 -0.2425 -0.3005  0.1720
   32TCq2    O5  497   2.237   3.082  15.312  0.1880  0.1661  0.1369
   32TCq2    O6  498   2.189   3.275  15.223 -0.0740  0.4262 -0.0670
   32TCq2    H2  499   2.388   3.367  15.100  0.0669 -0.2471 -0.6054
   32TCq2    H3  500   2.441   3.096  15.421 -0.5015 -0.9780 -1.4844
   32TCq2    H4  501   2.781   3.318  15.282 -0.3182  2.5974 -3.6402
   33MPD2     C  502   3.283   1.522   9.880  0.1567 -0.5725  0.1291
   33MPD2    C1  503   3.162   1.580   9.846  0.0460  0.2452 -0.7660
   33MPD2    C2  504   3.157   1.652   9.730  0.1792  0.1136 -0.2664
   33MPD2    C3  505   3.259   1.647   9.631 -0.2930  0.5007  0.6591
   33MPD2    C4  506   3.374   1.579   9.658  0.4888 -0.9227 -0.2724
   33MPD2    C5  507   3.382   1.520   9.781 -0.2175 -0.0953 -0.6265
   33MPD2     H  508   3.072   1.717   9.711 -0.4640 -0.9004 -0.8348
   33MPD2    H1  509   3.460   1.569   9.592  0.1654 -0.2421 -0.7875
   33MPD2    H2  510   3.269   1.445   9.955 -2.1620  2.3355  2.6596
   33MPD2    H3  511   3.477   1.472   9.800  0.2978  0.4873 -1.7214
   33MPD2     N  512   3.270   1.730   9.520  0.0065 -0.5245  0.0915
   33MPD2    H5  513   3.361   1.734   9.475  0.3915 -2.6706  0.6925
   33MPD2    N1  514   3.069   1.590   9.957  0.6001  0.1237 -0.6093
   33MPD2    H7  515   3.084   1.521  10.029 -1.4203 -0.6642 -0.9422
   34TCq2    C1  516   3.163   1.793   9.460  0.2586 -0.3949 -0.0286
   34TCq2    O2  517   3.047   1.757   9.476  0.2234  0.2432  0.1246
   34TCq2    C2  518   3.199   1.870   9.348 -0.2968 -0.0128  0.2293
   34TCq2    C3  519   3.102   1.865   9.246  0.4219 -0.1018 -0.4961
   34TCq2    C4  520   3.132   1.947   9.134 -0.6365  0.4477 -0.1081
   34TCq2    C5  521   3.244   2.023   9.138 -0.5316 -0.4178 -0.4262
   34TCq2    C6  522   3.335   2.016   9.240 -0.6676  0.3723 -0.2077
   34TCq2    C7  523   3.310   1.946   9.350  0.0226  0.5932 -0.4552
   34TCq2    C8  524   3.431   2.124   9.263  0.2212 -0.4311  0.3708
   34TCq2    O4  525   3.471   2.137   9.379  0.0839  0.1611 -0.6931
   34TCq2    C9  526   3.048   1.935   9.022  0.0092 -0.6617  0.4820
   34TCq2    O5  527   3.060   2.021   8.924  0.4674  0.1348  0.3435
   34TCq2    O6  528   2.953   1.855   9.036  0.2271  0.3654  0.2909
   34TCq2    H2  529   3.020   1.795   9.237  0.2477 -0.3353  2.7579
   34TCq2    H3  530   3.262   2.096   9.060  1.4489 -3.2750 -2.6477
   34TCq2    H4  531   3.375   1.951   9.436 -1.0753 -1.3453  0.4914
   35MPD2     C  532   0.166   2.900  11.823 -0.8369 -0.7669  0.7537
   35MPD2    C1  533   0.198   2.779  11.775 -0.2161 -0.5213 -0.0850
   35MPD2    C2  534   0.128   2.733  11.661 -0.0764 -0.1148 -0.3998
   35MPD2    C3  535   0.037   2.820  11.600 -0.8638 -0.8446  0.1320
   35MPD2    C4  536   0.013   2.948  11.648  0.0907 -0.0394 -0.2210
   35MPD2    C5  537   0.077   2.982  11.760 -0.2581  0.2225  0.2839
   35MPD2     H  538   0.140   2.631  11.628  0.7364 -0.2594  0.3318
   35MPD2    H1  539   4.672   3.020  11.598 -4.3296 -3.2010  1.0111
   35MPD2    H2  540   0.218   2.932  11.912  1.4106 -0.0086 -0.8082
   35MPD2    H3  541   0.078   3.086  11.788  1.7838  0.7127 -1.6482
   35MPD2     N  542   4.685   2.762  11.493  1.4253  0.0108  0.3754
   35MPD2    H5  543   4.679   2.661  11.492  2.1896 -0.0183 -1.1435
   35MPD2    N1  544   0.260   2.695  11.867 -0.1813 -0.0697 -0.8419
   35MPD2    H7  545   0.280   2.731  11.960 -2.7011 -0.6394 -0.0742
   36TCq2    C1  546   4.606   2.844  11.417 -0.1044  0.2570 -0.1164
   36TCq2    O2  547   4.603   2.967  11.397 -1.1123 -0.8279 -0.0618
   36TCq2    C2  548   4.515   2.764  11.337 -0.1719 -0.5759  0.3224
   36TCq2    C3  549   4.503   2.791  11.209  0.1768 -0.1376 -0.0261
   36TCq2    C4  550   4.421   2.724  11.127 -0.0517  0.1490 -0.0359
   36TCq2    C5  551   4.358   2.606  11.174 -0.2147  0.0956 -0.6679
   36TCq2    C6  552   4.374   2.570  11.309  0.5152 -0.6344 -0.4269
   36TCq2    C7  553   4.450   2.656  11.387 -0.2904 -0.0197 -0.0578
   36TCq2    C8  554   4.307   2.459  11.365  0.1003  0.2057  0.4801
   36TCq2    O4  555   4.206   2.415  11.312 -0.1386  0.3651 -0.1651
   36TCq2    C9  556   4.399   2.763  10.988  0.3559 -0.6586  0.3798
   36TCq2    O5  557   4.465   2.864  10.943  0.5791 -0.4078 -0.4984
   36TCq2    O6  558   4.348   2.670  10.916  0.3508  0.2421  0.6367
   36TCq2    H2  559   4.561   2.872  11.168 -0.3570 -0.4039 -1.3165
   36TCq2    H3  560   4.279   2.565  11.111  0.3945 -2.0985  0.0042
   36TCq2    H4  561   4.466   2.641  11.493 -0.3719  1.7917  0.2154
   37TMC2    C1  562   1.708   2.920  11.540 -0.0287  0.2621  0.3958
   37TMC2    C2  563   1.609   2.964  11.449 -0.6109  0.8755 -0.7408
   37TMC2    C3  564   1.657   3.037  11.346 -0.1834 -0.0574  0.5666
   37TMC2    C4  565   1.840   2.937  11.513 -0.0394  0.1407 -0.2039
   37TMC2    C5  566   1.874   3.023  11.407 -0.3583 -0.1084  0.1491
   37TMC2    C6  567   1.785   3.074  11.322  0.7813 -0.4175 -0.2440
   37TMC2     C  568   1.675   2.916  11.679  0.6325 -0.0882 -0.4120
   37TMC2     O  569   1.558   2.903  11.715  0.6691 -0.1188 -0.0932
   37TMC2     H  570   1.502   2.950  11.464 -0.5801  3.0531  1.3978
   37TMC2    H1  571   1.922   2.894  11.569  0.1163  0.9049  0.1584
   37TMC2    H2  572   1.811   3.148  11.248  0.5872 -1.5591 -1.4540
   37TMC2    C7  573   2.007   3.074  11.425 -0.0459 -0.6171  0.2307
   37TMC2    C8  574   1.548   3.109  11.286 -0.5235  0.4924  0.4048
   37TMC2    O1  575   2.039   3.085  11.541  0.6531  0.3093 -0.6285
   37TMC2    O2  576   1.443   3.136  11.349  0.1055  0.3056 -0.0245
   37TMC2    O5  577   1.590   3.172  11.178 -0.5596  0.2220 -0.2125
   37TMC2    H5  578   1.675   3.134  11.146 -0.4195 -0.0034  0.4260
   38MPD2     C  579   1.802   2.944  12.175 -0.5042  0.0928 -0.1960
   38MPD2    C1  580   1.909   2.973  12.100  0.2433 -0.4451  0.0679
   38MPD2    C2  581   1.903   2.967  11.960 -0.3410  0.1145  0.9025
   38MPD2    C3  582   1.784   2.954  11.897  0.4316 -0.2743 -0.2599
   38MPD2    C4  583   1.674   2.937  11.976  0.2361 -0.0164 -0.5265
   38MPD2    C5  584   1.683   2.929  12.116  0.4803  0.1705 -0.1624
   38MPD2     H  585   1.993   2.985  11.902 -1.1081  0.9094 -0.0355
   38MPD2    H1  586   1.572   2.917  11.945 -0.4699 -0.1610  1.9313
   38MPD2    H2  587   1.809   2.939  12.283  0.7056  0.7862 -0.2489
   38MPD2    H3  588   1.601   2.916  12.185  0.4407 -0.0807 -0.2600
   38MPD2     N  589   1.775   2.963  11.757  0.4529 -0.2807  0.5707
   38MPD2    H5  590   1.857   2.995  11.708  0.8389 -2.7443 -0.4148
   38MPD2    N1  591   2.030   3.002  12.165 -0.2695 -0.4759  0.2295
   38MPD2    H7  592   2.113   3.017  12.108 -0.5094  0.3182  0.0858
   39MPD2     C  593   4.560   4.240   1.289  0.4060 -0.5276  0.0982
   39MPD2    C1  594   4.523   4.335   1.379  0.5430  0.2712 -0.4449
   39MPD2    C2  595   4.405   4.410   1.352 -0.4582  0.6047  0.3055
   39MPD2    C3  596   4.326   4.388   1.233 -0.0461 -0.1391 -0.5224
   39MPD2    C4  597   4.374   4.291   1.147 -0.0867 -0.1394 -0.7317
   39MPD2    C5  598   4.486   4.221   1.173 -0.3757  0.1215 -0.0991
   39MPD2     H  599   4.357   4.478   1.421  0.3368  0.7429  0.7197
   39MPD2    H1  600   4.317   4.251   1.064 -1.0815  0.5371 -0.3708
   39MPD2    H2  601   4.650   4.184   1.313  2.1130  1.0204 -2.7060
   39MPD2    H3  602   4.522   4.137   1.114  0.5914  1.0441 -0.8244
   39MPD2     N  603   4.201   4.448   1.201  0.1253  0.1554  0.5425
   39MPD2    H5  604   4.147   4.412   1.124  1.1047  1.7928 -0.9269
   39MPD2    N1  605   4.612   4.362   1.487  0.6537  0.1803 -0.0075
   39MPD2    H7  606   4.683   4.291   1.497  0.7540 -0.0835 -2.6657
   40TCq2    C1  607   4.594   4.458   1.581 -0.2470  0.9091  0.2888
   40TCq2    O2  608   4.503   4.545   1.592  0.0670 -0.1960  0.1839
   40TCq2    C2  609   4.702   4.475   1.678  0.0826 -0.2930 -0.4757
   40TCq2    C3  610   4.662   4.554   1.789 -1.0758 -0.3092  0.7170
   40TCq2    C4  611   0.041   4.598   1.868  0.1626 -0.2945  0.1381
   40TCq2    C5  612   0.168   4.559   1.853  0.2248 -0.9495 -0.5666
   40TCq2    C6  613   0.199   4.490   1.739  0.1084  0.3886  0.3660
   40TCq2    C7  614   0.104   4.429   1.659  0.3687 -0.9516  0.0479
   40TCq2    C8  615   0.335   4.463   1.703 -0.2279  0.0316 -0.2354
   40TCq2    O4  616   0.359   4.366   1.632 -0.1406  0.0581  0.6295
   40TCq2    C9  617   0.010   4.685   1.978  0.0547  0.1288 -0.2277
   40TCq2    O5  618   0.112   4.712   2.046  1.1403  0.3640 -0.1361
   40TCq2    O6  619   4.614   4.706   2.012  0.3995 -0.1028  0.3947
   40TCq2    H2  620   4.558   4.581   1.804 -1.5168 -0.5714 -1.8770
   40TCq2    H3  621   0.247   4.596   1.917 -1.4034 -1.3114  1.6271
   40TCq2    H4  622   0.125   4.375   1.567 -1.2890 -0.5011 -0.5854
   41TMC2    C1  623   4.322   2.887  13.518  0.0037  0.1055  0.4852
   41TMC2    C2  624   4.198   2.825  13.507 -0.4347 -0.0906  1.4854
   41TMC2    C3  625   4.153   2.784  13.382  0.4321  0.0770 -0.4553
   41TMC2    C4  626   4.387   2.918  13.400 -0.0121 -0.5521  0.4816
   41TMC2    C5  627   4.334   2.882  13.274  0.0900 -0.3043 -0.0853
   41TMC2    C6  628   4.217   2.813  13.257 -0.5671 -0.0086  0.3050
   41TMC2     C  629   4.400   2.876  13.636 -0.0107  0.2278 -0.1577
   41TMC2     O  630   4.518   2.895  13.625 -0.3841  0.3610  0.5844
   41TMC2     H  631   4.133   2.797  13.590 -2.8522 -0.0661 -0.3937
   41TMC2    H1  632   4.493   2.942  13.406 -0.3406  1.0568 -0.0977
   41TMC2    H2  633   4.183   2.771  13.163 -0.7854  0.1961  0.2932
   41TMC2    C7  634   4.431   2.879  13.166  0.1192  0.3972  0.3077
   41TMC2    C8  635   4.023   2.729  13.375 -0.0395  0.0861 -1.0858
   41TMC2    O1  636   4.550   2.882  13.200 -0.7122  0.0270  1.1206
   41TMC2    O2  637   3.946   2.756  13.461 -0.7101 -0.3089  0.3162
   41TMC2    O5  638   4.040   2.601  13.316 -0.0055  0.0640 -0.2712
   41TMC2    H5  639   4.130   2.593  13.278  0.2082  1.7491 -0.1109
   42MPD2     C  640   4.503   2.744  13.873 -0.7228  0.4327  0.4860
   42MPD2    C1  641   4.376   2.791  13.865  0.5298 -0.8417  0.7850
   42MPD2    C2  642   4.293   2.768  13.973  0.5646  0.5122  0.1109
   42MPD2    C3  643   4.345   2.712  14.090  0.4093  0.1929 -0.3621
   42MPD2    C4  644   4.474   2.664  14.094 -0.0534  0.0511 -0.2283
   42MPD2    C5  645   4.551   2.677  13.983  0.1945 -0.2030 -1.1615
   42MPD2     H  646   4.188   2.787  13.959  0.1394 -0.4482  2.0174
   42MPD2    H1  647   4.510   2.606  14.178 -1.3596 -2.4447 -1.3889
   42MPD2    H2  648   4.564   2.739  13.784  0.0885  2.6558  0.9175
   42MPD2    H3  649   4.654   2.643  13.990 -0.0338 -0.2013  2.0946
   42MPD2     N  650   4.269   2.699  14.210  0.2982  0.3888  0.1945
   42MPD2    H5  651   4.323   2.685  14.295 -0.2939 -1.1199  0.3115
   42MPD2    N1  652   4.324   2.839  13.744 -0.4494  0.1898 -0.3000
   42MPD2    H7  653   4.224   2.826  13.736 -0.0745 -2.0591 -1.3722
   43MPD2     C  654   0.339   0.886   0.494  0.1800  0.1808  0.6235
   43MPD2    C1  655   0.374   0.806   0.600 -0.1185 -0.5933  0.2669
   43MPD2    C2  656   0.306   0.822   0.716  0.9529 -0.0090 -0.9595
   43MPD2    C3  657   0.224   0.930   0.734  0.1112  0.6860 -0.4982
   43MPD2    C4  658   0.188   1.014   0.634 -0.3227 -0.6362  0.4961
   43MPD2    C5  659   0.244   0.982   0.510  0.5449 -0.3332 -0.2066
   43MPD2     H  660   0.320   0.756   0.802  0.4937 -0.7243 -1.4358
   43MPD2    H1  661   0.116   1.094   0.644  0.6110  0.1777  0.6521
   43MPD2    H2  662   0.391   0.891   0.399 -1.5567 -1.1630 -0.3916
   43MPD2    H3  663   0.213   1.040   0.424  1.5360  0.3810 -0.0743
   43MPD2     N  664   0.164   0.959   0.858  0.4522  0.1654 -0.4364
   43MPD2    H5  665   0.099   1.036   0.862 -1.5903 -1.5456 -1.0720
   43MPD2    N1  666   0.477   0.712   0.599 -0.4311  0.1489 -0.2505
   43MPD2    H7  667   0.494   0.661   0.686 -0.3640 -2.4390 -1.7695
   44TCq2    C1  668   0.300   1.212   1.321 -0.0301  0.1698  0.1529
   44TCq2    O2  669   0.401   1.148   1.348  0.0121  0.2837 -0.8164
   44TCq2    C2  670   0.197   1.135   1.256 -0.1631  0.4241  0.0584
   44TCq2    C3  671   0.069   1.190   1.240  0.3162  0.4138 -0.4740
   44TCq2    C4  672   4.713   1.135   1.146  0.2495 -0.1826 -0.4394
   44TCq2    C5  673   0.023   1.031   1.070 -0.8433 -0.1124 -0.1150
   44TCq2    C6  674   0.147   0.980   1.083 -0.7054 -1.7762 -0.4780
   44TCq2    C7  675   0.233   1.027   1.179 -0.4482  0.4442  0.0364
   44TCq2    C8  676   0.218   0.921   0.980  0.1908 -0.0155  0.1530
   44TCq2    O4  677   0.329   0.875   1.003 -0.1931 -0.3691  0.2189
   44TCq2    C9  678   4.572   1.188   1.137 -0.0724  0.5305  0.2766
   44TCq2    O5  679   4.504   1.156   1.037  0.0872  0.2279 -0.0825
   44TCq2    O6  680   4.545   1.289   1.208 -0.4500 -0.5653  0.5821
   44TCq2    H2  681   0.029   1.260   1.313 -0.4166  2.1298 -2.5504
   44TCq2    H3  682   4.680   0.994   0.993  0.9582  1.4494 -2.4541
   44TCq2    H4  683   0.334   0.989   1.192 -0.1401  0.3582 -2.5272
   45TMC2    C1  684   1.914   2.797   9.675 -0.2180 -0.6813 -0.4869
   45TMC2    C2  685   2.025   2.751   9.614  0.7372 -0.0285 -0.0538
   45TMC2    C3  686   2.136   2.836   9.613 -0.5789  0.2352  0.5054
   45TMC2    C4  687   1.906   2.919   9.736  0.2598  0.0240 -0.3467
   45TMC2    C5  688   2.017   3.004   9.723 -0.4154  0.1179 -1.3956
   45TMC2    C6  689   2.132   2.965   9.658  0.1825 -0.1742 -0.2231
   45TMC2     C  690   1.792   2.730   9.630 -0.2584 -0.2931 -0.2409
   45TMC2     O  691   1.800   2.609   9.623  0.0250  0.0784 -0.2561
   45TMC2     H  692   2.024   2.667   9.546 -0.4842  0.2726 -0.4030
   45TMC2    H1  693   1.818   2.955   9.788 -0.7163 -0.8178 -1.4033
   45TMC2    H2  694   2.221   3.025   9.668 -0.5076  0.4645  2.2298
   45TMC2    C7  695   2.001   3.136   9.770 -0.1028  0.8318 -0.0364
   45TMC2    C8  696   2.251   2.801   9.532 -0.3857  0.3323 -0.4725
   45TMC2    O1  697   1.905   3.150   9.846 -0.2496  0.3938 -0.4749
   45TMC2    O2  698   2.335   2.888   9.499 -0.6918 -0.3172 -0.1539
   45TMC2    O5  699   2.268   2.671   9.505  0.5986 -0.0133  0.3040
   45TMC2    H5  700   2.211   2.612   9.559 -0.6976  0.2780 -0.7535
   46MPD2     C  701   1.549   2.646   9.485 -0.2737 -0.7229  0.0093
   46MPD2    C1  702   1.572   2.774   9.527  0.5277  0.0644  0.3431
   46MPD2    C2  703   1.469   2.872   9.518  0.3384  0.0432  0.2764
   46MPD2    C3  704   1.349   2.841   9.461  0.1111  0.0027  0.5904
   46MPD2    C4  705   1.339   2.719   9.398  0.3043 -0.8119  0.0604
   46MPD2    C5  706   1.438   2.619   9.409  0.0338 -0.0759  0.6128
   46MPD2     H  707   1.493   2.967   9.563  0.8712 -0.4040  0.9466
   46MPD2    H1  708   1.250   2.690   9.343 -0.1219  0.7251 -0.0609
   46MPD2    H2  709   1.616   2.561   9.496 -0.1395 -0.5949  0.1929
   46MPD2    H3  710   1.421   2.520   9.369  1.3062  0.4184 -1.1364
   46MPD2     N  711   1.263   2.947   9.443  0.1849 -0.4213  0.1625
   46MPD2    H5  712   1.292   3.040   9.472 -0.1707  0.6392 -2.7922
   46MPD2    N1  713   1.694   2.816   9.584 -0.9444  0.1764  0.5509
   46MPD2    H7  714   1.710   2.915   9.600  0.1954 -0.1528  1.4756
   47TMC2    C1  715   3.970   3.784   9.153  0.4225 -0.6439 -0.5585
   47TMC2    C2  716   3.839   3.749   9.171  0.5352 -0.4944  0.3871
   47TMC2    C3  717   3.775   3.676   9.073  0.6573 -0.4617  0.1539
   47TMC2    C4  718   4.045   3.748   9.044 -0.6356 -0.0303 -0.2448
   47TMC2    C5  719   3.983   3.662   8.957 -0.2688  0.0432  0.7830
   47TMC2    C6  720   3.849   3.634   8.966  0.0775  0.0083 -0.3497
   47TMC2     C  721   4.028   3.860   9.255 -0.9425  0.6751 -0.4675
   47TMC2     O  722   3.947   3.920   9.324  0.9138 -0.9484 -0.1057
   47TMC2     H  723   3.783   3.772   9.260 -1.6688  0.9007 -1.3557
   47TMC2    H1  724   4.148   3.783   9.039 -0.5918 -0.2777 -1.1616
   47TMC2    H2  725   3.810   3.574   8.884  1.1685  0.7235 -1.3824
   47TMC2    C7  726   4.059   3.597   8.851 -0.4490 -0.8706 -0.2942
   47TMC2    C8  727   3.641   3.623   9.098 -0.6690  0.4460 -0.5703
   47TMC2    O1  728   4.007   3.505   8.789 -0.0196 -0.3559 -0.1207
   47TMC2    O2  729   3.606   3.609   9.216  0.7086 -0.4314 -0.0679
   47TMC2    O5  730   3.591   3.558   8.992  0.1652 -0.1044  0.5308
   47TMC2    H5  731   3.645   3.581   8.913 -1.7134  0.2530 -0.6393
   48MPD2     C  732   4.203   3.969   9.461  0.2199  0.4102 -0.5023
   48MPD2    C1  733   4.244   3.871   9.373  0.0790 -0.0661 -0.0518
   48MPD2    C2  734   4.360   3.802   9.401 -0.0424 -0.2566  0.3187
   48MPD2    C3  735   4.436   3.837   9.507 -0.3800 -0.2489  0.4396
   48MPD2    C4  736   4.407   3.947   9.579 -0.6022  0.8658 -0.3285
   48MPD2    C5  737   4.291   4.014   9.555 -0.1598 -0.0671 -0.5521
   48MPD2     H  738   4.391   3.711   9.351  3.8968  1.4851 -0.4101
   48MPD2    H1  739   4.466   3.993   9.658 -1.3610  0.3015  0.5635
   48MPD2    H2  740   4.110   4.024   9.451  0.4834  0.8012 -0.7705
   48MPD2    H3  741   4.264   4.098   9.619  0.0938 -0.8973  0.6439
   48MPD2     N  742   4.536   3.745   9.547  0.3540  0.1489 -0.3379
   48MPD2    H5  743   4.541   3.667   9.484  4.5250 -0.1161  0.3226
   48MPD2    N1  744   4.162   3.831   9.270 -0.2128  0.0003  0.2327
   48MPD2    H7  745   4.206   3.767   9.204  1.6525  0.8396  0.6503
   49MPD2     C  746   2.647   1.095   9.875 -0.2602  0.7839  0.5284
   49MPD2    C1  747   2.553   1.069   9.971 -0.6094  0.5171 -0.0750
   49MPD2    C2  748   2.583   1.024  10.095  0.0491  0.0479  0.9431
   49MPD2    C3  749   2.716   1.002  10.124 -0.7084  0.3734 -0.1436
   49MPD2    C4  750   2.811   1.013  10.025 -0.2492  0.2291 -0.0584
   49MPD2    C5  751   2.777   1.067   9.903  0.4380 -0.0260  0.7837
   49MPD2     H  752   2.504   1.002  10.166 -1.5466  0.5539 -0.7030
   49MPD2    H1  753   2.908   0.964  10.035 -1.4843 -2.2745 -0.4246
   49MPD2    H2  754   2.621   1.143   9.781  1.1937  0.2767 -0.1376
   49MPD2    H3  755   2.848   1.060   9.822  0.2768 -0.4272  0.6773
   49MPD2     N  756   2.756   0.960  10.258 -0.0714  0.7624 -0.2997
   49MPD2    H5  757   2.852   0.930  10.273  0.6049  1.7574 -2.5975
   49MPD2    N1  758   2.413   1.083   9.937 -0.2456 -0.6001  0.3191
   49MPD2    H7  759   2.348   1.069  10.014 -1.7813 -2.7822 -1.4010
   50TCq2    C1  760   2.359   1.121   9.812  0.3517  0.3704  0.0558
   50TCq2    O2  761   2.410   1.121   9.700  0.3964  0.4328  0.2341
   50TCq2    C2  762   2.215   1.128   9.819 -0.1851  0.0246 -0.2941
   50TCq2    C3  763   2.164   1.212   9.726 -0.1887 -0.7145  0.2089
   50TCq2    C4  764   2.034   1.206   9.700  0.0858 -0.8886 -0.9428
   50TCq2    C5  765   1.948   1.129   9.772  0.2413 -0.0243  1.0384
   50TCq2    C6  766   2.010   1.051   9.872 -0.9041  0.0523 -0.4642
   50TCq2    C7  767   2.144   1.046   9.894  0.4599 -0.1555  0.5022
   50TCq2    C8  768   1.927   0.975   9.958  0.8436  0.0743 -0.0633
   50TCq2    O4  769   1.823   0.936   9.905 -0.0252  0.1935  0.3344
   50TCq2    C9  770   1.982   1.295   9.596  0.1424 -0.1390 -0.1347
   50TCq2    O5  771   2.065   1.375   9.548 -0.3566 -0.0039 -0.1067
   50TCq2    O6  772   1.859   1.296   9.571  0.0120 -0.2059  0.2038
   50TCq2    H2  773   2.230   1.282   9.675 -2.4168 -0.3208 -2.0786
   50TCq2    H3  774   1.842   1.132   9.749  0.3657 -2.8477  0.0686
   50TCq2    H4  775   2.192   0.979   9.964  0.5639  1.1242  1.6601
   51MPD2     C  776   1.637   3.953   0.706 -0.6691 -0.2601 -0.1425
   51MPD2    C1  777   1.671   3.937   0.837  0.1229 -0.2285  0.7538
   51MPD2    C2  778   1.633   4.028   0.930 -0.4834 -0.1471  0.4680
   51MPD2    C3  779   1.559   4.145   0.896  0.3463 -0.5118 -0.6151
   51MPD2    C4  780   1.514   4.156   0.765 -0.0231  0.2175  1.0732
   51MPD2    C5  781   1.547   4.054   0.675  0.5510  0.2359  0.2983
   51MPD2     H  782   1.676   4.017   1.029  1.7433  2.9199 -0.1647
   51MPD2    H1  783   1.445   4.232   0.731 -1.2777 -0.7680  1.3859
   51MPD2    H2  784   1.644   3.870   0.637  0.0727 -0.6915  0.4610
   51MPD2    H3  785   1.499   4.051   0.578  1.7976 -0.6320 -0.2946
   51MPD2     N  786   1.535   4.258   0.983  0.1192  0.4713 -0.2545
   51MPD2    H5  787   1.504   4.342   0.936 -0.1595  0.6087  0.1736
   51MPD2    N1  788   1.747   3.829   0.885 -0.2916  0.3919  0.1843
   51MPD2    H7  789   1.753   3.820   0.985 -0.3028 -1.2894  0.0322
   52TCq2    C1  790   1.571   4.258   1.114 -0.0757  0.1189  0.1475
   52TCq2    O2  791   1.614   4.162   1.180 -0.3092  0.3524 -0.0601
   52TCq2    C2  792   1.577   4.381   1.184 -0.3204  0.4987 -0.0626
   52TCq2    C3  793   1.500   4.481   1.135  0.2201  0.5877  0.9279
   52TCq2    C4  794   1.518   4.607   1.179  0.0745 -0.1516 -0.0263
   52TCq2    C5  795   1.606   4.631   1.278  0.2565 -0.5137  0.2168
   52TCq2    C6  796   1.675   4.524   1.338 -0.4927  0.3503  0.0818
   52TCq2    C7  797   1.667   4.401   1.293  0.4540  0.2884  0.0586
   52TCq2    C8  798   1.783   4.539   1.443  0.1485 -0.5229  0.2279
   52TCq2    O4  799   1.857   4.632   1.461 -0.1636  0.1973 -0.1140
   52TCq2    C9  800   1.429   4.715   1.143  0.1662  0.0951  0.4149
   52TCq2    O5  801   1.455   0.102   1.187 -0.2625  0.6058 -0.4766
   52TCq2    O6  802   1.323   4.680   1.086 -0.2345  0.1851 -0.3338
   52TCq2    H2  803   1.428   4.454   1.058  0.4550  0.6819  0.6787
   52TCq2    H3  804   1.601   0.008   1.318 -0.1851 -0.0098 -1.1208
   52TCq2    H4  805   1.741   4.324   1.311 -0.3183 -0.3894  0.3410
   53TMC2    C1  806   2.631   3.423  11.644  0.1564 -0.2703 -0.1166
   53TMC2    C2  807   2.764   3.449  11.670 -0.1285 -0.3410  0.5246
   53TMC2    C3  808   2.796   3.461  11.805 -0.6677 -0.5115  1.0604
   53TMC2    C4  809   2.538   3.422  11.743 -0.1566  0.4119  1.0623
   53TMC2    C5  810   2.575   3.440  11.873 -0.4709 -0.4559 -0.4884
   53TMC2    C6  811   2.709   3.451  11.914  0.1297  0.1473 -0.1640
   53TMC2     C  812   2.591   3.387  11.511  0.3422  0.3478  0.2306
   53TMC2     O  813   2.660   3.412  11.414 -0.8097 -0.1726  0.3294
   53TMC2     H  814   2.841   3.424  11.597 -0.6815  2.7995 -1.1432
   53TMC2    H1  815   2.435   3.438  11.714  0.7508  1.2222 -1.7591
   53TMC2    H2  816   2.747   3.426  12.012  1.8093  0.9829 -0.6146
   53TMC2    C7  817   2.467   3.457  11.964  0.3899  0.0184  0.0398
   53TMC2    C8  818   2.939   3.466  11.831  0.1510 -0.2960 -0.0164
   53TMC2    O1  819   2.349   3.438  11.932 -0.5639 -0.3227 -0.6369
   53TMC2    O2  820   3.024   3.468  11.746 -0.8140 -0.3299 -0.0940
   53TMC2    O5  821   2.945   3.548  11.939 -0.0794 -0.0598 -1.6734
   53TMC2    H5  822   2.874   3.545  12.006  1.2627  1.6681 -0.1962
   54MPD2     C  823   2.455   3.258  11.261 -0.2986 -0.3701 -0.2469
   54MPD2    C1  824   2.398   3.263  11.389 -0.1328  0.2111 -0.4460
   54MPD2    C2  825   2.270   3.213  11.408  0.7760  0.2959 -0.0410
   54MPD2    C3  826   2.196   3.171  11.298  0.5514 -0.4110  0.0161
   54MPD2    C4  827   2.247   3.175  11.170  0.3612  0.2446 -0.2836
   54MPD2    C5  828   2.376   3.220  11.151 -0.2875 -0.6980 -0.0756
   54MPD2     H  829   2.222   3.229  11.504  0.5471 -2.3664  0.2845
   54MPD2    H1  830   2.190   3.153  11.081 -0.9756 -1.4057  0.9665
   54MPD2    H2  831   2.559   3.282  11.243 -0.7792  2.7369  1.1311
   54MPD2    H3  832   2.417   3.234  11.052  1.1628 -0.0777  0.6115
   54MPD2     N  833   2.069   3.112  11.311  0.4444 -0.6517 -0.1442
   54MPD2    H5  834   2.039   3.068  11.224 -0.2322  0.8040 -0.6549
   54MPD2    N1  835   2.467   3.321  11.504  0.0207 -0.4862 -0.4268
   54MPD2    H7  836   2.423   3.316  11.595 -0.8770 -0.1809 -0.8442
   55MPD2     C  837   2.755   0.880   1.196  0.9932  0.4869  0.7708
   55MPD2    C1  838   2.690   0.763   1.185  0.0024  0.7026 -0.5867
   55MPD2    C2  839   2.565   0.761   1.128  0.6314 -0.0025  0.7560
   55MPD2    C3  840   2.509   0.873   1.072 -0.0876  0.9307  0.4947
   55MPD2    C4  841   2.584   0.992   1.066  0.3229 -0.0019 -0.0904
   55MPD2    C5  842   2.705   0.993   1.137 -0.5500 -0.6671 -0.4344
   55MPD2     H  843   2.500   0.675   1.127 -1.0952  1.3007 -0.1716
   55MPD2    H1  844   2.544   1.080   1.017 -0.8807  1.0934  2.8870
   55MPD2    H2  845   2.858   0.881   1.230  0.2979  1.8669  2.8110
   55MPD2    H3  846   2.758   1.086   1.152  0.6181 -0.9436 -2.6896
   55MPD2     N  847   2.374   0.857   1.015  0.5221  0.0099 -0.3159
   55MPD2    H5  848   2.322   0.773   1.040  0.5168  0.2827  0.5843
   55MPD2    N1  849   2.753   0.644   1.230  0.1734  0.3602  0.6363
   55MPD2    H7  850   2.836   0.648   1.288  2.4421 -1.1284 -2.4910
   56TCq2    C1  851   2.702   0.521   1.198  0.9164 -0.3063  0.2367
   56TCq2    O2  852   2.592   0.487   1.157 -0.3632  0.4529 -0.3616
   56TCq2    C2  853   2.798   0.421   1.242  0.3490 -0.0295  0.0552
   56TCq2    C3  854   2.927   0.425   1.198  0.8042 -0.9689 -0.3285
   56TCq2    C4  855   3.011   0.325   1.243 -0.4185  0.3030 -0.0117
   56TCq2    C5  856   2.965   0.217   1.309  0.3455  0.4993  0.5573
   56TCq2    C6  857   2.828   0.207   1.319  0.2676  0.2168 -0.1410
   56TCq2    C7  858   2.744   0.311   1.291  0.4925 -0.2114 -1.0691
   56TCq2    C8  859   2.781   0.082   1.378  0.1236  1.0640  0.4734
   56TCq2    O4  860   2.862   0.004   1.427  0.4124  0.1039 -0.1166
   56TCq2    C9  861   3.153   0.329   1.218 -0.1019 -0.0012  0.5570
   56TCq2    O5  862   3.195   0.403   1.124  0.6476  0.2079  0.8423
   56TCq2    O6  863   3.232   0.256   1.284 -0.0154  0.1272 -0.2688
   56TCq2    H2  864   2.967   0.514   1.152 -0.1254 -0.5893 -0.4139
   56TCq2    H3  865   3.027   0.133   1.338  1.3706  1.2475  0.5343
   56TCq2    H4  866   2.643   0.314   1.329 -0.2276  1.6255 -3.1574
   57TMC2    C1  867   2.498   1.927  13.857 -0.2897  0.6138 -0.4986
   57TMC2    C2  868   2.602   1.888  13.946 -0.3607 -0.1949 -0.4629
   57TMC2    C3  869   2.725   1.861  13.875 -0.4901 -0.3222 -0.2302
   57TMC2    C4  870   2.496   1.914  13.724 -0.5639 -0.8729  0.1744
   57TMC2    C5  871   2.610   1.863  13.665 -0.1091 -0.4394  0.1902
   57TMC2    C6  872   2.721   1.833  13.740  0.1218  0.6304 -0.5863
   57TMC2     C  873   2.366   1.932  13.916 -0.2458 -0.1255  0.4903
   57TMC2     O  874   2.283   2.013  13.863 -0.1157 -0.2677  0.8398
   57TMC2     H  875   2.602   1.885  14.054  0.6256 -0.4868 -0.4688
   57TMC2    H1  876   2.407   1.942  13.669  0.7601 -0.5531 -1.8029
   57TMC2    H2  877   2.807   1.799  13.684  0.9670 -3.9746  3.5326
   57TMC2    C7  878   2.607   1.855  13.522  0.3047  0.2112  0.5675
   57TMC2    C8  879   2.834   1.792  13.942  0.0428  0.4623  0.0493
   57TMC2    O1  880   2.536   1.939  13.470  0.3689 -0.5166  0.0815
   57TMC2    O2  881   2.951   1.828  13.936  0.3362  0.5135 -0.2417
   57TMC2    O5  882   2.778   1.687  14.010  0.2587  0.2715 -0.3476
   57TMC2    H5  883   2.683   1.670  13.991  0.4595  0.5610 -1.5932
   58MPD2     C  884   2.006   1.728  14.203  0.4837 -1.3299  0.1951
   58MPD2    C1  885   2.009   1.855  14.149  0.2003 -0.2609 -0.3012
   58MPD2    C2  886   2.128   1.894  14.088  1.0175 -0.3674 -0.6653
   58MPD2    C3  887   2.237   1.802  14.076 -0.4991 -0.1538  0.3472
   58MPD2    C4  888   2.231   1.676  14.130 -0.1611  0.6691  0.1420
   58MPD2    C5  889   2.114   1.644  14.191  0.4480 -0.2752  0.5373
   58MPD2     H  890   2.127   1.989  14.036 -2.1159 -0.7198 -1.2878
   58MPD2    H1  891   2.312   1.605  14.120 -0.4286  0.0407  2.4864
   58MPD2    H2  892   1.914   1.705  14.256  1.0071  2.0465  2.5796
   58MPD2    H3  893   2.112   1.543  14.229 -1.4981 -0.3249  0.3095
   58MPD2     N  894   2.355   1.826  14.003  0.4251  0.2587  0.2039
   58MPD2    H5  895   2.426   1.753  14.006  0.1277 -0.0360  0.0506
   58MPD2    N1  896   1.900   1.945  14.164 -0.2777 -0.2711  0.0727
   58MPD2    H7  897   1.927   2.043  14.156  0.5747 -0.9433 -5.2761
   59MPD2     C  898   0.148   1.567  13.038  0.1612  0.9840  0.1926
   59MPD2    C1  899   0.241   1.629  12.960  0.3254  0.0697  0.3422
   59MPD2    C2  900   0.304   1.743  13.006 -0.8013  0.5066  0.0450
   59MPD2    C3  901   0.272   1.799  13.134  0.7099 -0.8276 -0.2450
   59MPD2    C4  902   0.167   1.746  13.202  0.1200 -0.1494  0.2434
   59MPD2    C5  903   0.110   1.632  13.158 -0.2444 -0.7790  0.2290
   59MPD2     H  904   0.379   1.792  12.945  0.6777 -0.9525  0.7032
   59MPD2    H1  905   0.147   1.774  13.305  0.6302 -1.6886  0.7635
   59MPD2    H2  906   0.108   1.467  13.025 -1.3668  1.6959 -0.6846
   59MPD2    H3  907   0.027   1.582  13.208  0.7852 -2.1259  0.5990
   59MPD2     N  908   0.335   1.911  13.194  0.1633  0.3655 -0.1854
   59MPD2    H5  909   0.315   1.930  13.292 -1.8338 -1.0545 -0.3188
   59MPD2    N1  910   0.304   1.588  12.839  0.5619  0.4226  0.1023
   59MPD2    H7  911   0.368   1.653  12.795  1.5519 -0.4621  0.2120
   60TCq2    C1  912   0.277   1.469  12.774 -0.7462  1.2681  0.3204
   60TCq2    O2  913   0.219   1.366  12.802 -0.1681  0.8576  0.2302
   60TCq2    C2  914   0.342   1.473  12.647 -0.0915  0.2201 -0.2463
   60TCq2    C3  915   0.371   1.348  12.594  0.2492  0.0090  0.2314
   60TCq2    C4  916   0.454   1.346  12.486 -0.9421  0.4236 -0.0658
   60TCq2    C5  917   0.497   1.458  12.425 -0.6188 -0.0278 -0.2642
   60TCq2    C6  918   0.461   1.585  12.473 -0.5717  0.3391  0.8335
   60TCq2    C7  919   0.388   1.588  12.587  0.1483  0.4402 -0.4894
   60TCq2    C8  920   0.448   1.701  12.380  1.3645 -0.1953 -0.8244
   60TCq2    O4  921   0.351   1.774  12.391  0.7134 -0.0888 -0.3017
   60TCq2    C9  922   0.481   1.225  12.407  0.5081 -0.7782 -0.5532
   60TCq2    O5  923   0.398   1.131  12.411 -0.1536 -0.1205 -0.2568
   60TCq2    O6  924   0.591   1.220  12.340  0.3333  0.0366 -0.5052
   60TCq2    H2  925   0.337   1.254  12.635  1.0791  0.3479  1.7112
   60TCq2    H3  926   0.550   1.449  12.330 -0.5657  2.0465 -0.4269
   60TCq2    H4  927   0.358   1.687  12.621 -1.1147  0.3526 -1.3270
   61MPD2     C  928   4.565   3.077  13.978  0.0800  0.0345  1.0189
   61MPD2    C1  929   4.469   3.123  14.066 -0.4727 -0.4153  0.1254
   61MPD2    C2  930   4.388   3.232  14.035  0.6604  0.8981 -0.0374
   61MPD2    C3  931   4.399   3.289  13.911  0.0636  0.5531  0.3852
   61MPD2    C4  932   4.490   3.240  13.817 -0.7078 -0.8050 -0.0018
   61MPD2    C5  933   4.568   3.136  13.859 -0.2234 -0.9578 -0.3857
   61MPD2     H  934   4.333   3.281  14.114 -0.3802 -0.4151  0.0550
   61MPD2    H1  935   4.504   3.298  13.726  0.3720  0.8135  1.1953
   61MPD2    H2  936   4.638   2.997  13.991 -0.3524 -0.1853  2.0886
   61MPD2    H3  937   4.651   3.106  13.796  0.7285  0.9331 -0.0175
   61MPD2     N  938   4.324   3.407  13.874  0.7609  0.2151 -0.6455
   61MPD2    H5  939   4.355   3.452  13.788  3.2895  1.0510  0.7079
   61MPD2    N1  940   4.460   3.063  14.194  0.0404  0.3594  0.2459
   61MPD2    H7  941   4.389   3.106  14.251 -0.6972 -0.7058  0.1161
   62TCq2    C1  942   4.529   2.953  14.234  0.1988 -0.1578  0.2579
   62TCq2    O2  943   4.637   2.916  14.201 -0.6348 -0.3428  0.5407
   62TCq2    C2  944   4.482   2.910  14.373  0.8141  0.3679  0.0717
   62TCq2    C3  945   4.560   2.828  14.448  0.6131  1.3052 -0.3981
   62TCq2    C4  946   4.522   2.801  14.578 -0.7970  0.2182  0.5321
   62TCq2    C5  947   4.412   2.858  14.636 -0.0709  0.0385  0.0049
   62TCq2    C6  948   4.333   2.937  14.560 -0.7127  0.1979  0.3555
   62TCq2    C7  949   4.370   2.970  14.429  0.1225 -0.2607  0.0097
   62TCq2    C8  950   4.261   3.045  14.627  0.1483  0.5177 -0.4168
   62TCq2    O4  951   4.233   3.148  14.566  0.1156  0.2368 -0.0886
   62TCq2    C9  952   4.603   2.720  14.670 -0.0489  0.0481  0.3145
   62TCq2    O5  953   4.548   2.669  14.774 -0.4238  0.0171 -0.2656
   62TCq2    O6  954   4.718   2.684  14.637  0.8231  0.3680 -0.0722
   62TCq2    H2  955   4.649   2.785  14.403  0.2670 -0.2353  0.3828
   62TCq2    H3  956   4.396   2.839  14.741 -1.6084 -1.0853 -0.4295
   62TCq2    H4  957   4.294   3.019  14.370 -0.4503 -0.5263  0.5296
   63TMC2    C1  958   3.980   3.663   9.963 -0.3666 -0.8090  0.1751
   63TMC2    C2  959   4.018   3.795   9.941  0.3291  0.3456  0.2204
   63TMC2    C3  960   4.048   3.845   9.823 -0.1700  0.1682  0.0714
   63TMC2    C4  961   3.970   3.579   9.858 -0.5487 -0.2151  0.2942
   63TMC2    C5  962   3.998   3.634   9.735  0.2893 -0.7061 -0.4291
   63TMC2    C6  963   4.043   3.764   9.716  0.1101  0.0648  0.4175
   63TMC2     C  964   3.898   3.628  10.077 -0.1998  0.1662  0.4692
   63TMC2     O  965   3.866   3.727  10.146  0.5617 -0.1801 -0.1532
   63TMC2     H  966   4.009   3.855  10.031 -0.8131  0.0450  0.3122
   63TMC2    H1  967   3.931   3.478   9.869 -1.9583  0.4612  1.5434
   63TMC2    H2  968   4.078   3.806   9.623  1.9939 -0.2170  1.0026
   63TMC2    C7  969   3.979   3.543   9.621  0.4421  0.0258  0.4770
   63TMC2    C8  970   4.011   3.982   9.790 -0.2737 -0.2442  0.5059
   63TMC2    O1  971   3.908   3.447   9.642 -0.0766  0.1948 -0.5754
   63TMC2    O2  972   3.956   3.999   9.682 -0.6231  0.0084  0.1734
   63TMC2    O5  973   4.104   4.068   9.845  0.6363 -0.2694 -0.4059
   63TMC2    H5  974   4.151   4.040   9.926 -1.9020 -1.5960  0.6010
   64MPD2     C  975   3.671   3.289  10.390  0.8122  0.1391  0.1679
   64MPD2    C1  976   3.761   3.228  10.305 -0.2557  0.9910  0.2737
   64MPD2    C2  977   3.836   3.295  10.211  0.0806 -0.3218  0.7635
   64MPD2    C3  978   3.827   3.435  10.203 -0.6620  0.1581 -0.0713
   64MPD2    C4  979   3.726   3.497  10.275  0.0193  0.9977  0.1428
   64MPD2    C5  980   3.660   3.427  10.373  0.3920 -0.6499  0.1374
   64MPD2     H  981   3.901   3.242  10.142  0.3057 -0.2867  0.9468
   64MPD2    H1  982   3.710   3.603  10.263  1.2803  1.0301 -1.2746
   64MPD2    H2  983   3.625   3.229  10.468  2.5408 -0.1142  1.0005
   64MPD2    H3  984   3.590   3.478  10.438 -1.6300 -2.6695 -0.4468
   64MPD2     N  985   3.912   3.501  10.112 -0.2212  0.7163 -0.1592
   64MPD2    H5  986   3.977   3.445  10.057 -1.2261  0.0505 -0.6539
   64MPD2    N1  987   3.784   3.090  10.304  0.2409 -0.1970 -0.0750
   64MPD2    H7  988   3.865   3.061  10.251  0.0486 -0.1990 -0.3721
   65MPD2     C  989   0.395   2.557  15.685 -0.1093 -0.5271 -0.3891
   65MPD2    C1  990   0.407   2.525  15.550  0.4206  0.3288 -0.0260
   65MPD2    C2  991   0.421   2.391  15.522  0.4894  0.0438  0.4906
   65MPD2    C3  992   0.427   2.287  15.620  0.0625  0.2843 -0.8296
   65MPD2    C4  993   0.416   2.337  15.749  0.1171 -0.6594  0.5135
   65MPD2    C5  994   0.418   2.468  15.787 -0.2608 -0.3011  0.2112
   65MPD2     H  995   0.405   2.368  15.417 -0.8792  0.4201  0.6198
   65MPD2    H1  996   0.412   2.263  15.828  0.2162 -1.5122 -0.2789
   65MPD2    H2  997   0.395   2.659  15.721 -1.8813 -0.7720  0.3254
   65MPD2    H3  998   0.424   2.494  15.892  0.6666 -0.1940  0.1300
   65MPD2     N  999   0.416   2.149  15.599  0.3677  1.1299  0.0013
   65MPD2    H5 1000   0.385   2.101  15.683 -0.7414 -1.0604 -1.6566
   65MPD2    N1 1001   0.394   2.624  15.449 -0.2612  0.4109  0.3791
   65MPD2    H7 1002   0.413   2.591  15.355 -1.6886  0.0742  0.2087
   66TCq2    C1 1003   0.335   2.746  15.470  0.2154  0.1914 -0.1478
   66TCq2    O2 1004   0.319   2.815  15.568  0.4903  0.5169 -0.7187
   66TCq2    C2 1005   0.283   2.802  15.346 -0.4951  1.1225 -0.3941
   66TCq2    C3 1006   0.254   2.731  15.238  0.0100 -0.3534 -0.6889
   66TCq2    C4 1007   0.197   2.784  15.131 -0.6181  0.4481 -0.3923
   66TCq2    C5 1008   0.171   2.919  15.130 -0.1811 -0.0935  0.3806
   66TCq2    C6 1009   0.203   2.987  15.240 -0.0535  0.0289  0.0419
   66TCq2    C7 1010   0.262   2.933  15.351 -1.2673  0.2206  0.6760
   66TCq2    C8 1011   0.172   3.127  15.231 -0.9010 -0.2465 -0.1038
   66TCq2    O4 1012   0.185   3.175  15.117  0.1652  0.0005 -0.3253
   66TCq2    C9 1013   0.150   2.711  15.014  0.0280 -0.2004  0.1089
   66TCq2    O5 1014   0.077   2.777  14.935  0.2694  0.1556 -0.1516
   66TCq2    O6 1015   0.169   2.587  14.998  0.3766  0.2605 -0.8070
   66TCq2    H2 1016   0.272   2.624  15.240 -0.0179 -0.3335  0.6568
   66TCq2    H3 1017   0.129   2.962  15.040 -1.5606  1.1758  1.6241
   66TCq2    H4 1018   0.290   2.995  15.435 -0.5439 -0.0549  0.6415
   67MPD2     C 1019   0.082   1.949  14.158 -0.3981  0.5981  0.0878
   67MPD2    C1 1020   0.055   2.067  14.225 -0.5074 -0.9082 -0.3949
   67MPD2    C2 1021   4.683   2.156  14.171 -1.0343 -0.1980 -0.0566
   67MPD2    C3 1022   4.623   2.130  14.050 -0.3695  0.8350 -0.3715
   67MPD2    C4 1023   4.656   2.007  13.985  0.2655 -0.0966  0.2936
   67MPD2    C5 1024   0.021   1.926  14.033 -0.1885 -0.5601  1.2109
   67MPD2     H 1025   4.667   2.247  14.227 -0.3118  0.5037 -0.9928
   67MPD2    H1 1026   4.591   1.972  13.905 -1.3339  1.7625  0.7863
   67MPD2    H2 1027   0.142   1.867  14.196 -3.1918 -1.2918  0.3614
   67MPD2    H3 1028   0.034   1.832  13.980 -1.4240 -0.6076  0.9845
   67MPD2     N 1029   4.534   2.222  13.989  0.1289 -0.1743 -0.5342
   67MPD2    H5 1030   4.496   2.189  13.901 -0.9781  0.1396 -0.1776
   67MPD2    N1 1031   0.111   2.094  14.351  0.1156 -0.0341  0.2952
   67MPD2    H7 1032   0.090   2.187  14.387  2.6814  0.7324 -0.2364
   68TCq2    C1 1033   0.205   2.017  14.413  0.3179 -0.4084 -0.2171
   68TCq2    O2 1034   0.270   1.918  14.374  0.1902 -0.3200 -0.0829
   68TCq2    C2 1035   0.252   2.071  14.542 -0.1956  0.1480  0.0670
   68TCq2    C3 1036   0.159   2.148  14.610  0.0742  0.5751  0.3354
   68TCq2    C4 1037   0.207   2.203  14.725 -0.5115  0.4116 -0.2672
   68TCq2    C5 1038   0.322   2.166  14.784  0.0529  0.3492 -0.3499
   68TCq2    C6 1039   0.397   2.069  14.722 -0.8725  0.0624 -0.6941
   68TCq2    C7 1040   0.365   2.022  14.598 -0.1387  0.3179 -0.3350
   68TCq2    C8 1041   0.526   2.032  14.778  0.4102  0.2510  0.0886
   68TCq2    O4 1042   0.608   1.976  14.707 -0.9370  0.0332  0.2651
   68TCq2    C9 1043   0.113   2.285  14.792  0.4239 -0.0107  0.4546
   68TCq2    O5 1044   0.015   2.334  14.728 -0.3645  0.1855 -0.3282
   68TCq2    O6 1045   0.138   2.305  14.914 -0.8921 -0.1088  0.1948
   68TCq2    H2 1046   0.059   2.175  14.578  0.4568  2.8279  0.9938
   68TCq2    H3 1047   0.332   2.197  14.888  1.5221  0.4263 -0.5055
   68TCq2    H4 1048   0.423   1.944  14.551 -0.0153  1.1851 -1.6418
   69TMC2    C1 1049   2.211   3.814  12.458  0.7634 -0.2104 -0.2250
   69TMC2    C2 1050   2.104   3.890  12.424 -0.4656 -0.1857 -0.1586
   69TMC2    C3 1051   2.095   3.945  12.297  0.3906  0.1469 -0.1046
   69TMC2    C4 1052   2.321   3.803  12.373  0.1692  0.4663 -0.2390
   69TMC2    C5 1053   2.309   3.855  12.245 -0.1258  0.0266 -0.6040
   69TMC2    C6 1054   2.197   3.930  12.206  0.0782 -0.5324 -0.7828
   69TMC2     C 1055   2.212   3.742  12.586 -0.1322  0.5689 -0.1226
   69TMC2     O 1056   2.105   3.719  12.642 -0.0087  0.1945  0.5021
   69TMC2     H 1057   2.012   3.872  12.479 -1.4785  0.6520 -1.6002
   69TMC2    H1 1058   2.412   3.751  12.403  1.6719  2.1431 -1.8812
   69TMC2    H2 1059   2.202   3.976  12.109  4.0115  2.3889  0.7801
   69TMC2    C7 1060   2.428   3.852  12.167  0.1480  0.4518 -0.7351
   69TMC2    C8 1061   1.966   4.008  12.264 -0.3698  0.3230 -0.4013
   69TMC2    O1 1062   2.531   3.855  12.231 -0.3421  0.0039  0.2974
   69TMC2    O2 1063   1.858   3.993  12.318  0.4298  0.0959  0.3952
   69TMC2    O5 1064   2.007   4.121  12.205  0.3204  0.4817 -0.4083
   69TMC2    H5 1065   2.090   4.117  12.153  1.7384 -2.6531  2.0847
   70MPD2     C 1066   2.505   3.692  12.796 -0.2600 -0.2324 -0.8200
   70MPD2    C1 1067   2.376   3.668  12.753 -0.3167  0.1139 -0.3612
   70MPD2    C2 1068   2.296   3.560  12.795 -0.3048 -0.3882 -0.5208
   70MPD2    C3 1069   2.362   3.477  12.881  0.2131  0.0328 -0.1506
   70MPD2    C4 1070   2.495   3.499  12.918 -0.0960 -0.4259  0.2262
   70MPD2    C5 1071   2.564   3.606  12.878  0.1371  0.1218  1.1425
   70MPD2     H 1072   2.200   3.531  12.753 -0.2390 -0.1449 -0.8320
   70MPD2    H1 1073   2.541   3.429  12.986 -1.0937 -0.0956  1.2409
   70MPD2    H2 1074   2.566   3.777  12.766 -0.9314  0.5559  0.0334
   70MPD2    H3 1075   2.667   3.622  12.906  0.0383  0.3218  1.3965
   70MPD2     N 1076   2.313   3.351  12.919  0.2108  0.2699 -0.2822
   70MPD2    H5 1077   2.381   3.284  12.954 -0.9212  0.1704  1.7393
   70MPD2    N1 1078   2.337   3.743  12.641 -0.0635  0.3505  0.0945
   70MPD2    H7 1079   2.397   3.818  12.609 -0.2050  0.2775 -0.3431
   71TMC2    C1 1080   4.574   3.322   1.440 -0.0654  0.3614  0.1479
   71TMC2    C2 1081   4.679   3.282   1.518 -0.6231 -0.3619 -0.6421
   71TMC2    C3 1082   4.657   3.175   1.596  0.2072 -0.0033 -0.5862
   71TMC2    C4 1083   4.450   3.276   1.457  0.4678  0.0891 -0.7983
   71TMC2    C5 1084   4.438   3.168   1.545 -0.5199  0.9934  0.3035
   71TMC2    C6 1085   4.537   3.122   1.627 -0.4025  0.2045 -0.0325
   71TMC2     C 1086   4.595   3.413   1.330 -0.4567  0.0436 -0.0482
   71TMC2     O 1087   4.528   3.389   1.230  0.3864 -0.5708  0.1691
   71TMC2     H 1088   0.057   3.303   1.486  0.1322  0.5809  2.4078
   71TMC2    H1 1089   4.369   3.303   1.391 -0.4678  1.2556  0.8392
   71TMC2    H2 1090   4.519   3.044   1.700 -0.8144  2.0189  1.7785
   71TMC2    C7 1091   4.325   3.081   1.536 -0.2521  0.5704 -0.1005
   71TMC2    C8 1092   0.046   3.125   1.677 -0.0814 -0.2928 -0.3637
   71TMC2    O1 1093   4.338   2.963   1.564 -0.0875 -0.0516 -0.0661
   71TMC2    O2 1094   0.045   3.072   1.787  0.4293 -0.0685 -0.4066
   71TMC2    O5 1095   0.144   3.095   1.591  0.1270 -0.1484 -0.4247
   71TMC2    H5 1096   0.108   3.097   1.499 -1.1573  1.6023  0.0941
   72MPD2     C 1097   0.139   3.756   1.055  0.6883  0.1511 -0.2046
   72MPD2    C1 1098   0.043   3.663   1.017 -0.1186  0.7174 -0.5520
   72MPD2    C2 1099   4.710   3.575   1.106 -0.2520  0.0016 -0.5652
   72MPD2    C3 1100   0.037   3.567   1.236 -0.3480 -0.5422 -0.2058
   72MPD2    C4 1101   0.139   3.653   1.270 -0.0961  0.0685  0.1318
   72MPD2    C5 1102   0.197   3.741   1.180  0.4129 -0.3899 -1.3226
   72MPD2     H 1103   4.625   3.513   1.080 -2.7995  1.9037  3.2289
   72MPD2    H1 1104   0.186   3.643   1.367 -1.0508 -2.7738  0.3025
   72MPD2    H2 1105   0.188   3.826   0.988  1.0627  0.8098  0.7599
   72MPD2    H3 1106   0.278   3.809   1.206 -1.3382  1.7349 -1.4104
   72MPD2     N 1107   4.703   3.494   1.342  0.1980  0.0383 -0.1664
   72MPD2    H5 1108   0.031   3.490   1.429  1.0581  5.0229 -0.4443
   72MPD2    N1 1109   4.694   3.677   0.896  1.1282 -0.1130  0.3222
   72MPD2    H7 1110   4.623   3.607   0.880  0.3569  0.8936 -0.7120
   73TMC2    C1 1111   0.363   1.077  14.148  0.0155  0.0097  0.0402
   73TMC2    C2 1112   0.247   1.017  14.197  0.0656 -0.1083 -0.0650
   73TMC2    C3 1113   0.160   1.093  14.260  0.1164  0.0107 -0.3052
   73TMC2    C4 1114   0.390   1.208  14.167  0.3307  0.4480  0.2506
   73TMC2    C5 1115   0.294   1.279  14.233  0.6572 -0.5520  0.3828
   73TMC2    C6 1116   0.176   1.229  14.275 -0.1074 -0.2381 -0.0837
   73TMC2     C 1117   0.387   1.056  14.005 -0.6222 -1.0324 -0.0378
   73TMC2     O 1118   0.395   1.165  13.948  0.1662  0.1712 -0.3498
   73TMC2     H 1119   0.234   0.909  14.195 -0.1050 -0.0738 -1.0043
   73TMC2    H1 1120   0.485   1.246  14.132  0.0120  0.8016 -0.2281
   73TMC2    H2 1121   0.099   1.296  14.311  0.2051  0.5580 -0.8797
   73TMC2    C7 1122   0.283   1.415  14.184  0.3447 -0.5742  0.3214
   73TMC2    C8 1123   0.049   1.026  14.322 -0.0502 -0.1827 -0.2615
   73TMC2    O1 1124   0.219   1.505  14.242  0.1049  0.6829  0.3597
   73TMC2    O2 1125   0.060   0.910  14.368 -0.3106 -0.0144  0.0743
   73TMC2    O5 1126   4.668   1.064  14.246  0.2644  0.2733  0.2382
   73TMC2    H5 1127   4.670   1.154  14.206 -0.9964  0.4434  0.5681
   74MPD2     C 1128   0.403   0.840  13.555 -0.1897 -0.2241  0.4541
   74MPD2    C1 1129   0.371   0.970  13.587  0.3731  0.2619 -0.3476
   74MPD2    C2 1130   0.347   1.006  13.722  0.6964 -0.5666  0.0078
   74MPD2    C3 1131   0.368   0.911  13.820 -0.8250 -0.1730  0.1394
   74MPD2    C4 1132   0.387   0.775  13.781  0.0625 -0.3957  0.4068
   74MPD2    C5 1133   0.414   0.744  13.648 -0.5978  0.3196 -0.1887
   74MPD2     H 1134   0.313   1.104  13.754  0.8556 -0.2687 -0.7201
   74MPD2    H1 1135   0.377   0.710  13.866 -0.5314  0.0735  0.6967
   74MPD2    H2 1136   0.421   0.825  13.449 -0.9127 -2.1890  0.6123
   74MPD2    H3 1137   0.450   0.644  13.623 -0.0580  0.6375 -0.6867
   74MPD2     N 1138   0.361   0.934  13.958 -0.3263  0.2330  0.0816
   74MPD2    H5 1139   0.360   0.855  14.022  0.5927  0.3991  0.2977
   74MPD2    N1 1140   0.372   1.067  13.480 -0.5832 -0.7333 -0.2283
   74MPD2    H7 1141   0.405   1.030  13.392  0.2014  2.9560 -1.4692
   75TCq2    C1 1142   4.462   2.317  14.059  0.3548  0.0082  0.0700
   75TCq2    O2 1143   4.482   2.360  14.171 -0.7974 -0.1480  0.1522
   75TCq2    C2 1144   4.340   2.360  13.992 -0.1512  0.9188  0.7073
   75TCq2    C3 1145   4.223   2.385  14.058  0.0592 -0.3406  0.5042
   75TCq2    C4 1146   4.117   2.420  13.978  0.1265  0.2800  0.7800
   75TCq2    C5 1147   4.143   2.452  13.841 -0.1515 -0.3408 -0.1592
   75TCq2    C6 1148   4.265   2.437  13.792  0.4202  0.2569  0.4341
   75TCq2    C7 1149   4.372   2.398  13.862 -0.7140  0.7515  0.5688
   75TCq2    C8 1150   4.286   2.464  13.647 -0.1214 -0.0067 -0.1049
   75TCq2    O4 1151   4.186   2.459  13.577  0.4160 -0.4808  0.3400
   75TCq2    C9 1152   3.987   2.438  14.039 -0.4693  0.1664 -1.0389
   75TCq2    O5 1153   3.897   2.498  13.976  0.8142 -0.3428 -0.1571
   75TCq2    O6 1154   3.963   2.364  14.136 -0.6052 -0.0274 -0.5054
   75TCq2    H2 1155   4.211   2.346  14.159 -0.9941 -1.1830  0.0561
   75TCq2    H3 1156   4.067   2.498  13.778 -0.0449 -1.7612 -1.3208
   75TCq2    H4 1157   4.466   2.381  13.811 -1.1403  1.8738 -0.5912
   76MPD2     C 1158   3.322   3.300  12.118 -0.0067  0.0358 -0.1634
   76MPD2    C1 1159   3.341   3.354  11.994 -0.6690  0.4308 -0.7030
   76MPD2    C2 1160   3.402   3.278  11.894  0.1615  0.7149  0.0691
   76MPD2    C3 1161   3.433   3.143  11.915 -0.3481 -0.2173  0.2352
   76MPD2    C4 1162   3.413   3.092  12.048  0.3237  0.1075  0.1898
   76MPD2    C5 1163   3.353   3.174  12.141 -0.6193  0.3875  0.2768
   76MPD2     H 1164   3.428   3.321  11.798  0.2049 -0.0330 -0.2553
   76MPD2    H1 1165   3.425   2.988  12.076  1.1181  0.3611  0.7901
   76MPD2    H2 1166   3.284   3.363  12.197 -0.4990 -0.4581 -0.0076
   76MPD2    H3 1167   3.336   3.130  12.239 -0.6300  1.1535  0.6228
   76MPD2     N 1168   3.491   3.049  11.819 -0.6124  0.3343  0.0570
   76MPD2    H5 1169   3.495   2.952  11.850  1.8426  0.1394 -0.8275
   76MPD2    N1 1170   3.319   3.492  11.966  0.2123 -0.7010  0.3689
   76MPD2    H7 1171   3.346   3.531  11.877 -1.9535 -2.9877 -1.2819
   77TCq2    C1 1172   3.525   3.076  11.686  0.1654 -0.4558  0.4866
   77TCq2    O2 1173   3.525   3.184  11.630 -0.1996  0.2563  0.4303
   77TCq2    C2 1174   3.561   2.967  11.597 -0.4796  0.5347  0.8037
   77TCq2    C3 1175   3.545   2.993  11.468  0.2092 -0.3766  0.4353
   77TCq2    C4 1176   3.558   2.889  11.377  0.1607  0.1691  0.0779
   77TCq2    C5 1177   3.594   2.762  11.413 -0.3382 -0.4542  0.4435
   77TCq2    C6 1178   3.617   2.744  11.546 -0.0053 -0.3001  0.2476
   77TCq2    C7 1179   3.602   2.843  11.642 -0.5396  0.5731  0.2390
   77TCq2    C8 1180   3.669   2.614  11.586 -0.2001 -0.5947 -0.1102
   77TCq2    O4 1181   3.656   2.522  11.505  0.6876  0.4673  0.0259
   77TCq2    C9 1182   3.545   2.925  11.237 -0.2001  0.0697  0.0564
   77TCq2    O5 1183   3.535   3.051  11.213 -0.0810 -0.3724 -0.7192
   77TCq2    O6 1184   3.494   2.834  11.169 -0.7990  0.5064  0.4280
   77TCq2    H2 1185   3.499   3.081  11.424 -1.1337 -0.1725  2.2641
   77TCq2    H3 1186   3.610   2.692  11.332 -0.3798 -1.5261  1.3657
   77TCq2    H4 1187   3.609   2.824  11.749 -0.2363 -1.2549 -0.1133
   78MPD1     C 1188   1.338   1.918   2.081 -0.4908 -0.6031  0.2684
   78MPD1    C1 1189   1.318   2.048   2.034  0.3155  0.4902 -0.3757
   78MPD1    C2 1190   1.192   2.090   2.007 -0.4260 -0.0596 -0.0274
   78MPD1    C3 1191   1.087   2.002   1.991  0.2156 -0.1232  0.3875
   78MPD1    C4 1192   1.117   1.869   2.013 -0.0398  0.6466 -0.1397
   78MPD1    C5 1193   1.240   1.829   2.057  0.4904 -0.4015 -0.0033
   78MPD1     H 1194   1.173   2.195   1.989  1.8312  1.0817  4.3260
   78MPD1    H1 1195   1.040   1.792   2.011 -0.2458  0.9132 -2.4447
   78MPD1    H2 1196   1.435   1.891   2.121 -0.2643 -0.5382 -0.2409
   78MPD1    H3 1197   1.252   1.732   2.105  2.4229 -0.0586  0.2352
   78MPD1     N 1198   0.946   2.038   1.972 -0.9764  0.3332  0.3507
   78MPD1    H5 1199   0.881   1.960   1.964  0.3821 -0.8186  0.4428
   78MPD1    N1 1200   1.426   2.143   2.045  0.2610  0.0784 -0.2084
   78MPD1    H6 1201   1.414   2.235   2.004 -3.0022 -0.8554 -1.3843
   78MPD1    H7 1202   1.517   2.102   2.024  1.2635  0.8930  2.5385
   79TCq2    C1 1203   0.902   2.170   1.974  0.5465 -0.4697  0.3278
   79TCq2    O2 1204   0.958   2.273   1.997 -0.0178  0.3213 -0.4801
   79TCq2    C2 1205   0.755   2.181   1.979  0.4908 -0.0714  0.3321
   79TCq2    C3 1206   0.687   2.066   1.997  0.2738 -0.1575  0.2650
   79TCq2    C4 1207   0.556   2.083   1.989  0.4590  0.1559 -0.0498
   79TCq2    C5 1208   0.486   2.199   1.973  0.3618  0.0035  0.4029
   79TCq2    C6 1209   0.560   2.314   1.952 -0.0618 -0.1524 -0.5131
   79TCq2    C7 1210   0.698   2.304   1.958 -0.6621  0.8504 -0.0710
   79TCq2    C8 1211   0.506   2.442   1.918  0.9090  0.4977  0.2347
   79TCq2    O4 1212   0.583   2.538   1.935 -0.3450 -0.5631  0.2438
   79TCq2    C9 1213   0.475   1.970   1.999 -0.8902 -0.3979 -0.0843
   79TCq2    O5 1214   0.530   1.857   2.004  0.1418  0.0528 -0.5382
   79TCq2    O6 1215   0.350   1.987   2.015  0.4442 -0.5177 -0.6804
   79TCq2    H2 1216   0.729   1.967   2.017 -1.8100 -1.4454 -1.7932
   79TCq2    H3 1217   0.380   2.189   1.954  0.3530  0.2466  0.3223
   79TCq2    H4 1218   0.751   2.397   1.940 -2.3160  1.5652 -1.2629
   80MPD2     C 1219   2.762   3.079  11.675  0.3244 -0.4565 -0.4214
   80MPD2    C1 1220   2.622   3.056  11.685 -0.1489 -0.0912 -0.3816
   80MPD2    C2 1221   2.551   3.066  11.801  0.0548  0.1947  0.2085
   80MPD2    C3 1222   2.620   3.109  11.915  0.0358  0.1313  0.1915
   80MPD2    C4 1223   2.753   3.134  11.908  0.2123 -0.0420  0.2482
   80MPD2    C5 1224   2.825   3.118  11.793 -0.0596 -0.4794 -0.7646
   80MPD2     H 1225   2.445   3.041  11.801  0.5759 -1.9895  0.8538
   80MPD2    H1 1226   2.808   3.156  11.999 -0.7897 -0.9589  1.0702
   80MPD2    H2 1227   2.825   3.077  11.587  0.3408  0.9367 -0.4449
   80MPD2    H3 1228   2.927   3.154  11.796  0.7469 -2.8515  0.5790
   80MPD2     N 1229   2.556   3.111  12.043  0.2070 -0.1457  0.2774
   80MPD2    H5 1230   2.610   3.139  12.124  1.0049  1.5948 -0.8501
   80MPD2    N1 1231   2.555   3.001  11.575  0.5910  0.4196  0.3653
   80MPD2    H7 1232   2.457   2.981  11.592 -0.2300  2.7291 -1.7577
   81TCq2    C1 1233   2.609   2.979  11.450  0.2714  0.1501 -0.4115
   81TCq2    O2 1234   2.713   3.019  11.406 -0.3131 -0.0801 -0.5724
   81TCq2    C2 1235   2.525   2.900  11.358 -0.0997  0.6394 -0.1871
   81TCq2    C3 1236   2.537   2.922  11.226 -0.5063 -0.1886  0.1780
   81TCq2    C4 1237   2.446   2.860  11.138  0.2955  0.4997 -0.8378
   81TCq2    C5 1238   2.358   2.770  11.188  0.0750 -0.2791  0.4838
   81TCq2    C6 1239   2.343   2.758  11.325 -0.0338  0.1315 -0.5266
   81TCq2    C7 1240   2.429   2.821  11.413 -0.3435 -0.2477  1.6198
   81TCq2    C8 1241   2.219   2.693  11.374  0.1647 -0.8862 -0.5139
   81TCq2    O4 1242   2.121   2.697  11.296 -0.1703  0.3592  0.2953
   81TCq2    C9 1243   2.484   2.861  11.001 -0.1991  0.4457  0.3718
   81TCq2    O5 1244   2.404   2.800  10.926 -0.1579 -0.2191 -0.3526
   81TCq2    O6 1245   2.595   2.909  10.968  0.5115  0.3501 -0.1606
   81TCq2    H2 1246   2.617   2.988  11.196  0.5305 -1.4237  0.2509
   81TCq2    H3 1247   2.292   2.715  11.121 -1.3648  0.7993  1.0094
   81TCq2    H4 1248   2.415   2.813  11.520  2.6829 -2.5748  1.8438
   82MPD2     C 1249   1.236   2.477  10.566 -0.2704 -0.1703 -0.1955
   82MPD2    C1 1250   1.124   2.400  10.557  0.2115  0.5907 -0.0387
   82MPD2    C2 1251   1.132   2.266  10.531 -0.4814 -0.4431  0.2303
   82MPD2    C3 1252   1.259   2.206  10.521  0.1620  0.2219 -0.2973
   82MPD2    C4 1253   1.372   2.285  10.529  0.0865 -0.6001  0.5614
   82MPD2    C5 1254   1.360   2.425  10.540 -0.9590  0.6143 -0.8445
   82MPD2     H 1255   1.038   2.217  10.512 -0.2988 -0.9497  0.6334
   82MPD2    H1 1256   1.471   2.240  10.529  0.5632  0.4225 -1.1608
   82MPD2    H2 1257   1.230   2.584  10.579 -0.4403 -0.2549  0.4293
   82MPD2    H3 1258   1.447   2.489  10.543 -1.9620  1.7827  2.9458
   82MPD2     N 1259   1.265   2.070  10.487  0.2759  0.2493 -0.3522
   82MPD2    H5 1260   1.361   2.040  10.474 -0.0045  0.0987 -1.9807
   82MPD2    N1 1261   0.999   2.463  10.556 -0.1812  0.0121  0.5084
   82MPD2    H7 1262   0.994   2.563  10.543  2.8461 -0.1828 -2.1633
   83TCq2    C1 1263   1.163   1.983  10.465 -0.2627  0.0968  0.3230
   83TCq2    O2 1264   1.040   1.995  10.475  0.6505  0.1440 -0.2006
   83TCq2    C2 1265   1.205   1.846  10.471  0.2676  0.4928  0.2392
   83TCq2    C3 1266   1.329   1.815  10.518  0.4447  0.3170  1.0674
   83TCq2    C4 1267   1.333   1.700  10.591  0.7213 -0.5957 -0.5581
   83TCq2    C5 1268   1.230   1.616  10.621 -0.2291 -0.6230  0.2165
   83TCq2    C6 1269   1.109   1.646  10.568 -0.4447  0.4569  0.1777
   83TCq2    C7 1270   1.096   1.763  10.489  0.0698 -0.2865 -0.3708
   83TCq2    C8 1271   0.996   1.565  10.619  0.0745  0.8803  0.0482
   83TCq2    O4 1272   1.017   1.482  10.702 -0.3560 -0.2399 -0.9765
   83TCq2    C9 1273   1.464   1.666  10.643  0.0899  0.2704 -0.0522
   83TCq2    O5 1274   1.475   1.559  10.713 -0.7286  0.4083 -0.1406
   83TCq2    O6 1275   1.552   1.759  10.633  0.1214  0.5490  0.7063
   83TCq2    H2 1276   1.410   1.887  10.514 -0.3916  1.2082  0.1130
   83TCq2    H3 1277   1.247   1.529  10.682 -1.2166  0.0081  1.3878
   83TCq2    H4 1278   0.998   1.780  10.446 -0.5876 -0.9862  0.8366
   84TCq2    C1 1279   2.674   0.952  10.368  0.1907  0.0228  0.3863
   84TCq2    O2 1280   2.557   0.990  10.377  0.0215  0.6447  0.3612
   84TCq2    C2 1281   2.736   0.918  10.497 -0.6377  0.2990 -0.2349
   84TCq2    C3 1282   2.821   0.809  10.509 -0.2969  0.0925  0.7089
   84TCq2    C4 1283   2.856   0.757  10.634 -0.5300 -0.1326  0.1737
   84TCq2    C5 1284   2.798   0.807  10.742 -0.5723  0.5096 -0.3616
   84TCq2    C6 1285   2.702   0.904  10.733 -0.0054  0.3838 -1.0843
   84TCq2    C7 1286   2.670   0.962  10.610  0.1589 -0.9344 -0.1203
   84TCq2    C8 1287   2.580   0.903  10.821  0.0251  0.3690 -0.7191
   84TCq2    O4 1288   2.484   0.956  10.775  0.2800  0.3758  0.0093
   84TCq2    C9 1289   2.964   0.676  10.647  0.7394  1.0906  1.0594
   84TCq2    O5 1290   3.037   0.659  10.548  0.6404  0.3531  0.2922
   84TCq2    O6 1291   2.997   0.633  10.762  0.1945 -0.3309 -0.2248
   84TCq2    H2 1292   2.878   0.773  10.424 -1.0441  1.0926 -0.2131
   84TCq2    H3 1293   2.823   0.760  10.836  0.3902  0.1167 -0.8068
   84TCq2    H4 1294   2.603   1.047  10.604  2.5196  0.8835 -1.0733
   85MPD2     C 1295   2.080   3.560  16.067 -0.8023  0.2138 -1.0299
   85MPD2    C1 1296   2.202   3.490  16.059 -0.0847 -0.9434 -0.6422
   85MPD2    C2 1297   2.302   3.542  15.984 -0.5618  0.3429  0.2330
   85MPD2    C3 1298   2.282   3.657  15.909 -0.1478  0.1252 -0.3093
   85MPD2    C4 1299   2.154   3.719  15.918 -0.3623 -0.3688  0.5286
   85MPD2    C5 1300   2.058   3.675  15.995  0.2150 -0.0615 -0.1226
   85MPD2     H 1301   2.398   3.493  15.973 -0.8929 -1.0114  3.3533
   85MPD2    H1 1302   2.136   3.810  15.863  2.9377  0.6743  1.1669
   85MPD2    H2 1303   2.015   3.513  16.140 -1.9609  2.1220 -0.8473
   85MPD2    H3 1304   1.958   3.715  16.005  1.0123  1.7389  0.6650
   85MPD2     N 1305   2.392   3.716  15.832 -0.4436 -0.4868 -0.1332
   85MPD2    H5 1306   2.475   3.658  15.829  0.0858  0.2266  0.9700
   85MPD2    N1 1307   2.222   3.365  16.131  0.5235  0.0188 -0.0617
   85MPD2    H7 1308   2.317   3.331  16.134  0.0716 -1.1593  0.5168
   86TCq2    C1 1309   2.388   3.833  15.755 -0.3704  0.0852  0.1705
   86TCq2    O2 1310   2.292   3.896  15.710 -0.3071  0.7698 -0.4277
   86TCq2    C2 1311   2.518   3.871  15.696  0.5936  0.0667 -0.1197
   86TCq2    C3 1312   2.513   3.967  15.594  0.9776 -0.3926 -0.6453
   86TCq2    C4 1313   2.622   3.991  15.521  0.1050  1.0243 -0.1300
   86TCq2    C5 1314   2.740   3.923  15.547  0.2664  0.2670  0.3966
   86TCq2    C6 1315   2.752   3.839  15.657  0.5100  0.0063 -0.1477
   86TCq2    C7 1316   2.638   3.810  15.733 -0.4741 -0.3515 -0.4454
   86TCq2    C8 1317   2.869   3.750  15.668  0.3628 -0.3546  0.5689
   86TCq2    O4 1318   2.896   3.707  15.781  0.4189  0.7353  0.2229
   86TCq2    C9 1319   2.614   4.077  15.406 -0.5001  0.0402 -0.5025
   86TCq2    O5 1320   2.701   4.065  15.313  0.1902 -0.3976  0.6970
   86TCq2    O6 1321   2.530   4.168  15.408 -0.6182  0.1921 -0.0850
   86TCq2    H2 1322   2.421   4.014  15.562 -0.0827 -1.2602  1.1091
   86TCq2    H3 1323   2.821   3.940  15.477 -0.3320 -1.2644 -0.6629
   86TCq2    H4 1324   2.638   3.745  15.820 -0.9132  0.5805  0.2416
   87MPD2     C 1325   4.194   2.473   1.272 -0.2770  0.6250  0.1194
   87MPD2    C1 1326   4.127   2.524   1.159 -0.6748 -0.0869 -0.5661
   87MPD2    C2 1327   4.142   2.662   1.124  0.0678 -0.0377 -0.7112
   87MPD2    C3 1328   4.238   2.736   1.194  0.0320  0.4484 -0.0821
   87MPD2    C4 1329   4.297   2.689   1.305 -0.4438 -0.6203  0.1069
   87MPD2    C5 1330   4.277   2.555   1.341 -0.2755 -0.5403 -0.2818
   87MPD2     H 1331   4.083   2.701   1.042  0.4430  0.2300 -0.8516
   87MPD2    H1 1332   4.369   2.750   1.358 -0.6786 -0.9711  0.8274
   87MPD2    H2 1333   4.174   2.374   1.311  0.3358 -0.5606 -2.5507
   87MPD2    H3 1334   4.334   2.515   1.425 -0.0854  2.4018  0.9933
   87MPD2     N 1335   4.264   2.866   1.138 -0.4009 -0.0223  0.1941
   87MPD2    H5 1336   4.217   2.871   1.049 -0.5830 -1.4039  0.2136
   87MPD2    N1 1337   4.065   2.428   1.071  0.3723 -0.9300 -0.0782
   87MPD2    H7 1338   4.083   2.330   1.089  0.2819 -1.2050 -1.4477
   88TCq2    C1 1339   3.981   2.468   0.966  0.7001  0.2460 -0.4719
   88TCq2    O2 1340   3.912   2.568   0.968 -1.0249  0.2564 -0.5613
   88TCq2    C2 1341   3.979   2.392   0.838 -0.1362  0.6848 -0.5796
   88TCq2    C3 1342   3.951   2.470   0.726  0.1317  0.0870  0.0024
   88TCq2    C4 1343   4.016   2.441   0.611  0.4812 -0.0435 -1.1570
   88TCq2    C5 1344   4.112   2.343   0.598 -0.1206  0.5498  0.1141
   88TCq2    C6 1345   4.123   2.262   0.708  0.2413 -0.1181  0.3254
   88TCq2    C7 1346   4.066   2.290   0.827  0.1751  0.1125 -0.9219
   88TCq2    C8 1347   4.241   2.178   0.706  0.5290 -0.0614 -0.2409
   88TCq2    O4 1348   4.317   2.194   0.613 -0.2183 -0.3061  0.2993
   88TCq2    C9 1349   4.004   2.539   0.501 -0.5043 -1.2717  0.4058
   88TCq2    O5 1350   3.925   2.638   0.516  0.5578 -0.7319  0.0743
   88TCq2    O6 1351   4.081   2.528   0.400  0.0709  0.5247 -0.3930
   88TCq2    H2 1352   3.878   2.550   0.732  2.5911  2.3586 -0.4425
   88TCq2    H3 1353   4.158   2.320   0.503 -1.1499 -2.8193  0.4294
   88TCq2    H4 1354   4.085   2.229   0.915 -1.3278  0.9852 -0.0063
   89MPD2     C 1355   0.634   4.450   1.683 -0.3876 -0.0783 -0.3425
   89MPD2    C1 1356   0.557   4.562   1.718  0.7459 -0.1673  0.5533
   89MPD2    C2 1357   0.628   4.679   1.734  0.8455 -0.1412  0.0264
   89MPD2    C3 1358   0.762   4.691   1.714 -0.2442 -0.2497 -0.3727
   89MPD2    C4 1359   0.831   4.574   1.688 -0.1891  0.0948  0.2298
   89MPD2    C5 1360   0.771   4.453   1.676 -0.2162  0.4555 -0.0563
   89MPD2     H 1361   0.560   0.039   1.744  1.1432  0.0994  0.0155
   89MPD2    H1 1362   0.938   4.560   1.682 -0.0037  1.1565  1.0265
   89MPD2    H2 1363   0.590   4.354   1.662  2.3143 -1.9860  2.7403
   89MPD2    H3 1364   0.831   4.370   1.643  1.6872  2.2013 -1.0164
   89MPD2     N 1365   0.821   0.090   1.725 -0.2314 -0.0207 -0.3476
   89MPD2    H5 1366   0.758   0.157   1.767  0.9103 -0.9846  2.9214
   89MPD2    N1 1367   0.420   4.565   1.729  0.4868  0.2063 -0.7348
   89MPD2    H7 1368   0.372   4.645   1.768 -1.5599 -0.7011 -1.3252
   90TCq2    C1 1369   0.954   0.127   1.709  0.5105  0.1026 -0.5256
   90TCq2    O2 1370   1.046   0.059   1.676 -0.3471  0.2959  0.4360
   90TCq2    C2 1371   0.978   0.268   1.730  0.4132 -0.6998  0.1822
   90TCq2    C3 1372   1.112   0.303   1.729 -0.2901 -0.0774 -0.0976
   90TCq2    C4 1373   1.136   0.439   1.700 -1.3141  0.4973 -0.1338
   90TCq2    C5 1374   1.038   0.528   1.671 -0.3607  0.0078 -0.1714
   90TCq2    C6 1375   0.909   0.487   1.681  0.4087 -0.3024 -0.1140
   90TCq2    C7 1376   0.874   0.358   1.708 -0.6748 -0.7689 -0.7588
   90TCq2    C8 1377   0.805   0.574   1.625  0.5491  0.9336  0.1764
   90TCq2    O4 1378   0.687   0.551   1.652 -0.0288  0.5304 -0.2057
   90TCq2    C9 1379   1.271   0.490   1.696 -0.0253 -0.3043  0.0116
   90TCq2    O5 1380   1.365   0.407   1.722 -0.6237 -0.0939 -0.1929
   90TCq2    O6 1381   1.280   0.594   1.631  0.3481 -0.1965 -0.4034
   90TCq2    H2 1382   1.187   0.229   1.757 -0.0991 -0.3433 -1.3201
   90TCq2    H3 1383   1.074   0.629   1.652 -2.4104  0.6031 -0.9425
   90TCq2    H4 1384   0.773   0.332   1.678 -0.6835 -1.2566 -0.2992
   91TMC2    C1 1385   2.716   4.696  16.436 -0.5805 -0.0753 -0.0139
   91TMC2    C2 1386   2.769   0.030  16.324  0.4873  0.1690  0.5312
   91TMC2    C3 1387   2.687   0.069  16.225  0.4218  0.4475 -0.6326
   91TMC2    C4 1388   2.580   4.666  16.443 -0.9223 -0.8279 -0.8440
   91TMC2    C5 1389   2.505   4.709  16.335 -0.4041 -0.6644  0.1042
   91TMC2    C6 1390   2.551   0.058  16.231  0.6239 -0.8264  0.5180
   91TMC2     C 1391   2.807   4.642  16.538  0.0747 -0.4517  0.2557
   91TMC2     O 1392   2.754   4.549  16.604 -0.1605 -0.0838 -0.3509
   91TMC2     H 1393   2.876   0.036  16.309  0.5364  2.4494  1.6964
   91TMC2    H1 1394   2.541   4.615  16.530  2.7438 -0.3011  1.1166
   91TMC2    H2 1395   2.479   0.090  16.156 -0.5392 -0.6955  1.6766
   91TMC2    C7 1396   2.360   4.691  16.364  0.3501 -0.1398  0.1724
   91TMC2    C8 1397   2.757   0.129  16.119  0.2841  0.2464 -0.0826
   91TMC2    O1 1398   2.338   4.670  16.482 -0.1153  0.5360  0.3082
   91TMC2    O2 1399   2.852   0.207  16.133 -0.2475 -0.3814 -0.1750
   91TMC2    O5 1400   2.663   0.128  16.026 -0.0694 -0.4562  0.3862
   91TMC2    H5 1401   2.622   0.039  16.026 -1.3968  0.1537 -1.9912
   92MPD2     C 1402   3.046   4.567  16.701  0.0554 -0.3944  0.3246
   92MPD2    C1 1403   3.044   4.671  16.611 -0.5258 -0.2337 -0.4255
   92MPD2    C2 1404   3.153   0.028  16.595  0.5809 -0.4922 -0.8201
   92MPD2    C3 1405   3.266   0.001  16.670 -0.4163 -0.6492 -1.0881
   92MPD2    C4 1406   3.261   4.630  16.763 -0.7303 -0.4273  0.0902
   92MPD2    C5 1407   3.158   4.545  16.778 -0.1639  0.4597  0.2135
   92MPD2     H 1408   3.148   0.107  16.521  0.7285 -0.1528 -0.4651
   92MPD2    H1 1409   3.344   4.605  16.829 -1.7266  2.0735  2.3091
   92MPD2    H2 1410   2.964   4.498  16.717 -0.0991 -0.2011  0.3731
   92MPD2    H3 1411   3.158   4.467  16.854 -0.2360  1.9172  1.7002
   92MPD2     N 1412   3.386   0.073  16.644 -0.2479  0.0280  0.2146
   92MPD2    H5 1413   3.382   0.137  16.565 -0.6847 -0.2465  0.0110
   92MPD2    N1 1414   2.926   4.709  16.541  0.1168 -0.0741  0.2803
   92MPD2    H7 1415   2.940   0.075  16.497 -2.0063  0.8863  1.6405
   93MPD2     C 1416   4.038   0.092  13.369 -0.1757 -0.2115  0.6551
   93MPD2    C1 1417   3.999   0.080  13.501 -0.1628  0.1940 -0.0983
   93MPD2    C2 1418   3.876   0.120  13.543  0.5898  0.3241  0.4956
   93MPD2    C3 1419   3.794   0.194  13.454  0.8432  0.5617 -0.1630
   93MPD2    C4 1420   3.836   0.205  13.326 -0.3005 -0.0620 -0.2514
   93MPD2    C5 1421   3.950   0.150  13.280 -0.1111 -0.8344  0.5524
   93MPD2     H 1422   3.842   0.111  13.645 -0.7648  2.6040  0.2380
   93MPD2    H1 1423   3.771   0.256  13.256  0.6706  0.9381 -0.4209
   93MPD2    H2 1424   4.132   0.049  13.334  0.4434  1.4235  0.3278
   93MPD2    H3 1425   3.965   0.157  13.173  2.4885 -1.5111  0.8643
   93MPD2     N 1426   3.670   0.243  13.488 -0.5920 -0.7098  0.4940
   93MPD2    H5 1427   3.623   0.293  13.413  0.4531 -1.0522 -0.3904
   93MPD2    N1 1428   4.088   0.036  13.597  0.3721 -0.5241  0.1694
   93MPD2    H7 1429   4.047   0.011  13.687  1.5305 -1.3943  0.4537
   94TCq2    C1 1430   4.227   0.036  13.586 -0.1945  0.0245 -0.6844
   94TCq2    O2 1431   4.307   0.062  13.495 -0.1583 -0.3491 -0.3996
   94TCq2    C2 1432   4.301   4.720  13.704  0.1866  0.1227  0.1843
   94TCq2    C3 1433   4.254   0.071  13.811 -0.1896 -0.2896 -0.2484
   94TCq2    C4 1434   4.329   0.164  13.873 -0.1417 -0.0673  0.0305
   94TCq2    C5 1435   4.455   0.176  13.829  0.0606  0.8024 -0.2123
   94TCq2    C6 1436   4.511   0.093  13.728  0.6997  0.2631 -0.1030
   94TCq2    C7 1437   4.433   4.723  13.667  0.0393 -0.5054  0.1909
   94TCq2    C8 1438   4.652   0.094  13.691  0.0405  0.1111 -0.1126
   94TCq2    O4 1439   4.693   0.023  13.598  0.1741 -0.1424 -0.0683
   94TCq2    C9 1440   4.273   0.254  13.965  0.9714  0.3181 -0.0903
   94TCq2    O5 1441   4.358   0.333  14.015 -0.4095  0.9510  0.0227
   94TCq2    O6 1442   4.149   0.267  13.972 -0.2440  0.2321 -0.0728
   94TCq2    H2 1443   4.148   0.068  13.837 -0.1864  1.7647  0.0788
   94TCq2    H3 1444   4.513   0.254  13.877  0.0032  0.4519  0.4238
   94TCq2    H4 1445   4.470   4.654  13.592 -0.4218  0.0913 -0.5766
   95TMC2    C1 1446   4.390   1.750  16.146 -0.2714 -0.2498  0.8243
   95TMC2    C2 1447   4.402   1.868  16.212 -0.1038 -0.1322 -0.7742
   95TMC2    C3 1448   4.363   1.863  16.342 -0.7821  0.1032  0.6522
   95TMC2    C4 1449   4.347   1.631  16.202  0.1802 -0.4033  0.1571
   95TMC2    C5 1450   4.313   1.636  16.338 -0.1166  0.3935 -0.7382
   95TMC2    C6 1451   4.298   1.755  16.404 -0.0549  0.7867  0.8687
   95TMC2     C 1452   4.450   1.745  16.012  0.5541  0.3485  0.6191
   95TMC2     O 1453   4.529   1.836  15.992  0.2739  0.6731  0.1961
   95TMC2     H 1454   4.444   1.960  16.172 -2.2323  0.4699 -1.6458
   95TMC2    H1 1455   4.337   1.541  16.143 -0.9427  0.9682 -1.7795
   95TMC2    H2 1456   4.266   1.769  16.507 -1.8143 -0.5429  0.4947
   95TMC2    C7 1457   4.251   1.518  16.390  0.2636 -0.3304 -0.1431
   95TMC2    C8 1458   4.309   1.986  16.390  0.5517  0.2597  0.0333
   95TMC2    O1 1459   4.205   1.439  16.311  0.4372  0.5057 -0.1817
   95TMC2    O2 1460   4.296   2.019  16.505  0.3829 -0.0999  0.3055
   95TMC2    O5 1461   4.236   2.037  16.286  1.3254  0.0464  0.6847
   95TMC2    H5 1462   4.237   1.994  16.198  0.8328  1.2041  0.1096
   96MPD2     C 1463   4.594   1.495  15.591  0.9263  0.7039  0.5709
   96MPD2    C1 1464   4.636   1.622  15.636 -0.2793  0.4617  0.6655
   96MPD2    C2 1465   4.569   1.682  15.745  1.0109 -0.0825 -0.4653
   96MPD2    C3 1466   4.463   1.621  15.804  0.2188  0.0663  0.3036
   96MPD2    C4 1467   4.433   1.499  15.760 -0.7491  0.6579  0.3434
   96MPD2    C5 1468   4.483   1.439  15.652 -0.5680  0.2780 -0.4543
   96MPD2     H 1469   4.602   1.778  15.783 -0.3857  0.7708 -1.4373
   96MPD2    H1 1470   4.358   1.434  15.805 -2.9046  1.9914 -1.2824
   96MPD2    H2 1471   4.642   1.437  15.514 -0.2033 -1.7748  1.7281
   96MPD2    H3 1472   4.458   1.337  15.625 -2.9341  0.2131  1.9696
   96MPD2     N 1473   4.408   1.650  15.928 -0.0155  0.1499 -0.2813
   96MPD2    H5 1474   4.346   1.578  15.966  0.8232 -1.8421 -2.6467
   96MPD2    N1 1475   0.016   1.686  15.572 -0.7052 -0.2150  0.1345
   96MPD2    H7 1476   0.070   1.629  15.508 -2.3258 -2.1786  0.5163
   97MPD2     C 1477   1.526   3.577   0.741 -0.0544 -0.1233  0.1299
   97MPD2    C1 1478   1.429   3.671   0.710  0.4341  0.6317  0.1402
   97MPD2    C2 1479   1.409   3.706   0.580 -0.4085 -0.6781 -0.4041
   97MPD2    C3 1480   1.493   3.647   0.487  0.0572 -0.1538  1.0301
   97MPD2    C4 1481   1.595   3.560   0.522 -0.2605  0.1423 -0.2461
   97MPD2    C5 1482   1.612   3.522   0.648 -0.5224  1.0908  0.2928
   97MPD2     H 1483   1.324   3.770   0.562 -0.4970 -1.2122 -1.8818
   97MPD2    H1 1484   1.667   3.525   0.450 -0.9083 -2.1141  0.2197
   97MPD2    H2 1485   1.544   3.530   0.837 -0.3129  0.2452  0.3569
   97MPD2    H3 1486   1.693   3.455   0.677 -2.7980 -1.1471  1.4578
   97MPD2     N 1487   1.496   3.685   0.354 -0.2782  0.3776  0.5834
   97MPD2    H5 1488   1.564   3.639   0.294 -0.4292  0.5077  0.3157
   97MPD2    N1 1489   1.362   3.733   0.815  0.0705 -0.1745  0.1739
   97MPD2    H7 1490   1.378   3.693   0.907 -0.3398 -0.1010  0.2780
   98TCq2    C1 1491   1.433   3.786   0.291 -0.6033  0.1773  1.2004
   98TCq2    O2 1492   1.361   3.873   0.338 -0.4792 -0.1001 -0.2575
   98TCq2    C2 1493   1.473   3.800   0.150  0.5222  0.3083  0.2638
   98TCq2    C3 1494   1.533   3.695   0.080 -0.2340  0.2550 -0.0257
   98TCq2    C4 1495   1.601   3.729  17.663 -0.2231  0.3568  0.3449
   98TCq2    C5 1496   1.626   3.855  17.619 -0.5726 -0.4120 -0.0616
   98TCq2    C6 1497   1.559   3.955  17.687  0.0492  0.6898  0.0084
   98TCq2    C7 1498   1.488   3.932   0.107  0.0153 -0.0044  0.2666
   98TCq2    C8 1499   1.619   4.085  17.676  0.4308  0.4295 -0.3765
   98TCq2    O4 1500   1.734   4.085  17.642  0.0518 -0.1008  0.5867
   98TCq2    C9 1501   1.658   3.623  17.575 -0.1078 -0.3799 -0.7237
   98TCq2    O5 1502   1.713   3.654  17.463 -0.6994  0.7457  0.1529
   98TCq2    O6 1503   1.675   3.515  17.631  0.3565 -0.0163  0.6676
   98TCq2    H2 1504   1.527   3.593   0.115  3.0988 -0.2384 -0.9512
   98TCq2    H3 1505   1.677   3.877  17.526 -2.0668  0.5441 -0.6589
   98TCq2    H4 1506   1.450   4.015   0.166 -0.9112  0.8795 -1.5898
   99MPD2     C 1507   0.562   1.647   1.443 -0.5835 -0.7971 -0.4752
   99MPD2    C1 1508   0.448   1.673   1.369  0.2542  0.0920 -0.2468
   99MPD2    C2 1509   0.361   1.574   1.322  0.7510 -0.3767  0.3875
   99MPD2    C3 1510   0.383   1.445   1.356  0.3066 -0.2537 -0.6747
   99MPD2    C4 1511   0.497   1.412   1.434 -0.6024 -0.3609 -0.0515
   99MPD2    C5 1512   0.577   1.513   1.466  1.2589 -0.5526 -0.2323
   99MPD2     H 1513   0.278   1.606   1.259  0.3157 -0.9993  0.6429
   99MPD2    H1 1514   0.512   1.311   1.468  1.6484  0.4152  1.2470
   99MPD2    H2 1515   0.634   1.722   1.476 -0.3299 -0.7039 -1.2431
   99MPD2    H3 1516   0.666   1.475   1.516  1.5452  2.9330  1.9073
   99MPD2     N 1517   0.293   1.348   1.313  0.0528 -0.3599 -0.2633
   99MPD2    H5 1518   0.223   1.391   1.254 -0.1560  0.8083  0.8297
   99MPD2    N1 1519   0.425   1.809   1.323 -0.3154  0.3115 -0.6915
   99MPD2    H7 1520   0.337   1.828   1.276 -0.0594  0.1434 -1.2423
  100TCq2    C1 1521   0.519   1.914   1.336  0.5774 -0.5518 -0.2560
  100TCq2    O2 1522   0.643   1.913   1.331  0.0158  0.3043 -0.1655
  100TCq2    C2 1523   0.458   2.042   1.324 -0.5668 -0.1639  0.5605
  100TCq2    C3 1524   0.527   2.147   1.264  0.2461  0.3282  0.1496
  100TCq2    C4 1525   0.451   2.255   1.219 -0.0805  0.5285 -0.8819
  100TCq2    C5 1526   0.315   2.261   1.235  0.4951  0.2192 -0.4738
  100TCq2    C6 1527   0.261   2.165   1.321  0.0626 -0.6357 -0.5258
  100TCq2    C7 1528   0.327   2.055   1.366  0.3926 -0.4662 -0.0952
  100TCq2    C8 1529   0.137   2.208   1.378  0.0305 -0.6459 -0.2769
  100TCq2    O4 1530   0.118   2.327   1.371 -0.1375 -0.1702 -0.0656
  100TCq2    C9 1531   0.520   2.365   1.156  0.0624 -0.3051  0.0459
  100TCq2    O5 1532   0.639   2.341   1.132  0.1402  0.0356  0.1447
  100TCq2    O6 1533   0.458   2.471   1.130 -0.2278  0.1251 -0.3691
  100TCq2    H2 1534   0.632   2.139   1.238  0.5389 -1.2138  1.8638
  100TCq2    H3 1535   0.256   2.341   1.190  0.4112  0.0476 -0.6692
  100TCq2    H4 1536   0.290   1.997   1.450 -1.1949 -0.0364 -0.5025
  101MPD2     C 1537   1.129   2.499  12.893  0.3302  0.6262  0.7407
  101MPD2    C1 1538   1.001   2.548  12.899 -0.5896  0.0198  0.1047
  101MPD2    C2 1539   0.903   2.476  12.966 -0.2018  0.6679  0.4424
  101MPD2    C3 1540   0.931   2.350  13.012 -0.8783 -0.2131 -0.3651
  101MPD2    C4 1541   1.063   2.296  12.998  0.4354  0.1083 -0.7676
  101MPD2    C5 1542   1.158   2.380  12.943  0.4780  0.4206  0.0918
  101MPD2     H 1543   0.801   2.511  12.961 -0.5826 -0.2111  1.9967
  101MPD2    H1 1544   1.092   2.197  13.030 -0.3550  1.3410  3.7521
  101MPD2    H2 1545   1.210   2.543  12.836  1.5508 -1.9795  0.4944
  101MPD2    H3 1546   1.252   2.334  12.919  0.9966  2.5736 -2.1072
  101MPD2     N 1547   0.822   2.281  13.073  0.1282  0.2629 -0.6295
  101MPD2    H5 1548   0.733   2.330  13.077 -0.8598 -1.5606 -0.3295
  101MPD2    N1 1549   0.975   2.669  12.828 -0.1994  0.3522 -0.0487
  101MPD2    H7 1550   1.061   2.718  12.801 -0.5023  0.4561 -0.8364
  102TCq2    C1 1551   1.116   3.113  12.734  0.4058  0.9080  0.2171
  102TCq2    O2 1552   1.149   3.182  12.640  0.1601 -0.1421 -0.2231
  102TCq2    C2 1553   0.979   3.061  12.732 -0.1339  0.1933  0.0684
  102TCq2    C3 1554   0.919   3.078  12.610 -0.1168 -0.2697 -0.6249
  102TCq2    C4 1555   0.816   2.998  12.572  0.9178 -0.3213  0.3397
  102TCq2    C5 1556   0.779   2.900  12.650 -0.1019 -0.3970  0.2852
  102TCq2    C6 1557   0.862   2.862  12.750 -0.1891 -0.0458  0.0337
  102TCq2    C7 1558   0.961   2.941  12.791 -0.9393 -1.0096  0.0768
  102TCq2    C8 1559   0.848   2.726  12.809 -0.1763 -0.1184  0.2432
  102TCq2    O4 1560   0.738   2.669  12.792 -0.2481 -0.1753 -0.2330
  102TCq2    C9 1561   0.748   3.010  12.444 -0.4707 -0.1189  0.2999
  102TCq2    O5 1562   0.812   3.069  12.349  0.5234 -0.5077  0.3830
  102TCq2    O6 1563   0.644   2.936  12.423  0.3880  0.4676 -0.2460
  102TCq2    H2 1564   0.947   3.162  12.547 -1.2077  0.9792  0.5795
  102TCq2    H3 1565   0.703   2.832  12.613 -0.4444  0.0685  0.1358
  102TCq2    H4 1566   1.013   2.911  12.881 -1.0214 -0.6866  0.2324
  103TMC2    C1 1567   4.101   2.508  12.261 -0.4843 -0.2371 -0.8851
  103TMC2    C2 1568   4.152   2.372  12.274  0.4724  0.3975  0.4372
  103TMC2    C3 1569   4.231   2.348  12.380  0.3771 -0.4777 -0.6140
  103TMC2    C4 1570   4.134   2.600  12.352  0.0788 -0.4549  0.2424
  103TMC2    C5 1571   4.204   2.563  12.464 -0.5967 -0.5799  0.4334
  103TMC2    C6 1572   4.266   2.445  12.474 -1.0322 -0.1179  0.6246
  103TMC2     C 1573   4.009   2.535  12.149  0.1791  0.6702 -1.2106
  103TMC2     O 1574   3.965   2.648  12.142 -0.0640 -0.7180  0.3671
  103TMC2     H 1575   4.147   2.293  12.201  0.2233  1.3264 -0.5513
  103TMC2    H1 1576   4.084   2.697  12.348  1.7565  0.4858  2.3218
  103TMC2    H2 1577   4.334   2.421  12.555  0.0873 -1.0433 -0.5786
  103TMC2    C7 1578   4.231   2.654  12.576 -0.1924  0.2857  0.0098
  103TMC2    C8 1579   4.312   2.223  12.369  0.1052 -0.8569  0.3790
  103TMC2    O1 1580   4.139   2.710  12.636 -0.1598  0.0111 -0.1369
  103TMC2    O2 1581   4.430   2.224  12.397  0.2388  0.8470 -0.3569
  103TMC2    O5 1582   4.231   2.116  12.399  0.2932  0.3518 -0.0027
  103TMC2    H5 1583   4.137   2.138  12.379 -0.2779 -3.0617 -1.1024
  104MPD2     C 1584   3.860   2.300  11.926 -0.5398 -0.1855 -0.1914
  104MPD2    C1 1585   3.903   2.423  11.964 -0.1321 -0.3031 -0.0988
  104MPD2    C2 1586   3.854   2.536  11.900  0.2078  0.8244  1.3262
  104MPD2    C3 1587   3.787   2.512  11.780  0.2572  0.3516  0.2819
  104MPD2    C4 1588   3.752   2.384  11.736  0.8547  0.2505 -0.2759
  104MPD2    C5 1589   3.787   2.281  11.814 -0.2445 -0.3933 -0.3844
  104MPD2     H 1590   3.899   2.631  11.925  3.8953 -0.4166 -0.5019
  104MPD2    H1 1591   3.691   2.358  11.650 -0.8432 -4.8107  2.4882
  104MPD2    H2 1592   3.893   2.215  11.985  2.4055 -0.3813 -2.1209
  104MPD2    H3 1593   3.762   2.181  11.779  0.5997 -0.9731  0.6873
  104MPD2     N 1594   3.746   2.620  11.699  0.5185 -1.0331  0.2484
  104MPD2    H5 1595   3.768   2.711  11.738 -0.5535 -0.8164  0.3343
  104MPD2    N1 1596   3.981   2.420  12.077  0.2533  0.5840  0.1688
  104MPD2    H7 1597   4.010   2.330  12.113  1.8524  1.5926  1.4289
  105MPD2     C 1598   0.762   1.535   0.086 -0.2818  0.1881 -0.0070
  105MPD2    C1 1599   0.711   1.655   0.043  0.8528  0.2017 -0.2225
  105MPD2    C2 1600   0.610   1.720   0.110 -0.8559 -0.6389 -0.4475
  105MPD2    C3 1601   0.561   1.665   0.224  0.6436 -0.2371 -1.0791
  105MPD2    C4 1602   0.610   1.536   0.264 -0.2328 -0.9914  0.0810
  105MPD2    C5 1603   0.706   1.465   0.193 -0.1671  0.0996 -0.4082
  105MPD2     H 1604   0.592   1.823   0.082 -2.6066 -0.7806  0.1721
  105MPD2    H1 1605   0.566   1.488   0.351  0.9171  3.7147  3.2090
  105MPD2    H2 1606   0.835   1.480   0.028 -1.9148 -2.1054  0.0860
  105MPD2    H3 1607   0.757   1.376   0.227 -1.1194  0.7885  2.7918
  105MPD2     N 1608   0.477   1.741   0.308 -0.4582  0.2994  0.6049
  105MPD2    H5 1609   0.450   1.833   0.275 -0.1526  1.0770  2.4597
  105MPD2    N1 1610   0.773   1.730  17.630 -0.2335  0.4122 -0.1861
  105MPD2    H7 1611   0.731   1.820  17.610  1.1419  0.4687 -2.8770
  106TCq2    C1 1612   0.412   1.703   0.425 -0.4303 -0.4782  0.2450
  106TCq2    O2 1613   0.392   1.593   0.474  0.0272  0.2913  0.7791
  106TCq2    C2 1614   0.327   1.806   0.483  0.2665 -0.0779 -0.3075
  106TCq2    C3 1615   0.345   1.940   0.452 -0.1416  0.5034 -1.0591
  106TCq2    C4 1616   0.279   2.035   0.524 -0.6056  0.1102 -0.3908
  106TCq2    C5 1617   0.198   1.994   0.626  0.6447 -0.8288 -0.3769
  106TCq2    C6 1618   0.179   1.860   0.649  0.0762  0.2776 -0.2087
  106TCq2    C7 1619   0.244   1.763   0.585 -0.0629 -0.2919 -0.1557
  106TCq2    C8 1620   0.055   1.811   0.715  0.2613  0.8530 -0.5077
  106TCq2    O4 1621   0.062   1.698   0.754  0.0333 -0.1046 -0.0594
  106TCq2    C9 1622   0.298   2.177   0.514 -0.0257 -0.5188 -0.6537
  106TCq2    O5 1623   0.206   2.245   0.574 -0.3407  0.2888  0.2994
  106TCq2    O6 1624   0.386   2.220   0.432 -0.2388 -0.9239 -0.4012
  106TCq2    H2 1625   0.430   1.975   0.394  0.1968  0.6215 -0.4975
  106TCq2    H3 1626   0.165   2.061   0.705 -0.2999 -0.9130 -0.6998
  106TCq2    H4 1627   0.227   1.659   0.610  3.2922 -1.0561 -1.1516
  107TMC2    C1 1628   1.848   1.301  11.307  0.1633  0.3409  0.5306
  107TMC2    C2 1629   1.912   1.411  11.264 -0.0164 -0.7740 -0.0678
  107TMC2    C3 1630   2.035   1.388  11.204 -0.2849  1.4485 -0.1898
  107TMC2    C4 1631   1.895   1.177  11.287  0.5988  0.0452  0.4011
  107TMC2    C5 1632   2.014   1.157  11.221 -0.5632  0.0098  0.1953
  107TMC2    C6 1633   2.084   1.268  11.182 -0.2256  0.1087  0.4572
  107TMC2     C 1634   1.728   1.318  11.387  0.2965 -0.2394  0.2538
  107TMC2     O 1635   1.711   1.240  11.480 -0.0255  0.1356  0.4307
  107TMC2     H 1636   1.878   1.512  11.286 -0.2353 -0.7128 -0.6849
  107TMC2    H1 1637   1.833   1.096  11.323  0.2689  0.5399  0.9562
  107TMC2    H2 1638   2.189   1.262  11.158  0.4457  0.9288  3.1797
  107TMC2    C7 1639   2.110   1.046  11.253 -0.1870  0.3602  0.1090
  107TMC2    C8 1640   2.102   1.503  11.144 -0.5295 -0.5345 -0.2874
  107TMC2    O1 1641   2.082   0.977  11.351  0.5758 -0.2822 -0.0193
  107TMC2    O2 1642   2.070   1.616  11.174  0.3306  0.0042  0.2353
  107TMC2    O5 1643   2.135   1.459  11.023  0.2286 -0.5508  0.3302
  107TMC2    H5 1644   2.145   1.362  11.017  2.3204 -0.2875 -0.6879
  108MPD2     C 1645   1.464   1.571  11.349 -0.3090  0.1911 -0.1813
  108MPD2    C1 1646   1.527   1.473  11.415 -0.1843  0.8052 -0.0765
  108MPD2    C2 1647   1.487   1.430  11.542  0.0353 -0.0498  0.6911
  108MPD2    C3 1648   1.386   1.497  11.604 -0.0980  0.1395  0.2654
  108MPD2    C4 1649   1.317   1.595  11.536 -0.7315  0.5555 -0.4908
  108MPD2    C5 1650   1.351   1.637  11.409 -0.2051 -0.5765  0.3365
  108MPD2     H 1651   1.532   1.347  11.595  1.1538  1.3346  1.9166
  108MPD2    H1 1652   1.236   1.647  11.587  2.0344  2.1848  2.2521
  108MPD2    H2 1653   1.495   1.597  11.249 -1.0075 -0.6058 -0.5981
  108MPD2    H3 1654   1.299   1.724  11.369  1.0679  0.2428  0.4423
  108MPD2     N 1655   1.328   1.459  11.731 -0.5569 -0.7021  0.3603
  108MPD2    H5 1656   1.251   1.519  11.760 -0.9045 -1.4494  1.0186
  108MPD2    N1 1657   1.638   1.415  11.345  0.0481 -0.1667 -0.1893
  108MPD2    H7 1658   1.664   1.462  11.259  1.5722 -2.6510 -1.1077
  109MPD2     C 1659   0.906   3.124   2.125 -0.0262 -0.2143 -0.2093
  109MPD2    C1 1660   0.920   3.191   1.999 -0.0527  0.7994 -0.7547
  109MPD2    C2 1661   1.035   3.257   1.973 -0.4080  0.1804  0.0540
  109MPD2    C3 1662   1.150   3.239   2.049 -0.3046 -0.4194 -0.4489
  109MPD2    C4 1663   1.132   3.172   2.169 -0.0858 -0.4525  0.4048
  109MPD2    C5 1664   1.010   3.119   2.208 -0.3608  0.5184  0.4755
  109MPD2     H 1665   1.058   3.312   1.882  0.5354 -0.5450 -0.1444
  109MPD2    H1 1666   1.211   3.167   2.243 -1.9914  1.0841  2.5686
  109MPD2    H2 1667   0.821   3.060   2.146 -0.9323  2.1929  3.4241
  109MPD2    H3 1668   0.988   3.076   2.306  0.8281 -2.6637 -0.6487
  109MPD2     N 1669   1.267   3.318   2.018 -0.2727  0.6083 -0.7142
  109MPD2    H5 1670   1.258   3.378   1.937  1.6461  0.5903 -0.9397
  109MPD2    N1 1671   0.808   3.178   1.912 -0.6100  1.1109 -0.0057
  109MPD2    H7 1672   0.736   3.113   1.942 -0.2752  1.0688  0.7285
  110TCq2    C1 1673   1.392   3.296   2.069  0.4236 -0.7576  0.7222
  110TCq2    O2 1674   1.430   3.209   2.145  0.1211  0.1135 -0.1152
  110TCq2    C2 1675   1.497   3.365   1.994 -0.7334 -0.0827 -0.2086
  110TCq2    C3 1676   1.620   3.310   2.002  1.1820  0.1825  0.1399
  110TCq2    C4 1677   1.718   3.360   1.926 -0.1677 -0.3125 -0.4553
  110TCq2    C5 1678   1.689   3.477   1.860 -0.9820 -0.2067 -0.0364
  110TCq2    C6 1679   1.571   3.543   1.864  0.8341  0.2253 -0.4153
  110TCq2    C7 1680   1.470   3.492   1.932  0.0819 -0.2405 -0.1787
  110TCq2    C8 1681   1.534   3.651   1.774  0.4833 -0.5884 -0.3240
  110TCq2    O4 1682   1.415   3.659   1.732  0.0387  0.8386 -0.3527
  110TCq2    C9 1683   1.846   3.296   1.926 -0.0565 -0.4692  0.3303
  110TCq2    O5 1684   1.879   3.218   2.020 -0.5626  0.1488 -0.7531
  110TCq2    O6 1685   1.922   3.328   1.831 -0.3320 -0.2740  0.0498
  110TCq2    H2 1686   1.638   3.224   2.066  0.0371  0.2237  0.5166
  110TCq2    H3 1687   1.777   3.506   1.802  0.1897 -2.8653  0.3973
  110TCq2    H4 1688   1.377   3.544   1.953  0.6376  0.4364  0.6057
  111TMC2    C1 1689   1.123   3.214  11.433  0.5431 -0.5890 -0.1420
  111TMC2    C2 1690   1.047   3.099  11.468  0.4777 -0.0324 -0.0451
  111TMC2    C3 1691   1.075   3.031  11.576  0.6813 -0.1338 -0.2848
  111TMC2    C4 1692   1.225   3.267  11.505  0.0887 -0.1590 -0.9500
  111TMC2    C5 1693   1.253   3.182  11.607  0.4419 -0.6284 -0.1128
  111TMC2    C6 1694   1.184   3.074  11.643 -0.2600  0.1511  0.8951
  111TMC2     C 1695   1.079   3.301  11.331  0.8120 -0.6484 -1.7294
  111TMC2     O 1696   1.144   3.402  11.307  0.4263 -0.5747  0.9049
  111TMC2     H 1697   0.963   3.062  11.409  0.4489 -0.9677  0.5897
  111TMC2    H1 1698   1.281   3.359  11.496 -2.7305  1.7345  1.2985
  111TMC2    H2 1699   1.219   3.006  11.720 -1.6880 -0.9327  0.5912
  111TMC2    C7 1700   1.358   3.219  11.705  0.1619  0.2624 -0.2300
  111TMC2    C8 1701   1.083   2.891  11.550  0.0243 -0.7136 -0.0678
  111TMC2    O1 1702   1.342   3.197  11.823 -0.3402  0.1189  0.0124
  111TMC2    O2 1703   1.093   2.832  11.445  0.5463  0.0277  0.3266
  111TMC2    O5 1704   1.081   2.831  11.674  0.4344  0.2459  0.4547
  111TMC2    H5 1705   1.051   2.897  11.741 -2.0215 -1.3869  0.9751
  112MPD2     C 1706   0.724   3.389  10.980  0.2250  0.2418 -0.4776
  112MPD2    C1 1707   0.856   3.437  10.981  0.1363  0.2328  0.1806
  112MPD2    C2 1708   0.937   3.400  11.088 -0.5524  0.4668 -0.6629
  112MPD2    C3 1709   0.887   3.315  11.182 -0.2993 -0.3523  0.0775
  112MPD2    C4 1710   0.765   3.257  11.172  0.0044 -0.7799 -0.4749
  112MPD2    C5 1711   0.679   3.300  11.068 -0.9532 -0.1479  0.2413
  112MPD2     H 1712   1.040   3.433  11.093 -0.4026 -0.1482  0.3140
  112MPD2    H1 1713   0.718   3.190  11.242  2.0081 -2.4475 -0.7322
  112MPD2    H2 1714   0.660   3.413  10.895  0.0552  0.7813 -0.2006
  112MPD2    H3 1715   0.579   3.261  11.054 -0.6304 -0.9850  0.2571
  112MPD2     N 1716   0.954   3.265  11.293  0.5275  0.1751  0.1603
  112MPD2    H5 1717   0.903   3.203  11.354  1.4011 -1.6427 -0.9438
  112MPD2    N1 1718   0.911   3.532  10.887  0.1022  0.0863 -0.2363
  112MPD2    H7 1719   0.997   3.575  10.921  0.0236 -0.2949  0.4438
  113MPD2     C 1720   4.258   1.405   1.346 -0.7206  0.7211  0.1560
  113MPD2    C1 1721   4.192   1.514   1.290  1.0976 -0.5312 -0.0832
  113MPD2    C2 1722   4.072   1.496   1.220 -0.8030  0.1923 -0.5142
  113MPD2    C3 1723   4.040   1.370   1.179 -0.3410 -0.2323  0.4435
  113MPD2    C4 1724   4.117   1.260   1.229  0.4635  0.4201 -0.1693
  113MPD2    C5 1725   4.229   1.279   1.308 -0.2753  0.4624 -0.3445
  113MPD2     H 1726   4.016   1.581   1.182 -0.1670  1.3216  1.0757
  113MPD2    H1 1727   4.098   1.159   1.194  3.0159  0.0220 -0.3616
  113MPD2    H2 1728   4.342   1.428   1.411  1.2160  1.7545 -2.7237
  113MPD2    H3 1729   4.288   1.196   1.345 -0.9219 -0.2592 -0.9408
  113MPD2     N 1730   3.935   1.331   1.083  0.0166 -0.6812 -0.1774
  113MPD2    H5 1731   3.920   1.233   1.062 -1.3142 -0.8064  1.2960
  113MPD2    N1 1732   4.210   1.654   1.318  0.2028  0.8406  0.8452
  113MPD2    H7 1733   4.138   1.717   1.284  0.3997  1.1235  0.9533
  114TCq2    C1 1734   3.846   1.415   1.024  0.2168 -0.2490  0.1653
  114TCq2    O2 1735   3.838   1.533   1.034 -0.0358 -0.0650  0.8577
  114TCq2    C2 1736   3.770   1.343   0.921 -0.3302 -0.2017  0.5416
  114TCq2    C3 1737   3.725   1.423   0.822  0.0053 -0.2864 -0.5992
  114TCq2    C4 1738   3.639   1.377   0.732  0.4528  0.0926  0.0001
  114TCq2    C5 1739   3.605   1.250   0.728 -0.1873 -0.0249 -0.4282
  114TCq2    C6 1740   3.661   1.167   0.823 -0.0072  0.0753 -0.0444
  114TCq2    C7 1741   3.742   1.206   0.927 -0.3118 -0.3035 -0.0579
  114TCq2    C8 1742   3.632   1.025   0.794  0.4268  0.1555 -0.4993
  114TCq2    O4 1743   3.603   0.994   0.679 -0.0247 -0.8580 -0.6025
  114TCq2    C9 1744   3.592   1.465   0.623 -0.0731 -0.2284  0.5495
  114TCq2    O5 1745   3.508   1.419   0.541  0.6593  0.4850  0.0549
  114TCq2    O6 1746   3.631   1.584   0.600 -0.3267  0.1411 -0.3053
  114TCq2    H2 1747   3.749   1.529   0.813 -1.3854  0.0463 -0.3293
  114TCq2    H3 1748   3.541   1.209   0.651 -0.9589 -0.8015  0.6241
  114TCq2    H4 1749   3.781   1.145   1.007 -0.9149 -0.0122  0.4520
  115TMC2    C1 1750   0.393   3.842  17.383  0.2058  0.5737 -0.1268
  115TMC2    C2 1751   0.386   3.759  17.492 -0.0619 -0.0554  0.6840
  115TMC2    C3 1752   0.418   3.810  17.616 -0.3834 -1.3516  0.0896
  115TMC2    C4 1753   0.412   3.981  17.397  0.2994 -0.1854 -0.6752
  115TMC2    C5 1754   0.443   4.027  17.525  0.0696 -0.0191  0.6815
  115TMC2    C6 1755   0.446   3.938  17.631  0.2604 -0.0561 -0.1802
  115TMC2     C 1756   0.317   3.784  17.267  0.0254 -0.6359 -0.1563
  115TMC2     O 1757   0.237   3.696  17.291 -0.4791  0.5040  0.8727
  115TMC2     H 1758   0.356   3.657  17.474 -0.6989  0.3436 -0.4965
  115TMC2    H1 1759   0.411   4.047  17.311  2.3490  0.6746 -0.0624
  115TMC2    H2 1760   0.456   3.974   0.035 -0.0241 -0.8076  0.1119
  115TMC2    C7 1761   0.492   4.159  17.550  0.8516 -0.5426  0.0999
  115TMC2    C8 1762   0.424   3.720   0.027 -0.0948 -0.7338  0.0190
  115TMC2    O1 1763   0.459   4.209  17.657 -0.3889 -0.3143 -0.4676
  115TMC2    O2 1764   0.502   3.713   0.121  0.0111  0.4125 -0.6364
  115TMC2    O5 1765   0.320   3.641   0.009  0.3677  0.0013  0.0448
  115TMC2    H5 1766   0.265   3.679  17.635 -0.4606 -0.4213  0.4554
  116MPD2     C 1767   0.107   3.856  16.795  0.1387 -0.3137  0.1351
  116MPD2    C1 1768   0.063   3.791  16.909  1.2473  0.3464 -0.0389
  116MPD2    C2 1769   0.136   3.787  17.026  0.0002 -0.3564 -0.6269
  116MPD2    C3 1770   0.253   3.858  17.036 -0.0462  0.1060 -0.2107
  116MPD2    C4 1771   0.297   3.930  16.931 -0.5542  0.2543  0.1340
  116MPD2    C5 1772   0.226   3.929  16.815  0.6088  0.0346  0.0776
  116MPD2     H 1773   0.091   3.743  17.115  0.0698  1.2563  0.2128
  116MPD2    H1 1774   0.382   3.997  16.936 -0.6818  0.4208  0.0881
  116MPD2    H2 1775   0.049   3.876  16.706  0.2676  1.9216  0.5675
  116MPD2    H3 1776   0.257   3.996  16.736  0.2844  1.1818  0.9196
  116MPD2     N 1777   0.328   3.866  17.156 -0.0350 -0.0678 -0.3269
  116MPD2    H5 1778   0.403   3.935  17.161  0.7949 -0.8814 -1.4712
  116MPD2    N1 1779   4.671   3.721  16.892  0.3533  0.1052  0.5602
  116MPD2    H7 1780   4.638   3.725  16.795 -0.7838 -3.6537  0.8033
  117TMC2    C1 1781   3.446   0.678  14.325 -0.0388  0.2032  0.4723
  117TMC2    C2 1782   3.515   0.660  14.435  0.2920 -0.2154  0.1360
  117TMC2    C3 1783   3.638   0.602  14.429 -0.0556  0.4305 -0.2765
  117TMC2    C4 1784   3.493   0.637  14.207  0.5866  0.6036 -0.2816
  117TMC2    C5 1785   3.615   0.571  14.195 -0.3259 -0.3540 -0.3768
  117TMC2    C6 1786   3.691   0.551  14.309  0.3469  0.7555 -0.8081
  117TMC2     C 1787   3.301   0.690  14.331  0.2390  0.2809 -0.2911
  117TMC2     O 1788   3.237   0.645  14.421  0.4964 -0.4235 -0.3293
  117TMC2     H 1789   3.469   0.674  14.532  1.3471 -1.1799  0.7838
  117TMC2    H1 1790   3.421   0.628  14.127 -1.5247  1.3443  1.5205
  117TMC2    H2 1791   3.779   0.488  14.309 -0.3172 -0.1680  1.1309
  117TMC2    C7 1792   3.684   0.556  14.069 -0.4435 -0.0800 -0.8260
  117TMC2    C8 1793   3.720   0.582  14.549 -0.0471 -0.0121 -0.1004
  117TMC2    O1 1794   3.796   0.507  14.066 -0.7606  0.1955  0.3951
  117TMC2    O2 1795   3.827   0.523  14.555 -0.2547  0.4143 -0.1237
  117TMC2    O5 1796   3.678   0.670  14.640 -0.1077  0.1619  0.5952
  117TMC2    H5 1797   3.608   0.732  14.608 -0.0271 -1.1492 -2.1318
  118MPD2     C 1798   3.575   0.720  13.750  0.0501 -0.2864 -0.0192
  118MPD2    C1 1799   3.645   0.629  13.832  0.0898  1.1896  0.2232
  118MPD2    C2 1800   3.745   0.554  13.777  0.2339  0.5669  0.4129
  118MPD2    C3 1801   3.796   0.575  13.649 -0.0794  0.0571 -0.6177
  118MPD2    C4 1802   3.730   0.670  13.574  0.0700  0.0709  0.5880
  118MPD2    C5 1803   3.616   0.737  13.620 -0.2375  0.3979 -0.3591
  118MPD2     H 1804   3.783   0.465  13.827  1.6674  0.9636  0.0346
  118MPD2    H1 1805   3.772   0.696  13.478  0.9289 -1.1720  0.6241
  118MPD2    H2 1806   3.501   0.787  13.792 -0.9670 -1.4207 -0.0071
  118MPD2    H3 1807   3.556   0.806  13.562 -0.0748  1.3654  0.6335
  118MPD2     N 1808   3.926   0.540  13.612  0.1195 -0.1459  0.0448
  118MPD2    H5 1809   3.960   0.564  13.519  0.7048  1.7071  0.7289
  118MPD2    N1 1810   3.607   0.611  13.968 -0.5511  1.0527 -0.0710
  118MPD2    H7 1811   3.523   0.661  13.994 -1.7841 -0.9215 -0.3235
  119MPD2     C 1812   2.063   2.320  14.117 -0.5011 -0.0171 -0.2745
  119MPD2    C1 1813   1.929   2.340  14.101  0.1061 -0.2343 -0.6822
  119MPD2    C2 1814   1.862   2.290  13.999  0.6180 -0.6848 -0.3476
  119MPD2    C3 1815   1.931   2.224  13.899 -0.7795  0.5183 -0.4906
  119MPD2    C4 1816   2.067   2.209  13.911  0.2136  0.3555 -0.3414
  119MPD2    C5 1817   2.135   2.251  14.024 -0.6223 -0.2628 -0.2178
  119MPD2     H 1818   1.759   2.320  13.986 -0.5184 -3.1234  3.0806
  119MPD2    H1 1819   2.126   2.166  13.831  0.5198 -2.2264  1.2818
  119MPD2    H2 1820   2.111   2.366  14.202  0.9675 -0.8443 -0.6483
  119MPD2    H3 1821   2.241   2.236  14.040 -0.4154  0.9122 -0.4627
  119MPD2     N 1822   1.858   2.187  13.780 -0.7858 -0.4258  0.4361
  119MPD2    H5 1823   1.905   2.152  13.697 -0.7639 -2.5282  1.3291
  119MPD2    N1 1824   1.863   2.402  14.210 -0.1784 -0.7176  0.0352
  119MPD2    H7 1825   1.920   2.461  14.269 -1.1894  0.1530  0.1395
  120TCq2    C1 1826   1.722   2.194  13.763 -0.5063 -0.4337 -0.0854
  120TCq2    O2 1827   1.635   2.202  13.849  0.3687 -0.2308  0.3259
  120TCq2    C2 1828   1.685   2.178  13.626  0.1518 -0.0435 -0.4764
  120TCq2    C3 1829   1.760   2.228  13.521  0.0848  0.3429  0.5736
  120TCq2    C4 1830   1.713   2.211  13.395 -0.1230  0.5609 -0.2739
  120TCq2    C5 1831   1.597   2.131  13.374 -0.7400  0.0469 -0.1545
  120TCq2    C6 1832   1.525   2.088  13.484  0.7421  0.0505 -0.6906
  120TCq2    C7 1833   1.565   2.112  13.610 -0.7483 -0.3808  0.0761
  120TCq2    C8 1834   1.404   2.019  13.449 -0.0764 -0.8306 -1.1566
  120TCq2    O4 1835   1.373   2.028  13.331 -0.5690 -0.4464  0.0556
  120TCq2    C9 1836   1.783   2.260  13.279  0.3666  0.0660  0.1539
  120TCq2    O5 1837   1.874   2.345  13.297  0.2856  0.2369  0.8081
  120TCq2    O6 1838   1.753   2.208  13.170  0.0459 -0.2122 -0.1778
  120TCq2    H2 1839   1.854   2.280  13.533 -0.0184  0.8462 -0.8564
  120TCq2    H3 1840   1.579   2.095  13.274 -1.6130  1.4841 -0.5140
  120TCq2    H4 1841   1.503   2.098  13.698 -0.8413 -0.4955 -0.0077
  121TMC2    C1 1842   3.064   3.742  13.512  0.4367 -0.5068  0.5826
  121TMC2    C2 1843   3.166   3.680  13.443  0.7055  0.2548 -1.1645
  121TMC2    C3 1844   3.173   3.540  13.439  0.2829 -0.1259 -0.2170
  121TMC2    C4 1845   2.976   3.668  13.578 -0.2131 -0.1832 -0.6285
  121TMC2    C5 1846   2.976   3.535  13.553 -0.2325 -0.2459  0.3795
  121TMC2    C6 1847   3.073   3.460  13.491  0.0472  0.4648 -0.0118
  121TMC2     C 1848   3.088   3.877  13.549 -0.3280  0.6867  0.2411
  121TMC2     O 1849   3.011   3.920  13.636 -0.4906 -0.3068  0.4163
  121TMC2     H 1850   3.243   3.733  13.388  1.4188  0.6709  0.2240
  121TMC2    H1 1851   2.920   3.716  13.657  1.9486 -0.0559  0.8182
  121TMC2    H2 1852   3.064   3.352  13.483 -1.3414  0.6198 -0.5479
  121TMC2    C7 1853   2.856   3.462  13.595 -0.6412  0.4568  0.1263
  121TMC2    C8 1854   3.267   3.480  13.347 -0.7036  0.5012  0.0839
  121TMC2    O1 1855   2.869   3.339  13.615  0.5265 -0.7774  0.1860
  121TMC2    O2 1856   3.321   3.542  13.260  0.3247  0.1269 -0.2866
  121TMC2    O5 1857   3.251   3.351  13.357 -0.4010  1.0484  0.6203
  121TMC2    H5 1858   3.229   3.318  13.447  2.6588 -1.3948  0.4512
  122MPD2     C 1859   3.142   4.169  13.561  0.0715  0.0933  0.1137
  122MPD2    C1 1860   3.184   4.088  13.459 -0.1116  0.0516  0.6082
  122MPD2    C2 1861   3.269   4.133  13.364 -0.1845  0.3246  0.0055
  122MPD2    C3 1862   3.303   4.268  13.359 -0.5663  0.6455 -0.0605
  122MPD2    C4 1863   3.246   4.355  13.450  0.1480 -0.3124  0.4620
  122MPD2    C5 1864   3.165   4.302  13.548 -0.1075  0.2429  0.5829
  122MPD2     H 1865   3.322   4.067  13.297 -0.0043 -1.6893  2.1346
  122MPD2    H1 1866   3.285   4.454  13.468 -1.6490  0.0409  2.3619
  122MPD2    H2 1867   3.074   4.133  13.637 -0.0713 -0.2251 -0.1618
  122MPD2    H3 1868   3.125   4.358  13.632 -0.0016  1.8846 -0.4681
  122MPD2     N 1869   3.383   4.313  13.247  0.7047 -0.5682  0.2374
  122MPD2    H5 1870   3.427   4.240  13.192 -0.4629  1.2877 -3.2049
  122MPD2    N1 1871   3.166   3.950  13.459 -0.1269  0.5005 -0.8620
  122MPD2    H7 1872   3.175   3.897  13.373  1.2742  1.3004 -1.2071
  123MPD2     C 1873   1.656   1.781   8.996 -1.0223 -0.1105 -0.7274
  123MPD2    C1 1874   1.704   1.746   9.118  0.2989 -0.3016 -0.3468
  123MPD2    C2 1875   1.840   1.716   9.136 -0.3649  0.4943 -0.4397
  123MPD2    C3 1876   1.918   1.701   9.026 -0.1778  0.5054  0.6181
  123MPD2    C4 1877   1.867   1.734   8.902  0.2494 -0.0476 -0.2022
  123MPD2    C5 1878   1.739   1.777   8.888 -0.1068  0.1628  0.5632
  123MPD2     H 1879   1.885   1.680   9.228  2.8950  0.1843 -2.1429
  123MPD2    H1 1880   1.929   1.744   8.813  1.9778 -0.8411  0.9135
  123MPD2    H2 1881   1.562   1.834   8.990  0.1173  1.7684 -1.8904
  123MPD2    H3 1882   1.716   1.827   8.795 -1.8029 -1.3006  0.1840
  123MPD2     N 1883   2.057   1.672   9.040 -0.6293 -0.2367  0.0054
  123MPD2    H5 1884   2.095   1.678   9.134 -0.1305 -1.4993 -0.1127
  123MPD2    N1 1885   1.613   1.753   9.226 -0.1533  1.1186 -0.0067
  123MPD2    H7 1886   1.527   1.805   9.211 -1.6898 -1.1032  1.0821
  124TCq2    C1 1887   2.142   1.632   8.943  0.1362  0.1532  0.7448
  124TCq2    O2 1888   2.112   1.602   8.829 -0.1951 -0.0851 -0.2868
  124TCq2    C2 1889   2.280   1.599   8.986  0.8504 -0.0588 -0.3442
  124TCq2    C3 1890   2.379   1.586   8.887  0.0491  0.2317  0.3352
  124TCq2    C4 1891   2.510   1.577   8.932 -0.0651 -0.3931 -0.1043
  124TCq2    C5 1892   2.544   1.565   9.063  0.2688 -0.3857  0.9776
  124TCq2    C6 1893   2.443   1.578   9.153 -0.0092  0.6564  0.1230
  124TCq2    C7 1894   2.311   1.605   9.120  0.4913  0.7482 -0.5115
  124TCq2    C8 1895   2.469   1.573   9.302 -0.2815 -0.2786 -0.1321
  124TCq2    O4 1896   2.372   1.581   9.378 -0.1267  0.3368 -0.0721
  124TCq2    C9 1897   2.612   1.571   8.839 -0.0855  0.4855 -0.5935
  124TCq2    O5 1898   2.588   1.553   8.718  0.3932  0.3142 -0.3906
  124TCq2    O6 1899   2.732   1.587   8.881 -0.2524  0.1427  0.0705
  124TCq2    H2 1900   2.356   1.588   8.781 -0.8197  0.9151  0.5323
  124TCq2    H3 1901   2.639   1.521   9.092 -0.5369 -1.5997  1.7981
  124TCq2    H4 1902   2.234   1.603   9.196  0.7023 -0.3372 -0.3366
  125TMC2    C1 1903   4.099   3.332   8.071 -0.2557  0.4486 -0.3665
  125TMC2    C2 1904   4.173   3.333   7.953  0.0046 -0.6563  0.4945
  125TMC2    C3 1905   4.303   3.369   7.960  0.2794  0.6788 -0.1772
  125TMC2    C4 1906   4.164   3.354   8.186  0.3489  0.7082  0.4876
  125TMC2    C5 1907   4.299   3.391   8.187  0.3533  0.5734  0.0997
  125TMC2    C6 1908   4.375   3.402   8.072 -0.0681 -0.0691  0.1368
  125TMC2     C 1909   3.964   3.284   8.068  0.5633 -0.4533 -0.1003
  125TMC2     O 1910   3.944   3.215   7.972 -0.1604 -0.2197 -0.3078
  125TMC2     H 1911   4.123   3.314   7.858  1.2875  0.9201 -0.5008
  125TMC2    H1 1912   4.105   3.349   8.277  0.7114 -0.7259  0.6407
  125TMC2    H2 1913   4.482   3.417   8.063 -0.1095 -0.5986 -1.1882
  125TMC2    C7 1914   4.382   3.418   8.310  0.2714  0.7767  0.0497
  125TMC2    C8 1915   4.371   3.385   7.838 -0.1072  0.4736 -0.8124
  125TMC2    O1 1916   4.504   3.412   8.307  0.0419 -0.4121  0.0313
  125TMC2    O2 1917   4.491   3.370   7.826  0.1952  0.1947  0.4424
  125TMC2    O5 1918   4.296   3.473   7.762 -0.0970  0.1553  0.3778
  125TMC2    H5 1919   4.203   3.483   7.790 -1.1018 -1.2055 -2.5374
  126MPD1     C 1920   3.553   3.121   8.341 -1.1767  0.5028 -0.1241
  126MPD1    C1 1921   3.603   3.225   8.408  0.0150  0.3065  1.1577
  126MPD1    C2 1922   3.707   3.291   8.344 -0.3839  0.3578  0.0999
  126MPD1    C3 1923   3.771   3.253   8.222 -0.1643 -0.4243 -0.1476
  126MPD1    C4 1924   3.717   3.144   8.155 -0.1176  0.2239  0.4646
  126MPD1    C5 1925   3.614   3.078   8.219 -0.1410  0.6939  0.5350
  126MPD1     H 1926   3.747   3.373   8.403 -0.4405  0.6799 -0.3079
  126MPD1    H1 1927   3.752   3.105   8.060  2.7890  1.8607  0.8414
  126MPD1    H2 1928   3.473   3.065   8.386 -0.6256  1.3403  1.8896
  126MPD1    H3 1929   3.564   3.003   8.160  1.2556  0.3421 -0.2043
  126MPD1     N 1930   3.895   3.316   8.180 -0.9215 -0.2515 -0.6521
  126MPD1    H5 1931   3.933   3.383   8.246 -0.6084  1.4621 -2.5439
  126MPD1    N1 1932   3.544   3.274   8.528  0.2858 -0.2487 -0.0955
  126MPD1    H6 1933   3.486   3.207   8.578 -1.2560 -0.8577 -2.6714
  126MPD1    H7 1934   3.609   3.311   8.596 -0.0047 -0.1827  0.1416
  127MPD2     C 1935   4.531   2.814   9.425 -0.0934 -0.4058 -0.0671
  127MPD2    C1 1936   4.435   2.856   9.512 -0.4805  0.2307  0.0025
  127MPD2    C2 1937   4.459   2.979   9.583 -0.6323 -0.2340  0.0626
  127MPD2    C3 1938   4.571   3.053   9.559  0.4923 -0.1506  0.4327
  127MPD2    C4 1939   4.661   3.007   9.464 -0.4431  0.5042 -0.2064
  127MPD2    C5 1940   4.637   2.900   9.388  0.0781  0.2440  0.1916
  127MPD2     H 1941   4.389   3.012   9.659 -3.2217 -2.3762 -1.4275
  127MPD2    H1 1942   0.028   3.059   9.436  0.3871 -1.8503 -1.8890
  127MPD2    H2 1943   4.516   2.730   9.358 -1.3270  0.5605 -0.9982
  127MPD2    H3 1944   4.707   2.857   9.318 -0.3621  1.2129 -0.8432
  127MPD2     N 1945   4.592   3.167   9.634  0.2551 -0.2420 -0.3226
  127MPD2    H5 1946   4.556   3.174   9.729  1.0084 -0.6291 -0.0082
  127MPD2    N1 1947   4.318   2.774   9.521 -0.0200  0.1380 -0.9086
  127MPD2    H7 1948   4.302   2.691   9.466  1.2124 -1.1671  0.6995
  128TCq2    C1 1949   4.232   2.791   9.622  0.6395  0.2189  0.7629
  128TCq2    O2 1950   4.249   2.841   9.732  0.1707  0.2003 -0.4169
  128TCq2    C2 1951   4.111   2.707   9.610 -0.3500 -0.6335  0.0400
  128TCq2    C3 1952   4.057   2.653   9.720 -0.5961  0.1900  0.2608
  128TCq2    C4 1953   3.954   2.564   9.714  0.4287  0.3671 -0.3977
  128TCq2    C5 1954   3.908   2.528   9.590  0.0737 -0.2271 -0.2022
  128TCq2    C6 1955   3.957   2.586   9.474  0.2578  0.7009 -0.4258
  128TCq2    C7 1956   4.059   2.679   9.487 -0.0635 -0.4576  0.0819
  128TCq2    C8 1957   3.908   2.575   9.340  0.0777  0.4065 -0.3380
  128TCq2    O4 1958   3.979   2.618   9.248 -0.7872  0.1297 -0.2744
  128TCq2    C9 1959   3.898   2.500   9.831 -0.6013 -0.6772  1.4383
  128TCq2    O5 1960   3.934   2.542   9.946  0.0296 -0.2807  0.6082
  128TCq2    O6 1961   3.831   2.392   9.814 -0.0587 -0.1805 -0.6457
  128TCq2    H2 1962   4.097   2.662   9.820  1.4716  1.7958 -0.7207
  128TCq2    H3 1963   3.819   2.466   9.588  0.3585 -0.5678 -3.0866
  128TCq2    H4 1964   4.103   2.720   9.397  1.8106  0.5917  1.4827
  129MPD2     C 1965   1.525   3.347   1.558  0.0062  0.3200 -0.4475
  129MPD2    C1 1966   1.640   3.286   1.525  0.6487 -0.4688 -0.4098
  129MPD2    C2 1967   1.715   3.330   1.419  0.2286  0.4406 -0.1560
  129MPD2    C3 1968   1.662   3.429   1.336  0.8110  0.6557  0.7561
  129MPD2    C4 1969   1.553   3.501   1.377  0.2149  0.3488  0.3515
  129MPD2    C5 1970   1.482   3.449   1.479  0.4082 -0.6795  0.0148
  129MPD2     H 1971   1.813   3.290   1.398 -0.5333 -1.5576  0.1303
  129MPD2    H1 1972   1.512   3.576   1.310 -1.0850  0.6407  1.4865
  129MPD2    H2 1973   1.465   3.312   1.640  0.0087  1.2129 -0.0652
  129MPD2    H3 1974   1.383   3.492   1.491  1.0011  1.1169 -1.5858
  129MPD2     N 1975   1.730   3.484   1.216 -0.2180 -0.8466 -0.1752
  129MPD2    H5 1976   1.681   3.563   1.174 -0.5732 -0.0215  1.8130
  129MPD2    N1 1977   1.689   3.175   1.596 -0.6749 -0.1261  0.0819
  129MPD2    H7 1978   1.776   3.130   1.570 -0.2471  3.2731 -4.3389
  130TCq2    C1 1979   1.609   3.098   1.675 -0.6312  0.0951 -0.8186
  130TCq2    O2 1980   1.488   3.089   1.668  0.2900 -0.3414  0.0548
  130TCq2    C2 1981   1.687   2.988   1.737 -0.6474  0.1044  0.5080
  130TCq2    C3 1982   1.820   3.006   1.752  0.2845  0.3947  0.1464
  130TCq2    C4 1983   1.891   2.897   1.794  0.8737  0.4134 -0.7110
  130TCq2    C5 1984   1.836   2.783   1.836  0.0903 -0.3371  0.3630
  130TCq2    C6 1985   1.697   2.766   1.817 -0.3373  0.1633 -0.3664
  130TCq2    C7 1986   1.621   2.870   1.768 -0.8377  0.0029  0.2859
  130TCq2    C8 1987   1.654   2.625   1.804  0.3621 -0.6266  0.0411
  130TCq2    O4 1988   1.536   2.595   1.805 -0.3618 -0.1323 -0.4149
  130TCq2    C9 1989   2.035   2.915   1.814 -0.0335  0.5854  0.2046
  130TCq2    O5 1990   2.107   2.809   1.836 -0.4672 -0.4472 -0.0292
  130TCq2    O6 1991   2.085   3.032   1.821 -0.7420  0.4974  0.2406
  130TCq2    H2 1992   1.868   3.102   1.739 -0.7567  1.0001  0.7363
  130TCq2    H3 1993   1.903   2.714   1.886  1.3218  1.3901  1.0704
  130TCq2    H4 1994   1.518   2.849   1.742 -1.2672  0.7766  1.3681
  131MPD2     C 1995   1.279   2.417   9.619  0.1799  0.2433  0.1936
  131MPD2    C1 1996   1.384   2.352   9.678 -0.1106  0.5526 -0.7817
  131MPD2    C2 1997   1.405   2.217   9.649 -0.6180 -0.3547  0.0991
  131MPD2    C3 1998   1.315   2.142   9.574 -0.0438  1.5570  0.2172
  131MPD2    C4 1999   1.208   2.217   9.524 -0.6805  0.4263  0.4112
  131MPD2    C5 2000   1.190   2.347   9.544  0.0407  0.2296 -0.0840
  131MPD2     H 2001   1.496   2.170   9.683 -1.0496 -1.3797 -0.1681
  131MPD2    H1 2002   1.130   2.169   9.466  0.4038 -0.0003 -0.7144
  131MPD2    H2 2003   1.245   2.519   9.628  0.6569  0.3928  0.3403
  131MPD2    H3 2004   1.099   2.396   9.511 -0.2092 -0.5817 -0.6215
  131MPD2     N 2005   1.331   2.011   9.540 -0.1423 -0.8429 -0.1623
  131MPD2    H5 2006   1.417   1.970   9.576 -0.1728 -1.4422 -0.7730
  131MPD2    N1 2007   1.462   2.435   9.769 -0.1528 -0.2247  0.0615
  131MPD2    H7 2008   1.427   2.531   9.767  2.1708  0.6422  1.8208
  132TCq2    C1 2009   1.974   2.534  10.040  0.0170 -0.1237 -0.0902
  132TCq2    O2 2010   2.002   2.416  10.044  0.1914  0.4635 -0.3034
  132TCq2    C2 2011   1.834   2.569  10.023  0.9060  0.1346 -0.1114
  132TCq2    C3 2012   1.779   2.690  10.054  0.4058  0.1514  0.2820
  132TCq2    C4 2013   1.645   2.699  10.034 -0.9266 -0.0018 -0.6562
  132TCq2    C5 2014   1.575   2.598   9.966 -0.1008  0.1887  0.2367
  132TCq2    C6 2015   1.641   2.490   9.923 -0.3330 -0.0930 -0.2872
  132TCq2    C7 2016   1.766   2.467   9.964 -0.1804  0.1999 -0.5562
  132TCq2    C8 2017   1.574   2.388   9.842 -0.5799  0.0124 -0.7149
  132TCq2    O4 2018   1.631   2.280   9.832 -0.5622 -0.3466  0.0359
  132TCq2    C9 2019   1.572   2.814  10.071 -0.3753 -0.2960  0.1765
  132TCq2    O5 2020   1.447   2.804  10.082 -0.2547  0.1234 -0.6804
  132TCq2    O6 2021   1.641   2.922  10.091 -0.5691  0.1942 -0.0622
  132TCq2    H2 2022   1.838   2.770  10.097  0.1159  0.1608  0.6677
  132TCq2    H3 2023   1.471   2.615   9.939  0.5517 -1.7156 -3.5749
  132TCq2    H4 2024   1.811   2.370   9.948  1.3052  0.7061  0.5155
  133MPD2     C 2025   1.408   3.810   9.595 -0.2145 -0.2406  0.3304
  133MPD2    C1 2026   1.471   3.736   9.501  0.5296  0.7161  0.5453
  133MPD2    C2 2027   1.407   3.630   9.449  0.7531 -0.0770  0.1858
  133MPD2    C3 2028   1.279   3.596   9.500  0.4470 -0.1726  0.0234
  133MPD2    C4 2029   1.221   3.663   9.597  0.0107  0.5327  0.0281
  133MPD2    C5 2030   1.288   3.772   9.645  0.5934 -0.2847 -0.1246
  133MPD2     H 2031   1.454   3.566   9.375  2.3513  1.2734  0.0521
  133MPD2    H1 2032   1.124   3.638   9.638  0.7245 -2.1356  0.0808
  133MPD2    H2 2033   1.464   3.899   9.620  0.3031 -0.0538 -1.5541
  133MPD2    H3 2034   1.225   3.838   9.702 -1.3232  1.1244 -3.8723
  133MPD2     N 2035   1.209   3.484   9.464  0.1466  0.6183 -0.1345
  133MPD2    H5 2036   1.118   3.465   9.504 -0.1561  0.0281 -1.1125
  133MPD2    N1 2037   1.600   3.782   9.465  0.0776  0.4637  0.1098
  133MPD2    H7 2038   1.622   3.874   9.502 -0.0239  1.2765 -1.8233
  134TCq2    C1 2039   1.680   3.725   9.364  0.3163 -0.1104 -0.2995
  134TCq2    O2 2040   1.664   3.624   9.299 -0.3563 -0.2907  0.1073
  134TCq2    C2 2041   1.794   3.807   9.343 -0.4107 -0.2252  0.5198
  134TCq2    C3 2042   1.781   3.940   9.369 -0.1092  0.4529  0.6372
  134TCq2    C4 2043   1.894   4.013   9.371  0.4960  0.0402  0.2182
  134TCq2    C5 2044   2.015   3.961   9.341 -0.2499  0.0821  0.9811
  134TCq2    C6 2045   2.021   3.827   9.314  0.6573  0.1857  0.5563
  134TCq2    C7 2046   1.914   3.745   9.324 -0.2926  0.3478  0.5262
  134TCq2    C8 2047   2.152   3.768   9.332 -0.0701  0.0929 -0.0162
  134TCq2    O4 2048   2.171   3.658   9.288 -0.1048 -0.4446 -0.2301
  134TCq2    C9 2049   1.888   4.157   9.393  0.6182  0.0807  0.4033
  134TCq2    O5 2050   1.990   4.207   9.440  0.0435  0.3056 -0.1587
  134TCq2    O6 2051   1.775   4.215   9.375  0.4087 -0.0149  0.3590
  134TCq2    H2 2052   1.684   3.988   9.369  0.0866  0.8537  0.1327
  134TCq2    H3 2053   2.089   4.036   9.317  0.3794 -0.8177  0.1210
  134TCq2    H4 2054   1.922   3.640   9.299 -2.0528  0.6953 -1.4669
  135MPD2     C 2055   3.934   4.234   9.181  0.6378 -0.7889 -1.0242
  135MPD2    C1 2056   3.932   4.184   9.053  0.7691 -0.8301  0.4913
  135MPD2    C2 2057   4.050   4.153   8.996  0.0805 -0.2300  0.0019
  135MPD2    C3 2058   4.169   4.147   9.066 -0.0485 -0.7660  0.6599
  135MPD2    C4 2059   4.168   4.196   9.194  0.3528  0.2269 -0.1783
  135MPD2    C5 2060   4.051   4.242   9.250  0.0092 -0.1712 -0.1377
  135MPD2     H 2061   4.051   4.117   8.894 -1.2569  0.2286 -0.1599
  135MPD2    H1 2062   4.259   4.202   9.254 -1.5695  0.3651  2.6903
  135MPD2    H2 2063   3.841   4.272   9.222  1.5550  0.9758 -0.5741
  135MPD2    H3 2064   4.052   4.279   9.352  0.8693 -0.8498  0.1078
  135MPD2     N 2065   4.294   4.105   9.015 -0.0911 -0.1502  0.1232
  135MPD2    H5 2066   4.374   4.126   9.075 -0.8980 -1.4638  1.6599
  135MPD2    N1 2067   3.812   4.166   8.985  0.4057 -0.4158 -0.4112
  135MPD2    H7 2068   3.817   4.139   8.887 -0.3672 -1.5250 -0.1428
  136TCq2    C1 2069   3.686   4.175   9.038  0.3943 -0.2921 -0.0457
  136TCq2    O2 2070   3.645   4.173   9.154  1.0144  0.4366  0.2495
  136TCq2    C2 2071   3.582   4.152   8.934 -0.4965 -0.3366 -0.3646
  136TCq2    C3 2072   3.597   4.196   8.805 -0.0228 -0.2751 -0.4712
  136TCq2    C4 2073   3.499   4.175   8.712  0.3706  0.0987  0.0088
  136TCq2    C5 2074   3.382   4.108   8.752  0.4982  1.2103 -0.0437
  136TCq2    C6 2075   3.367   4.069   8.882  0.0908  0.2747  0.2287
  136TCq2    C7 2076   3.462   4.090   8.978  0.3734  0.3017 -0.2183
  136TCq2    C8 2077   3.281   3.954   8.904 -0.2790  0.5687 -0.0191
  136TCq2    O4 2078   3.237   3.898   8.802  0.2610  0.5555 -0.2769
  136TCq2    C9 2079   3.512   4.243   8.584  0.0922  0.1622  0.3778
  136TCq2    O5 2080   3.428   4.213   8.496 -0.2846  0.2300 -0.0735
  136TCq2    O6 2081   3.617   4.310   8.557 -0.6067  0.3442  0.1826
  136TCq2    H2 2082   3.679   4.256   8.765  0.6192 -0.7230  0.1787
  136TCq2    H3 2083   3.295   4.100   8.688  0.4376  0.4733  0.1260
  136TCq2    H4 2084   3.464   4.054   9.081 -1.3789 -2.7930 -1.2531
  137MPD2     C 2085   3.027   2.276   9.312 -0.0385 -0.4883  0.9756
  137MPD2    C1 2086   3.122   2.357   9.368  0.5780 -0.1362 -0.1002
  137MPD2    C2 2087   3.109   2.408   9.491  0.1345  0.2393 -0.5998
  137MPD2    C3 2088   2.994   2.375   9.570 -0.7381 -0.5666  0.5480
  137MPD2    C4 2089   2.901   2.290   9.510 -0.6279  0.0042  0.7403
  137MPD2    C5 2090   2.919   2.235   9.386  0.1124  0.0221  0.3659
  137MPD2     H 2091   3.183   2.461   9.548 -0.7074 -1.2346  1.8939
  137MPD2    H1 2092   2.804   2.272   9.556 -0.0601 -1.1539  1.4943
  137MPD2    H2 2093   3.029   2.241   9.209  1.8847 -2.1639  1.5779
  137MPD2    H3 2094   2.848   2.166   9.341  1.9060 -0.3476 -1.9235
  137MPD2     N 2095   2.983   2.440   9.689  0.0856 -0.2196 -0.0401
  137MPD2    H5 2096   3.062   2.501   9.708  0.6214 -1.0416  0.3420
  137MPD2    N1 2097   3.219   2.405   9.275 -0.1633  0.0238  0.7253
  137MPD2    H7 2098   3.209   2.362   9.183 -3.0356  0.5388  0.7939
  138TCq2    C1 2099   3.305   2.508   9.303  0.1444  0.1398  0.2435
  138TCq2    O2 2100   3.333   2.563   9.411  0.2127 -0.0313  0.2062
  138TCq2    C2 2101   3.346   2.576   9.174 -0.2375 -0.6644  0.4461
  138TCq2    C3 2102   3.351   2.500   9.058  0.4586 -0.2704 -0.3219
  138TCq2    C4 2103   3.346   2.568   8.937  0.3173  0.4063 -0.6401
  138TCq2    C5 2104   3.328   2.706   8.932 -0.4570  0.8532  0.7736
  138TCq2    C6 2105   3.313   2.775   9.051 -0.4327  0.4830  0.3665
  138TCq2    C7 2106   3.319   2.708   9.169 -0.9013 -0.2989 -0.2638
  138TCq2    C8 2107   3.243   2.895   9.032 -0.3873  0.1228  1.0133
  138TCq2    O4 2108   3.223   2.937   8.919 -0.1382  0.3088  0.6426
  138TCq2    C9 2109   3.348   2.494   8.812 -0.2523 -0.5182  0.5347
  138TCq2    O5 2110   3.374   2.566   8.710 -0.5166 -0.1136  0.3321
  138TCq2    O6 2111   3.310   2.372   8.818 -0.3885 -0.1933  0.1446
  138TCq2    H2 2112   3.360   2.392   9.062 -0.5762 -0.3233  0.5672
  138TCq2    H3 2113   3.324   2.757   8.837 -0.3684 -2.8096 -1.1788
  138TCq2    H4 2114   3.307   2.767   9.260  0.5555  0.6679 -0.6894
  139TMC2    C1 2115   3.068   1.541  13.057  0.1493 -0.1260  0.1593
  139TMC2    C2 2116   3.049   1.563  12.923 -0.5393  0.1388  0.5438
  139TMC2    C3 2117   2.986   1.674  12.884  0.3478  0.1258 -0.4338
  139TMC2    C4 2118   3.052   1.638  13.155  0.4550  0.2655  0.9074
  139TMC2    C5 2119   2.999   1.756  13.112 -0.9806 -0.2317  0.1504
  139TMC2    C6 2120   2.955   1.769  12.982 -0.0916  0.2924 -0.0800
  139TMC2     C 2121   3.152   1.423  13.078  0.1937 -0.6291  0.3046
  139TMC2     O 2122   3.124   1.323  13.011  0.6904 -0.2565  0.8540
  139TMC2     H 2123   3.067   1.490  12.844 -0.3894  0.4164  0.3235
  139TMC2    H1 2124   3.078   1.623  13.260  1.1536 -1.1237  0.5272
  139TMC2    H2 2125   2.906   1.859  12.946 -0.4406  0.9383  2.0216
  139TMC2    C7 2126   2.970   1.867  13.204  0.6033 -0.3707 -0.8685
  139TMC2    C8 2127   2.920   1.691  12.760 -0.1904  0.1700  0.3634
  139TMC2    O1 2128   2.903   1.960  13.159  0.2079  0.3377  0.2410
  139TMC2    O2 2129   2.824   1.758  12.744 -0.7349  0.1351 -0.3411
  139TMC2    O5 2130   3.005   1.648  12.667 -0.6029  0.1237 -0.0585
  139TMC2    H5 2131   3.100   1.657  12.686 -0.9350  1.7492  0.8449
  140MPD2     C 2132   3.473   1.419  13.247  0.4952 -0.3437 -0.7610
  140MPD2    C1 2133   3.373   1.372  13.172  0.3275  0.1375  0.0651
  140MPD2    C2 2134   3.404   1.264  13.080  0.5442 -0.1279  0.0415
  140MPD2    C3 2135   3.532   1.227  13.065 -0.3601  0.3106  0.5090
  140MPD2    C4 2136   3.631   1.284  13.143  0.0784 -0.4337  0.0540
  140MPD2    C5 2137   3.602   1.382  13.228 -0.5142 -0.2712 -0.3456
  140MPD2     H 2138   3.329   1.227  13.011  0.3081  0.5225 -0.0498
  140MPD2    H1 2139   3.737   1.261  13.138  0.4139  1.3179 -1.0580
  140MPD2    H2 2140   3.451   1.499  13.317  1.8725  0.1214 -0.8595
  140MPD2    H3 2141   3.684   1.424  13.284  0.5420 -0.1227 -2.0017
  140MPD2     N 2142   3.552   1.127  12.964  0.5881  0.6464 -0.5938
  140MPD2    H5 2143   3.471   1.083  12.920 -0.7224 -0.1657  2.5897
  140MPD2    N1 2144   3.249   1.444  13.169  0.8214  0.9659 -0.3420
  140MPD2    H7 2145   3.255   1.536  13.212 -0.8742  1.0847 -0.3767
  141TCq2    C1 2146   4.134   2.729  14.222 -0.2635 -0.3692  0.2520
  141TCq2    O2 2147   4.051   2.746  14.134 -1.3774 -0.3024  0.6273
  141TCq2    C2 2148   4.089   2.762  14.353  0.3120 -0.1077 -0.3323
  141TCq2    C3 2149   4.141   2.696  14.455  0.1062  1.1779 -0.2407
  141TCq2    C4 2150   4.094   2.727  14.579  0.8201 -0.2735 -0.6435
  141TCq2    C5 2151   4.005   2.831  14.602  0.3141  0.2043 -0.6427
  141TCq2    C6 2152   3.964   2.903  14.496  0.2157  0.3612 -0.5516
  141TCq2    C7 2153   4.005   2.864  14.369 -0.1641  0.0554  0.5810
  141TCq2    C8 2154   3.908   3.033  14.521  0.0592 -0.1138  0.5655
  141TCq2    O4 2155   3.894   3.064  14.639  0.4231 -0.6007 -0.3287
  141TCq2    C9 2156   4.161   2.663  14.689 -0.1163 -0.3119 -0.3100
  141TCq2    O5 2157   4.155   2.717  14.805  0.2032  0.2641 -0.7450
  141TCq2    O6 2158   4.222   2.551  14.673  0.4012 -0.7048  0.5641
  141TCq2    H2 2159   4.214   2.617  14.448 -0.5415  0.5238  0.4230
  141TCq2    H3 2160   4.000   2.883  14.697 -1.8944 -1.5115  0.1644
  141TCq2    H4 2161   3.965   2.905  14.277  1.2399 -0.5647 -0.3084
  142MPD2     C 2162   1.799   1.190  10.485  0.1508  0.8238 -0.3624
  142MPD2    C1 2163   1.774   1.230  10.353 -0.2272 -0.0079 -0.1321
  142MPD2    C2 2164   1.879   1.287  10.284  0.1394  0.8661 -0.9157
  142MPD2    C3 2165   2.006   1.306  10.345 -0.2132 -0.6550 -0.2541
  142MPD2    C4 2166   2.016   1.270  10.478  0.9723  0.3741 -0.3269
  142MPD2    C5 2167   1.919   1.209  10.555  0.3856  0.2582  0.2337
  142MPD2     H 2168   1.856   1.303  10.179 -0.6724 -1.2335 -1.0613
  142MPD2    H1 2169   2.109   1.291  10.528  1.5119  0.1724 -1.2492
  142MPD2    H2 2170   1.719   1.140  10.539  1.3065 -1.6853 -0.9602
  142MPD2    H3 2171   1.930   1.174  10.657  2.5055 -1.0431 -0.4345
  142MPD2     N 2172   2.125   1.347  10.291 -0.4541  0.1525  0.1689
  142MPD2    H5 2173   2.207   1.370  10.347 -0.0274  1.0867 -0.8508
  142MPD2    N1 2174   1.640   1.207  10.301  0.1467  0.0695  0.2842
  142MPD2    H7 2175   1.569   1.163  10.360  1.1332 -1.5798  0.2380
  143TCq2    C1 2176   2.151   1.359  10.160 -0.3090  1.0163  0.2406
  143TCq2    O2 2177   2.068   1.340  10.073 -0.2515 -0.1709  0.5827
  143TCq2    C2 2178   2.279   1.418  10.126 -0.2021  0.6881  0.4873
  143TCq2    C3 2179   2.375   1.407  10.227 -0.3448 -0.2581 -0.0658
  143TCq2    C4 2180   2.499   1.413  10.187  1.1319 -0.2404 -0.2599
  143TCq2    C5 2181   2.530   1.433  10.061 -0.3174 -0.1811 -0.3542
  143TCq2    C6 2182   2.435   1.447   9.965  0.0637  0.3602 -0.2780
  143TCq2    C7 2183   2.304   1.438   9.996 -0.1177  0.0387 -0.2035
  143TCq2    C8 2184   2.469   1.456   9.825  0.0899 -0.1257  0.0136
  143TCq2    O4 2185   2.373   1.477   9.752  0.4432 -0.4883 -0.0302
  143TCq2    C9 2186   2.605   1.382  10.279 -0.4101 -0.7985  0.1105
  143TCq2    O5 2187   2.715   1.368  10.218  0.3880  0.0196 -0.1181
  143TCq2    O6 2188   2.579   1.343  10.396 -0.0591  0.3066 -0.1931
  143TCq2    H2 2189   2.346   1.372  10.326 -0.1490  1.6704  0.6826
  143TCq2    H3 2190   2.635   1.427  10.034 -0.7690  1.8325 -2.5174
  143TCq2    H4 2191   2.231   1.443   9.917 -0.2627 -1.8210 -0.1885
  144MPD2     C 2192   3.941   0.780   1.119  0.3066 -0.1098 -0.0454
  144MPD2    C1 2193   3.988   0.652   1.102  0.4858  0.4370 -1.1001
  144MPD2    C2 2194   4.068   0.599   1.201  0.5797  0.1309  0.7869
  144MPD2    C3 2195   4.124   0.675   1.303 -0.6004 -0.2507 -0.5450
  144MPD2    C4 2196   4.085   0.807   1.312 -0.4403  0.7642  0.4072
  144MPD2    C5 2197   3.992   0.854   1.222 -0.1038 -0.3660  0.1158
  144MPD2     H 2198   4.094   0.495   1.190 -1.1461  0.0533 -2.6247
  144MPD2    H1 2199   4.127   0.875   1.385 -0.8377  1.0734  0.3443
  144MPD2    H2 2200   3.861   0.820   1.058  1.1135  0.4176 -0.7521
  144MPD2    H3 2201   3.952   0.955   1.224 -0.6480 -0.5728 -0.2016
  144MPD2     N 2202   4.208   0.623   1.396  0.1165 -0.2582 -0.5056
  144MPD2    H5 2203   4.239   0.685   1.471 -0.1205  0.0362 -0.6486
  144MPD2    N1 2204   3.954   0.571   0.989  0.3398  0.0856 -0.2246
  144MPD2    H7 2205   3.966   0.470   0.991  0.2592  0.0421 -1.7230
  145TCq2    C1 2206   4.257   0.495   1.406 -0.4242 -0.0030 -0.3939
  145TCq2    O2 2207   4.224   0.395   1.346  0.6733  0.0457 -0.3555
  145TCq2    C2 2208   4.317   0.473   1.537 -0.5273 -0.3794 -0.5948
  145TCq2    C3 2209   4.294   0.353   1.597 -0.1161  0.5778 -0.6416
  145TCq2    C4 2210   4.335   0.328   1.724 -0.0374  0.0766 -0.6838
  145TCq2    C5 2211   4.380   0.422   1.805  0.6056 -0.4702 -0.0545
  145TCq2    C6 2212   4.395   0.545   1.751 -0.6655  0.3513  0.2779
  145TCq2    C7 2213   4.374   0.577   1.614  0.6764 -0.4346  0.1781
  145TCq2    C8 2214   4.463   0.652   1.836 -0.2083 -0.0311  0.2042
  145TCq2    O4 2215   4.536   0.609   1.925 -0.0486 -0.2225 -1.2067
  145TCq2    C9 2216   4.325   0.193   1.769 -0.2135 -0.1499 -0.2635
  145TCq2    O5 2217   4.338   0.177   1.897 -0.0436  0.4680 -0.5737
  145TCq2    O6 2218   4.291   0.113   1.684  0.8788 -0.0641 -0.1500
  145TCq2    H2 2219   4.236   0.279   1.543 -0.5437  0.5595 -0.1628
  145TCq2    H3 2220   4.415   0.402   1.905  4.6944  1.6983 -1.0571
  145TCq2    H4 2221   4.405   0.668   1.564 -1.4535  0.3458  0.2873
  146TMC2    C1 2222   0.628   4.148  12.537 -0.0134 -0.4188 -0.7819
  146TMC2    C2 2223   0.604   4.235  12.436 -0.6934 -1.2895 -0.3917
  146TMC2    C3 2224   0.654   4.204  12.309  0.8872  0.2837  0.5893
  146TMC2    C4 2225   0.676   4.023  12.516 -0.4894  0.0046  0.4468
  146TMC2    C5 2226   0.726   3.995  12.384 -0.2632  0.2130 -0.3712
  146TMC2    C6 2227   0.715   4.084  12.281  0.1477 -0.0183  0.7827
  146TMC2     C 2228   0.587   4.194  12.672  0.1811  0.1193  0.4038
  146TMC2     O 2229   0.553   4.313  12.680  0.2316  0.1673 -0.0379
  146TMC2     H 2230   0.593   4.341  12.456  0.7388 -0.9441 -1.4463
  146TMC2    H1 2231   0.674   3.950  12.596 -0.6300  0.8967  1.2513
  146TMC2    H2 2232   0.753   4.061  12.183  4.1982  1.2658  2.0424
  146TMC2    C7 2233   0.762   3.857  12.344 -0.1633  0.1075  0.1659
  146TMC2    C8 2234   0.673   4.298  12.205 -0.0462 -0.7883  0.2346
  146TMC2    O1 2235   0.762   3.834  12.222  0.1006 -0.2407  0.4965
  146TMC2    O2 2236   0.757   4.280  12.119  0.0127  0.5432 -1.1825
  146TMC2    O5 2237   0.583   4.394  12.204  0.8144  0.0989 -0.0936
  146TMC2    H5 2238   0.519   4.382  12.278  2.0141  3.1141  1.4514
  147MPD2     C 2239   0.959   3.417  12.425 -0.2017 -0.1691 -0.3462
  147MPD2    C1 2240   0.940   3.467  12.553  0.6323  0.4716 -0.5619
  147MPD2    C2 2241   0.869   3.583  12.556 -0.4523  0.0347 -0.0613
  147MPD2    C3 2242   0.835   3.648  12.433 -0.2318 -0.2876  0.0817
  147MPD2    C4 2243   0.842   3.577  12.313 -0.5675 -1.1324  0.7552
  147MPD2    C5 2244   0.900   3.458  12.310  0.1658 -0.3628  0.3753
  147MPD2     H 2245   0.857   3.632  12.652  0.4963  1.2613 -0.5802
  147MPD2    H1 2246   0.801   3.608  12.218  3.0028  0.5848 -0.1948
  147MPD2    H2 2247   1.024   3.330  12.414 -0.3284 -0.0476 -1.9641
  147MPD2    H3 2248   0.914   3.409  12.214  1.8093  1.6994 -0.4280
  147MPD2     N 2249   0.798   3.779  12.450 -0.0230 -0.0029 -0.1911
  147MPD2    H5 2250   0.808   3.824  12.541 -1.0615 -3.2742  1.5554
  147MPD2    N1 2251   1.006   3.412  12.664  0.2345 -0.2925 -0.4651
  147MPD2    H7 2252   1.081   3.346  12.648  0.3947 -0.0352 -0.7886
  148MPD2     C 2253   1.219   3.234  10.252  0.3712  0.2882 -0.5029
  148MPD2    C1 2254   1.286   3.115  10.227 -0.1500  0.1568  0.4804
  148MPD2    C2 2255   1.206   3.016  10.177 -0.3068 -0.0665  0.2925
  148MPD2    C3 2256   1.073   3.038  10.141 -0.1304 -0.2515 -0.2919
  148MPD2    C4 2257   1.016   3.165  10.147 -0.0151 -0.4277  0.8310
  148MPD2    C5 2258   1.094   3.260  10.205 -0.0842  0.2404 -0.2699
  148MPD2     H 2259   1.253   2.919  10.161 -0.2063 -0.2041  1.4232
  148MPD2    H1 2260   0.916   3.188  10.114 -0.0823  0.0207  1.3381
  148MPD2    H2 2261   1.267   3.319  10.299  2.0588 -1.2856  0.6450
  148MPD2    H3 2262   1.058   3.362  10.207  0.1915  0.3591 -1.2615
  148MPD2     N 2263   0.986   2.936  10.100  0.5681 -0.1924 -0.6270
  148MPD2    H5 2264   0.896   2.965  10.063  1.3012  1.9788 -0.7061
  148MPD2    N1 2265   1.422   3.093  10.256 -0.0042 -0.1129  0.2165
  148MPD2    H7 2266   1.457   3.000  10.233 -0.9687 -0.4455  0.1119
  149TCq2    C1 2267   1.501   3.179  10.320 -0.7924  0.1548  0.2192
  149TCq2    O2 2268   1.480   3.297  10.333  0.1284  0.2367  0.3482
  149TCq2    C2 2269   1.606   3.118  10.402  0.3214 -0.2566  0.1312
  149TCq2    C3 2270   1.731   3.173  10.410 -0.8347  0.1090 -0.1392
  149TCq2    C4 2271   1.832   3.093  10.455 -0.3816  0.2919 -0.5516
  149TCq2    C5 2272   1.808   2.966  10.491 -0.2012  0.5385  0.5090
  149TCq2    C6 2273   1.686   2.909  10.469  0.3169 -0.1616 -0.6136
  149TCq2    C7 2274   1.583   2.985  10.430 -0.3483  0.0092  0.3005
  149TCq2    C8 2275   1.680   2.767  10.448 -0.0680  0.4079 -0.5527
  149TCq2    O4 2276   1.568   2.722  10.470  0.4773 -0.7568  0.4511
  149TCq2    C9 2277   1.971   3.125  10.414  0.6784  0.2486  0.5758
  149TCq2    O5 2278   2.052   3.032  10.406  0.0847  0.4026  0.2865
  149TCq2    O6 2279   1.996   3.246  10.395 -0.0668 -0.1735  0.7034
  149TCq2    H2 2280   1.753   3.274  10.375 -1.8608  1.1575  2.2664
  149TCq2    H3 2281   1.888   2.903  10.528 -0.8792 -1.0115 -0.6585
  149TCq2    H4 2282   1.491   2.932  10.410 -0.2509 -0.0765  0.0751
  150MPD2     C 2283   2.978   1.379  12.039  0.5782  0.0250  0.2375
  150MPD2    C1 2284   2.964   1.506  11.982  0.3413 -0.5046  0.8882
  150MPD2    C2 2285   3.060   1.604  12.009  0.5829 -0.1224  0.1764
  150MPD2    C3 2286   3.171   1.573  12.087 -0.1985 -0.4672  0.1369
  150MPD2    C4 2287   3.179   1.447  12.143 -0.4683  0.2496 -0.1344
  150MPD2    C5 2288   3.092   1.347  12.114 -0.3234 -0.6402 -0.3260
  150MPD2     H 2289   3.049   1.707  11.977  0.7866 -0.4504 -0.9373
  150MPD2    H1 2290   3.256   1.413  12.211 -1.4813 -4.4447 -1.3135
  150MPD2    H2 2291   2.897   1.310  12.019  0.0579  0.8048 -0.3445
  150MPD2    H3 2292   3.098   1.247  12.155  1.2621  0.4911  2.1612
  150MPD2     N 2293   3.268   1.673  12.113 -0.7655  0.0260  0.0926
  150MPD2    H5 2294   3.255   1.759  12.061 -1.3199 -0.5855 -0.7833
  150MPD2    N1 2295   2.849   1.530  11.908 -0.5325  0.1493  0.6861
  150MPD2    H7 2296   2.779   1.456  11.913 -0.3252 -0.0374  0.8017
  151TCq2    C1 2297   3.378   1.659  12.196 -0.3969  0.1464 -0.1827
  151TCq2    O2 2298   3.402   1.579  12.280  0.6292 -0.4291  0.1680
  151TCq2    C2 2299   3.470   1.772  12.185 -0.2100  0.2082  0.0318
  151TCq2    C3 2300   3.424   1.892  12.123 -0.8310 -0.6361  0.4982
  151TCq2    C4 2301   3.476   2.005  12.170  0.9807 -0.1362  0.7158
  151TCq2    C5 2302   3.582   2.006  12.254  0.1524  0.8153 -0.7521
  151TCq2    C6 2303   3.632   1.885  12.299 -0.0093 -0.4994  0.0271
  151TCq2    C7 2304   3.575   1.767  12.271  0.3404  0.0653 -0.4962
  151TCq2    C8 2305   3.700   1.896  12.429  0.5480 -0.5952 -0.1965
  151TCq2    O4 2306   3.703   2.010  12.481  0.6351  0.2963 -0.2330
  151TCq2    C9 2307   3.429   2.130  12.123 -0.7897  0.0288 -0.2079
  151TCq2    O5 2308   3.489   2.235  12.144  0.4242 -0.3454  0.7637
  151TCq2    O6 2309   3.328   2.115  12.046 -0.0912  0.5891 -0.0286
  151TCq2    H2 2310   3.350   1.886  12.044 -2.1542  2.7441  1.4762
  151TCq2    H3 2311   3.639   2.098  12.268 -0.0251  0.6570  1.0702
  151TCq2    H4 2312   3.612   1.674  12.313  1.1562  0.6980  0.1827
  152MPD2     C 2313   2.855   1.673  12.259 -0.0543 -0.5016 -0.1110
  152MPD2    C1 2314   2.884   1.809  12.255  0.3674 -0.8362  0.0890
  152MPD2    C2 2315   2.791   1.895  12.210 -0.2787  0.1073 -0.9672
  152MPD2    C3 2316   2.672   1.855  12.169  0.4259 -0.1520  0.1116
  152MPD2    C4 2317   2.635   1.717  12.174  0.3052 -0.3118  0.0338
  152MPD2    C5 2318   2.735   1.627  12.218 -0.5635  0.6185  0.0009
  152MPD2     H 2319   2.807   2.002  12.203  1.6702 -0.0740  0.9452
  152MPD2    H1 2320   2.533   1.683  12.162  0.0894 -0.1994  1.5102
  152MPD2    H2 2321   2.924   1.601  12.303 -0.8893  1.1644  3.8405
  152MPD2    H3 2322   2.717   1.521  12.235 -1.7541  0.6583 -1.0344
  152MPD2     N 2323   2.583   1.962  12.148 -0.5161 -0.0383  0.1260
  152MPD2    H5 2324   2.622   2.056  12.148 -0.7107  0.0510 -1.9019
  152MPD2    N1 2325   3.011   1.843  12.309  0.7574  0.0643  0.1863
  152MPD2    H7 2326   3.045   1.770  12.370 -1.4485 -1.7781 -0.7866
  153TCq2    C1 2327   3.065   1.969  12.314 -0.0623  0.2988 -0.0428
  153TCq2    O2 2328   3.033   2.074  12.265 -0.3308  0.0877  0.8099
  153TCq2    C2 2329   3.177   1.974  12.414  0.0114 -0.4312 -0.7526
  153TCq2    C3 2330   3.216   1.867  12.493  0.2031 -0.3732  0.2413
  153TCq2    C4 2331   3.318   1.876  12.583  0.2582 -0.3893  0.7751
  153TCq2    C5 2332   3.394   1.985  12.586 -0.0831  0.1408  0.3024
  153TCq2    C6 2333   3.356   2.089  12.503 -0.2007 -0.1811  0.2084
  153TCq2    C7 2334   3.250   2.091  12.416 -0.0710  0.1341 -0.8003
  153TCq2    C8 2335   3.409   2.222  12.526 -0.4319  0.1589 -0.2521
  153TCq2    O4 2336   3.331   2.308  12.493 -0.2626 -0.3144  1.1707
  153TCq2    C9 2337   3.344   1.765  12.673  0.4831 -0.2016  0.1502
  153TCq2    O5 2338   3.257   1.682  12.704 -0.0858  0.5645 -0.8286
  153TCq2    O6 2339   3.457   1.770  12.734  0.5725 -0.4902  0.4655
  153TCq2    H2 2340   3.160   1.774  12.495 -1.6574  0.7717  1.0334
  153TCq2    H3 2341   3.467   1.991  12.666 -0.4241  0.8314  0.5663
  153TCq2    H4 2342   3.237   2.170  12.344  2.0527  1.1549 -0.0447
  154MPD2     C 2343   4.054   2.035   0.209  0.1240  0.3358  0.0145
  154MPD2    C1 2344   4.057   2.003   0.340 -0.4028 -0.6362 -0.4315
  154MPD2    C2 2345   3.973   2.063   0.433  0.3426 -0.2184  0.3869
  154MPD2    C3 2346   3.869   2.138   0.382 -0.7795  0.3859  0.0497
  154MPD2    C4 2347   3.854   2.164   0.241 -0.2370  0.2809 -0.9728
  154MPD2    C5 2348   3.952   2.111   0.154  0.4374  0.3168 -0.3302
  154MPD2     H 2349   4.005   2.062   0.537  3.1979 -1.7087 -0.5375
  154MPD2    H1 2350   3.767   2.215   0.201  0.0668  1.5024 -0.0516
  154MPD2    H2 2351   4.132   1.997   0.143  0.1637 -1.2069  0.9409
  154MPD2    H3 2352   3.950   2.130   0.048 -0.7599 -0.3659 -0.4359
  154MPD2     N 2353   3.779   2.186   0.480  0.5687  0.2396 -0.7286
  154MPD2    H5 2354   3.796   2.170   0.579 -1.3301  0.5710 -0.3406
  154MPD2    N1 2355   4.161   1.914   0.385  0.9625 -0.1968  0.3545
  154MPD2    H7 2356   4.211   1.871   0.308 -0.5025  3.0273 -2.3734
  155TCq2    C1 2357   4.182   1.864   0.514 -0.2007 -0.4003  0.6807
  155TCq2    O2 2358   4.109   1.880   0.609  0.5621 -0.3284  0.1951
  155TCq2    C2 2359   4.282   1.759   0.521  0.3364  0.2551  0.1267
  155TCq2    C3 2360   4.264   1.668   0.624  0.1335  0.1947  0.0334
  155TCq2    C4 2361   4.368   1.590   0.665  0.0063 -0.1211  0.3751
  155TCq2    C5 2362   4.492   1.600   0.603  0.0074  0.1213 -0.5806
  155TCq2    C6 2363   4.507   1.693   0.506  0.1190  0.3923 -0.1823
  155TCq2    C7 2364   4.404   1.770   0.457  0.4035  0.0400  0.6580
  155TCq2    C8 2365   4.631   1.685   0.424  0.0388  0.9064  0.1925
  155TCq2    O4 2366   4.713   1.601   0.459  0.3000 -0.5082 -0.0956
  155TCq2    C9 2367   4.355   1.503   0.775  0.3840 -0.0459  0.2883
  155TCq2    O5 2368   4.460   1.440   0.799 -0.4000 -0.1682  0.0963
  155TCq2    O6 2369   4.254   1.483   0.850  0.1366  0.1852  0.4057
  155TCq2    H2 2370   4.171   1.666   0.679 -0.3040  0.7554 -0.6808
  155TCq2    H3 2371   4.581   1.547   0.635 -1.0533 -0.5460  1.2182
  155TCq2    H4 2372   4.415   1.851   0.386 -3.2903  1.1957  1.4200
  156MPD2     C 2373   3.418   4.007  11.779 -0.6805 -0.4257  0.1142
  156MPD2    C1 2374   3.340   4.104  11.725 -0.7561  0.0218 -0.3964
  156MPD2    C2 2375   3.278   4.200  11.802 -0.2643 -0.4812  0.0118
  156MPD2    C3 2376   3.282   4.183  11.938  0.0673 -0.2063  0.1661
  156MPD2    C4 2377   3.356   4.079  11.996  0.0057 -0.8725  0.1857
  156MPD2    C5 2378   3.424   3.989  11.916 -0.3981 -0.1984  0.1496
  156MPD2     H 2379   3.214   4.277  11.761  2.6232  2.6656  1.3933
  156MPD2    H1 2380   3.359   4.053  12.101  1.3263  1.3314  0.6844
  156MPD2    H2 2381   3.471   3.945  11.707 -1.3298  0.1641 -0.8693
  156MPD2    H3 2382   3.492   3.915  11.958 -1.2109 -1.0913 -0.1084
  156MPD2     N 2383   3.211   4.283  12.005  1.0209  0.2119  0.3794
  156MPD2    H5 2384   3.181   4.362  11.949 -0.0619  1.5046  2.7765
  156MPD2    N1 2385   3.311   4.096  11.587 -0.1354  0.2544 -0.7295
  156MPD2    H7 2386   3.349   4.016  11.538  1.0391 -0.5968  1.5798
  157TCq2    C1 2387   3.212   4.163  11.519  0.3064 -0.1411 -0.1817
  157TCq2    O2 2388   3.139   4.259  11.548  0.2905 -0.2329  0.0930
  157TCq2    C2 2389   3.199   4.114  11.382 -0.4973  0.1878  0.3222
  157TCq2    C3 2390   3.304   4.057  11.319  0.1971  0.1480  0.4988
  157TCq2    C4 2391   3.284   4.000  11.195  0.0061  0.3708  0.3177
  157TCq2    C5 2392   3.162   4.004  11.136  0.0060 -0.2590  0.0397
  157TCq2    C6 2393   3.057   4.056  11.209 -0.6537 -0.2558  0.0272
  157TCq2    C7 2394   3.074   4.114  11.335  0.1933 -0.0143 -0.3138
  157TCq2    C8 2395   2.943   4.104  11.131  0.3235 -0.0054  0.1492
  157TCq2    O4 2396   2.951   4.119  11.010  0.0866  0.4853  0.3056
  157TCq2    C9 2397   3.390   3.928  11.142  0.3102  0.1865 -0.5090
  157TCq2    O5 2398   3.386   3.901  11.018  0.0823  0.2263  0.0323
  157TCq2    O6 2399   3.488   3.914  11.221 -0.2327  0.3681  0.0156
  157TCq2    H2 2400   3.402   4.065  11.365  0.3241  0.4931  0.1675
  157TCq2    H3 2401   3.151   3.984  11.030  0.4426  1.5752 -0.3511
  157TCq2    H4 2402   2.999   4.178  11.379  0.8530 -0.0754  0.8747
  158TMC2    C1 2403   2.979   3.132  13.052 -0.8042 -0.1039 -0.1286
  158TMC2    C2 2404   3.004   3.208  12.942  0.5290 -0.2290  0.0808
  158TMC2    C3 2405   2.896   3.260  12.870  0.4947 -0.3706 -0.7179
  158TMC2    C4 2406   2.850   3.094  13.088  0.3659 -0.1492  0.5302
  158TMC2    C5 2407   2.747   3.143  13.016 -0.6111 -0.0229 -0.1642
  158TMC2    C6 2408   2.763   3.234  12.911 -0.1878  1.0577  0.5873
  158TMC2     C 2409   3.098   3.068  13.115 -1.1065  0.2478  0.3709
  158TMC2     O 2410   3.203   3.062  13.055  0.4009  0.2656 -0.5741
  158TMC2     H 2411   3.110   3.222  12.923  0.4363 -0.8407 -0.8544
  158TMC2    H1 2412   2.833   3.030  13.174  0.0688  1.4354  1.6401
  158TMC2    H2 2413   2.679   3.270  12.852 -0.0967 -2.1829 -1.4956
  158TMC2    C7 2414   2.605   3.096  13.040  0.6315  0.1287 -0.1168
  158TMC2    C8 2415   2.906   3.304  12.732  0.4370  0.4277  0.2340
  158TMC2    O1 2416   2.518   3.179  13.025  0.2762  0.0337  0.1617
  158TMC2    O2 2417   2.815   3.275  12.656 -0.1888 -0.1130  0.2373
  158TMC2    O5 2418   3.010   3.387  12.703  0.0419 -0.4248  0.1055
  158TMC2    H5 2419   3.071   3.401  12.779 -0.5649  1.9071  0.1632
  159MPD2     C 2420   3.341   2.862  13.521 -0.4411 -0.2782  0.3229
  159MPD2    C1 2421   3.214   2.901  13.559  0.2262  0.9556 -0.1993
  159MPD2    C2 2422   3.128   2.958  13.467  0.2162 -0.2390  0.4057
  159MPD2    C3 2423   3.163   2.965  13.330  0.8122 -0.0049 -0.2002
  159MPD2    C4 2424   3.281   2.903  13.297  0.1605 -0.7686  0.3722
  159MPD2    C5 2425   3.366   2.853  13.391  0.6436 -0.1551  0.5158
  159MPD2     H 2426   3.036   3.010  13.490  0.2138 -0.8264  1.7229
  159MPD2    H1 2427   3.321   2.891  13.197 -1.5719  3.1874 -0.7817
  159MPD2    H2 2428   3.417   2.831  13.592 -0.9744 -2.2735  0.0408
  159MPD2    H3 2429   3.466   2.814  13.374  0.6461  0.0933 -0.0319
  159MPD2     N 2430   3.070   3.022  13.242  0.4259 -0.1363  0.3067
  159MPD2    H5 2431   2.983   3.052  13.284 -0.6089 -0.7677 -1.4064
  159MPD2    N1 2432   3.183   2.891  13.699 -0.3439 -0.1858 -0.1746
  159MPD2    H7 2433   3.249   2.844  13.761 -0.4762 -0.1279  0.0084
  160TMC2    C1 2434   3.030   0.902   1.638 -0.3091  0.1926  1.1247
  160TMC2    C2 2435   3.126   0.911   1.737 -0.4885 -0.4742  0.0171
  160TMC2    C3 2436   3.254   0.926   1.692  0.0862  0.4791 -0.8638
  160TMC2    C4 2437   3.059   0.927   1.506 -0.0190 -0.5735  0.4866
  160TMC2    C5 2438   3.191   0.942   1.472  0.0216  0.3145  0.4400
  160TMC2    C6 2439   3.291   0.930   1.561 -0.0722 -0.2497  0.4518
  160TMC2     C 2440   2.891   0.889   1.675 -0.4808  0.1240 -0.4119
  160TMC2     O 2441   2.873   0.857   1.790  0.6109  0.0264  0.0729
  160TMC2     H 2442   3.101   0.887   1.840  0.6135 -1.4545  0.0570
  160TMC2    H1 2443   2.976   0.912   1.438  0.3496 -0.5293  0.0269
  160TMC2    H2 2444   3.392   0.952   1.529  0.2909 -0.2301  1.6244
  160TMC2    C7 2445   3.217   0.959   1.329 -0.5425  1.0269 -0.2176
  160TMC2    C8 2446   3.367   0.900   1.781 -0.0476  0.2561  0.4578
  160TMC2    O1 2447   3.170   0.883   1.249 -0.2740 -0.6946 -0.4946
  160TMC2    O2 2448   3.474   0.863   1.732 -0.5404 -0.3853 -0.2584
  160TMC2    O5 2449   3.338   0.909   1.910 -0.1948 -0.4396  0.2850
  160TMC2    H5 2450   3.249   0.948   1.924 -0.9643 -1.7791 -0.9110
  161MPD2     C 2451   2.602   0.845   1.673 -0.1113 -0.2472  0.7267
  161MPD2    C1 2452   2.664   0.943   1.601  0.1057  0.5980 -0.0123
  161MPD2    C2 2453   2.587   1.029   1.523  0.6585 -0.5753  0.0937
  161MPD2    C3 2454   2.453   1.019   1.510  0.5796 -1.3326  0.2963
  161MPD2    C4 2455   2.383   0.933   1.593  0.2889  1.0952 -0.2099
  161MPD2    C5 2456   2.462   0.844   1.669  0.2518  0.2616  0.1201
  161MPD2     H 2457   2.636   1.111   1.472 -3.7710 -0.5049 -4.0328
  161MPD2    H1 2458   2.276   0.928   1.582  0.4783  0.0780 -1.4860
  161MPD2    H2 2459   2.638   0.762   1.733 -0.6210  1.0269  2.7946
  161MPD2    H3 2460   2.415   0.767   1.730  1.5020 -0.1351  0.5735
  161MPD2     N 2461   2.378   1.096   1.409 -0.3503 -0.3126  0.3846
  161MPD2    H5 2462   2.277   1.089   1.406 -0.2572 -0.7203 -1.7586
  161MPD2    N1 2463   2.805   0.957   1.598  0.0630  1.2555  0.2005
  161MPD2    H7 2464   2.836   1.021   1.526  1.6293  1.6532  1.2267
  162TMC2    C1 2465   0.590   2.713   1.393 -0.2087  0.1644  0.5336
  162TMC2    C2 2466   0.464   2.752   1.357  0.5770  0.4339 -1.1974
  162TMC2    C3 2467   0.353   2.680   1.392  0.9877 -0.3195  0.4341
  162TMC2    C4 2468   0.603   2.600   1.470 -0.2844 -0.2429 -0.4847
  162TMC2    C5 2469   0.488   2.520   1.498 -0.3280  0.5394 -0.6152
  162TMC2    C6 2470   0.364   2.565   1.464 -0.0021  0.3319  0.0237
  162TMC2     C 2471   0.696   2.738   1.294  1.0986  0.1501  0.1299
  162TMC2     O 2472   0.654   2.753   1.183  0.0576 -0.0699  0.1982
  162TMC2     H 2473   0.448   2.820   1.273  0.0446  0.3639 -1.1503
  162TMC2    H1 2474   0.704   2.568   1.492  0.2004  1.1882 -0.6598
  162TMC2    H2 2475   0.277   2.505   1.487 -0.5033  0.9585 -0.2176
  162TMC2    C7 2476   0.496   2.383   1.554  0.7242 -0.1036  0.1212
  162TMC2    C8 2477   0.244   2.701   1.301  0.1180  0.8821  0.5076
  162TMC2    O1 2478   0.394   2.321   1.574 -0.0319  0.3195  0.4298
  162TMC2    O2 2479   0.179   2.807   1.295  0.5828  0.3831  0.2641
  162TMC2    O5 2480   0.296   2.648   1.190 -0.0959  0.0481 -0.3847
  162TMC2    H5 2481   0.370   2.585   1.185  0.6733  0.8550  0.7898
  163MPD2     C 2482   1.163   2.837   1.105 -0.9696  0.5199  0.1462
  163MPD2    C1 2483   1.048   2.808   1.042 -0.1665 -0.1876  0.1639
  163MPD2    C2 2484   0.935   2.762   1.116  0.1140  0.2724 -0.3727
  163MPD2    C3 2485   0.938   2.766   1.253 -0.0724 -0.1285 -0.1171
  163MPD2    C4 2486   1.051   2.810   1.318  0.1929 -0.2234  0.1049
  163MPD2    C5 2487   1.162   2.838   1.244 -0.1681 -0.2465  0.3295
  163MPD2     H 2488   0.848   2.729   1.061 -0.3511  0.5103  0.2146
  163MPD2    H1 2489   1.070   2.806   1.425 -0.5983 -0.5072  0.2328
  163MPD2    H2 2490   1.256   2.862   1.056 -1.2888  0.5889 -0.4246
  163MPD2    H3 2491   1.243   2.868   1.309  2.5943 -1.8085 -2.3997
  163MPD2     N 2492   0.826   2.737   1.336  0.0063 -0.1680 -0.7367
  163MPD2    H5 2493   0.844   2.742   1.436 -0.0998  1.2217 -0.7913
  163MPD2    N1 2494   1.044   2.794   0.900  0.2965  0.3127  0.1532
  163MPD2    H7 2495   0.956   2.756   0.868 -0.7786  2.6369  0.3559
  164TCq2    C1 2496   2.043   2.348  10.817  0.1047  0.1770 -0.2865
  164TCq2    O2 2497   1.982   2.274  10.897  0.1181  0.5474  0.2855
  164TCq2    C2 2498   2.017   2.486  10.824  0.2798  0.0625 -0.4834
  164TCq2    C3 2499   2.076   2.573  10.733  0.2887 -0.3129  0.7863
  164TCq2    C4 2500   2.025   2.700  10.724  0.2336  0.4630  0.3437
  164TCq2    C5 2501   1.920   2.745  10.797 -0.3071  0.5095  0.9468
  164TCq2    C6 2502   1.881   2.661  10.899  0.5476 -0.1694  0.3263
  164TCq2    C7 2503   1.921   2.532  10.912 -0.5612  0.2577 -0.3339
  164TCq2    C8 2504   1.760   2.704  10.968 -0.0653 -0.2725 -0.1782
  164TCq2    O4 2505   1.690   2.785  10.912 -0.3665 -0.4918 -0.5816
  164TCq2    C9 2506   2.092   2.800  10.644 -0.5079 -0.2657 -0.0052
  164TCq2    O5 2507   2.177   2.749  10.564  0.4385 -0.9287  0.3413
  164TCq2    O6 2508   2.099   2.916  10.685  0.0141  0.0538  0.2091
  164TCq2    H2 2509   2.167   2.546  10.681  0.1435  1.5622 -0.4134
  164TCq2    H3 2510   1.874   2.842  10.782  0.0625  0.6243  0.5534
  164TCq2    H4 2511   1.896   2.466  10.994 -2.7260  0.4997 -0.8035
  165MPD2     C 2512   1.776   4.326   1.747 -0.3703 -0.6828 -0.3930
  165MPD2    C1 2513   1.825   4.415   1.652  0.3520 -0.8309 -0.3198
  165MPD2    C2 2514   1.959   4.455   1.672  0.1660 -0.4319 -0.0227
  165MPD2    C3 2515   2.030   4.422   1.787  0.8605 -0.0675  0.4009
  165MPD2    C4 2516   1.975   4.342   1.883 -0.4152 -0.8635  0.2940
  165MPD2    C5 2517   1.849   4.291   1.861 -0.0004  0.1845  0.1403
  165MPD2     H 2518   2.006   4.514   1.594 -0.9206  0.7284  0.2009
  165MPD2    H1 2519   2.033   4.331   1.973 -0.5219 -0.1803  0.4453
  165MPD2    H2 2520   1.685   4.273   1.721 -0.8707 -0.0967  0.1465
  165MPD2    H3 2521   1.810   4.216   1.929  0.1577 -0.7402 -0.7830
  165MPD2     N 2522   2.158   4.470   1.808 -0.2568 -0.1785 -0.5375
  165MPD2    H5 2523   2.195   4.425   1.890  0.5148 -0.2464 -0.9219
  165MPD2    N1 2524   1.753   4.439   1.530  0.2537 -0.6760  0.2901
  165MPD2    H7 2525   1.667   4.387   1.514  1.6034 -2.3896 -1.4036
  166TCq2    C1 2526   2.223   4.561   1.724 -0.7141 -0.1947  0.0311
  166TCq2    O2 2527   2.186   4.636   1.629  0.3594 -0.4146  0.0170
  166TCq2    C2 2528   2.363   4.567   1.753 -0.2108  0.6202 -0.4936
  166TCq2    C3 2529   2.421   4.460   1.822 -0.3768  0.2331  0.3042
  166TCq2    C4 2530   2.550   4.488   1.877 -0.3137  0.5007 -0.0809
  166TCq2    C5 2531   2.622   4.606   1.855  0.3175 -0.2083 -0.1942
  166TCq2    C6 2532   2.563   4.700   1.777 -0.0605  0.4282  0.7253
  166TCq2    C7 2533   2.427   4.680   1.727 -0.0590 -0.8284  0.1477
  166TCq2    C8 2534   2.642   0.095   1.747  0.4150 -0.4488  0.6746
  166TCq2    O4 2535   2.762   0.078   1.749  0.0450  0.5878 -0.2397
  166TCq2    C9 2536   2.615   4.387   1.958 -0.3720 -0.0392  0.4287
  166TCq2    O5 2537   2.713   4.418   2.021 -0.1162 -0.0567  0.5036
  166TCq2    O6 2538   2.528   4.302   2.009 -0.1400 -0.5917 -0.0620
  166TCq2    H2 2539   2.381   4.359   1.822  0.6495 -0.1727  0.4956
  166TCq2    H3 2540   2.725   4.608   1.887 -0.5019 -0.8056  2.5042
  166TCq2    H4 2541   2.386   0.037   1.668 -1.3872  0.1048  2.3342
  167TMC2    C1 2542   0.930   2.410  12.490  0.2456 -0.3586 -0.8233
  167TMC2    C2 2543   0.835   2.437  12.583  0.3435 -0.2268 -0.1361
  167TMC2    C3 2544   0.816   2.334  12.674  0.3301 -0.3703  0.1745
  167TMC2    C4 2545   1.002   2.299  12.475  0.1305  0.2854 -0.6047
  167TMC2    C5 2546   0.981   2.203  12.562 -0.5053  0.3184 -1.1460
  167TMC2    C6 2547   0.893   2.220  12.671 -0.0096  0.7084 -0.2530
  167TMC2     C 2548   0.931   2.506  12.369 -0.0760 -0.3693  0.4493
  167TMC2     O 2549   0.955   2.625  12.388 -0.2705 -0.2736  0.5149
  167TMC2     H 2550   0.764   2.518  12.573  0.8177  0.3783  1.3078
  167TMC2    H1 2551   1.081   2.292  12.401 -0.4197  0.5303 -1.2114
  167TMC2    H2 2552   0.866   2.140  12.739  0.0021  1.2692  0.4118
  167TMC2    C7 2553   1.067   2.085  12.561  0.0577  0.8056  0.1837
  167TMC2    C8 2554   0.700   2.335  12.758 -0.4953  0.0293 -0.6573
  167TMC2    O1 2555   1.048   2.012  12.656 -0.2738 -0.1926  0.2821
  167TMC2    O2 2556   0.654   2.237  12.811  0.3406  0.5513 -0.1160
  167TMC2    O5 2557   0.618   2.432  12.723  0.3787  0.0590 -0.3599
  167TMC2    H5 2558   0.661   2.516  12.695  0.3095  0.3473  0.4133
  168MPD2     C 2559   0.936   2.619  12.089  0.1394  0.2058  0.0158
  168MPD2    C1 2560   0.935   2.487  12.117  0.2264 -0.5840  0.3951
  168MPD2    C2 2561   0.943   2.389  12.018 -0.3493  0.0056  0.6169
  168MPD2    C3 2562   0.938   2.424  11.885 -0.1181 -0.2465  0.3838
  168MPD2    C4 2563   0.918   2.556  11.856  0.6000  0.3505  0.1280
  168MPD2    C5 2564   0.919   2.652  11.955 -0.6338  0.6357 -0.1604
  168MPD2     H 2565   0.952   2.285  12.046  1.3308 -0.8904 -3.3296
  168MPD2    H1 2566   0.908   2.598  11.756  0.6261  0.6127  0.2346
  168MPD2    H2 2567   0.943   2.702  12.159  0.2811  0.4397 -0.2741
  168MPD2    H3 2568   0.916   2.754  11.920  0.1484  0.7549  0.1340
  168MPD2     N 2569   0.957   2.325  11.787 -0.7332  0.1777  0.0148
  168MPD2    H5 2570   0.918   2.347  11.696 -0.9131  2.1790  0.5830
  168MPD2    N1 2571   0.929   2.441  12.246  0.6061 -0.4566 -0.3403
  168MPD2    H7 2572   0.914   2.340  12.248 -3.5102  0.1162 -1.6980
  169MPD1     C 2573   4.125   1.221   9.565  0.1323 -0.4979 -0.7819
  169MPD1    C1 2574   4.058   1.225   9.446  0.2282 -0.0213  0.5865
  169MPD1    C2 2575   4.009   1.349   9.391 -0.1346 -0.5729  0.2403
  169MPD1    C3 2576   4.019   1.462   9.467  1.0062 -0.2155 -0.2540
  169MPD1    C4 2577   4.069   1.457   9.592  0.2874  0.0200 -0.6636
  169MPD1    C5 2578   4.125   1.345   9.631 -0.0143  0.6781 -0.0770
  169MPD1     H 2579   3.971   1.356   9.290 -0.6769  0.0610  0.4844
  169MPD1    H1 2580   4.068   1.528   9.673 -0.1937 -0.8793  0.1190
  169MPD1    H2 2581   4.171   1.135   9.612  2.5079  1.8107  1.0925
  169MPD1    H3 2582   4.164   1.355   9.732  2.0458 -2.1053 -0.5882
  169MPD1     N 2583   3.963   1.586   9.416 -0.1664 -0.4525  0.5250
  169MPD1    H5 2584   3.934   1.577   9.320 -1.5209  0.6801  0.8318
  169MPD1    N1 2585   4.051   1.113   9.361 -0.8040  0.1809 -0.2844
  169MPD1    H6 2586   4.055   1.023   9.409  1.5297  0.3081 -0.2372
  169MPD1    H7 2587   3.956   1.113   9.323 -1.2376  0.6245  0.7930
  170MPD1     C 2588   1.461   0.231  13.206 -0.2302 -0.0209 -0.1116
  170MPD1    C1 2589   1.489   0.358  13.246 -0.5580 -0.4513  0.2346
  170MPD1    C2 2590   1.601   0.372  13.322  0.4086  0.5608  0.0742
  170MPD1    C3 2591   1.695   0.267  13.351  0.2808  0.4483 -0.2075
  170MPD1    C4 2592   1.672   0.136  13.297 -0.1927  0.1329  0.0875
  170MPD1    C5 2593   1.548   0.126  13.234 -0.5075 -0.5019  0.3267
  170MPD1     H 2594   1.617   0.471  13.363 -0.1861  0.4758  0.5137
  170MPD1    H1 2595   1.734   0.050  13.318 -0.8257  0.1631  2.0047
  170MPD1    H2 2596   1.376   0.218  13.140 -0.1763 -0.9010 -0.0012
  170MPD1    H3 2597   1.506   0.030  13.205  1.2287 -0.5921 -1.9112
  170MPD1     N 2598   1.808   0.298  13.428  0.1756  0.8509 -0.3218
  170MPD1    H5 2599   1.819   0.396  13.454 -2.9027  1.3850 -0.9520
  170MPD1    N1 2600   1.396   0.457  13.231  0.3301  0.0712  0.1869
  170MPD1    H6 2601   1.323   0.433  13.164 -1.3488  0.8094  1.7536
  170MPD1    H7 2602   1.437   0.546  13.205  0.3273  0.6043  1.9990
  171MPD1     C 2603   0.732   1.293  15.150  0.0603 -0.0059 -0.3385
  171MPD1    C1 2604   0.620   1.221  15.108  0.0318 -0.4863  0.7676
  171MPD1    C2 2605   0.588   1.108  15.185 -0.2873  0.1058  0.0609
  171MPD1    C3 2606   0.651   1.074  15.303 -0.2334 -0.1901  0.1145
  171MPD1    C4 2607   0.757   1.150  15.343 -0.0407 -0.5362 -0.1458
  171MPD1    C5 2608   0.802   1.256  15.265  0.2841  0.6985  0.1426
  171MPD1     H 2609   0.504   1.047  15.155  0.0844 -0.7053  0.6777
  171MPD1    H1 2610   0.814   1.130  15.433  0.6748  2.3235  0.0385
  171MPD1    H2 2611   0.764   1.385  15.103  1.3063  1.4670  3.3621
  171MPD1    H3 2612   0.887   1.316  15.292  0.8233  0.2946 -0.6508
  171MPD1     N 2613   0.587   0.978  15.382  0.0631  0.3873 -0.0063
  171MPD1    H5 2614   0.503   0.939  15.339 -0.8585 -0.4454  2.5537
  171MPD1    N1 2615   0.538   1.260  15.002  0.5751 -0.4116  0.0953
  171MPD1    H6 2616   0.498   1.182  14.950  1.5282 -0.5330 -0.4643
  171MPD1    H7 2617   0.597   1.310  14.936  0.4548 -0.7646 -0.2758
  172MPD1     C 2618   4.538   0.181   0.650  0.4783  0.5286  0.0922
  172MPD1    C1 2619   4.452   0.269   0.585  0.2117  0.6162 -0.5930
  172MPD1    C2 2620   4.395   0.364   0.669  0.3367 -0.6176 -0.0607
  172MPD1    C3 2621   4.438   0.388   0.798  0.2660 -0.8984  0.2504
  172MPD1    C4 2622   4.537   0.308   0.854  0.3795 -0.2538 -0.5798
  172MPD1    C5 2623   4.590   0.216   0.772  0.2864  0.8623 -0.0243
  172MPD1     H 2624   4.300   0.413   0.649  0.9878  1.8214  2.7389
  172MPD1    H1 2625   4.568   0.309   0.958  0.1159  1.7651 -0.5213
  172MPD1    H2 2626   4.582   0.090   0.611 -2.3810 -0.2377 -1.3030
  172MPD1    H3 2627   4.664   0.157   0.825  0.5301 -0.1334 -1.4571
  172MPD1     N 2628   4.367   0.490   0.872  0.7782 -0.1039 -0.4537
  172MPD1    H5 2629   4.391   0.500   0.970  1.8977  0.9403 -0.8389
  172MPD1    N1 2630   4.403   0.227   0.461 -0.3145 -0.4403 -0.2953
  172MPD1    H6 2631   4.481   0.183   0.411  0.8804 -0.8496  1.9094
  172MPD1    H7 2632   4.354   0.300   0.411 -0.6626 -0.9730 -0.7222
  173MPD1     C 2633   1.573   0.529  14.226  0.2866  0.1169 -0.3432
  173MPD1    C1 2634   1.556   0.400  14.184 -0.2739 -0.7284  0.3180
  173MPD1    C2 2635   1.431   0.350  14.187  0.2875 -0.8368  1.0965
  173MPD1    C3 2636   1.327   0.411  14.250  0.0808  0.5799 -0.0971
  173MPD1    C4 2637   1.347   0.535  14.303 -0.1189  0.0336 -0.0514
  173MPD1    C5 2638   1.467   0.596  14.286  0.3179  0.1494  0.1294
  173MPD1     H 2639   1.421   0.250  14.148 -1.9170 -0.4721  0.7329
  173MPD1    H1 2640   1.268   0.592  14.350  0.5550  0.7912  0.1665
  173MPD1    H2 2641   1.672   0.574  14.224  1.0400 -1.5604 -1.0909
  173MPD1    H3 2642   1.483   0.693  14.331 -0.6892 -0.8333  2.5936
  173MPD1     N 2643   1.200   0.352  14.243 -0.3713 -0.0598 -0.4583
  173MPD1    H5 2644   1.188   0.263  14.195  0.2332 -0.7598  0.6860
  173MPD1    N1 2645   1.660   0.333  14.112  0.6795 -0.2875  0.4624
  173MPD1    H6 2646   1.646   0.232  14.101 -1.4952  0.2004 -1.1388
  173MPD1    H7 2647   1.752   0.352  14.151  0.4673  0.9264  0.3581
  174MPD1     C 2648   1.071   4.435  13.755  0.4102  0.1980 -0.3402
  174MPD1    C1 2649   0.988   4.393  13.853  0.1280  0.1380 -0.1715
  174MPD1    C2 2650   0.944   4.491  13.942 -0.2066 -0.4693 -0.0394
  174MPD1    C3 2651   0.993   4.622  13.933 -0.2657 -0.1654  0.4284
  174MPD1    C4 2652   1.076   4.655  13.827 -0.6036 -0.4016  0.0539
  174MPD1    C5 2653   1.114   4.560  13.733  0.1151 -0.5738  0.0470
  174MPD1     H 2654   0.875   4.463  14.020  1.6258  0.7552  2.0253
  174MPD1    H1 2655   1.101   0.035  13.810 -0.7181 -0.2023  1.0783
  174MPD1    H2 2656   1.101   4.376  13.670  2.7325 -0.2138  0.7733
  174MPD1    H3 2657   1.166   4.590  13.643 -0.1508 -0.0934  0.0517
  174MPD1     N 2658   0.954   0.003  14.015 -0.2895  0.4176  0.1229
  174MPD1    H5 2659   1.008   0.089  14.003 -0.8985  0.7766 -0.0726
  174MPD1    N1 2660   0.931   4.264  13.841  0.3662 -0.5168 -0.0816
  174MPD1    H6 2661   0.863   4.263  13.765  2.3752 -2.0856 -1.8469
  174MPD1    H7 2662   0.877   4.253  13.927 -1.0575 -0.4950 -0.9731
  175MPD1     C 2663   4.600   0.989  15.423 -0.1888 -0.2716  0.2144
  175MPD1    C1 2664   4.544   0.873  15.477  0.5331 -0.1745  0.2218
  175MPD1    C2 2665   4.489   0.887  15.603 -0.4401  0.1540  0.5193
  175MPD1    C3 2666   4.520   0.989  15.693  0.2352 -0.1734  0.3064
  175MPD1    C4 2667   4.612   1.081  15.645  0.2136  0.3728 -0.1417
  175MPD1    C5 2668   4.645   1.084  15.513  0.4364  1.1266 -0.5975
  175MPD1     H 2669   4.416   0.817  15.642 -2.4265  2.6367  1.2596
  175MPD1    H1 2670   4.649   1.156  15.714  1.5157 -0.6292  0.2510
  175MPD1    H2 2671   4.617   0.998  15.317  0.2706 -0.3772  0.2773
  175MPD1    H3 2672   4.687   1.179  15.485 -0.8927  1.8717 -0.0886
  175MPD1     N 2673   4.474   0.980  15.830 -0.1569 -0.6246  0.2041
  175MPD1    H5 2674   4.526   1.033  15.899  2.6117 -2.3022 -0.5924
  175MPD1    N1 2675   4.508   0.769  15.390  0.2041 -0.7889 -0.1825
  175MPD1    H6 2676   4.489   0.683  15.441  1.7239 -2.2824 -2.1358
  175MPD1    H7 2677   4.558   0.760  15.302  1.4497  0.0098  0.4411
  176MPD1     C 2678   0.756   2.794  16.748 -0.1063  0.1301  0.1496
  176MPD1    C1 2679   0.874   2.824  16.813  0.1611  0.3302  0.4624
  176MPD1    C2 2680   0.872   2.870  16.939 -0.0051  0.0948 -0.4515
  176MPD1    C3 2681   0.752   2.879  17.014  0.0546  0.8998 -0.1297
  176MPD1    C4 2682   0.639   2.839  16.948 -0.3773 -0.4570 -0.0965
  176MPD1    C5 2683   0.639   2.801  16.818  0.6071 -0.2638  0.3521
  176MPD1     H 2684   0.963   2.897  16.991  0.6684 -0.8821 -1.1161
  176MPD1    H1 2685   0.546   2.839  17.003  1.2310 -1.0280  2.5856
  176MPD1    H2 2686   0.763   2.739  16.655 -0.5062 -0.0558  0.2276
  176MPD1    H3 2687   0.546   2.778  16.768  1.3321 -1.7141 -0.3361
  176MPD1     N 2688   0.766   2.928  17.143 -0.0940 -0.5050 -0.6775
  176MPD1    H5 2689   0.860   2.952  17.170  0.4141 -1.1200 -1.8939
  176MPD1    N1 2690   0.994   2.785  16.751 -0.5457 -0.4183  0.1035
  176MPD1    H6 2691   0.990   2.774  16.650 -0.5027  1.2761 -0.0837
  176MPD1    H7 2692   1.059   2.858  16.780  0.0119 -0.5685 -0.7655
  177MPD1     C 2693   4.610   3.232  10.479  0.2732 -0.7899  0.6853
  177MPD1    C1 2694   4.546   3.158  10.381 -0.2077  0.8931 -0.0950
  177MPD1    C2 2695   4.574   3.197  10.251 -0.2317 -0.0914  0.2015
  177MPD1    C3 2696   4.648   3.312  10.219  0.3039  0.3168  0.7474
  177MPD1    C4 2697   4.706   3.382  10.321 -0.2780  0.9061 -0.7831
  177MPD1    C5 2698   4.689   3.337  10.448  0.0723 -0.3799 -0.3059
  177MPD1     H 2699   4.539   3.128  10.175  1.8257 -0.4827 -0.4061
  177MPD1    H1 2700   0.043   3.470  10.306 -0.1597  1.3696  2.3822
  177MPD1    H2 2701   4.604   3.210  10.585 -0.8410 -3.4043  0.0592
  177MPD1    H3 2702   0.024   3.380  10.528  0.6651 -2.2815  0.2593
  177MPD1     N 2703   4.655   3.348  10.078 -0.0592 -0.2886 -0.1743
  177MPD1    H5 2704   4.630   3.275  10.012  0.4232  0.3261 -1.0238
  177MPD1    N1 2705   4.475   3.044  10.417  0.3989 -0.0414  0.4237
  177MPD1    H6 2706   4.447   3.035  10.515 -0.1658 -2.2739  0.0566
  177MPD1    H7 2707   4.396   3.039  10.353  1.0065  0.8703 -0.3943
  178MPD1     C 2708   2.285   3.358   0.422  0.7633 -0.2795 -0.1294
  178MPD1    C1 2709   2.375   3.304   0.336 -0.5469  0.5906  0.5542
  178MPD1    C2 2710   2.396   3.369   0.217 -0.9831 -0.1871  0.3209
  178MPD1    C3 2711   2.336   3.488   0.180  0.0991 -0.5606 -0.2986
  178MPD1    C4 2712   2.243   3.540   0.274  0.3884 -0.7499 -0.6738
  178MPD1    C5 2713   2.227   3.476   0.396  0.7926  0.3145  0.4181
  178MPD1     H 2714   2.457   3.326   0.140 -0.0796  2.8160 -0.6309
  178MPD1    H1 2715   2.197   3.638   0.261  1.4413 -0.1014  0.4718
  178MPD1    H2 2716   2.239   3.315   0.510 -1.3151 -0.3537 -1.2571
  178MPD1    H3 2717   2.157   3.518   0.468 -0.1471 -1.0798  0.3283
  178MPD1     N 2718   2.353   3.543   0.056  0.5848  0.3751  0.1441
  178MPD1    H5 2719   2.417   3.498  17.689 -1.1446 -0.2353 -1.1489
  178MPD1    N1 2720   2.426   3.177   0.357  0.0652  0.0071  0.3760
  178MPD1    H6 2721   2.447   3.161   0.455  0.3654 -0.5031  0.2274
  178MPD1    H7 2722   2.515   3.153   0.314 -1.8737 -1.8189 -2.6038
  179MPD1     C 2723   1.665   2.201  14.874 -0.0862  0.5654  0.1826
  179MPD1    C1 2724   1.581   2.243  14.983  0.2426 -0.0769  0.1240
  179MPD1    C2 2725   1.530   2.140  15.072  0.0222 -0.2568 -0.7790
  179MPD1    C3 2726   1.584   2.005  15.061 -0.3563  0.6178 -0.4553
  179MPD1    C4 2727   1.691   1.979  14.974  0.7826  0.4531  0.1724
  179MPD1    C5 2728   1.728   2.074  14.889 -0.6127 -0.2571 -0.0632
  179MPD1     H 2729   1.462   2.163  15.153  0.4455 -0.2730 -0.4183
  179MPD1    H1 2730   1.738   1.882  14.972  0.1277  0.1162  1.4097
  179MPD1    H2 2731   1.697   2.263  14.790 -2.0287 -1.6737 -2.1990
  179MPD1    H3 2732   1.816   2.052  14.828 -0.1231  0.1461  0.4937
  179MPD1     N 2733   1.559   1.902  15.158  0.1771  0.1378  0.0170
  179MPD1    H5 2734   1.614   1.818  15.148  0.1937  0.0786  0.5977
  179MPD1    N1 2735   1.514   2.366  14.984 -0.2603 -0.2113 -0.0685
  179MPD1    H6 2736   1.578   2.441  14.955  1.9931 -2.1442 -0.1085
  179MPD1    H7 2737   1.477   2.391  15.075 -0.4195  1.4505 -0.5841
  180MPD1     C 2738   1.681   3.775  15.457 -0.0876 -0.3533 -0.7583
  180MPD1    C1 2739   1.560   3.710  15.431  0.2087  0.2113 -0.0721
  180MPD1    C2 2740   1.536   3.693  15.292 -0.0892 -0.4654  0.2589
  180MPD1    C3 2741   1.621   3.746  15.193 -0.3367  0.1039  0.4162
  180MPD1    C4 2742   1.731   3.806  15.228  0.5288 -0.0272  0.1498
  180MPD1    C5 2743   1.758   3.826  15.359 -0.3426 -0.1944 -0.0189
  180MPD1     H 2744   1.446   3.644  15.258  1.9114 -3.2157 -1.0816
  180MPD1    H1 2745   1.799   3.854  15.158  0.1472 -0.4991 -0.5446
  180MPD1    H2 2746   1.726   3.791  15.554  1.3874 -1.2453 -1.2994
  180MPD1    H3 2747   1.845   3.883  15.389 -1.8297  3.1328 -2.0125
  180MPD1     N 2748   1.583   3.728  15.058  0.3226 -0.5382 -0.3801
  180MPD1    H5 2749   1.502   3.670  15.040  0.5117 -1.5198  1.9025
  180MPD1    N1 2750   1.499   3.637  15.528  0.5755 -0.5050 -0.3429
  180MPD1    H6 2751   1.513   3.675  15.622 -1.6768 -0.6031  0.0392
  180MPD1    H7 2752   1.399   3.628  15.510  0.4701  0.9992 -0.5377
  181MPD1     C 2753   3.412   1.037   8.646  0.5264 -0.8137 -0.2775
  181MPD1    C1 2754   3.537   1.029   8.703 -0.7949 -0.4471  0.2014
  181MPD1    C2 2755   3.552   0.945   8.812  0.1603  0.3963  0.4381
  181MPD1    C3 2756   3.445   0.878   8.870 -0.4778 -0.5394 -0.1587
  181MPD1    C4 2757   3.319   0.892   8.816  0.2769 -0.2348  0.6404
  181MPD1    C5 2758   3.304   0.966   8.696  0.1286 -0.1843  0.6475
  181MPD1     H 2759   3.650   0.941   8.857  1.0250 -0.1347 -1.4897
  181MPD1    H1 2760   3.240   0.822   8.843  0.7499 -0.0960  2.3687
  181MPD1    H2 2761   3.397   1.077   8.546 -1.3619 -1.7423 -0.3715
  181MPD1    H3 2762   3.210   0.965   8.643  1.4783 -0.5876 -1.7355
  181MPD1     N 2763   3.457   0.799   8.987 -0.4755 -0.2372  0.3731
  181MPD1    H5 2764   3.375   0.748   9.017  0.3854 -1.4957  0.6032
  181MPD1    N1 2765   3.652   1.079   8.644  0.2129 -0.7251 -0.2567
  181MPD1    H6 2766   3.723   1.110   8.711 -0.0390 -3.1810  1.1428
  181MPD1    H7 2767   3.640   1.157   8.580 -0.0992 -0.0728  0.6053
  182MPD1     C 2768   3.595   4.393   1.284 -0.1425 -0.2308  0.1195
  182MPD1    C1 2769   3.672   4.311   1.199 -0.1410 -0.1449  0.0661
  182MPD1    C2 2770   3.626   4.285   1.069 -0.3931  0.3930 -0.4132
  182MPD1    C3 2771   3.509   4.347   1.030 -0.4408 -0.2469  0.2294
  182MPD1    C4 2772   3.444   4.436   1.107 -0.3068 -0.9183  0.0553
  182MPD1    C5 2773   3.488   4.466   1.234  1.1175  0.3842 -0.1970
  182MPD1     H 2774   3.682   4.217   1.005 -2.4061 -1.6537 -0.0100
  182MPD1    H1 2775   3.358   4.495   1.076 -2.0673 -3.9019 -0.6678
  182MPD1    H2 2776   3.631   4.421   1.382 -2.3522  3.1876 -0.0178
  182MPD1    H3 2777   3.438   4.545   1.289 -1.2961 -0.7778 -0.7228
  182MPD1     N 2778   3.452   4.319   0.902  0.9098  0.0591 -0.0327
  182MPD1    H5 2779   3.357   4.345   0.878  1.1648 -0.4594 -1.6093
  182MPD1    N1 2780   3.787   4.251   1.260  0.3832 -0.4710  0.8600
  182MPD1    H6 2781   3.837   4.294   1.337 -0.2961 -0.9632  1.5821
  182MPD1    H7 2782   3.859   4.229   1.192 -2.6884 -1.5361 -2.0760
  183MPD1     C 2783   4.525   0.164   8.650  0.2831 -0.3319 -0.3263
  183MPD1    C1 2784   4.590   0.146   8.776 -0.9173  0.3428  0.2489
  183MPD1    C2 2785   4.526   0.191   8.895 -0.5552 -0.8387 -0.0904
  183MPD1    C3 2786   4.410   0.266   8.889 -0.9737 -0.4857 -0.4006
  183MPD1    C4 2787   4.355   0.294   8.764  0.2646 -0.2534 -0.6910
  183MPD1    C5 2788   4.406   0.240   8.649  0.2771 -0.1106  0.2950
  183MPD1     H 2789   4.563   0.166   8.993  0.4150  1.3554  0.0996
  183MPD1    H1 2790   4.267   0.357   8.752  0.4474  0.0805 -0.2569
  183MPD1    H2 2791   4.564   0.136   8.553  0.1562 -1.8744  0.0641
  183MPD1    H3 2792   4.357   0.250   8.552  0.6499 -0.0119  0.1157
  183MPD1     N 2793   4.358   0.311   9.014 -0.1044  0.5543 -0.1328
  183MPD1    H5 2794   4.411   0.290   9.098 -0.9300 -0.9169  0.0332
  183MPD1    N1 2795   4.706   0.067   8.786 -0.1061  0.0269 -0.1792
  183MPD1    H6 2796   0.049   0.102   8.718 -0.8393 -0.6018 -1.2298
  183MPD1    H7 2797   0.029   0.079   8.876 -1.1846 -2.1525  0.6811
  184MPD1     C 2798   3.597   2.799   9.408  0.6350  0.0001 -0.1732
  184MPD1    C1 2799   3.672   2.814   9.524 -0.4407 -0.1865 -0.1996
  184MPD1    C2 2800   3.798   2.878   9.517 -0.2054  0.1378  0.0154
  184MPD1    C3 2801   3.856   2.914   9.393 -0.0736  0.6790 -0.6234
  184MPD1    C4 2802   3.780   2.892   9.281 -0.2508  0.3990  0.3482
  184MPD1    C5 2803   3.651   2.849   9.291 -0.2268 -0.1006  0.7530
  184MPD1     H 2804   3.842   2.889   9.616 -0.0225  1.2886 -0.1879
  184MPD1    H1 2805   3.824   2.907   9.183 -1.4656  1.6597 -0.0168
  184MPD1    H2 2806   3.496   2.763   9.394  0.4863  0.6212 -0.6811
  184MPD1    H3 2807   3.599   2.829   9.198  1.2053  1.0959 -0.2957
  184MPD1     N 2808   3.974   2.992   9.382 -0.4779  0.0476 -0.0012
  184MPD1    H5 2809   4.011   3.026   9.294 -0.1515  1.0454  0.5147
  184MPD1    N1 2810   3.631   2.762   9.650 -1.0806  0.2677  0.3933
  184MPD1    H6 2811   3.529   2.761   9.647 -1.0621 -0.2357 -0.2513
  184MPD1    H7 2812   3.667   2.819   9.726 -1.5828  0.1174  0.7414
  185MPD1     C 2813   4.542   2.859   8.777  0.2758  0.6026 -0.4256
  185MPD1    C1 2814   4.609   2.920   8.876 -0.3961  0.8273  0.2258
  185MPD1    C2 2815   4.548   2.974   8.984 -0.3319 -0.7057 -0.5195
  185MPD1    C3 2816   4.412   2.964   9.004 -0.2230  0.0446 -1.1672
  185MPD1    C4 2817   4.343   2.897   8.906  0.1496 -0.3573  0.1133
  185MPD1    C5 2818   4.403   2.846   8.796  0.7003  0.4988  0.0277
  185MPD1     H 2819   4.599   3.039   9.054 -2.4025 -1.3412  1.5945
  185MPD1    H1 2820   4.238   2.870   8.917  0.2144 -0.2512  0.9693
  185MPD1    H2 2821   4.587   2.815   8.689 -0.6516  1.4799 -1.3338
  185MPD1    H3 2822   4.355   2.782   8.723 -0.8227  1.4000  0.2285
  185MPD1     N 2823   4.342   3.030   9.114 -0.4723  0.0005  0.3424
  185MPD1    H5 2824   4.241   3.034   9.111 -0.4099 -0.1510 -2.1136
  185MPD1    N1 2825   0.023   2.922   8.868 -0.2396 -0.4965 -0.3286
  185MPD1    H6 2826   0.067   3.011   8.892 -0.5202 -0.6196  0.6295
  185MPD1    H7 2827   0.054   2.893   8.776  0.2746  0.6602 -0.5275
  186MPD1     C 2828   1.653   1.859  15.994 -0.0977  0.0282 -0.3151
  186MPD1    C1 2829   1.749   1.948  15.939 -0.4648  0.4342 -0.3359
  186MPD1    C2 2830   1.824   2.026  16.022 -0.6104 -0.7576 -0.1457
  186MPD1    C3 2831   1.815   2.020  16.162 -0.7374  0.2584  0.1451
  186MPD1    C4 2832   1.718   1.929  16.215 -0.8926  0.1131  0.7539
  186MPD1    C5 2833   1.643   1.850  16.134 -0.1373 -0.1390  0.1799
  186MPD1     H 2834   1.893   2.098  15.979 -2.6996  0.5345 -1.3184
  186MPD1    H1 2835   1.707   1.919  16.322  1.0196 -0.2203  0.9153
  186MPD1    H2 2836   1.575   1.813  15.934 -1.2189 -0.0812  1.2250
  186MPD1    H3 2837   1.575   1.772  16.168  0.5154 -0.2853  1.1712
  186MPD1     N 2838   1.905   2.084  16.258 -0.0628  0.2773 -0.0400
  186MPD1    H5 2839   1.904   2.051  16.354 -0.5345 -0.7316 -0.3911
  186MPD1    N1 2840   1.757   1.969  15.800  0.0700 -0.0430  0.0358
  186MPD1    H6 2841   1.737   1.888  15.742  1.6516 -0.6467  0.3423
  186MPD1    H7 2842   1.822   2.039  15.763  0.2746  0.9256  2.2527
  187MPD1     C 2843   0.890   3.769   0.437  0.6235 -0.2800  0.0070
  187MPD1    C1 2844   0.884   3.655   0.363  0.3020 -0.5943 -0.1367
  187MPD1    C2 2845   0.948   3.652   0.240 -0.8643 -0.1846  0.6645
  187MPD1    C3 2846   1.019   3.759   0.193 -0.2180  0.8831 -0.7606
  187MPD1    C4 2847   1.021   3.877   0.269 -0.7500 -0.1101  0.1850
  187MPD1    C5 2848   0.948   3.888   0.386  0.8604  0.3679  0.5126
  187MPD1     H 2849   0.953   3.552   0.199 -1.6810  0.5738 -1.3256
  187MPD1    H1 2850   1.071   3.966   0.235 -0.8400 -0.4094 -0.7170
  187MPD1    H2 2851   0.845   3.778   0.535  2.1421 -0.4188  0.6992
  187MPD1    H3 2852   0.947   3.985   0.434 -2.0816  0.1662  0.8551
  187MPD1     N 2853   1.080   3.768   0.058  0.0136  0.2028  0.0979
  187MPD1    H5 2854   1.119   3.858   0.030  0.4000 -0.0955 -0.3099
  187MPD1    N1 2855   0.820   3.553   0.439  0.3808  0.0462 -0.2307
  187MPD1    H6 2856   0.767   3.494   0.374 -1.3629  0.8423  0.4673
  187MPD1    H7 2857   0.754   3.595   0.504  0.0749  0.0600 -0.5522
  188MPD1     C 2858   1.884   0.093  10.006 -0.2977  0.0837 -0.1550
  188MPD1    C1 2859   1.901   0.015   9.894  0.4784  0.8242  0.3771
  188MPD1    C2 2860   1.886   4.601   9.906  0.0272  0.8698  0.1663
  188MPD1    C3 2861   1.848   4.534  10.019  0.5763 -0.2536  0.0462
  188MPD1    C4 2862   1.817   4.623  10.125 -0.4872  0.2701 -0.2068
  188MPD1    C5 2863   1.840   0.033  10.117  0.7261  0.1568 -0.0184
  188MPD1     H 2864   1.893   4.552   9.809 -0.4028  2.2104 -0.5437
  188MPD1    H1 2865   1.793   4.590  10.226  1.1583 -1.0932 -0.2705
  188MPD1    H2 2866   1.880   0.201   9.995 -0.9523  0.0958  0.1947
  188MPD1    H3 2867   1.811   0.095  10.201 -2.9439 -0.7757 -0.5767
  188MPD1     N 2868   1.803   4.394  10.016  0.3845  0.2543 -0.0826
  188MPD1    H5 2869   1.745   4.374  10.097  1.1483  1.6035  0.8017
  188MPD1    N1 2870   1.897   0.076   9.766 -0.6503  0.3499  0.4211
  188MPD1    H6 2871   1.955   0.160   9.770 -2.5461  1.6134  1.3605
  188MPD1    H7 2872   1.953   0.021   9.701 -0.8645  0.3333  0.2551
  189MPD1     C 2873   2.290   4.345   0.896 -0.2780 -0.6437 -0.1114
  189MPD1    C1 2874   2.351   4.461   0.862  0.3827 -0.3084  0.1921
  189MPD1    C2 2875   2.307   4.524   0.746  0.4269  0.7853  0.9018
  189MPD1    C3 2876   2.235   4.451   0.648 -1.0252 -0.0774  0.0791
  189MPD1    C4 2877   2.191   4.320   0.677 -0.3834  0.0779 -0.2504
  189MPD1    C5 2878   2.215   4.278   0.808 -0.0324  0.5401 -0.2834
  189MPD1     H 2879   2.344   4.623   0.724  1.3058  0.3779  0.5180
  189MPD1    H1 2880   2.122   4.268   0.612  1.2243  0.3278 -2.1598
  189MPD1    H2 2881   2.308   4.288   0.986 -1.3909 -0.2645  0.3502
  189MPD1    H3 2882   2.155   4.194   0.841 -3.3182  2.9429 -0.1253
  189MPD1     N 2883   2.219   4.501   0.516 -0.2219 -0.0470  0.1479
  189MPD1    H5 2884   2.197   4.425   0.453 -1.2391  0.5994 -0.2663
  189MPD1    N1 2885   2.421   4.531   0.962 -0.1688 -0.6310 -0.8129
  189MPD1    H6 2886   2.461   4.469   1.032  1.7287 -0.0058 -1.3264
  189MPD1    H7 2887   2.488   4.594   0.917 -0.4935  0.5336  0.3301
  190MPD1     C 2888   1.837   2.604  14.828  0.0638  0.4143 -0.4218
  190MPD1    C1 2889   1.874   2.733  14.853 -0.8298  0.0277 -0.6764
  190MPD1    C2 2890   1.905   2.779  14.981 -0.3485  0.9088  0.8683
  190MPD1    C3 2891   1.894   2.690  15.091  0.0993  0.6796  0.1466
  190MPD1    C4 2892   1.857   2.558  15.071  0.4899 -0.3291 -0.1397
  190MPD1    C5 2893   1.829   2.520  14.939 -0.0510 -0.0003  0.4579
  190MPD1     H 2894   1.933   2.883  14.990  1.7769  0.4739 -0.6916
  190MPD1    H1 2895   1.850   2.482  15.147  0.4448 -0.7396 -0.5554
  190MPD1    H2 2896   1.817   2.556  14.733  1.8197 -0.3402 -0.4021
  190MPD1    H3 2897   1.804   2.416  14.923  1.4751  0.0068 -1.9286
  190MPD1     N 2898   1.939   2.741  15.216 -0.0194  0.4262 -0.3828
  190MPD1    H5 2899   1.976   2.835  15.213  0.2029  0.4135  1.8801
  190MPD1    N1 2900   1.891   2.822  14.743  0.3673  0.0927  0.1317
  190MPD1    H6 2901   1.863   2.919  14.752  1.9924  0.6383 -0.8353
  190MPD1    H7 2902   1.859   2.776  14.658 -0.1756 -1.5853  1.2291
  191MPD1     C 2903   1.134   4.610  11.740 -0.1195 -0.5959 -0.2435
  191MPD1    C1 2904   1.255   4.672  11.754 -0.2857  0.1720  0.3608
  191MPD1    C2 2905   1.277   4.721  11.885 -0.0047  0.1299  0.4237
  191MPD1    C3 2906   1.182   4.715  11.984 -0.4427 -0.1238 -0.0386
  191MPD1    C4 2907   1.063   4.648  11.962  0.8927  0.0101 -0.5904
  191MPD1    C5 2908   1.044   4.587  11.844  1.1199 -0.6899 -0.2768
  191MPD1     H 2909   1.370   0.046  11.909  0.8477 -1.4038  0.2745
  191MPD1    H1 2910   0.989   4.652  12.042  2.1349  1.7162  0.4542
  191MPD1    H2 2911   1.095   4.570  11.647 -0.5184  1.6868 -1.0544
  191MPD1    H3 2912   0.951   4.531  11.836  0.5597 -0.0183  1.6708
  191MPD1     N 2913   1.204   0.062  12.104  0.0742  0.4261  0.6376
  191MPD1    H5 2914   1.272   0.136  12.091  0.0390  0.1793 -0.9223
  191MPD1    N1 2915   1.345   4.682  11.650 -0.4283 -0.5441  0.1210
  191MPD1    H6 2916   1.340   4.593  11.602  0.3262  1.0145 -2.8650
  191MPD1    H7 2917   1.440   4.689  11.686 -0.7275  3.3359  0.2276
  192MPD1     C 2918   0.636   0.520  12.762 -0.2803 -0.2374  0.1046
  192MPD1    C1 2919   0.725   0.449  12.839  0.4228  0.4109  0.4736
  192MPD1    C2 2920   0.839   0.405  12.773  0.1265  0.2684  0.5347
  192MPD1    C3 2921   0.870   0.458  12.651  0.3789 -0.1029  0.0755
  192MPD1    C4 2922   0.788   0.545  12.585  0.6277 -0.2655 -0.0251
  192MPD1    C5 2923   0.661   0.565  12.634  0.7269  0.9072 -0.2173
  192MPD1     H 2924   0.908   0.326  12.800 -0.8700 -1.5764 -2.3134
  192MPD1    H1 2925   0.809   0.583  12.486  0.2165  1.9308  0.7405
  192MPD1    H2 2926   0.531   0.525  12.791 -0.2634 -2.2063  0.4994
  192MPD1    H3 2927   0.581   0.615  12.581  0.8841  1.3487 -0.0317
  192MPD1     N 2928   0.987   0.414  12.578  0.3090  0.6671  0.0828
  192MPD1    H5 2929   1.002   0.437  12.481 -1.4648 -0.6547 -0.5162
  192MPD1    N1 2930   0.681   0.387  12.957  0.2575  0.1877 -1.1955
  192MPD1    H6 2931   0.762   0.374  13.018 -0.4883 -1.1931 -0.5003
  192MPD1    H7 2932   0.607   0.442  13.000  1.4403  2.3103 -1.8659
  193MPD1     C 2933   0.283   0.307  17.116 -0.0575  0.5320 -0.0006
  193MPD1    C1 2934   0.404   0.286  17.048  0.4228  0.3135 -0.3000
  193MPD1    C2 2935   0.471   0.401  17.020  0.7229 -0.4386 -0.6455
  193MPD1    C3 2936   0.437   0.526  17.075  0.2979 -0.0771 -0.3097
  193MPD1    C4 2937   0.325   0.536  17.159  0.2456  0.2803 -0.7288
  193MPD1    C5 2938   0.245   0.428  17.162  0.2114  0.5866 -0.3571
  193MPD1     H 2939   0.543   0.386  16.941  0.4744  1.4516 -1.2353
  193MPD1    H1 2940   0.293   0.629  17.205  1.5286  0.5519 -0.3877
  193MPD1    H2 2941   0.210   0.227  17.120  2.2045 -1.4353  2.2470
  193MPD1    H3 2942   0.153   0.423  17.220  1.6574 -3.2494  1.6296
  193MPD1     N 2943   0.509   0.640  17.043  0.1117  0.3003 -0.1349
  193MPD1    H5 2944   0.475   0.724  17.088 -0.4581  0.0797 -0.1475
  193MPD1    N1 2945   0.427   0.168  16.985 -0.3897 -0.2018  0.0360
  193MPD1    H6 2946   0.399   0.097  17.053  0.3239  0.4540  1.0233
  193MPD1    H7 2947   0.525   0.158  16.960  0.2239 -1.4725  2.9532
  194MPD1     C 2948   2.623   2.918  16.684 -0.2491  0.1076  0.4955
  194MPD1    C1 2949   2.569   2.808  16.749 -0.0484  0.4519  0.3625
  194MPD1    C2 2950   2.642   2.690  16.759  0.0280  0.4134 -0.1447
  194MPD1    C3 2951   2.772   2.688  16.725  0.4675  0.1108  0.3018
  194MPD1    C4 2952   2.828   2.797  16.658 -0.4475  0.4255 -0.1284
  194MPD1    C5 2953   2.751   2.909  16.628  0.2970  0.7972  0.4970
  194MPD1     H 2954   2.595   2.611  16.815 -0.5835  0.8225 -0.0746
  194MPD1    H1 2955   2.930   2.786  16.623 -1.3932 -2.9313 -1.8193
  194MPD1    H2 2956   2.581   3.017  16.671 -1.3770 -0.2275  1.5595
  194MPD1    H3 2957   2.792   2.995  16.577 -0.1414 -0.7523 -2.4672
  194MPD1     N 2958   2.850   2.572  16.742 -0.2113  0.2285 -0.2355
  194MPD1    H5 2959   2.948   2.585  16.720 -0.0907 -0.3771 -0.0632
  194MPD1    N1 2960   2.442   2.825  16.813  0.5071  0.2325 -0.2109
  194MPD1    H6 2961   2.387   2.903  16.777  0.6815 -0.3208 -1.6720
  194MPD1    H7 2962   2.377   2.747  16.811 -0.2167  0.8315 -0.5264
  195MPD1     C 2963   0.615   0.221   0.195 -0.3739  0.3380 -0.6580
  195MPD1    C1 2964   0.738   0.160   0.195  0.4289 -0.5679  0.7318
  195MPD1    C2 2965   0.734   0.023   0.210  0.2541 -0.8867  0.0672
  195MPD1    C3 2966   0.623   4.668   0.231 -0.7062  0.1092  0.2978
  195MPD1    C4 2967   0.506   0.005   0.230  0.3734  0.0526  0.1501
  195MPD1    C5 2968   0.499   0.144   0.217 -0.3607 -0.0668 -0.1281
  195MPD1     H 2969   0.833   4.703   0.203  0.6505  0.1035 -0.5948
  195MPD1    H1 2970   0.412   4.678   0.245  1.1003 -1.8393 -1.8701
  195MPD1    H2 2971   0.610   0.328   0.181  0.0961  0.3961 -0.3760
  195MPD1    H3 2972   0.403   0.191   0.234 -0.5483 -0.5186  0.0634
  195MPD1     N 2973   0.627   4.522   0.224 -0.0367 -0.6443  0.8704
  195MPD1    H5 2974   0.532   4.485   0.229 -0.3462  0.3406  2.1548
  195MPD1    N1 2975   0.859   0.227   0.151 -0.4845 -0.2263  0.0514
  195MPD1    H6 2976   0.948   0.188   0.181  0.0247 -0.0336 -1.2497
  195MPD1    H7 2977   0.853   0.327   0.168  2.5557 -0.0675  0.1593
  196MPD1     C 2978   4.374   3.257   0.031  0.4125  0.0286  0.4847
  196MPD1    C1 2979   4.426   3.217   0.153  1.0377 -0.8422  0.1017
  196MPD1    C2 2980   4.435   3.310   0.255  0.0535  0.2890 -0.4838
  196MPD1    C3 2981   4.408   3.450   0.232  0.0956  0.7793  0.1919
  196MPD1    C4 2982   4.345   3.479   0.111  0.1304 -0.5503  0.0168
  196MPD1    C5 2983   4.338   3.386   0.013  0.3127  0.5700 -0.1118
  196MPD1     H 2984   4.478   3.276   0.348 -1.0461  1.7886  0.5835
  196MPD1    H1 2985   4.326   3.582   0.085 -1.9094 -1.1380 -0.8477
  196MPD1    H2 2986   4.376   3.184  17.649  1.3794 -0.3373  0.8438
  196MPD1    H3 2987   4.309   3.415  17.611  0.9373 -2.1113 -1.0599
  196MPD1     N 2988   4.422   3.554   0.329 -0.1666  0.1198  0.1473
  196MPD1    H5 2989   4.387   3.646   0.306 -0.7846 -0.4280 -1.1208
  196MPD1    N1 2990   4.480   3.091   0.175 -0.2469  0.7269  0.0810
  196MPD1    H6 2991   4.461   3.049   0.266  1.2911 -0.4833 -0.1530
  196MPD1    H7 2992   4.438   3.025   0.109 -0.9367  0.9089  0.3396
  197MPD1     C 2993   3.963   0.867  17.569  0.2541  0.1057 -0.4954
  197MPD1    C1 2994   4.047   0.952  17.632  0.6467  0.2948 -0.1705
  197MPD1    C2 2995   4.112   1.051  17.562 -0.6754  0.1288  0.0237
  197MPD1    C3 2996   4.111   1.060  17.425  0.2235 -0.1465 -0.0791
  197MPD1    C4 2997   4.035   0.962  17.368  0.0661 -0.5811 -0.3876
  197MPD1    C5 2998   3.958   0.873  17.435 -0.7419 -0.0664  0.5444
  197MPD1     H 2999   4.176   1.113  17.623 -3.3972  0.2342  2.7715
  197MPD1    H1 3000   4.036   0.962  17.260  1.9809  0.4195 -0.3802
  197MPD1    H2 3001   3.888   0.804  17.616 -0.4240  0.7021 -0.7818
  197MPD1    H3 3002   3.892   0.806  17.380 -0.0184  1.4516 -2.1191
  197MPD1     N 3003   4.180   1.156  17.346  0.7195  0.8532 -0.0733
  197MPD1    H5 3004   4.157   1.150  17.248 -0.7926  0.8362  0.2844
  197MPD1    N1 3005   4.037   0.956   0.074  0.1845 -0.7028 -0.0722
  197MPD1    H6 3006   4.000   0.865   0.101  2.5983 -1.3335  1.1405
  197MPD1    H7 3007   4.131   0.970   0.112  0.7691  0.4605 -1.9623
  198MPD1     C 3008   0.998   4.504  15.395 -0.2647  0.2423  0.3404
  198MPD1    C1 3009   1.099   4.543  15.316 -0.5586 -0.1523  0.4681
  198MPD1    C2 3010   1.226   4.528  15.369  0.7571 -0.1159 -0.6140
  198MPD1    C3 3011   1.248   4.505  15.504  0.1891 -0.4250  0.2034
  198MPD1    C4 3012   1.139   4.479  15.587 -0.0379 -0.1834  0.0107
  198MPD1    C5 3013   1.020   4.470  15.525 -0.0466  0.3648 -1.1034
  198MPD1     H 3014   1.309   4.536  15.300  1.7208 -1.5942  0.3745
  198MPD1    H1 3015   1.154   4.439  15.687  2.5161  0.9870  0.0956
  198MPD1    H2 3016   0.895   4.496  15.362  0.4726  0.4444 -2.0299
  198MPD1    H3 3017   0.942   4.428  15.587  0.3682 -0.0235 -0.8457
  198MPD1     N 3018   1.383   4.506  15.550  0.1139 -0.0399 -0.0447
  198MPD1    H5 3019   1.456   4.509  15.479 -0.3953 -0.3800 -0.5873
  198MPD1    N1 3020   1.076   4.562  15.177 -0.4762 -0.4344  0.4580
  198MPD1    H6 3021   1.147   4.622  15.135  2.0082 -2.1571  2.1220
  198MPD1    H7 3022   0.980   4.575  15.149 -0.5296  1.1628  1.3687
  199MPD1     C 3023   3.337   1.133  10.033 -0.0977 -0.2448 -0.1398
  199MPD1    C1 3024   3.201   1.146  10.015  0.1491  0.0101 -0.4512
  199MPD1    C2 3025   3.159   1.153   9.885 -0.4186 -1.0211 -0.1760
  199MPD1    C3 3026   3.253   1.161   9.783 -0.2669  0.3551  0.8803
  199MPD1    C4 3027   3.383   1.156   9.805 -0.6225  0.0662 -0.3399
  199MPD1    C5 3028   3.426   1.126   9.933  0.0249 -0.3889 -0.0338
  199MPD1     H 3029   3.054   1.166   9.861 -0.1830 -2.1640 -1.8086
  199MPD1    H1 3030   3.464   1.156   9.733  0.1404  0.3300  0.5207
  199MPD1    H2 3031   3.382   1.125  10.131 -0.7864  2.9386  0.4186
  199MPD1    H3 3032   3.533   1.108   9.944  0.1489  0.9589  1.0160
  199MPD1     N 3033   3.224   1.187   9.645  0.8753  0.2520  0.1935
  199MPD1    H5 3034   3.298   1.218   9.583  0.6512 -1.2845 -0.8428
  199MPD1    N1 3035   3.114   1.186  10.112 -0.4526 -0.5907 -0.0321
  199MPD1    H6 3036   3.032   1.128  10.098 -0.6998  0.1370 -1.6173
  199MPD1    H7 3037   3.139   1.143  10.201 -0.0384  0.3774  0.3315
  200MPD1     C 3038   1.946   0.933  15.295  0.6984  0.1501  0.1384
  200MPD1    C1 3039   1.976   0.819  15.222 -0.6037  0.6815  0.1880
  200MPD1    C2 3040   2.109   0.797  15.196  0.3075  0.4676 -0.2083
  200MPD1    C3 3041   2.210   0.883  15.232  0.7356  0.0144  0.4265
  200MPD1    C4 3042   2.175   0.994  15.302  0.4039  0.7281 -0.1071
  200MPD1    C5 3043   2.047   1.017  15.336  0.2738  0.1207 -0.3113
  200MPD1     H 3044   2.138   0.706  15.146 -0.0396  0.1088  0.2338
  200MPD1    H1 3045   2.249   1.064  15.341 -0.1071  0.3242  1.6110
  200MPD1    H2 3046   1.855   0.943  15.353  0.3659 -0.0619 -0.3478
  200MPD1    H3 3047   2.030   1.098  15.406  0.0333 -0.8174  0.7139
  200MPD1     N 3048   2.339   0.860  15.191  0.4693  0.1264  0.2897
  200MPD1    H5 3049   2.359   0.769  15.149  3.7760  0.6710  0.6841
  200MPD1    N1 3050   1.885   0.717  15.198  0.0506  0.1167 -0.0428
  200MPD1    H6 3051   1.821   0.754  15.128 -0.3239  1.4132  0.9915
  200MPD1    H7 3052   1.924   0.639  15.146 -3.5864 -0.5202 -1.8053
  201MPD1     C 3053   4.453   0.177  12.959 -0.6657 -0.4205 -0.0630
  201MPD1    C1 3054   4.406   0.059  13.009 -0.1038 -0.2985  0.0613
  201MPD1    C2 3055   4.480   4.667  12.977 -0.6846 -0.3104  0.2316
  201MPD1    C3 3056   4.596   4.673  12.897  0.7938  0.6736 -0.0544
  201MPD1    C4 3057   4.634   0.067  12.843  0.3488 -0.0802 -0.4133
  201MPD1    C5 3058   4.563   0.173  12.878  0.1378 -0.3049 -0.6949
  201MPD1     H 3059   4.442   4.577  13.023 -0.5663 -0.5887 -0.2206
  201MPD1    H1 3060   4.724   0.082  12.784  0.6301  1.6858  0.4528
  201MPD1    H2 3061   4.407   0.274  12.973 -0.8442 -0.5935  0.5135
  201MPD1    H3 3062   4.599   0.269  12.844  0.1175 -0.6330 -1.6326
  201MPD1     N 3063   4.653   4.544  12.877  0.5991  0.1955 -0.5405
  201MPD1    H5 3064   4.620   4.477  12.946  3.6015  0.6719  1.3867
  201MPD1    N1 3065   4.289   0.057  13.093  0.4171  0.1813  0.0576
  201MPD1    H6 3066   4.295   4.702  13.158  0.8067  2.2544  2.5304
  201MPD1    H7 3067   4.284   0.138  13.153  2.3027 -1.5264  2.5311
  202MPD1     C 3068   0.321   4.076   8.887  0.5389  0.6851  0.5429
  202MPD1    C1 3069   0.263   4.199   8.899 -0.0124 -0.1832 -0.3763
  202MPD1    C2 3070   0.262   4.262   9.022 -0.5955  0.0709 -0.3333
  202MPD1    C3 3071   0.281   4.184   9.138  0.0516  0.2510  0.2147
  202MPD1    C4 3072   0.330   4.054   9.126  0.3896  0.3402 -0.1661
  202MPD1    C5 3073   0.347   4.003   8.998 -0.8198  0.7631 -0.2354
  202MPD1     H 3074   0.234   4.366   9.028  1.3824  0.4491  2.1069
  202MPD1    H1 3075   0.347   3.993   9.213  2.0936 -0.5113 -1.0953
  202MPD1    H2 3076   0.335   4.047   8.784 -0.9738  2.2247 -0.1065
  202MPD1    H3 3077   0.392   3.905   8.991 -1.9786  0.2149 -0.1108
  202MPD1     N 3078   0.263   4.225   9.275  0.1051 -0.8178  0.0299
  202MPD1    H5 3079   0.284   4.157   9.347 -2.3836 -1.0820  0.5041
  202MPD1    N1 3080   0.258   4.279   8.786  0.0537  0.4405  0.3229
  202MPD1    H6 3081   0.194   4.358   8.792  0.4642  0.6342  2.1257
  202MPD1    H7 3082   0.230   4.230   8.701 -2.7576 -0.8425  1.9816
  203MPD1     C 3083   3.489   1.001  11.870  0.3523 -0.1945  0.3655
  203MPD1    C1 3084   3.586   0.924  11.815 -0.7864 -0.3780  0.1066
  203MPD1    C2 3085   3.652   0.830  11.897 -0.3542  0.1241 -0.6452
  203MPD1    C3 3086   3.626   0.820  12.030 -0.1072  0.1893 -0.3525
  203MPD1    C4 3087   3.526   0.899  12.079  0.7151 -0.3792 -0.1279
  203MPD1    C5 3088   3.460   0.993  11.999  0.1188  0.6233 -0.1411
  203MPD1     H 3089   3.731   0.765  11.860  0.6344  0.3809  1.0646
  203MPD1    H1 3090   3.495   0.893  12.182 -2.2390  0.6485 -0.9192
  203MPD1    H2 3091   3.431   1.082  11.826  1.3564 -0.3657 -1.2450
  203MPD1    H3 3092   3.380   1.056  12.036 -0.8593 -1.1009  0.6553
  203MPD1     N 3093   3.697   0.722  12.106 -0.0827  0.5176 -0.1955
  203MPD1    H5 3094   3.755   0.661  12.049  1.3752  2.6077 -0.9502
  203MPD1    N1 3095   3.643   0.955  11.685  0.0311  0.5400  0.1396
  203MPD1    H6 3096   3.670   0.873  11.631 -0.7605  0.6961 -0.4838
  203MPD1    H7 3097   3.581   1.002  11.619 -0.9737  0.8058  1.2731
  204MPD1     C 3098   2.549   0.340   0.768  0.5454 -0.1460  0.5136
  204MPD1    C1 3099   2.493   0.240   0.686  0.1423  0.4520 -0.1682
  204MPD1    C2 3100   2.558   0.204   0.570  0.2984 -0.2845  0.5573
  204MPD1    C3 3101   2.668   0.278   0.526 -0.4223 -0.3944 -0.4903
  204MPD1    C4 3102   2.707   0.390   0.597  0.1822  0.4019 -0.1499
  204MPD1    C5 3103   2.655   0.411   0.723  0.6617  0.1677  0.0845
  204MPD1     H 3104   2.512   0.132   0.503  0.4097 -0.1246  0.3085
  204MPD1    H1 3105   2.796   0.442   0.564 -1.9279  3.1940 -1.3699
  204MPD1    H2 3106   2.516   0.355   0.871 -4.7245  2.6900 -1.5908
  204MPD1    H3 3107   2.692   0.494   0.783 -0.0755  0.3218  0.3315
  204MPD1     N 3108   2.722   0.233   0.401 -0.1296 -0.4366  0.2340
  204MPD1    H5 3109   2.678   0.153   0.357  0.1157  0.3882 -1.4924
  204MPD1    N1 3110   2.378   0.172   0.735 -0.4658  0.0691 -0.3704
  204MPD1    H6 3111   2.314   0.240   0.775  1.8527  0.9483  1.8172
  204MPD1    H7 3112   2.339   0.120   0.657  1.7919  1.4495 -2.4226
  205MPD1     C 3113   1.903   4.438  16.964 -0.5089  0.2794 -0.3664
  205MPD1    C1 3114   1.998   4.380  16.882  0.3194  0.1360  0.3317
  205MPD1    C2 3115   2.104   4.305  16.938 -0.1085  0.0006  0.5462
  205MPD1    C3 3116   2.108   4.289  17.078  0.2589 -0.4039 -0.1254
  205MPD1    C4 3117   2.007   4.351  17.151  0.0537  0.9863  0.0135
  205MPD1    C5 3118   1.906   4.424  17.094 -0.7568 -0.0520 -0.6063
  205MPD1     H 3119   2.185   4.265  16.878  3.2092  2.0267  3.6312
  205MPD1    H1 3120   1.998   4.333  17.257  0.2352  0.6249 -0.0324
  205MPD1    H2 3121   1.839   4.516  16.922  1.3844  2.2715  0.4507
  205MPD1    H3 3122   1.827   4.472  17.150 -0.0409  2.5471 -1.8189
  205MPD1     N 3123   2.202   4.205  17.142  0.1379 -0.1119  0.4913
  205MPD1    H5 3124   2.186   4.192  17.241 -2.5086 -2.4881 -0.2381
  205MPD1    N1 3125   2.009   4.412  16.748  0.2688 -0.1607 -0.2637
  205MPD1    H6 3126   2.060   4.334  16.706 -0.1687 -0.7214  0.2485
  205MPD1    H7 3127   1.923   4.431  16.698  0.8099 -0.6787 -1.3797
  206MPD1     C 3128   3.451   2.761  16.793 -0.0080 -0.1039  0.5328
  206MPD1    C1 3129   3.426   2.890  16.748 -0.3857  0.1985  0.0372
  206MPD1    C2 3130   3.396   2.915  16.618  0.3875 -0.3049  0.7277
  206MPD1    C3 3131   3.426   2.817  16.522 -0.3871  0.8114  0.2443
  206MPD1    C4 3132   3.470   2.691  16.572  0.7504 -0.2739  0.1172
  206MPD1    C5 3133   3.482   2.663  16.703  0.2727 -0.2214  0.2852
  206MPD1     H 3134   3.371   3.015  16.584 -2.1308 -1.3808 -0.6200
  206MPD1    H1 3135   3.489   2.608  16.505 -0.3958 -1.8402  1.7683
  206MPD1    H2 3136   3.466   2.732  16.896 -0.4873  0.9852  0.9130
  206MPD1    H3 3137   3.509   2.563  16.735  1.8384  0.1710  0.1880
  206MPD1     N 3138   3.408   2.827  16.382  0.1329  0.0091  0.0464
  206MPD1    H5 3139   3.409   2.743  16.323 -0.9770  0.3475 -0.4497
  206MPD1    N1 3140   3.400   2.992  16.847  0.1904  0.0958 -0.6002
  206MPD1    H6 3141   3.449   2.976  16.934  0.2387  0.2580 -0.5978
  206MPD1    H7 3142   3.421   3.087  16.816 -1.7289  2.0716  4.1731
  207MPD1     C 3143   0.954   1.705   9.806 -0.6093 -0.5438 -0.1171
  207MPD1    C1 3144   0.902   1.580   9.820 -0.4271  0.0201  0.3248
  207MPD1    C2 3145   0.986   1.485   9.867 -0.0116 -0.4053 -0.5726
  207MPD1    C3 3146   1.129   1.498   9.881 -0.1003  0.4416 -0.7077
  207MPD1    C4 3147   1.180   1.619   9.855  0.7251  0.0264 -0.0536
  207MPD1    C5 3148   1.089   1.723   9.829 -0.5682 -0.0015  0.2204
  207MPD1     H 3149   0.950   1.384   9.882 -2.0830  0.2339 -1.3282
  207MPD1    H1 3150   1.282   1.646   9.880  0.4063  1.4368 -0.2964
  207MPD1    H2 3151   0.890   1.793   9.804  2.3182  1.6010  0.0740
  207MPD1    H3 3152   1.127   1.824   9.827  0.5978 -0.4622 -0.6021
  207MPD1     N 3153   1.217   1.396   9.916 -0.0104  0.1575  0.1249
  207MPD1    H5 3154   1.315   1.420   9.909 -0.0785  0.0145 -1.2864
  207MPD1    N1 3155   0.766   1.556   9.798 -0.1725 -0.3131  0.1595
  207MPD1    H6 3156   0.742   1.613   9.717 -0.0642 -0.0544  0.3083
  207MPD1    H7 3157   0.739   1.458   9.799  0.2818 -0.4555 -1.1502
  208MPD1     C 3158   4.368   3.535  17.279  0.2459 -0.1893  0.1058
  208MPD1    C1 3159   4.339   3.613  17.390 -0.8016 -0.8603 -0.6599
  208MPD1    C2 3160   4.208   3.669  17.397 -0.1787  0.6774 -0.1887
  208MPD1    C3 3161   4.104   3.615  17.319 -0.1828 -0.0515  0.7778
  208MPD1    C4 3162   4.131   3.523  17.213 -0.5188 -0.3483  0.6231
  208MPD1    C5 3163   4.267   3.481  17.207  0.6319 -0.0440  0.1016
  208MPD1     H 3164   4.189   3.738  17.478  0.3611  0.1707  0.3675
  208MPD1    H1 3165   4.054   3.463  17.167 -0.6872 -0.8301  1.5244
  208MPD1    H2 3166   4.468   3.494  17.265  0.0608 -0.3340 -0.7550
  208MPD1    H3 3167   4.295   3.403  17.137  1.1481 -0.6784  1.0185
  208MPD1     N 3168   3.977   3.674  17.343  0.4015 -0.1467 -0.1864
  208MPD1    H5 3169   3.973   3.742  17.418  0.6020 -1.1724  0.7553
  208MPD1    N1 3170   4.443   3.671  17.468  0.1364  0.5968  0.4533
  208MPD1    H6 3171   4.519   3.612  17.500  0.6279  0.9235 -0.1184
  208MPD1    H7 3172   4.397   3.717  17.546 -0.6447 -0.4482  0.6070
  209MPD1     C 3173   1.462   4.125  10.523 -0.1365 -0.7936  0.3153
  209MPD1    C1 3174   1.448   4.166  10.652 -0.1429 -0.4221 -0.4076
  209MPD1    C2 3175   1.422   4.300  10.669  0.0934  0.0476 -0.0412
  209MPD1    C3 3176   1.393   4.389  10.564 -0.1208 -0.4321 -0.0823
  209MPD1    C4 3177   1.391   4.333  10.434 -0.2638  0.6590 -0.5970
  209MPD1    C5 3178   1.425   4.206  10.414  0.5603 -0.5045 -0.4201
  209MPD1     H 3179   1.407   4.335  10.770 -0.8511 -3.5473  1.0623
  209MPD1    H1 3180   1.368   4.387  10.343  0.1709 -2.5284 -2.6016
  209MPD1    H2 3181   1.495   4.025  10.500 -2.1754 -1.1257 -1.2087
  209MPD1    H3 3182   1.426   4.167  10.313 -2.0656 -1.2699 -0.1342
  209MPD1     N 3183   1.347   4.522  10.589  0.0803  0.0664 -0.0182
  209MPD1    H5 3184   1.320   4.547  10.683  0.4389  0.5437 -0.0461
  209MPD1    N1 3185   1.495   4.091  10.756  0.0665 -0.3750 -0.3215
  209MPD1    H6 3186   1.452   4.120  10.844  2.0019 -0.0804  0.5490
  209MPD1    H7 3187   1.490   3.989  10.748  0.8899 -0.2753 -2.0389
  210MPD1     C 3188   1.630   0.468  11.184  0.1776 -0.0667 -0.5917
  210MPD1    C1 3189   1.672   0.347  11.137  1.0326  0.4339 -0.3717
  210MPD1    C2 3190   1.604   0.292  11.031  0.1866 -0.4739  0.3596
  210MPD1    C3 3191   1.503   0.370  10.973  0.2245  0.1755 -0.0170
  210MPD1    C4 3192   1.458   0.487  11.031  0.1480  0.8865  0.2608
  210MPD1    C5 3193   1.525   0.543  11.135  0.1207 -0.2352  0.0382
  210MPD1     H 3194   1.637   0.198  10.989  1.0384 -0.3215  0.6889
  210MPD1    H1 3195   1.378   0.544  10.984  0.3358  0.8323 -0.1260
  210MPD1    H2 3196   1.685   0.516  11.263  1.2098  0.0184 -1.3636
  210MPD1    H3 3197   1.496   0.637  11.180  0.4835 -0.2864  0.3783
  210MPD1     N 3198   1.431   0.310  10.865 -0.0776  0.0471  0.4556
  210MPD1    H5 3199   1.355   0.364  10.823  0.6961  0.6367 -0.2021
  210MPD1    N1 3200   1.773   0.276  11.198 -0.0322 -0.2214  0.4861
  210MPD1    H6 3201   1.836   0.330  11.257  0.5562  0.0405 -0.3770
  210MPD1    H7 3202   1.825   0.228  11.124 -0.6036 -0.3847  0.1930
  211MPD1     C 3203   4.385   4.679  16.606  0.6120  0.5396  0.1321
  211MPD1    C1 3204   4.284   4.594  16.639  0.5394 -0.0066  0.3559
  211MPD1    C2 3205   4.160   4.651  16.659  0.3573  0.4927  0.3628
  211MPD1    C3 3206   4.123   0.043  16.589 -0.1302 -0.2762  0.1770
  211MPD1    C4 3207   4.225   0.119  16.535 -0.1171 -0.1931 -0.2428
  211MPD1    C5 3208   4.357   0.070  16.536 -0.0935  0.2118  0.1005
  211MPD1     H 3209   4.079   4.595  16.706 -0.7410  0.3272 -1.7606
  211MPD1    H1 3210   4.207   0.217  16.491  2.5555  0.8479  1.0099
  211MPD1    H2 3211   4.487   4.643  16.601  0.3443 -0.3144  0.8615
  211MPD1    H3 3212   4.443   0.128  16.502 -0.1167  0.6308  0.7577
  211MPD1     N 3213   3.986   0.086  16.597 -0.4997 -0.2568  0.4912
  211MPD1    H5 3214   3.916   0.049  16.661 -1.2321 -1.9157 -1.2511
  211MPD1    N1 3215   4.326   4.471  16.691  0.4226 -0.1808 -0.0546
  211MPD1    H6 3216   4.258   4.396  16.702  0.2661  0.2155  1.6483
  211MPD1    H7 3217   4.420   4.448  16.658  0.6437 -0.3186  0.6589
  212MPD1     C 3218   3.114   2.992  17.029  0.0237  0.3025  0.2294
  212MPD1    C1 3219   3.149   2.855  17.051 -0.0336 -0.2714 -0.0632
  212MPD1    C2 3220   3.051   2.755  17.067  0.5451 -0.6251  0.6587
  212MPD1    C3 3221   2.915   2.787  17.040  0.3761 -0.4899 -0.2954
  212MPD1    C4 3222   2.890   2.908  16.985  0.3452 -0.9922  0.4004
  212MPD1    C5 3223   2.987   3.005  16.981  0.1325  0.4829  0.0107
  212MPD1     H 3224   3.081   2.656  17.101  1.1845 -0.3152  0.9885
  212MPD1    H1 3225   2.790   2.931  16.950  0.8865  1.0574  0.1522
  212MPD1    H2 3226   3.186   3.072  17.014 -1.5910  1.7808  0.3511
  212MPD1    H3 3227   2.943   3.103  16.964  0.0809  0.4385 -0.1093
  212MPD1     N 3228   2.810   2.694  17.064  0.0707 -0.2947 -0.1758
  212MPD1    H5 3229   2.716   2.724  17.040  0.1085 -1.0078 -1.1941
  212MPD1    N1 3230   3.283   2.814  17.082 -0.1447 -0.1598  0.5492
  212MPD1    H6 3231   3.311   2.721  17.052 -0.2242  0.1985 -0.6259
  212MPD1    H7 3232   3.359   2.874  17.049 -0.2679 -0.3751 -0.1325
  213MPD1     C 3233   0.630   4.237  15.625  0.0446 -0.0131  0.0428
  213MPD1    C1 3234   0.571   4.120  15.586 -0.6594  0.5676 -0.1414
  213MPD1    C2 3235   0.593   4.079  15.455 -0.3592 -0.5991 -0.4349
  213MPD1    C3 3236   0.637   4.165  15.355  0.3389 -0.2172 -0.2695
  213MPD1    C4 3237   0.663   4.293  15.392  0.4714 -0.3086 -0.2215
  213MPD1    C5 3238   0.671   4.326  15.527 -0.2044  0.4794  0.3553
  213MPD1     H 3239   0.551   3.984  15.423 -1.4221 -0.5348  0.7974
  213MPD1    H1 3240   0.677   4.370  15.317 -1.6826  0.7901  0.5230
  213MPD1    H2 3241   0.623   4.272  15.727  1.9529 -0.4029  0.3075
  213MPD1    H3 3242   0.703   4.427  15.549 -1.1859  1.1096 -1.1666
  213MPD1     N 3243   0.644   4.115  15.228 -0.2306  0.1700 -0.5190
  213MPD1    H5 3244   0.623   4.020  15.198 -2.0428 -0.2533  2.1332
  213MPD1    N1 3245   0.549   4.031  15.691  0.4320 -0.3847 -0.3523
  213MPD1    H6 3246   0.513   4.073  15.776 -1.1030 -0.7243 -0.8497
  213MPD1    H7 3247   0.486   3.955  15.667  0.8837 -1.1197  0.7915
  214MPD1     C 3248   0.000   3.767  14.559  0.2405 -1.0225 -0.0237
  214MPD1    C1 3249   4.719   3.814  14.688 -0.5744 -0.0046  0.6242
  214MPD1    C2 3250   0.109   3.874  14.737 -0.0349  0.3996  0.1954
  214MPD1    C3 3251   0.227   3.891  14.668 -0.3751  0.0358  0.0005
  214MPD1    C4 3252   0.226   3.854  14.536 -0.3714 -0.3330 -0.2034
  214MPD1    C5 3253   0.116   3.795  14.484 -0.4386  0.0122 -0.0179
  214MPD1     H 3254   0.105   3.919  14.835  1.3815  2.0665 -0.5094
  214MPD1    H1 3255   0.315   3.861  14.474 -0.7029 -2.1803 -0.8736
  214MPD1    H2 3256   4.645   3.714  14.508 -2.6768  1.5842  1.7318
  214MPD1    H3 3257   0.112   3.760  14.381 -3.1304 -0.5714  0.2892
  214MPD1     N 3258   0.342   3.958  14.714 -0.0233  0.1022 -0.1594
  214MPD1    H5 3259   0.421   3.968  14.650  1.3736  3.5113  2.1207
  214MPD1    N1 3260   4.612   3.781  14.773 -0.3182 -0.4148  0.6780
  214MPD1    H6 3261   4.594   3.855  14.840  3.5384 -0.6169  1.9278
  214MPD1    H7 3262   4.523   3.767  14.724  0.7251 -0.1770 -1.2826
  215MPD1     C 3263   1.046   4.321  10.322 -0.4260 -0.0612  0.1969
  215MPD1    C1 3264   0.947   4.356  10.403 -0.0102 -0.2513  0.5272
  215MPD1    C2 3265   0.905   4.489  10.409  0.1693  1.0226  0.3784
  215MPD1    C3 3266   0.961   4.582  10.325 -0.3458  0.1150  0.4140
  215MPD1    C4 3267   1.061   4.539  10.243 -0.2989 -0.6727 -0.1383
  215MPD1    C5 3268   1.109   4.415  10.249  0.7606 -0.2806  0.0474
  215MPD1     H 3269   0.823   4.524  10.470  2.4363 -0.0853  4.0508
  215MPD1    H1 3270   1.103   4.612  10.174 -1.5160 -0.5505 -0.7340
  215MPD1    H2 3271   1.090   4.222  10.321  0.1110  0.1841 -0.9545
  215MPD1    H3 3272   1.193   4.384  10.188  0.9529 -0.1761  0.2573
  215MPD1     N 3273   0.922   4.712  10.353 -0.1223 -0.1196  0.4612
  215MPD1    H5 3274   0.851   0.016  10.420 -0.3720 -1.0618  0.5874
  215MPD1    N1 3275   0.890   4.258  10.495  0.0899  0.1757 -0.1822
  215MPD1    H6 3276   0.794   4.281  10.521  1.0533  3.2900  0.7084
  215MPD1    H7 3277   0.898   4.163  10.459 -4.0284 -0.5356  0.7672
  216MPD1     C 3278   2.994   0.997  16.353  0.7351 -0.1572  0.0436
  216MPD1    C1 3279   2.877   1.069  16.370 -0.1973 -0.0169 -0.8647
  216MPD1    C2 3280   2.863   1.151  16.476 -0.5720  0.1742 -0.2726
  216MPD1    C3 3281   2.956   1.141  16.577  0.2138  0.0576  0.4232
  216MPD1    C4 3282   3.056   1.049  16.567  0.3301  1.2586  0.5300
  216MPD1    C5 3283   3.077   0.975  16.460 -0.5111  0.2258  0.6144
  216MPD1     H 3284   2.785   1.226  16.476 -0.7191  0.0319  0.8817
  216MPD1    H1 3285   3.134   1.045  16.641  0.2699  0.4921  0.5482
  216MPD1    H2 3286   3.008   0.939  16.263 -2.1660  0.5209 -0.8724
  216MPD1    H3 3287   3.167   0.915  16.454 -1.2148 -0.3519 -3.7889
  216MPD1     N 3288   2.940   1.240  16.680 -0.4308  0.0019 -0.0079
  216MPD1    H5 3289   2.864   1.306  16.672 -1.3727 -1.2477 -1.3380
  216MPD1    N1 3290   2.790   1.081  16.264 -0.2097 -0.5519  0.4628
  216MPD1    H6 3291   2.801   1.015  16.187 -2.8211 -0.8451  0.3615
  216MPD1    H7 3292   2.693   1.095  16.291  0.4294 -1.5168  3.2065
  217MPD1     C 3293   4.666   4.064   8.093 -0.1919 -0.5905  0.0430
  217MPD1    C1 3294   0.027   3.973   8.156 -0.0671  0.2642 -0.6719
  217MPD1    C2 3295   0.008   3.955   8.295  0.6051  0.2182  0.6559
  217MPD1    C3 3296   4.626   4.016   8.357 -0.1853 -0.1577 -1.0166
  217MPD1    C4 3297   4.551   4.114   8.297 -0.4027  0.1251  0.6211
  217MPD1    C5 3298   4.566   4.139   8.159 -0.1563  0.7772  0.5252
  217MPD1     H 3299   0.067   3.883   8.351 -0.5105  0.2133  1.8175
  217MPD1    H1 3300   4.474   4.174   8.346 -0.0878  0.8067  0.2792
  217MPD1    H2 3301   4.660   4.073   7.985 -1.0650 -1.2810  0.0304
  217MPD1    H3 3302   4.497   4.199   8.102  0.4248  0.6399 -0.3158
  217MPD1     N 3303   4.596   3.993   8.495 -0.1274  0.6541  0.2627
  217MPD1    H5 3304   4.510   4.038   8.525 -0.4346  1.2003 -1.4375
  217MPD1    N1 3305   0.104   3.882   8.086 -0.2245  0.1238  0.4711
  217MPD1    H6 3306   0.132   3.916   7.995 -1.0759 -1.8593 -0.5329
  217MPD1    H7 3307   0.181   3.845   8.141 -0.2075 -1.8106 -0.8626
  218MPD1     C 3308   0.004   0.576  12.346  0.4072  0.2008 -0.1537
  218MPD1    C1 3309   0.120   0.621  12.279 -0.3167  0.0126  0.2175
  218MPD1    C2 3310   0.225   0.529  12.256 -0.1732 -0.0437 -0.2213
  218MPD1    C3 3311   0.220   0.404  12.314 -0.3738 -0.6940 -0.0582
  218MPD1    C4 3312   0.101   0.361  12.371 -0.7510  0.4025 -0.1322
  218MPD1    C5 3313   4.713   0.448  12.385 -0.3912  0.2095 -0.0401
  218MPD1     H 3314   0.309   0.560  12.196 -0.4537  2.7705  0.8365
  218MPD1    H1 3315   0.093   0.263  12.417 -3.8714  0.6533 -0.1057
  218MPD1    H2 3316   4.656   0.654  12.369  0.9445  0.7695 -0.3916
  218MPD1    H3 3317   4.625   0.409  12.434 -0.0854 -0.6630 -0.1988
  218MPD1     N 3318   0.341   0.330  12.305 -0.0323  0.1883  0.7070
  218MPD1    H5 3319   0.419   0.371  12.254 -0.7277  1.2838  0.5127
  218MPD1    N1 3320   0.122   0.750  12.227 -0.0436 -0.2355  0.5692
  218MPD1    H6 3321   0.216   0.787  12.238 -0.2274  1.0683 -2.3026
  218MPD1    H7 3322   0.051   0.810  12.269 -0.7388 -0.5003 -0.2186
  219MPD1     C 3323   0.948   0.438  11.714 -0.5290  0.3484  0.1077
  219MPD1    C1 3324   0.979   0.306  11.734  0.0546 -0.0900 -0.1405
  219MPD1    C2 3325   0.900   0.239  11.822  0.4309  0.2387  0.1561
  219MPD1    C3 3326   0.784   0.293  11.874 -0.0400 -0.2382  0.0683
  219MPD1    C4 3327   0.745   0.419  11.838 -0.4025 -0.2384  0.3794
  219MPD1    C5 3328   0.835   0.500  11.770 -0.6374 -0.7893 -0.7885
  219MPD1     H 3329   0.927   0.140  11.856 -1.2839 -0.1276  0.4369
  219MPD1    H1 3330   0.645   0.456  11.859 -0.4134  0.2753 -0.5952
  219MPD1    H2 3331   1.012   0.498  11.651  0.2915  1.2358  1.8031
  219MPD1    H3 3332   0.808   0.603  11.751  0.4363 -0.4640 -0.5180
  219MPD1     N 3333   0.699   0.237  11.969 -0.3426  0.2303 -0.0555
  219MPD1    H5 3334   0.625   0.299  12.002 -1.6558 -0.4407 -1.7623
  219MPD1    N1 3335   1.084   0.239  11.671 -0.3366 -0.2983  0.0043
  219MPD1    H6 3336   1.162   0.293  11.636 -1.4308  0.4433 -1.3078
  219MPD1    H7 3337   1.118   0.152  11.713 -0.0855  1.0909  2.6604
  220MPD1     C 3338   0.688   0.979   8.767 -0.4413 -0.0450 -0.0636
  220MPD1    C1 3339   0.593   0.880   8.751 -0.3157 -0.0175 -0.8410
  220MPD1    C2 3340   0.545   0.824   8.868 -0.3493 -0.1118  0.3039
  220MPD1    C3 3341   0.593   0.862   8.994 -0.0862 -0.3919 -0.2666
  220MPD1    C4 3342   0.677   0.972   9.008 -0.6704  0.2406 -0.6981
  220MPD1    C5 3343   0.724   1.028   8.894  0.3626  0.4584  0.0127
  220MPD1     H 3344   0.471   0.745   8.862  0.3200 -0.6940 -0.3171
  220MPD1    H1 3345   0.711   0.986   9.110 -0.6871 -0.1550 -0.6397
  220MPD1    H2 3346   0.739   1.020   8.681 -0.8675  1.9147  0.6343
  220MPD1    H3 3347   0.809   1.094   8.910  0.0973  0.6183  0.7733
  220MPD1     N 3348   0.562   0.798   9.120  0.6589  0.3547 -0.6035
  220MPD1    H5 3349   0.602   0.840   9.203 -0.5350 -0.9190  0.6070
  220MPD1    N1 3350   0.584   0.816   8.631 -0.3299 -0.4237 -0.8441
  220MPD1    H6 3351   0.606   0.869   8.547  0.4417  0.8981  0.1995
  220MPD1    H7 3352   0.495   0.769   8.621 -0.7122  0.2351 -0.4997
  221MPD1     C 3353   2.516   4.442  16.117 -0.9519  0.2699 -0.1719
  221MPD1    C1 3354   2.630   4.475  16.046  0.0572  0.5046  0.3197
  221MPD1    C2 3355   2.753   4.448  16.110  0.2297 -0.1558 -0.5657
  221MPD1    C3 3356   2.760   4.394  16.236 -0.2426  0.0494 -0.8638
  221MPD1    C4 3357   2.646   4.348  16.297  0.2384  0.3010 -0.2601
  221MPD1    C5 3358   2.524   4.373  16.237  0.0003 -0.8014 -0.1203
  221MPD1     H 3359   2.846   4.486  16.068  0.4811 -0.1800 -0.0287
  221MPD1    H1 3360   2.639   4.301  16.395 -1.9530  1.7740  0.2856
  221MPD1    H2 3361   2.418   4.471  16.080  0.1581  0.3321 -3.0673
  221MPD1    H3 3362   2.433   4.351  16.292 -0.6318  0.1157 -0.7810
  221MPD1     N 3363   2.876   4.395  16.319 -0.0048 -0.0036  0.1325
  221MPD1    H5 3364   2.876   4.347  16.408 -1.7797 -0.3019 -0.0418
  221MPD1    N1 3365   2.622   4.559  15.929 -0.2296  0.2555  0.2220
  221MPD1    H6 3366   2.536   4.551  15.876  0.5391  0.9034 -1.1271
  221MPD1    H7 3367   2.703   4.540  15.870  0.1958 -1.1753  1.2676
  222MPD1     C 3368   3.951   2.809  16.815  0.4852 -0.4435 -0.0872
  222MPD1    C1 3369   3.832   2.872  16.805  0.3788  0.1338 -0.1170
  222MPD1    C2 3370   3.765   2.899  16.925 -0.1208 -0.5758  0.2683
  222MPD1    C3 3371   3.806   2.847  17.046 -0.0881 -0.6431 -0.3594
  222MPD1    C4 3372   3.928   2.794  17.051  0.2843 -0.0799  0.0743
  222MPD1    C5 3373   4.004   2.775  16.940 -0.1960  0.8517 -0.3680
  222MPD1     H 3374   3.670   2.950  16.915  0.2387  0.5124  2.3728
  222MPD1    H1 3375   3.970   2.763  17.146 -0.1021  1.1702  0.6544
  222MPD1    H2 3376   4.021   2.779  16.737  1.5761 -0.1100  0.7640
  222MPD1    H3 3377   4.099   2.726  16.955 -1.2045 -0.7569  0.6994
  222MPD1     N 3378   3.734   2.860  17.169 -0.1594  0.4749 -0.2658
  222MPD1    H5 3379   3.786   2.818  17.245  1.5416 -0.4524 -1.9507
  222MPD1    N1 3380   3.797   2.916  16.672 -0.0834  0.3224 -0.4665
  222MPD1    H6 3381   3.823   2.854  16.596 -0.5840 -0.6876  0.2030
  222MPD1    H7 3382   3.698   2.938  16.680  0.2476  1.8122 -0.2685
  223MPD1     C 3383   3.992   3.197   0.380 -0.3919 -0.3819 -0.1234
  223MPD1    C1 3384   3.859   3.237   0.375 -0.0015  0.4364 -0.5878
  223MPD1    C2 3385   3.791   3.218   0.258  0.1273 -0.0535  0.5520
  223MPD1    C3 3386   3.845   3.158   0.148  0.8146 -0.4794 -0.3957
  223MPD1    C4 3387   3.982   3.136   0.152  0.1677 -0.0348 -0.4271
  223MPD1    C5 3388   4.047   3.141   0.272 -0.1650 -0.9946  0.4542
  223MPD1     H 3389   3.685   3.241   0.255  0.2103 -0.1601 -3.0127
  223MPD1    H1 3390   4.036   3.103   0.064 -0.3205 -1.1823 -0.2905
  223MPD1    H2 3391   4.036   3.191   0.479 -0.4804 -0.6622 -0.1019
  223MPD1    H3 3392   4.145   3.095   0.280  0.1349 -0.7921 -2.0632
  223MPD1     N 3393   3.766   3.124   0.036  0.2281 -0.3790  0.2295
  223MPD1    H5 3394   3.668   3.152   0.040  0.0507 -0.9162 -0.3330
  223MPD1    N1 3395   3.785   3.276   0.493  0.3282 -0.3387 -0.3448
  223MPD1    H6 3396   3.694   3.313   0.467  0.3600  0.8183  1.2314
  223MPD1    H7 3397   3.831   3.335   0.561 -2.4907 -0.6310  1.8033
  224MPD1     C 3398   4.030   4.311   8.536 -0.4034  0.3000 -0.2814
  224MPD1    C1 3399   4.149   4.290   8.599  0.4938 -0.8677 -0.1460
  224MPD1    C2 3400   4.182   4.346   8.717 -0.3005 -0.1031 -0.0350
  224MPD1    C3 3401   4.092   4.424   8.786  0.0120 -0.0330  0.5288
  224MPD1    C4 3402   3.969   4.445   8.724  0.0053  0.4935  0.1180
  224MPD1    C5 3403   3.936   4.386   8.599  0.3306 -0.4043  0.1997
  224MPD1     H 3404   4.282   4.334   8.756  0.4292  0.9150 -1.5584
  224MPD1    H1 3405   3.888   4.501   8.770 -0.3946  1.3107 -1.5787
  224MPD1    H2 3406   4.012   4.252   8.447  0.8599 -2.7417  1.4773
  224MPD1    H3 3407   3.842   4.405   8.548  0.2836  3.4578  1.7351
  224MPD1     N 3408   4.114   4.485   8.907  0.2333 -0.3734  0.1572
  224MPD1    H5 3409   4.031   4.511   8.959 -2.1147 -1.5197 -2.9851
  224MPD1    N1 3410   4.229   4.194   8.544  0.6800 -0.1192  0.3663
  224MPD1    H6 3411   4.322   4.222   8.575  1.3782 -0.9079 -0.9971
  224MPD1    H7 3412   4.229   4.217   8.444  0.3319 -0.6294  0.2507
  225MPD1     C 3413   1.049   1.009  11.867 -0.0031 -0.4461 -0.3684
  225MPD1    C1 3414   0.982   1.023  11.749 -0.5424 -0.2630 -0.0401
  225MPD1    C2 3415   0.845   1.055  11.758  0.4204  0.1659 -0.0977
  225MPD1    C3 3416   0.778   1.058  11.883 -0.0914  0.3745  0.5788
  225MPD1    C4 3417   0.851   1.043  11.996 -0.1691  0.2487  0.0428
  225MPD1    C5 3418   0.986   1.009  11.989  0.3555  0.3656  0.3831
  225MPD1     H 3419   0.795   1.072  11.664  2.0963  1.4277 -0.7511
  225MPD1    H1 3420   0.801   1.047  12.092 -2.6123  0.4176 -1.2626
  225MPD1    H2 3421   1.157   1.009  11.863 -0.0297 -1.6332 -0.9949
  225MPD1    H3 3422   1.054   1.000  12.073  0.0642 -0.8315  0.4975
  225MPD1     N 3423   0.640   1.095  11.897 -0.1538 -0.3851 -0.2261
  225MPD1    H5 3424   0.608   1.104  11.993  0.3302  0.2298 -0.1207
  225MPD1    N1 3425   1.051   1.055  11.636 -0.1987 -0.3551  0.3875
  225MPD1    H6 3426   1.002   1.027  11.551  0.2890 -1.6768  0.5334
  225MPD1    H7 3427   1.143   1.010  11.630 -0.0287 -0.0705  0.8489
  226MPD1     C 3428   3.610   1.617   8.548  0.4951  0.0141  0.0559
  226MPD1    C1 3429   3.478   1.623   8.571  0.0335 -0.2686 -0.4201
  226MPD1    C2 3430   3.425   1.544   8.677  0.9497 -0.1654  0.3452
  226MPD1    C3 3431   3.512   1.475   8.761  0.0893 -0.3510  0.1413
  226MPD1    C4 3432   3.645   1.474   8.737  0.5234  0.0861  0.0967
  226MPD1    C5 3433   3.691   1.540   8.627 -0.7151 -1.3493 -0.1798
  226MPD1     H 3434   3.320   1.528   8.698  1.1629 -3.3488 -0.9705
  226MPD1    H1 3435   3.717   1.412   8.790  1.6192  0.0010 -1.5154
  226MPD1    H2 3436   3.654   1.675   8.468 -1.1715 -0.1068 -0.9639
  226MPD1    H3 3437   3.796   1.521   8.607 -0.5749 -1.5667  0.7697
  226MPD1     N 3438   3.462   1.397   8.866  0.0647  0.5946  0.5276
  226MPD1    H5 3439   3.361   1.399   8.874  0.0760 -0.9477  0.9828
  226MPD1    N1 3440   3.384   1.679   8.474  0.3215 -0.1838 -0.1411
  226MPD1    H6 3441   3.296   1.709   8.514  0.1362 -0.6434 -0.1964
  226MPD1    H7 3442   3.430   1.745   8.412  1.3647 -0.4686  0.3290
  227MPD1     C 3443   2.768   0.925   8.706  0.0806  0.4064 -0.1270
  227MPD1    C1 3444   2.808   1.050   8.673  0.2801  0.2936  1.0780
  227MPD1    C2 3445   2.920   1.103   8.745 -0.5700  0.5605  0.3899
  227MPD1    C3 3446   2.969   1.034   8.847 -0.1090 -0.1780 -0.4040
  227MPD1    C4 3447   2.929   0.901   8.869 -0.6218 -0.2391 -0.6376
  227MPD1    C5 3448   2.826   0.842   8.799 -0.7359  0.2498 -0.6892
  227MPD1     H 3449   2.957   1.202   8.717 -0.0233  0.0742 -0.6038
  227MPD1    H1 3450   2.970   0.840   8.948  0.4336  0.9574 -0.2494
  227MPD1    H2 3451   2.685   0.880   8.651 -0.2721  0.9340 -0.0272
  227MPD1    H3 3452   2.797   0.739   8.815 -0.4779 -0.0656 -2.2242
  227MPD1     N 3453   3.076   1.094   8.916 -0.4090  0.0253  0.1434
  227MPD1    H5 3454   3.101   1.186   8.883 -0.3531 -0.3195 -0.7542
  227MPD1    N1 3455   2.748   1.116   8.563  0.2274 -0.0492 -0.1537
  227MPD1    H6 3456   2.757   1.217   8.566 -1.3539  0.1786 -2.8601
  227MPD1    H7 3457   2.650   1.089   8.555  0.0089  0.6240  0.3254
  228MPD1     C 3458   1.749   3.702  12.384 -0.7117  0.4720  0.5621
  228MPD1    C1 3459   1.633   3.653  12.345  0.6524 -0.1945 -0.7139
  228MPD1    C2 3460   1.545   3.619  12.443  0.5368 -0.0178 -0.3044
  228MPD1    C3 3461   1.564   3.626  12.576 -0.4345  1.4095 -1.1240
  228MPD1    C4 3462   1.677   3.687  12.612  0.1730  0.0990  0.7100
  228MPD1    C5 3463   1.773   3.713  12.520  0.2054  0.0604  0.0182
  228MPD1     H 3464   1.450   3.575  12.419  0.3006  0.4497 -0.2341
  228MPD1    H1 3465   1.715   3.702  12.712  0.3826  2.8846  0.1950
  228MPD1    H2 3466   1.829   3.735  12.319 -0.8940  1.1894  0.6990
  228MPD1    H3 3467   1.868   3.753  12.552  0.0199  1.2624 -0.9137
  228MPD1     N 3468   1.467   3.577  12.667 -0.1197  0.1267 -0.2695
  228MPD1    H5 3469   1.393   3.534  12.612 -1.8874  1.2177  1.2929
  228MPD1    N1 3470   1.586   3.665  12.214  0.1001 -0.4703 -0.3288
  228MPD1    H6 3471   1.668   3.656  12.153  0.5060  0.2315  0.1111
  228MPD1    H7 3472   1.509   3.603  12.192 -0.5026  0.9756 -2.3176
  229MPD1     C 3473   2.623   2.660  14.349  0.1573  0.3490  0.4584
  229MPD1    C1 3474   2.716   2.588  14.426  0.5128 -0.4249  0.0047
  229MPD1    C2 3475   2.659   2.486  14.502  0.5763 -0.4864 -0.2210
  229MPD1    C3 3476   2.523   2.451  14.504 -0.5411  0.5934  0.1186
  229MPD1    C4 3477   2.438   2.526  14.430  0.4271  0.2089  0.3702
  229MPD1    C5 3478   2.491   2.625  14.354 -1.1396 -0.4699 -0.6836
  229MPD1     H 3479   2.724   2.426  14.565 -1.0243  0.4552  2.3108
  229MPD1    H1 3480   2.335   2.497  14.416  0.4730 -0.7433  1.9783
  229MPD1    H2 3481   2.659   2.745  14.292 -0.4742  0.5432  0.3487
  229MPD1    H3 3482   2.425   2.658  14.274 -1.4416  2.2654  0.7097
  229MPD1     N 3483   2.466   2.342  14.576  0.0638 -0.0682 -0.2867
  229MPD1    H5 3484   2.367   2.327  14.559 -0.2122  0.0770  1.1911
  229MPD1    N1 3485   2.850   2.617  14.423  0.4027  0.1487 -0.1613
  229MPD1    H6 3486   2.869   2.717  14.421  3.4085 -0.4213 -0.8704
  229MPD1    H7 3487   2.883   2.580  14.512  0.3381 -2.1937 -1.1066
  230MPD1     C 3488   1.913   2.027  15.373  0.6916  0.7574 -0.1117
  230MPD1    C1 3489   2.047   2.009  15.410  0.8464 -1.1804  0.3525
  230MPD1    C2 3490   2.147   2.041  15.317 -0.0800  0.9901  0.0060
  230MPD1    C3 3491   2.116   2.100  15.200 -0.3920 -0.1303  0.1265
  230MPD1    C4 3492   1.981   2.126  15.164 -0.4082 -0.7340 -0.2614
  230MPD1    C5 3493   1.887   2.081  15.248  0.2280  0.5540 -0.2372
  230MPD1     H 3494   2.245   2.000  15.336  0.6169  1.5073 -2.4595
  230MPD1    H1 3495   1.954   2.174  15.070 -2.9559 -0.4412  0.6337
  230MPD1    H2 3496   1.827   2.003  15.433  2.4641  1.0982  2.5849
  230MPD1    H3 3497   1.782   2.091  15.222 -0.1007 -0.3552  0.7530
  230MPD1     N 3498   2.224   2.122  15.112 -0.3627 -0.0478 -0.2628
  230MPD1    H5 3499   2.314   2.090  15.147  1.0120  0.9885 -2.8546
  230MPD1    N1 3500   2.074   1.920  15.516 -0.0356 -0.1333  0.3145
  230MPD1    H6 3501   2.161   1.942  15.565 -0.0264 -1.0862  0.7195
  230MPD1    H7 3502   2.013   1.923  15.598 -1.1864 -1.7735 -0.4960
  231MPD1     C 3503   4.620   3.983  15.368  0.7000  0.3622 -0.5827
  231MPD1    C1 3504   0.005   4.068  15.348 -1.0664 -0.0700 -0.4333
  231MPD1    C2 3505   0.033   4.127  15.224 -0.0731 -0.3697 -0.7433
  231MPD1    C3 3506   4.681   4.085  15.116 -0.7697  0.1994  0.4061
  231MPD1    C4 3507   4.586   3.989  15.129 -0.2833  0.1652 -0.0423
  231MPD1    C5 3508   4.544   3.950  15.255 -0.2953 -0.1287 -0.5408
  231MPD1     H 3509   0.108   4.203  15.211 -1.0082  0.7910  0.6409
  231MPD1    H1 3510   4.519   3.955  15.051  1.3287 -2.5088 -0.2387
  231MPD1    H2 3511   4.594   3.938  15.463  2.9649  1.2930  0.4870
  231MPD1    H3 3512   4.455   3.889  15.255 -0.3342 -0.0694 -0.7671
  231MPD1     N 3513   4.704   4.149  14.993  0.1270  0.2062 -0.2344
  231MPD1    H5 3514   0.056   4.216  14.989  0.3109  0.0848  1.2019
  231MPD1    N1 3515   0.072   4.114  15.458 -0.0208  0.5200  0.2778
  231MPD1    H6 3516   0.070   4.046  15.535  0.6043  0.0181 -0.1457
  231MPD1    H7 3517   0.168   4.143  15.442 -0.4895  2.6635  1.3832
  232MPD1     C 3518   1.616   1.111   0.554  0.1770  0.0756 -0.2111
  232MPD1    C1 3519   1.722   1.049   0.490 -0.6189 -0.2261 -0.4023
  232MPD1    C2 3520   1.692   0.974   0.380 -0.4985  0.5577 -0.3196
  232MPD1    C3 3521   1.565   0.947   0.340  0.4305 -0.1260  0.8305
  232MPD1    C4 3522   1.456   1.008   0.399  0.6235  0.4058 -0.2074
  232MPD1    C5 3523   1.484   1.077   0.509 -0.2518  0.4697 -0.0227
  232MPD1     H 3524   1.772   0.926   0.324 -0.2373  0.6897 -0.0578
  232MPD1    H1 3525   1.352   0.992   0.370  1.4536 -2.1528 -1.8006
  232MPD1    H2 3526   1.631   1.173   0.641  0.8923 -0.3117 -0.0586
  232MPD1    H3 3527   1.404   1.112   0.574  1.0286 -0.3192  1.9718
  232MPD1     N 3528   1.557   0.885   0.216  0.0933  0.1230  0.4658
  232MPD1    H5 3529   1.642   0.875   0.162 -0.6340 -0.9000 -0.4781
  232MPD1    N1 3530   1.855   1.080   0.533 -0.0542  0.5611 -0.1892
  232MPD1    H6 3531   1.919   1.001   0.534 -1.0023 -0.1906  0.5196
  232MPD1    H7 3532   1.866   1.118   0.627  0.7666 -1.5493  0.5686
  233MPD1     C 3533   1.936   4.028   1.142  0.5458  0.5690 -0.1916
  233MPD1    C1 3534   1.985   3.936   1.232 -0.4912  0.1687  0.7670
  233MPD1    C2 3535   2.088   3.853   1.183  0.1138 -0.2995  0.1358
  233MPD1    C3 3536   2.139   3.883   1.052 -0.4733 -0.4814  0.0167
  233MPD1    C4 3537   2.077   3.971   0.971 -0.0055  0.4199 -0.7719
  233MPD1    C5 3538   1.984   4.057   1.019  0.4519 -0.8003 -0.6479
  233MPD1     H 3539   2.133   3.775   1.245 -1.0335  0.3236  1.7508
  233MPD1    H1 3540   2.094   3.969   0.864  0.9116 -2.8283 -0.5717
  233MPD1    H2 3541   1.856   4.094   1.174 -1.0357 -1.4464  0.0092
  233MPD1    H3 3542   1.937   4.138   0.964 -1.2982 -2.5756 -1.7560
  233MPD1     N 3543   2.256   3.821   0.996  0.4013 -0.3709 -0.1311
  233MPD1    H5 3544   2.275   3.847   0.900  0.6377 -0.3278 -0.0710
  233MPD1    N1 3545   1.915   3.901   1.345  0.7276 -0.1103  0.1069
  233MPD1    H6 3546   1.880   3.976   1.404  2.8682 -0.0194  1.2478
  233MPD1    H7 3547   1.972   3.845   1.407  1.2714  1.1612  0.7608
  234MPD1     C 3548   0.353   3.446  10.390 -0.1247  0.2664  0.0290
  234MPD1    C1 3549   0.357   3.577  10.429 -0.5392 -0.0438  0.5240
  234MPD1    C2 3550   0.322   3.673  10.334 -0.2989 -0.4429  0.2000
  234MPD1    C3 3551   0.305   3.637  10.203 -0.4238  0.3922  0.2622
  234MPD1    C4 3552   0.303   3.500  10.170  0.3370  0.3558 -0.2435
  234MPD1    C5 3553   0.327   3.409  10.265 -0.2202  0.4866  0.2834
  234MPD1     H 3554   0.320   3.781  10.349 -0.1270 -0.5011  0.6479
  234MPD1    H1 3555   0.298   3.460  10.069  0.8350 -3.5659  1.2856
  234MPD1    H2 3556   0.360   3.368  10.465  3.1714 -0.7594 -1.3507
  234MPD1    H3 3557   0.310   3.303  10.253 -3.9713  1.2160 -0.8596
  234MPD1     N 3558   0.294   3.739  10.103 -0.6614 -0.4252 -0.0971
  234MPD1    H5 3559   0.292   3.834  10.138  0.0514 -0.0568 -1.0631
  234MPD1    N1 3560   0.378   3.621  10.557 -0.7622  0.1888 -0.1817
  234MPD1    H6 3561   0.437   3.552  10.603  0.1293 -0.7318 -2.7158
  234MPD1    H7 3562   0.413   3.717  10.560  0.0368 -0.1104  0.3686
  235MPD1     C 3563   0.913   1.098   9.470 -0.2485 -0.5960 -0.2913
  235MPD1    C1 3564   0.877   1.214   9.406  0.1575  0.0449  0.0227
  235MPD1    C2 3565   0.948   1.333   9.413 -0.2985  0.6520 -0.9744
  235MPD1    C3 3566   1.048   1.346   9.512  0.5503 -0.8785  0.0791
  235MPD1    C4 3567   1.082   1.232   9.573  0.1489 -0.7576  0.2091
  235MPD1    C5 3568   1.015   1.109   9.558 -0.6899 -0.2310 -0.8012
  235MPD1     H 3569   0.926   1.424   9.357 -1.3909 -0.4545 -2.3572
  235MPD1    H1 3570   1.166   1.226   9.641 -2.0354  0.0210  2.9570
  235MPD1    H2 3571   0.864   1.002   9.460  1.7203 -1.7928  1.5894
  235MPD1    H3 3572   1.058   1.024   9.610 -2.1314 -0.1072  0.5821
  235MPD1     N 3573   1.129   1.469   9.499 -0.0546 -0.2380 -0.7863
  235MPD1    H5 3574   1.082   1.540   9.443 -1.8913 -1.6085 -0.9944
  235MPD1    N1 3575   0.775   1.197   9.307 -0.0125 -0.0514  0.1221
  235MPD1    H6 3576   0.706   1.128   9.332  0.2126 -0.2668  0.1446
  235MPD1    H7 3577   0.730   1.285   9.283  1.4987  0.7180  0.0729
  236MPD1     C 3578   0.200   2.999   9.735  0.1084  0.0133 -0.3361
  236MPD1    C1 3579   0.251   2.887   9.678 -0.5822 -0.1079 -0.0221
  236MPD1    C2 3580   0.359   2.827   9.739 -0.4121 -0.4933  0.6377
  236MPD1    C3 3581   0.431   2.889   9.843 -0.3184  0.1198  0.2952
  236MPD1    C4 3582   0.397   3.015   9.874 -0.0634 -0.3551 -0.6213
  236MPD1    C5 3583   0.281   3.068   9.826 -0.5279 -0.0311  0.7358
  236MPD1     H 3584   0.381   2.730   9.693 -3.2382  0.0757 -1.9080
  236MPD1    H1 3585   0.462   3.074   9.938  0.0594 -1.2927  0.1243
  236MPD1    H2 3586   0.112   3.045   9.692  0.2161  1.8780  1.4902
  236MPD1    H3 3587   0.247   3.159   9.874 -0.4019  0.4925 -0.1758
  236MPD1     N 3588   0.543   2.826   9.899  0.5031 -0.2453  0.7673
  236MPD1    H5 3589   0.601   2.887   9.955 -1.9902  3.8899 -1.1435
  236MPD1    N1 3590   0.173   2.815   9.590  0.7919 -0.8685 -1.3119
  236MPD1    H6 3591   0.124   2.877   9.526 -0.8463 -0.8155 -0.0187
  236MPD1    H7 3592   0.228   2.750   9.536  0.8650 -2.4494  0.6571
  237MPD1     C 3593   0.258   1.096  15.833  0.3845 -0.3407  0.3903
  237MPD1    C1 3594   0.245   0.997  15.924 -0.0292 -0.5929 -0.0121
  237MPD1    C2 3595   0.210   0.871  15.868  0.5978 -0.0277 -0.5023
  237MPD1    C3 3596   0.203   0.845  15.734  0.1059  0.3735 -0.5920
  237MPD1    C4 3597   0.228   0.951  15.641 -0.3532  0.2176  0.8521
  237MPD1    C5 3598   0.252   1.073  15.699 -0.0953  0.4654  0.4532
  237MPD1     H 3599   0.193   0.786  15.933  0.1137  1.0652  0.8129
  237MPD1    H1 3600   0.220   0.934  15.534  1.2691  2.2069  0.4255
  237MPD1    H2 3601   0.272   1.199  15.865  0.5271 -0.0768 -0.5060
  237MPD1    H3 3602   0.261   1.155  15.629 -0.5268 -0.8838 -1.1855
  237MPD1     N 3603   0.161   0.714  15.702  0.2162  0.3557  0.1903
  237MPD1    H5 3604   0.144   0.646  15.775 -0.7375 -0.4084 -0.7437
  237MPD1    N1 3605   0.241   1.017  16.063 -0.2072  0.0730 -0.2371
  237MPD1    H6 3606   0.284   1.104  16.092 -0.3347  0.9671 -2.7430
  237MPD1    H7 3607   0.283   0.936  16.109  1.7769 -0.2424 -2.5995
  238MPD1     C 3608   1.783   0.213  15.321  0.2221 -0.2500  0.9000
  238MPD1    C1 3609   1.695   0.128  15.384 -0.2797 -0.0681 -0.1936
  238MPD1    C2 3610   1.660   0.006  15.340  0.7066  0.0273 -0.9040
  238MPD1    C3 3611   1.706   4.692  15.210  0.7938 -0.4151 -0.2130
  238MPD1    C4 3612   1.789   0.057  15.142 -0.4333  0.3925 -0.0218
  238MPD1    C5 3613   1.823   0.174  15.194  0.1834  0.5355 -0.0917
  238MPD1     H 3614   1.586   4.672  15.392  2.1951 -0.8666  0.2314
  238MPD1    H1 3615   1.819   0.023  15.044 -1.1731 -0.4965  0.0710
  238MPD1    H2 3616   1.812   0.308  15.365 -1.3149  0.7272 -0.2165
  238MPD1    H3 3617   1.900   0.235  15.147  1.2590 -0.6931  0.0651
  238MPD1     N 3618   1.672   4.570  15.139 -0.7693  0.2896 -0.3622
  238MPD1    H5 3619   1.717   4.564  15.048  1.0927  0.6691  0.5298
  238MPD1    N1 3620   1.646   0.163  15.513  0.1928 -0.0773  0.1671
  238MPD1    H6 3621   1.647   0.264  15.527 -1.3335 -0.2317  1.4758
  238MPD1    H7 3622   1.555   0.126  15.540  0.7457 -2.1963 -0.8643
  239MPD1     C 3623   2.295   0.151  15.176  0.1680  0.1031 -0.1111
  239MPD1    C1 3624   2.401   0.156  15.093  0.0168  0.6977 -0.1904
  239MPD1    C2 3625   2.375   0.151  14.956 -0.0168  0.3665 -0.0649
  239MPD1    C3 3626   2.242   0.164  14.910  0.0036  0.0865 -0.3491
  239MPD1    C4 3627   2.146   0.176  15.000  0.0154  0.0977 -0.1978
  239MPD1    C5 3628   2.169   0.162  15.130 -0.2330 -0.1415  0.2765
  239MPD1     H 3629   2.458   0.143  14.886  0.2151 -0.4890  0.3090
  239MPD1    H1 3630   2.048   0.199  14.959 -0.1203 -0.0504  0.0356
  239MPD1    H2 3631   2.314   0.164  15.281  2.1096 -1.3581 -0.2761
  239MPD1    H3 3632   2.078   0.152  15.188 -0.2129 -1.2473  0.1254
  239MPD1     N 3633   2.213   0.166  14.771  0.6932  0.4295 -0.8408
  239MPD1    H5 3634   2.122   0.194  14.736  0.6443  0.3156 -0.8050
  239MPD1    N1 3635   2.533   0.132  15.145 -0.2850 -0.5603  0.2909
  239MPD1    H6 3636   2.605   0.163  15.080 -0.2188  1.6405  1.3995
  239MPD1    H7 3637   2.529   0.176  15.237  0.2314 -0.7836  0.4205
  240MPD1     C 3638   1.433   0.245  13.578 -0.0931 -0.2146 -0.2919
  240MPD1    C1 3639   1.385   0.118  13.566  0.4398  0.1957 -0.6581
  240MPD1    C2 3640   1.386   0.029  13.670  0.4214  0.4596  0.4544
  240MPD1    C3 3641   1.433   0.064  13.792  0.3600  0.5277 -0.1733
  240MPD1    C4 3642   1.472   0.195  13.802 -0.9526  0.0828  0.6955
  240MPD1    C5 3643   1.490   0.280  13.696  0.4178  0.2566 -0.0701
  240MPD1     H 3644   1.360   4.648  13.668  1.6909  0.1359  1.4621
  240MPD1    H1 3645   1.517   0.232  13.893  1.2289 -1.0902  0.1012
  240MPD1    H2 3646   1.420   0.319  13.500 -0.2746 -0.4680 -0.5023
  240MPD1    H3 3647   1.504   0.387  13.709  0.5336  0.4938 -2.0753
  240MPD1     N 3648   1.453   4.690  13.893  1.1382 -0.4568 -0.5604
  240MPD1    H5 3649   1.425   4.594  13.878 -0.5117 -0.1680  0.6439
  240MPD1    N1 3650   1.295   0.093  13.459  0.7080 -0.2118  0.0150
  240MPD1    H6 3651   1.319   0.149  13.378 -2.9091 -0.4794 -1.2421
  240MPD1    H7 3652   1.314   0.003  13.417  1.1824 -0.2773  0.3713
  241MPD1     C 3653   1.475   0.043  14.987  0.1201  0.3331  0.3439
  241MPD1    C1 3654   1.544   0.120  14.897  0.3605  0.0708  0.4695
  241MPD1    C2 3655   1.531   0.088  14.760 -0.5893 -0.5276 -0.3448
  241MPD1    C3 3656   1.476   4.686  14.726  0.2098  0.8099 -0.4875
  241MPD1    C4 3657   1.413   4.613  14.825 -0.2523  0.3097  0.6156
  241MPD1    C5 3658   1.401   4.656  14.951 -0.1945 -0.3106  0.0682
  241MPD1     H 3659   1.569   0.153  14.682  0.7718 -0.2949  0.5074
  241MPD1    H1 3660   1.359   4.520  14.810  0.0684  0.1769  0.2718
  241MPD1    H2 3661   1.461   0.072  15.090 -0.1563 -1.9059  0.9247
  241MPD1    H3 3662   1.362   4.591  15.029 -1.4624  2.2025  1.5378
  241MPD1     N 3663   1.461   4.640  14.597  0.4043  0.1208  0.7829
  241MPD1    H5 3664   1.396   4.563  14.589 -0.0671  0.4685  1.2724
  241MPD1    N1 3665   1.587   0.246  14.943 -0.2794  0.2845  0.5084
  241MPD1    H6 3666   1.632   0.243  15.034  0.0966 -0.1727  0.3061
  241MPD1    H7 3667   1.657   0.273  14.874 -0.9067  2.3202  0.6673
  242MPD1     C 3668   1.259   3.471  15.633  0.6199 -0.3787 -1.1526
  242MPD1    C1 3669   1.235   3.493  15.498 -0.0638  0.0836 -0.3862
  242MPD1    C2 3670   1.253   3.387  15.413  1.1924  0.1030 -0.0474
  242MPD1    C3 3671   1.281   3.262  15.459 -0.2735 -0.6479  0.4999
  242MPD1    C4 3672   1.296   3.237  15.593 -0.1115  0.1423 -0.1999
  242MPD1    C5 3673   1.286   3.342  15.678 -0.1877  0.8173  0.1312
  242MPD1     H 3674   1.241   3.406  15.307 -0.0937  1.2583  0.2968
  242MPD1    H1 3675   1.314   3.141  15.638 -0.2284 -0.2380 -0.9637
  242MPD1    H2 3676   1.247   3.548  15.708  0.0103 -1.7401  0.1274
  242MPD1    H3 3677   1.300   3.332  15.785 -0.6020  0.9026  0.1922
  242MPD1     N 3678   1.296   3.146  15.382 -0.0253  0.4125 -0.2209
  242MPD1    H5 3679   1.331   3.070  15.439  1.8022  1.2001 -0.2818
  242MPD1    N1 3680   1.233   3.630  15.455 -0.1597  0.1493  0.1902
  242MPD1    H6 3681   1.185   3.696  15.515 -2.4372 -1.2026 -0.1545
  242MPD1    H7 3682   1.206   3.634  15.357 -0.0440 -1.7271  0.0843
  243MPD1     C 3683   3.681   1.562   0.065  0.4811 -0.1428 -0.2007
  243MPD1    C1 3684   3.599   1.495   0.158  0.1423  1.0687 -0.7665
  243MPD1    C2 3685   3.494   1.410   0.119 -0.0344  0.2192 -0.0548
  243MPD1    C3 3686   3.484   1.376  17.682 -0.0659  0.2467 -0.8303
  243MPD1    C4 3687   3.569   1.435  17.588 -0.1426  0.6733 -0.2335
  243MPD1    C5 3688   3.660   1.535  17.630 -0.3893  0.6874  0.4178
  243MPD1     H 3689   3.427   1.372   0.196 -1.2951 -1.1453 -1.8556
  243MPD1    H1 3690   3.570   1.418  17.481 -0.0436 -0.3917 -0.0584
  243MPD1    H2 3691   3.757   1.632   0.096 -0.9062  2.0329 -1.7354
  243MPD1    H3 3692   3.722   1.588  17.559 -1.5351  1.0406 -0.3189
  243MPD1     N 3693   3.389   1.277  17.647  0.5356 -0.0836  1.0317
  243MPD1    H5 3694   3.338   1.242   0.029  1.1141  0.0167  1.4438
  243MPD1    N1 3695   3.610   1.534   0.290  0.1795  0.8316  0.6743
  243MPD1    H6 3696   3.584   1.465   0.360  1.6476  1.0773  1.4565
  243MPD1    H7 3697   3.704   1.562   0.315  0.9287 -0.5475 -0.5671
  244MPD1     C 3698   2.799   1.121   0.467  0.4848 -0.3189 -0.1547
  244MPD1    C1 3699   2.932   1.156   0.458  0.1319 -0.2070  0.0031
  244MPD1    C2 3700   2.998   1.127   0.338 -0.2996  0.4063  0.3754
  244MPD1    C3 3701   2.936   1.066   0.233 -0.5926  0.3495  0.1286
  244MPD1    C4 3702   2.809   1.013   0.254 -0.1998 -0.4208 -0.6447
  244MPD1    C5 3703   2.742   1.044   0.368  0.0364  0.2815  0.1763
  244MPD1     H 3704   3.089   1.185   0.328 -0.5789  1.1322  1.9318
  244MPD1    H1 3705   2.767   0.964   0.167  1.5953 -2.1313 -0.5770
  244MPD1    H2 3706   2.728   1.140   0.547  1.4179  0.2146  0.5434
  244MPD1    H3 3707   2.635   1.025   0.374 -0.1229  1.3579  0.9087
  244MPD1     N 3708   3.019   1.049   0.122 -0.1212  0.5879  0.0434
  244MPD1    H5 3709   3.116   1.072   0.141  0.0209 -0.2360  0.3151
  244MPD1    N1 3710   2.992   1.239   0.553 -0.6220 -0.8851 -0.4426
  244MPD1    H6 3711   3.091   1.258   0.546 -0.9410  0.9631 -0.0048
  244MPD1    H7 3712   2.970   1.211   0.648 -1.9476 -0.2792 -0.5677
  245MPD1     C 3713   4.535   2.002  13.169  0.4597 -0.4221  0.0104
  245MPD1    C1 3714   4.491   2.078  13.275 -1.0511 -0.3174 -0.1232
  245MPD1    C2 3715   4.574   2.158  13.343 -0.0578  0.3360 -0.4815
  245MPD1    C3 3716   4.702   2.173  13.303 -0.2169 -0.2003 -0.3387
  245MPD1    C4 3717   0.031   2.106  13.198  0.6760 -0.3843 -0.3560
  245MPD1    C5 3718   4.672   2.015  13.132  0.7502 -0.0736  0.8649
  245MPD1     H 3719   4.534   2.219  13.423  1.2728 -1.5722  1.6685
  245MPD1    H1 3720   0.132   2.091  13.160  1.4681 -1.2811  2.0789
  245MPD1    H2 3721   4.467   1.940  13.112 -0.7845  1.6462 -0.8013
  245MPD1    H3 3722   4.715   1.944  13.062  3.0510 -0.4997  2.6914
  245MPD1     N 3723   0.068   2.261  13.371  0.0991  0.0421 -0.0590
  245MPD1    H5 3724   0.035   2.295  13.461 -1.3165  1.5954 -1.1629
  245MPD1    N1 3725   4.364   2.049  13.322 -0.6274  0.5647 -0.2224
  245MPD1    H6 3726   4.305   2.016  13.246 -0.4680 -2.9334  1.1680
  245MPD1    H7 3727   4.318   2.128  13.367  0.5825 -0.7161  3.2871
  246MPD1     C 3728   2.612   3.826   9.537  0.5593  0.0109  0.1945
  246MPD1    C1 3729   2.542   3.936   9.576 -0.2224 -0.3240  0.5578
  246MPD1    C2 3730   2.412   3.941   9.521 -0.5038 -0.5711  0.4324
  246MPD1    C3 3731   2.357   3.836   9.451 -0.1560  0.2057 -0.2342
  246MPD1    C4 3732   2.431   3.718   9.428  0.1674  0.0459 -0.0368
  246MPD1    C5 3733   2.559   3.721   9.476  0.0340 -0.1347 -0.5110
  246MPD1     H 3734   2.355   4.030   9.543  1.6346  0.6862  0.8432
  246MPD1    H1 3735   2.393   3.653   9.350 -2.0050  1.6770 -0.3587
  246MPD1    H2 3736   2.721   3.824   9.545  0.6578  2.3409 -0.4861
  246MPD1    H3 3737   2.634   3.651   9.441  1.2442  0.2664  1.2659
  246MPD1     N 3738   2.224   3.854   9.404 -0.1949  0.7688 -0.1968
  246MPD1    H5 3739   2.188   3.948   9.420  1.2178  0.9420  1.9990
  246MPD1    N1 3740   2.606   4.050   9.622  0.4177 -0.2851 -0.0570
  246MPD1    H6 3741   2.537   4.107   9.670  2.7087  2.6125 -0.1589
  246MPD1    H7 3742   2.683   4.029   9.686 -0.5998 -1.2660  0.8355
  247MPD1     C 3743   4.053   1.236  16.770 -0.1109 -0.2691 -0.2688
  247MPD1    C1 3744   4.053   1.203  16.636 -0.2526 -0.4576  0.6288
  247MPD1    C2 3745   4.105   1.303  16.553 -0.3863 -0.1149  0.1171
  247MPD1    C3 3746   4.178   1.413  16.606 -0.1295 -0.1486  0.6049
  247MPD1    C4 3747   4.196   1.419  16.739 -0.0845  0.0521 -0.1233
  247MPD1    C5 3748   4.136   1.333  16.819 -0.1737 -0.5909  0.0995
  247MPD1     H 3749   4.091   1.295  16.446 -1.4501  0.1971  0.2326
  247MPD1    H1 3750   4.245   1.501  16.790 -1.5266  1.3017 -0.7338
  247MPD1    H2 3751   4.010   1.167  16.841 -1.8429  1.1796  0.0743
  247MPD1    H3 3752   4.150   1.333  16.927 -0.1456  1.2996  0.0970
  247MPD1     N 3753   4.243   1.513  16.529 -0.1352 -0.2861 -0.1294
  247MPD1    H5 3754   4.289   1.581  16.588 -0.1266 -0.7759  0.4303
  247MPD1    N1 3755   3.972   1.100  16.591  0.1468 -0.1319  0.6534
  247MPD1    H6 3756   4.010   1.054  16.508 -0.9741  0.5001 -0.2236
  247MPD1    H7 3757   3.968   1.023  16.657 -1.4748 -1.1055 -0.5800
  248MPD1     C 3758   0.209   1.868   0.056  0.3565 -0.4556 -0.4759
  248MPD1    C1 3759   0.142   1.977   0.103 -0.0406 -0.1033 -0.0786
  248MPD1    C2 3760   0.049   1.953   0.209 -0.8843 -0.5537  0.5576
  248MPD1    C3 3761   0.022   1.828   0.258 -0.4243  0.3807 -0.6244
  248MPD1    C4 3762   0.094   1.719   0.207 -0.3242  0.4896  0.0260
  248MPD1    C5 3763   0.188   1.747   0.115 -0.5534 -0.9880  0.2460
  248MPD1     H 3764   4.724   2.040   0.250 -1.3009 -0.7698  0.5133
  248MPD1    H1 3765   0.092   1.619   0.248  0.4976  0.4448 -0.0545
  248MPD1    H2 3766   0.295   1.885  17.690  0.5145  1.1187  0.1466
  248MPD1    H3 3767   0.269   1.678   0.092  1.3151  0.3896  2.7473
  248MPD1     N 3768   4.646   1.799   0.359 -0.0083  0.0180  0.3545
  248MPD1    H5 3769   4.589   1.880   0.381  0.8002  0.5158  0.6142
  248MPD1    N1 3770   0.175   2.109   0.059 -0.0309 -0.0852 -0.0997
  248MPD1    H6 3771   0.199   2.110  17.658 -1.4330 -1.2859 -0.4603
  248MPD1    H7 3772   0.106   2.183   0.051 -1.1930 -1.0959  0.6036
  249MPD1     C 3773   1.816   0.789  10.420  0.2669 -0.3256  0.3908
  249MPD1    C1 3774   1.930   0.861  10.431 -0.3778 -0.8109  0.4988
  249MPD1    C2 3775   1.972   0.923  10.317 -0.3072  0.8073  0.4776
  249MPD1    C3 3776   1.909   0.917  10.200 -0.1456 -0.1994 -0.1297
  249MPD1    C4 3777   1.788   0.857  10.185  0.7821  0.2447 -0.4638
  249MPD1    C5 3778   1.744   0.793  10.300  0.4224  0.0745 -0.3562
  249MPD1     H 3779   2.072   0.965  10.328  0.1554  0.4588 -2.4364
  249MPD1    H1 3780   1.724   0.866  10.098  0.7697 -0.8783 -0.5680
  249MPD1    H2 3781   1.784   0.727  10.503  0.6185  0.3589  1.0321
  249MPD1    H3 3782   1.657   0.730  10.287  0.8852 -0.0492 -2.9726
  249MPD1     N 3783   1.977   0.969  10.085 -0.4724 -0.0153 -0.4392
  249MPD1    H5 3784   2.071   0.996  10.113 -0.6096 -1.3126  1.2603
  249MPD1    N1 3785   2.005   0.853  10.549 -0.2692 -0.0118  0.1005
  249MPD1    H6 3786   1.956   0.820  10.632 -1.2848 -0.2318 -0.5835
  249MPD1    H7 3787   2.051   0.937  10.581 -1.0006  0.3543  0.1908
  250MPD2     C 3788   2.885   0.707  13.499  0.3077 -0.4438  1.1729
  250MPD2    C1 3789   2.823   0.702  13.374  0.3826  0.6313 -0.3914
  250MPD2    C2 3790   2.793   0.583  13.309 -0.3959  0.6438 -0.1529
  250MPD2    C3 3791   2.808   0.465  13.378  0.1743 -0.6357 -0.1649
  250MPD2    C4 3792   2.862   0.464  13.507 -0.2711 -0.1636  0.2501
  250MPD2    C5 3793   2.896   0.588  13.562  0.0543 -0.1472 -0.0139
  250MPD2     H 3794   2.761   0.592  13.206 -1.5031 -0.2254  0.1230
  250MPD2    H1 3795   2.869   0.375  13.569 -0.0083  0.4638  1.1199
  250MPD2    H2 3796   2.919   0.799  13.544 -0.9464  0.9656 -0.7459
  250MPD2    H3 3797   2.937   0.580  13.662  1.4889  3.0844 -0.3383
  250MPD2     N 3798   2.789   0.339  13.313  0.2309 -0.3905 -0.0137
  250MPD2    H5 3799   2.790   0.257  13.373  3.3804 -0.5762 -0.3275
  250MPD2    N1 3800   2.829   0.823  13.304  0.4511  0.5866 -0.2805
  250MPD2    H7 3801   2.884   0.899  13.344 -0.7723  0.4897  1.5588
  251TMC3    C1 3802   2.840   0.967  13.119  0.9688 -0.3651  0.5870
  251TMC3    C2 3803   2.835   1.080  13.193 -0.1348  0.2945  0.2840
  251TMC3    C3 3804   2.827   1.197  13.122  0.3273  0.0160 -0.4219
  251TMC3    C4 3805   2.850   0.965  12.984  0.2118 -0.8082 -0.0567
  251TMC3    C5 3806   2.854   1.081  12.919  0.0117 -0.4898 -0.1652
  251TMC3    C6 3807   2.853   1.204  12.987  0.1289 -0.0347  0.0066
  251TMC3     C 3808   2.777   0.850  13.176 -0.1138 -0.3706  0.3752
  251TMC3     O 3809   2.672   0.803  13.126 -0.2269 -0.0929  0.3525
  251TMC3     H 3810   2.824   1.095  13.299 -1.0661  0.6646  0.1301
  251TMC3    H1 3811   2.828   0.878  12.923 -0.0426 -0.5451 -0.3383
  251TMC3    H2 3812   2.883   1.297  12.939 -0.1852  0.7263  1.3111
  251TMC3    C7 3813   2.948   1.064  12.809 -0.3086  0.2500  0.3367
  251TMC3    C8 3814   2.818   1.322  13.191  0.0688  0.0469  0.0149
  251TMC3    O1 3815   3.003   0.957  12.814  0.0311 -0.1249 -0.1253
  251TMC3    O2 3816   2.903   1.356  13.271  0.0203  0.8799 -0.2511
  252TMC3    C1 3817   3.946   1.808   9.385 -0.5601  0.9173 -0.1938
  252TMC3    C2 3818   4.005   1.932   9.399  0.3664  0.2018  0.0717
  252TMC3    C3 3819   3.979   2.024   9.308  0.5295  1.2711 -0.7777
  252TMC3    C4 3820   3.851   1.791   9.287  0.5928 -0.1207 -0.9496
  252TMC3    C5 3821   3.817   1.892   9.210  0.1748 -0.0763 -0.2245
  252TMC3    C6 3822   3.887   2.014   9.208 -0.4148  0.0373  0.4202
  252TMC3     C 3823   3.974   1.706   9.475 -0.3131  0.3002  0.6912
  252TMC3     O 3824   4.015   1.732   9.586  0.3246  0.5979 -0.2429
  252TMC3     H 3825   4.103   1.938   9.446  0.2966  0.6270  0.1634
  252TMC3    H1 3826   3.791   1.700   9.285  0.8783 -0.2982 -1.4225
  252TMC3    H2 3827   3.850   2.101   9.154  1.4109  0.3955 -0.2674
  252TMC3    C7 3828   3.714   1.876   9.108  0.4724 -0.5343 -0.4784
  252TMC3    C8 3829   4.067   2.141   9.301 -0.1553  0.2867  0.3755
  252TMC3    O1 3830   3.726   1.944   9.008 -0.2417 -0.3265 -0.1397
  252TMC3    O2 3831   4.100   2.200   9.199  0.4142  0.0024 -1.0748
  253MPD2     C 3832   4.459   0.524  15.768 -0.4332 -0.6440  0.5137
  253MPD2    C1 3833   4.323   0.522  15.786  0.0979 -0.6598 -0.4768
  253MPD2    C2 3834   4.268   0.522  15.916  0.0174 -0.2466  0.0033
  253MPD2    C3 3835   4.345   0.548  16.032 -0.0951 -0.0580 -0.6320
  253MPD2    C4 3836   4.480   0.558  16.009  0.5736  0.1917 -0.0779
  253MPD2    C5 3837   4.538   0.545  15.883 -0.5733  0.1832  0.0910
  253MPD2     H 3838   4.161   0.512  15.928 -0.2233  1.1269 -0.8354
  253MPD2    H1 3839   4.541   0.583  16.095  0.8530  0.0694 -0.2411
  253MPD2    H2 3840   4.507   0.520  15.671 -1.0774  1.1934  0.1346
  253MPD2    H3 3841   4.644   0.563  15.870 -0.4255 -0.8989 -0.2136
  253MPD2     N 3842   4.296   0.544  16.164 -0.0037 -0.0716 -1.1846
  253MPD2    H5 3843   4.370   0.547  16.233  0.0433  1.1879 -1.2981
  253MPD2    N1 3844   4.236   0.496  15.677 -0.2633  0.0215  0.2326
  253MPD2    H7 3845   4.138   0.486  15.700 -0.0037  0.4213  1.4945
  254TMC3    C1 3846   4.142   0.553  16.343 -0.4498 -0.0980 -0.7200
  254TMC3    C2 3847   4.037   0.623  16.395 -0.4603 -0.9919  0.0152
  254TMC3    C3 3848   4.048   0.671  16.520  0.1520  0.1307 -0.0046
  254TMC3    C4 3849   4.235   0.507  16.420  0.3504  0.0396  0.4322
  254TMC3    C5 3850   4.246   0.548  16.549  0.5496 -0.4379  0.6266
  254TMC3    C6 3851   4.152   0.635  16.599  0.2692  0.4593  0.2714
  254TMC3     C 3852   4.164   0.568  16.200 -0.1170 -0.4148  0.5153
  254TMC3     O 3853   4.074   0.606  16.132  0.1240  0.5114  0.8337
  254TMC3     H 3854   3.969   0.659  16.318  1.9804 -0.2953 -1.8060
  254TMC3    H1 3855   4.302   0.435  16.374  1.9583  1.1068  1.0960
  254TMC3    H2 3856   4.155   0.662  16.704 -2.2675 -0.4861  0.5709
  254TMC3    C7 3857   4.336   0.485  16.636 -0.3743  1.1077  0.2358
  254TMC3    C8 3858   3.941   0.752  16.581 -0.3347 -0.4505  0.1057
  254TMC3    O1 3859   4.292   0.494  16.750  0.0417 -0.6262 -1.0395
  254TMC3    O2 3860   3.957   0.771  16.696 -0.1127  0.4338  0.4064
  255MPD2     C 3861   2.673   3.281  10.083  0.6565 -0.2491  0.4075
  255MPD2    C1 3862   2.790   3.274  10.016 -0.5598 -0.7044 -0.1897
  255MPD2    C2 3863   2.845   3.154   9.977  0.2452 -0.5071 -0.3308
  255MPD2    C3 3864   2.775   3.041  10.015 -0.5361  0.3589 -0.2739
  255MPD2    C4 3865   2.655   3.049  10.079  0.7232 -0.9446  0.5168
  255MPD2    C5 3866   2.606   3.170  10.114  0.1846 -0.4113 -0.1160
  255MPD2     H 3867   2.932   3.138   9.914 -1.1189  2.2308 -2.8861
  255MPD2    H1 3868   2.597   2.960  10.102 -0.5564  0.1907  1.6415
  255MPD2    H2 3869   2.618   3.374  10.100 -0.0994 -0.7168  0.5436
  255MPD2    H3 3870   2.510   3.183  10.163  0.1828  0.3437 -0.3220
  255MPD2     N 3871   2.832   2.908   9.987  0.0723  0.5237 -0.6932
  255MPD2    H5 3872   2.925   2.904   9.947  1.6948  3.7129  2.6354
  255MPD2    N1 3873   2.852   3.400   9.987 -0.8237 -0.1337 -0.3428
  255MPD2    H7 3874   2.812   3.481  10.033 -0.5236 -0.0396 -0.2450
  256TMC3    C1 3875   2.999   3.556   9.873 -0.4271 -0.9998  0.4095
  256TMC3    C2 3876   3.088   3.574   9.763  0.0336  0.0750  0.2609
  256TMC3    C3 3877   3.066   3.667   9.671  0.1484 -0.2706  0.1613
  256TMC3    C4 3878   2.906   3.649   9.897  0.2324 -0.8470 -0.4016
  256TMC3    C5 3879   2.890   3.751   9.803 -0.0565  0.0505  0.4786
  256TMC3    C6 3880   2.959   3.754   9.687  0.3137  0.2344  0.5943
  256TMC3     C 3881   2.964   3.415   9.904  0.1338  0.1007  0.2057
  256TMC3     O 3882   3.012   3.340   9.821  0.5303  0.0316 -0.7099
  256TMC3     H 3883   3.173   3.510   9.743 -1.0010 -0.9215 -0.9686
  256TMC3    H1 3884   2.854   3.653   9.992  1.5049  2.9812  0.1333
  256TMC3    H2 3885   2.937   3.819   9.603  0.7025  0.6507  0.8224
  256TMC3    C7 3886   2.800   3.867   9.826 -0.1506  0.3279 -0.2584
  256TMC3    C8 3887   3.100   3.628   9.532  0.3893  0.2074 -0.0160
  256TMC3    O1 3888   2.836   3.973   9.777  0.6644 -0.8102 -0.2990
  256TMC3    O2 3889   3.120   3.512   9.511 -0.3954 -0.3859 -0.1152
  257MPD2     C 3890   2.120   1.061  13.438 -0.2594 -0.2430  0.4339
  257MPD2    C1 3891   2.050   0.973  13.363  0.0046 -0.3692 -0.1020
  257MPD2    C2 3892   2.015   0.849  13.411  0.2819 -0.7272 -0.4090
  257MPD2    C3 3893   2.080   0.799  13.517  0.3176 -0.0215  0.6462
  257MPD2    C4 3894   2.168   0.879  13.585 -0.0641  1.2444 -0.0768
  257MPD2    C5 3895   2.183   1.013  13.552 -0.3972 -0.3297 -0.2660
  257MPD2     H 3896   1.951   0.785  13.351  2.0441 -0.6992 -2.3372
  257MPD2    H1 3897   2.234   0.844  13.664  1.2083 -0.3718 -1.8726
  257MPD2    H2 3898   2.142   1.165  13.416  0.0333 -0.6007 -0.9404
  257MPD2    H3 3899   2.266   1.056  13.607  0.0435 -0.7318 -0.6203
  257MPD2     N 3900   2.052   0.663  13.546 -0.1904 -0.0303 -0.9098
  257MPD2    H5 3901   1.972   0.620  13.500  0.2889 -0.7226 -1.1084
  257MPD2    N1 3902   2.030   1.017  13.231  0.2301  0.6782 -0.1271
  257MPD2    H7 3903   2.073   1.103  13.199  1.8774  0.2293  0.9183
  258TMC3    C1 3904   2.066   0.461  13.651 -0.0105  0.6569 -0.4412
  258TMC3    C2 3905   2.003   0.406  13.546 -0.6549 -0.1211 -0.5412
  258TMC3    C3 3906   2.002   0.264  13.548 -0.5136  0.0628  0.1840
  258TMC3    C4 3907   2.108   0.383  13.756  0.0694  0.5728 -0.3892
  258TMC3    C5 3908   2.092   0.251  13.764  0.1369 -0.0572  0.3181
  258TMC3    C6 3909   2.047   0.190  13.654  0.6252  0.0650  0.0692
  258TMC3     C 3910   2.128   0.588  13.632  0.2525 -0.5161 -0.1696
  258TMC3     O 3911   2.233   0.616  13.687  0.0201 -0.4373  0.6379
  258TMC3     H 3912   1.998   0.449  13.446  2.1423  2.4986  0.4049
  258TMC3    H1 3913   2.169   0.426  13.834  0.5536  0.9559 -0.9777
  258TMC3    H2 3914   2.046   0.082  13.645 -1.2444  0.1091 -0.1761
  258TMC3    C7 3915   2.129   0.186  13.889  0.3242 -0.4816 -0.0843
  258TMC3    C8 3916   1.893   0.205  13.477  0.0052  0.8964  0.0659
  258TMC3    O1 3917   2.176   0.247  13.983 -0.3967 -0.7010  0.1962
  258TMC3    O2 3918   1.892   0.086  13.482 -0.2252  0.2619 -0.4436
  259MPD2     C 3919   0.694   2.053   0.417  0.2520 -0.6660  0.2519
  259MPD2    C1 3920   0.757   1.934   0.450 -0.1334 -0.5205 -0.4141
  259MPD2    C2 3921   0.851   1.885   0.361 -0.5776 -0.2887  0.1712
  259MPD2    C3 3922   0.874   1.946   0.243 -0.1580  0.1759 -0.0551
  259MPD2    C4 3923   0.809   2.057   0.210  0.0402  0.5539  0.1223
  259MPD2    C5 3924   0.710   2.109   0.290 -0.1916  0.1674  0.6018
  259MPD2     H 3925   0.895   1.788   0.379  1.4244  1.0053  2.3527
  259MPD2    H1 3926   0.830   2.112   0.119 -1.0884  0.1004 -0.4158
  259MPD2    H2 3927   0.620   2.108   0.475  1.9968 -0.7013  2.5130
  259MPD2    H3 3928   0.669   2.208   0.273  0.6844  0.1168 -1.8091
  259MPD2     N 3929   0.976   1.886   0.170  0.5726  0.7941 -0.2515
  259MPD2    H5 3930   1.015   1.802   0.211  0.2198  1.0306  0.5594
  259MPD2    N1 3931   0.727   1.884   0.576  0.0673  0.0918 -0.4688
  259MPD2    H7 3932   0.665   1.934   0.640  1.0017 -0.4695  0.8733
  260TMC3    C1 3933   1.164   1.871   0.026  0.0583  0.3764  0.6478
  260TMC3    C2 3934   1.196   1.875  17.592 -0.8138  0.1044 -0.6645
  260TMC3    C3 3935   1.305   1.796  17.560  0.3309 -0.5030 -1.5826
  260TMC3    C4 3936   1.224   1.796   0.122  0.1824 -0.8402 -0.4986
  260TMC3    C5 3937   1.324   1.711   0.084 -0.3201  0.3651 -0.6939
  260TMC3    C6 3938   1.369   1.721  17.652  0.1469 -0.4334  0.1429
  260TMC3     C 3939   1.040   1.947   0.063  0.0210 -0.3177 -0.5506
  260TMC3     O 3940   1.027   2.057   0.008  0.3004  0.2490 -0.1180
  260TMC3     H 3941   1.143   1.926  17.512 -0.1455  1.5786 -0.1859
  260TMC3    H1 3942   1.184   1.797   0.223 -0.9413 -0.6504 -0.9418
  260TMC3    H2 3943   1.451   1.663  17.612 -0.9581 -0.4867 -2.0248
  260TMC3    C7 3944   1.293   1.569   0.111  0.4122  0.7994  0.0981
  260TMC3    C8 3945   1.283   1.739  17.431  0.7806 -0.1083  0.3462
  260TMC3    O1 3946   1.311   1.502   0.012 -0.3663 -0.2038  0.1178
  260TMC3    O2 3947   1.279   1.809  17.331 -0.0243 -0.3779 -0.0920
  261MPD2     C 3948   2.205   0.409  12.833 -0.9556 -0.0304  0.1632
  261MPD2    C1 3949   2.332   0.399  12.784 -0.0936 -0.2823 -0.3647
  261MPD2    C2 3950   2.373   0.484  12.679 -0.3355  0.0560 -0.3912
  261MPD2    C3 3951   2.290   0.579  12.631 -0.3100 -0.8206 -0.5452
  261MPD2    C4 3952   2.161   0.585  12.680  0.3368  0.3380  0.1075
  261MPD2    C5 3953   2.121   0.499  12.781 -0.6660 -0.4855  0.2123
  261MPD2     H 3954   2.476   0.478  12.646  0.1304 -0.1481  1.1176
  261MPD2    H1 3955   2.090   0.663  12.654  1.4319  1.5405  0.7576
  261MPD2    H2 3956   2.168   0.340  12.908  3.2120 -0.9237  1.4020
  261MPD2    H3 3957   2.018   0.491  12.814 -2.0925  0.1900 -4.0497
  261MPD2     N 3958   2.347   0.661  12.528 -0.6757  0.4398  0.2851
  261MPD2    H5 3959   2.447   0.656  12.516 -0.6115 -0.8166  1.3575
  261MPD2    N1 3960   2.431   0.318  12.839 -0.2801  0.3274  0.0526
  261MPD2    H7 3961   2.521   0.307  12.795 -0.3142 -2.2986  0.6020
  262TMC3    C1 3962   2.368   0.809  12.344 -0.5677  0.0517  0.4043
  262TMC3    C2 3963   2.305   0.879  12.244 -0.2418  0.4555  0.1971
  262TMC3    C3 3964   2.379   0.906  12.132  0.2075  0.1494  0.3252
  262TMC3    C4 3965   2.498   0.775  12.342  0.5436 -0.0972 -1.3089
  262TMC3    C5 3966   2.569   0.812  12.228  0.0175 -0.3689 -0.6340
  262TMC3    C6 3967   2.507   0.875  12.122  0.2306  0.2180  0.7755
  262TMC3     C 3968   2.280   0.748  12.442  0.9845 -0.0576  0.3730
  262TMC3     O 3969   2.160   0.784  12.434 -0.4180  0.2986  0.5698
  262TMC3     H 3970   2.202   0.911  12.249 -1.6089 -3.6567 -1.6005
  262TMC3    H1 3971   2.556   0.724  12.419  0.5249  0.5947 -0.8376
  262TMC3    H2 3972   2.562   0.893  12.030 -1.8543 -0.7748 -0.6515
  262TMC3    C7 3973   2.681   0.725  12.198  0.3318  0.0277 -0.6455
  262TMC3    C8 3974   2.337   1.021  12.050  0.1053  0.0272  0.4272
  262TMC3    O1 3975   2.764   0.705  12.286  0.2598  0.2182 -0.0449
  262TMC3    O2 3976   2.396   1.033  11.943  0.2301 -0.0286  0.0615
  263MPD2     C 3977   3.341   0.083  11.194  0.1598  0.0536  0.3446
  263MPD2    C1 3978   3.463   0.073  11.134  0.0705 -0.0420  0.0557
  263MPD2    C2 3979   3.476   0.105  11.002  0.3807 -0.7421  0.8561
  263MPD2    C3 3980   3.369   0.146  10.929 -1.2573 -0.2205 -0.3764
  263MPD2    C4 3981   3.242   0.136  10.986  0.0901 -0.1445 -0.1825
  263MPD2    C5 3982   3.229   0.102  11.120 -0.7704 -0.1385 -0.0288
  263MPD2     H 3983   3.574   0.106  10.956  1.3383  0.8996  2.9498
  263MPD2    H1 3984   3.151   0.158  10.932  1.4643  2.7775 -1.2693
  263MPD2    H2 3985   3.330   0.063  11.300  2.4302  0.1786  0.5935
  263MPD2    H3 3986   3.131   0.095  11.168 -0.7032  2.6615  0.5246
  263MPD2     N 3987   3.383   0.199  10.798  0.6415  0.2128  0.0965
  263MPD2    H5 3988   3.478   0.224  10.772  0.4387  1.1623  0.2376
  263MPD2    N1 3989   3.576   0.033  11.214  0.8398 -0.5255  0.1656
  263MPD2    H7 3990   3.558   0.016  11.313 -1.5890 -0.3494 -0.2438
  264TMC3    C1 3991   3.348   0.338  10.617  0.3382 -0.0503 -0.3295
  264TMC3    C2 3992   3.278   0.450  10.580  0.2060 -0.5234 -0.4601
  264TMC3    C3 3993   3.333   0.527  10.485 -0.3186 -0.5769  0.1997
  264TMC3    C4 3994   3.463   0.298  10.550  0.0965 -0.1068  0.6204
  264TMC3    C5 3995   3.499   0.366  10.441 -0.0185 -1.2785 -0.3977
  264TMC3    C6 3996   3.434   0.478  10.404 -0.8766 -0.9796 -0.3196
  264TMC3     C 3997   3.289   0.251  10.712 -0.2177  0.4582  0.2934
  264TMC3     O 3998   3.171   0.264  10.730 -0.4000 -0.4340 -0.7436
  264TMC3     H 3999   3.198   0.499  10.636 -0.4177 -1.2595 -0.7049
  264TMC3    H1 4000   3.528   0.216  10.579  0.3810  0.8115  2.5482
  264TMC3    H2 4001   3.476   0.540  10.325  3.3497 -2.9089  0.3939
  264TMC3    C7 4002   3.647   0.377  10.419 -0.9973 -0.2158  0.0464
  264TMC3    C8 4003   3.380   0.662  10.528  0.1716 -0.0857  0.1948
  264TMC3    O1 4004   3.711   0.275  10.396 -0.3524 -0.0926 -0.2464
  264TMC3    O2 4005   3.494   0.680  10.486  0.6540 -0.3357 -0.4789
  265MPD2     C 4006   0.568   0.266  15.203  0.5740 -0.0674 -0.3129
  265MPD2    C1 4007   0.637   0.391  15.207  0.4973 -0.3662  0.3216
  265MPD2    C2 4008   0.734   0.410  15.107 -0.1132 -0.6952  0.2581
  265MPD2    C3 4009   0.772   0.303  15.017 -0.8502 -0.2606  0.0205
  265MPD2    C4 4010   0.700   0.189  15.022  0.3973 -0.1718  0.1047
  265MPD2    C5 4011   0.599   0.170  15.108  0.2194  0.2999 -0.4665
  265MPD2     H 4012   0.784   0.506  15.110  1.6617 -1.7322  3.3449
  265MPD2    H1 4013   0.718   0.099  14.964  0.9784  0.3825 -0.5914
  265MPD2    H2 4014   0.487   0.241  15.271  0.6896  0.8082  0.1427
  265MPD2    H3 4015   0.550   0.073  15.112 -0.1984  0.4741 -1.2343
  265MPD2     N 4016   0.886   0.302  14.937  0.5428  0.6366 -0.3090
  265MPD2    H5 4017   0.904   0.217  14.884 -2.4595 -1.8278  2.6150
  265MPD2    N1 4018   0.612   0.492  15.303 -0.0400 -0.1172 -0.0195
  265MPD2    H7 4019   0.645   0.586  15.283  1.9160 -0.9498 -0.6298
  266TMC3    C1 4020   0.541   0.595  15.508 -0.2753 -0.3910 -0.1614
  266TMC3    C2 4021   0.497   0.574  15.638  0.2396  0.1874  0.8520
  266TMC3    C3 4022   0.500   0.691  15.722  0.3293  0.0281  0.6168
  266TMC3    C4 4023   0.581   0.718  15.464 -0.1243  0.5741  0.7301
  266TMC3    C5 4024   0.571   0.823  15.550 -0.2200  0.1700  0.6870
  266TMC3    C6 4025   0.548   0.812  15.683  0.0684 -0.7705 -0.2268
  266TMC3     C 4026   0.537   0.481  15.417  0.1224 -0.8150 -0.0855
  266TMC3     O 4027   0.478   0.382  15.460 -0.1965 -0.4858  0.0883
  266TMC3     H 4028   0.470   0.473  15.669 -3.0281  0.2009 -1.9677
  266TMC3    H1 4029   0.614   0.735  15.362  1.0713  1.9085  1.3280
  266TMC3    H2 4030   0.536   0.901  15.744 -0.4205 -0.0614 -1.3616
  266TMC3    C7 4031   0.621   0.946  15.509  0.7646  0.6277 -0.5128
  266TMC3    C8 4032   0.472   0.664  15.861 -0.7125  0.2896  0.0088
  266TMC3    O1 4033   0.691   1.012  15.580  1.0335 -0.1899 -0.5951
  266TMC3    O2 4034   0.409   0.564  15.874 -0.1799 -0.1820 -0.2678
  267MPD2     C 4035   3.105   1.512   0.047  0.1864 -0.1647 -0.0042
  267MPD2    C1 4036   3.187   1.551  17.642  0.6438 -0.6486  0.0256
  267MPD2    C2 4037   3.168   1.499  17.519 -0.2296 -0.1709  0.0658
  267MPD2    C3 4038   3.068   1.416  17.495  0.4365  0.4203  0.1918
  267MPD2    C4 4039   2.992   1.374  17.600 -0.6508  0.6689  0.6406
  267MPD2    C5 4040   3.013   1.420   0.028 -1.1706  0.1395  0.4303
  267MPD2     H 4041   3.219   1.536  17.430 -0.8234 -0.8393 -0.5528
  267MPD2    H1 4042   2.913   1.301  17.596  0.1624 -0.2090  0.6570
  267MPD2    H2 4043   3.117   1.548   0.148  0.9570 -1.7210  0.4594
  267MPD2    H3 4044   2.951   1.380   0.108  1.1549  1.5766  2.9567
  267MPD2     N 4045   3.031   1.368  17.363  0.1489 -0.7966 -0.2153
  267MPD2    H5 4046   2.948   1.310  17.358  0.5352 -1.1860 -2.1412
  267MPD2    N1 4047   3.288   1.643  17.675 -0.5592 -0.3028 -0.2294
  267MPD2    H7 4048   3.301   1.675   0.072  2.1050 -0.9284 -0.3677
  268TMC3    C1 4049   3.452   1.802  17.668 -0.4316 -0.8402 -0.0428
  268TMC3    C2 4050   3.504   1.899  17.590 -0.1555 -0.1258  0.1921
  268TMC3    C3 4051   3.557   2.010  17.651 -0.8074 -0.0684 -0.0818
  268TMC3    C4 4052   3.463   1.808   0.107 -0.3511  0.1465 -0.6789
  268TMC3    C5 4053   3.518   1.912   0.164 -0.2455 -0.4285 -0.1248
  268TMC3    C6 4054   3.555   2.022   0.091 -0.4762  0.3869  0.1056
  268TMC3     C 4055   3.366   1.716  17.591  0.1698 -0.6020 -0.0762
  268TMC3     O 4056   3.361   1.718  17.469  0.0219 -0.4614 -0.4409
  268TMC3     H 4057   3.507   1.894  17.482 -1.0369 -0.4730  0.1839
  268TMC3    H1 4058   3.429   1.730   0.174  0.8543  0.4193  0.2409
  268TMC3    H2 4059   3.615   2.102   0.132 -0.0152 -0.2799  0.7362
  268TMC3    C7 4060   3.483   1.930   0.306 -0.1159  0.0002 -0.3580
  268TMC3    C8 4061   3.587   2.121  17.569 -0.3774  0.8584  0.2401
  268TMC3    O1 4062   3.515   1.837   0.380 -0.2428  0.1757 -0.6185
  268TMC3    O2 4063   3.644   2.211  17.623  0.1679 -0.3324  0.6311
  269MPD2     C 4064   3.483   0.540  15.816  0.1842 -0.8477 -0.4204
  269MPD2    C1 4065   3.347   0.544  15.847 -1.1488 -0.4611 -0.2599
  269MPD2    C2 4066   3.292   0.671  15.827 -0.4280  0.3251  0.4372
  269MPD2    C3 4067   3.360   0.769  15.764 -0.4392  0.2433  0.3357
  269MPD2    C4 4068   3.485   0.748  15.718 -0.1295 -0.6415 -0.4566
  269MPD2    C5 4069   3.543   0.634  15.744 -0.1651 -0.5664 -0.6929
  269MPD2     H 4070   3.194   0.705  15.860 -0.2077  1.1359  0.2658
  269MPD2    H1 4071   3.546   0.817  15.662  2.3262 -1.2686  1.4529
  269MPD2    H2 4072   3.543   0.450  15.824  1.9593  0.6556  3.2610
  269MPD2    H3 4073   3.647   0.620  15.715  0.3408 -0.9529  1.3193
  269MPD2     N 4074   3.299   0.895  15.763 -0.1130  0.0377 -0.6011
  269MPD2    H5 4075   3.210   0.913  15.809 -0.1807 -0.8409 -0.3857
  269MPD2    N1 4076   3.277   0.428  15.884  0.4392  0.2575  0.2118
  269MPD2    H7 4077   3.335   0.344  15.884  0.0165 -0.0479 -1.9150
  270TMC3    C1 4078   3.098   0.280  15.927 -0.1398 -0.2437 -0.7165
  270TMC3    C2 4079   2.990   0.231  15.865  0.8075 -0.1423 -0.3573
  270TMC3    C3 4080   2.983   0.097  15.855 -0.2630  0.1484  0.0795
  270TMC3    C4 4081   3.194   0.198  15.989  0.1612  0.3869 -0.0685
  270TMC3    C5 4082   3.173   0.062  15.986 -0.4514  0.1241  0.5726
  270TMC3    C6 4083   3.062   0.004  15.925 -0.3345  0.2039 -0.6075
  270TMC3     C 4084   3.144   0.415  15.887  0.0760 -0.1346  0.0075
  270TMC3     O 4085   3.056   0.493  15.855  0.3911 -0.3010 -0.1828
  270TMC3     H 4086   2.917   0.293  15.814 -0.4491 -1.4051 -0.0861
  270TMC3    H1 4087   3.283   0.231  16.040  0.1958 -1.7446  1.2069
  270TMC3    H2 4088   3.046   4.621  15.911 -0.8799  0.2911 -0.6697
  270TMC3    C7 4089   3.294   4.707  15.983 -0.1023  0.2545  0.0802
  270TMC3    C8 4090   2.891   0.046  15.756 -0.1243 -0.6076  0.0978
  270TMC3    O1 4091   3.403   0.035  15.971 -0.0617 -0.2666  0.1501
  270TMC3    O2 4092   2.839   4.661  15.783  0.0144 -0.3185 -0.4351
  271MPD2     C 4093   2.344   0.857  14.099  0.3934 -0.0381  0.2227
  271MPD2    C1 4094   2.281   0.755  14.150  0.6331 -0.6547  0.7682
  271MPD2    C2 4095   2.159   0.718  14.096 -0.4094 -0.3660 -0.2765
  271MPD2    C3 4096   2.105   0.794  13.992 -0.1692  0.3579  0.2775
  271MPD2    C4 4097   2.168   0.903  13.942 -1.2944 -0.0635 -0.8136
  271MPD2    C5 4098   2.290   0.930  14.002 -0.4901  0.2096 -0.2235
  271MPD2     H 4099   2.112   0.630  14.137  1.0271 -0.5478  1.0073
  271MPD2    H1 4100   2.114   0.968  13.874 -1.6921 -1.2190 -1.5922
  271MPD2    H2 4101   2.442   0.882  14.137  0.1117  0.9834  0.2766
  271MPD2    H3 4102   2.331   1.025  13.970 -0.5904  0.6263  0.8899
  271MPD2     N 4103   1.980   0.757  13.935  0.0285 -0.0006 -0.9986
  271MPD2    H5 4104   1.952   0.825  13.865 -0.0287 -2.1513 -3.0738
  271MPD2    N1 4105   2.347   0.674  14.248 -0.0717  0.4079  0.6006
  271MPD2    H7 4106   2.275   0.625  14.301 -1.0873  1.5898  0.3073
  272TMC3    C1 4107   2.528   0.546  14.336  1.3620 -0.1094 -0.5078
  272TMC3    C2 4108   2.643   0.481  14.319 -0.9065 -0.2668  0.9433
  272TMC3    C3 4109   2.680   0.385  14.411  0.0281  0.1448  0.5987
  272TMC3    C4 4110   2.454   0.532  14.449 -0.0414 -0.2808  0.4168
  272TMC3    C5 4111   2.504   0.442  14.544  0.2699  0.1893 -0.0169
  272TMC3    C6 4112   2.614   0.364  14.529  0.4409 -0.6550  0.7108
  272TMC3     C 4113   2.477   0.641  14.239  0.2516 -0.4588 -0.2732
  272TMC3     O 4114   2.553   0.655  14.147  0.3556 -0.4105  0.0928
  272TMC3     H 4115   2.700   0.488  14.227 -0.7172 -0.5284  1.0392
  272TMC3    H1 4116   2.368   0.592  14.479  0.7947 -0.2596  2.7646
  272TMC3    H2 4117   2.631   0.288  14.604  1.6643 -0.0301  1.0570
  272TMC3    C7 4118   2.444   0.449  14.679  0.2630  0.1228  0.0619
  272TMC3    C8 4119   2.817   0.331  14.395 -0.4516  0.4006  0.6989
  272TMC3    O1 4120   2.326   0.480  14.682  0.3838 -0.1115  0.2067
  272TMC3    O2 4121   2.874   0.377  14.297  0.1323  0.0957  0.0458
  273MPD2     C 4122   4.001   3.220  11.865  0.0759  0.5911  0.6151
  273MPD2    C1 4123   4.068   3.339  11.850 -0.4667  0.4321  0.3654
  273MPD2    C2 4124   4.048   3.405  11.731 -0.0598  0.4155  0.0721
  273MPD2    C3 4125   3.967   3.353  11.629  0.8377 -0.2170  0.7198
  273MPD2    C4 4126   3.890   3.244  11.655  0.9832 -0.3838  1.0347
  273MPD2    C5 4127   3.904   3.182  11.777 -0.2513  0.2073 -0.5429
  273MPD2     H 4128   4.110   3.490  11.704 -1.5144  1.6322  0.5343
  273MPD2    H1 4129   3.817   3.209  11.582  1.1456  1.7511 -0.1416
  273MPD2    H2 4130   4.030   3.151  11.943 -1.1780 -0.6036  0.0153
  273MPD2    H3 4131   3.840   3.097  11.796  1.4161 -0.8258  0.4345
  273MPD2     N 4132   3.965   3.414  11.502  0.0909 -0.3936 -0.6357
  273MPD2    H5 4133   3.910   3.370  11.429  1.3053 -0.3303 -1.5887
  273MPD2    N1 4134   4.166   3.382  11.945 -0.3495  0.6304  0.4983
  273MPD2    H7 4135   4.166   3.317  12.023 -0.3753 -0.4006 -0.3538
  274TMC3    C1 4136   4.007   3.580  11.332  0.0093  0.1983 -0.1847
  274TMC3    C2 4137   3.896   3.550  11.258  0.2045  0.6910  0.4036
  274TMC3    C3 4138   3.877   3.633  11.155 -0.2060 -0.4625  0.4027
  274TMC3    C4 4139   4.087   3.683  11.307  0.3611  0.4404  0.0888
  274TMC3    C5 4140   4.073   3.752  11.190 -0.0655 -0.4917  0.5657
  274TMC3    C6 4141   3.965   3.724  11.114  0.3462 -0.0710  0.7767
  274TMC3     C 4142   4.011   3.540  11.474 -0.2727 -0.4145  0.3042
  274TMC3     O 4143   4.060   3.629  11.540  0.5836 -0.3309  0.2103
  274TMC3     H 4144   3.831   3.469  11.286  1.4085 -0.1822  0.6816
  274TMC3    H1 4145   4.166   3.700  11.379 -0.7222 -0.8234  1.5920
  274TMC3    H2 4146   3.946   3.790  11.030 -1.5935 -0.6614  0.7697
  274TMC3    C7 4147   4.109   3.891  11.203  0.4935  0.0450 -0.5428
  274TMC3    C8 4148   3.742   3.641  11.102  0.6388  0.4072 -0.7185
  274TMC3    O1 4149   4.050   3.976  11.132 -0.1829 -0.5754  0.3636
  274TMC3    O2 4150   3.702   3.751  11.074 -0.1163 -0.5165  0.8200
  275MPD2     C 4151   3.975   1.351  14.294 -0.3464 -0.2513  0.0157
  275MPD2    C1 4152   3.946   1.346  14.423  0.4268 -0.0042  0.2443
  275MPD2    C2 4153   3.820   1.338  14.465 -0.2154  0.4595 -0.1728
  275MPD2    C3 4154   3.716   1.341  14.372 -0.0244 -1.1065 -0.4684
  275MPD2    C4 4155   3.743   1.343  14.239 -0.1013 -0.1269  0.5627
  275MPD2    C5 4156   3.875   1.338  14.201  0.1493 -0.5470  0.3873
  275MPD2     H 4157   3.815   1.348  14.573  0.7190  0.5385 -0.1384
  275MPD2    H1 4158   3.665   1.337  14.163 -0.4011 -0.3012  0.8850
  275MPD2    H2 4159   4.078   1.353  14.259 -1.3005 -2.0247 -2.9065
  275MPD2    H3 4160   3.892   1.344  14.094  0.1614 -1.5543  0.3304
  275MPD2     N 4161   3.584   1.315  14.413  0.1049 -0.2623 -0.7191
  275MPD2    H5 4162   3.516   1.282  14.345 -1.3477 -0.1000  0.6420
  275MPD2    N1 4163   4.044   1.345  14.524  0.1048  0.6550  0.0076
  275MPD2    H7 4164   4.015   1.310  14.615 -1.7474  0.2483 -0.7448
  276TMC3    C1 4165   4.254   1.349  14.624  0.5014 -0.4347 -0.3358
  276TMC3    C2 4166   4.227   1.229  14.683 -0.6157  0.1292  0.0555
  276TMC3    C3 4167   4.283   1.206  14.803 -0.8088  0.6567 -0.3776
  276TMC3    C4 4168   4.332   1.448  14.683 -0.0829 -0.2231 -0.0660
  276TMC3    C5 4169   4.379   1.424  14.805  0.3126 -0.0420  0.1653
  276TMC3    C6 4170   4.360   1.301  14.864  0.2932 -0.2250 -0.4675
  276TMC3     C 4171   4.173   1.390  14.514  0.2636 -0.0995 -0.4465
  276TMC3     O 4172   4.227   1.456  14.425 -0.2322  0.0517  0.1642
  276TMC3     H 4173   4.168   1.155  14.629  0.4702 -1.0913  0.5574
  276TMC3    H1 4174   4.325   1.550  14.648 -1.4419  0.4807  2.3061
  276TMC3    H2 4175   4.413   1.279  14.956 -1.5301  4.2711  1.6568
  276TMC3    C7 4176   4.468   1.521  14.871  0.0255  0.5000 -0.8449
  276TMC3    C8 4177   4.251   1.081  14.876  0.3143  0.2210  0.0881
  276TMC3    O1 4178   4.465   1.518  14.997 -0.5276  0.4341 -0.5660
  276TMC3    O2 4179   4.279   1.074  14.993 -0.5540  0.2141 -0.5134
  277MPD2     C 4180   1.164   0.107  13.001  0.2909 -1.0665  0.2417
  277MPD2    C1 4181   1.093   0.205  13.061  0.4269  0.1315  0.4028
  277MPD2    C2 4182   1.021   0.167  13.174  0.2063  0.2327 -0.7133
  277MPD2    C3 4183   1.040   0.048  13.236 -0.6164  0.1092 -0.1523
  277MPD2    C4 4184   1.132   4.682  13.181  0.7334  0.0287 -0.0711
  277MPD2    C5 4185   1.186   4.712  13.062 -0.5626  0.5037  0.0660
  277MPD2     H 4186   0.945   0.231  13.216  1.3519  0.4618  1.0143
  277MPD2    H1 4187   1.160   4.584  13.218 -1.8232 -1.2354 -1.4840
  277MPD2    H2 4188   1.216   0.119  12.907  0.2465  0.7082  0.4400
  277MPD2    H3 4189   1.254   4.637  13.024 -2.3008 -0.4300 -1.2116
  277MPD2     N 4190   0.964   0.024  13.354  0.5025  0.0474 -0.2914
  277MPD2    H5 4191   0.893   0.093  13.376  3.0097  1.9507  1.8137
  277MPD2    N1 4192   1.088   0.335  13.006 -0.2552  0.3714 -0.1852
  277MPD2    H7 4193   1.144   0.364  12.926 -2.7406  1.5756 -1.4733
  278TMC3    C1 4194   0.861   4.632  13.528  0.5046 -0.3826  0.0185
  278TMC3    C2 4195   0.828   4.509  13.566  1.3192 -0.5102  0.6532
  278TMC3    C3 4196   0.711   4.499  13.641 -0.3290 -0.8027 -0.0083
  278TMC3    C4 4197   0.790   0.027  13.555  0.2310  0.1881 -0.0264
  278TMC3    C5 4198   0.672   0.003  13.612 -0.0297  0.3567 -1.0247
  278TMC3    C6 4199   0.626   4.608  13.657 -0.0949  0.4562  0.9444
  278TMC3     C 4200   0.971   4.635  13.431  0.0898  0.3111 -0.0459
  278TMC3     O 4201   1.041   4.537  13.415  0.4789 -0.5215  0.2192
  278TMC3     H 4202   0.893   4.425  13.543  0.1645 -0.5714 -2.4372
  278TMC3    H1 4203   0.814   0.129  13.529 -1.3420  0.1071 -1.7523
  278TMC3    H2 4204   0.538   4.589  13.717 -0.6157 -0.5492 -0.1471
  278TMC3    C7 4205   0.592   0.126  13.625 -0.5411  0.0473  0.3966
  278TMC3    C8 4206   0.646   4.374  13.636 -0.2184 -0.4599  0.4148
  278TMC3    O1 4207   0.648   0.240  13.625 -0.1427 -0.2173 -0.4712
  278TMC3    O2 4208   0.704   4.283  13.687 -0.3021 -0.4576  0.3587
  279MPD2     C 4209   0.006   0.603   1.157  0.1235 -0.7082  0.4500
  279MPD2    C1 4210   4.632   0.698   1.116 -0.4658  0.6039  0.2681
  279MPD2    C2 4211   4.618   0.726   0.977  0.2399 -0.1078 -0.0706
  279MPD2    C3 4212   4.685   0.649   0.886  0.8861 -0.1854 -0.2322
  279MPD2    C4 4213   0.051   0.551   0.930 -0.3060 -0.4245 -0.2623
  279MPD2    C5 4214   0.069   0.525   1.063  0.7594  0.1407  0.2173
  279MPD2     H 4215   4.551   0.802   0.936  0.5345 -0.3194 -0.9413
  279MPD2    H1 4216   0.109   0.492   0.860  1.4471  1.1624 -0.1352
  279MPD2    H2 4217   0.034   0.591   1.261 -1.2893  0.4427  0.9604
  279MPD2    H3 4218   0.145   0.458   1.102 -0.2277 -2.8911 -3.0148
  279MPD2     N 4219   4.669   0.659   0.745 -0.1747 -0.1408 -0.8475
  279MPD2    H5 4220   0.006   0.596   0.693  0.5460 -0.7672  0.7742
  279MPD2    N1 4221   4.564   0.772   1.218  0.6748 -0.0844  0.5893
  279MPD2    H7 4222   4.607   0.778   1.310  2.5105  2.3385 -0.4293
  280TMC3    C1 4223   4.350   0.821   1.099 -0.1178  0.3174  0.4405
  280TMC3    C2 4224   4.330   0.701   1.040  0.2160  0.1334 -0.4475
  280TMC3    C3 4225   4.258   0.697   0.919 -0.1555  0.5075  0.0207
  280TMC3    C4 4226   4.295   0.938   1.046  0.1469  0.4736 -0.3335
  280TMC3    C5 4227   4.224   0.929   0.926 -0.5402  0.0467 -0.2291
  280TMC3    C6 4228   4.211   0.811   0.859 -0.8077 -0.4872 -0.6989
  280TMC3     C 4229   4.436   0.836   1.214 -0.6699 -0.1556  0.0322
  280TMC3     O 4230   4.393   0.911   1.302  0.0167 -0.4871  0.3258
  280TMC3     H 4231   4.371   0.617   1.096  0.2615  0.0492 -0.6074
  280TMC3    H1 4232   4.301   1.033   1.097 -3.9731 -0.6903  2.2834
  280TMC3    H2 4233   4.149   0.802   0.771 -0.2159  0.2728 -1.1917
  280TMC3    C7 4234   4.177   1.055   0.867  1.0560  0.5521  0.3671
  280TMC3    C8 4235   4.285   0.589   0.821  0.0831 -0.6619 -0.9719
  280TMC3    O1 4236   4.213   1.154   0.926  0.1754 -0.4647 -0.1601
  280TMC3    O2 4237   4.243   0.610   0.708 -0.1914  0.4530 -0.3641
  281TMC3    C1 4238   3.678   1.017  12.807  0.1654 -0.2098 -0.5084
  281TMC3    C2 4239   3.688   1.074  12.686 -0.1117  0.1986 -0.0507
  281TMC3    C3 4240   3.628   1.012  12.581 -0.5429 -0.0452  0.1922
  281TMC3    C4 4241   3.615   0.900  12.839  0.0656 -0.3946 -0.5854
  281TMC3    C5 4242   3.572   0.829  12.720  0.0826 -0.4127  0.0773
  281TMC3    C6 4243   3.570   0.890  12.595 -0.5954  0.5586  0.6794
  281TMC3     C 4244   3.675   1.112  12.910 -0.5514  0.3825 -0.6013
  281TMC3     O 4245   3.779   1.183  12.913  0.5744 -0.3015  0.4069
  281TMC3     H 4246   3.727   1.175  12.682  0.3996  0.0036  0.0826
  281TMC3    H1 4247   3.605   0.867  12.942  1.1789 -0.5310 -0.5220
  281TMC3    H2 4248   3.516   0.841  12.515  1.3765  0.1875 -0.4070
  281TMC3    C7 4249   3.452   0.749  12.739 -0.1132  0.8208 -0.5652
  281TMC3    C8 4250   3.539   1.111  12.524  0.0842 -1.0260  0.7203
  281TMC3    O1 4251   3.370   0.744  12.648 -0.1235 -0.2827  0.2346
  281TMC3    O2 4252   3.585   1.204  12.460 -0.1757 -0.7992 -0.9244
  282MPD2     C 4253   0.864   1.983  15.167  0.2062  0.5372 -0.3936
  282MPD2    C1 4254   0.772   2.077  15.201  0.1030 -0.1616 -0.5985
  282MPD2    C2 4255   0.670   2.110  15.112  0.2315 -0.0849 -1.0508
  282MPD2    C3 4256   0.656   2.047  14.991 -0.7853  0.2588 -0.4306
  282MPD2    C4 4257   0.754   1.959  14.946  0.0922  0.3754 -0.6135
  282MPD2    C5 4258   0.856   1.922  15.041 -0.2822 -0.5591 -0.0529
  282MPD2     H 4259   0.606   2.196  15.131  0.8519  0.5385 -1.7828
  282MPD2    H1 4260   0.762   1.921  14.845  0.9391  2.2540 -1.2371
  282MPD2    H2 4261   0.945   1.956  15.234 -1.4555  0.4478  1.5788
  282MPD2    H3 4262   0.945   1.865  15.016  0.0445 -1.0683  2.2135
  282MPD2     N 4263   0.542   2.065  14.909  0.4054  0.1431 -0.1803
  282MPD2    H5 4264   0.465   2.125  14.938  0.7733  1.0025 -0.9994
  282MPD2    N1 4265   0.795   2.144  15.321 -0.2512 -0.2930 -0.3399
  282MPD2    H7 4266   0.842   2.084  15.388  1.0494  2.6235  1.3756
  283TMC3    C1 4267   0.771   2.297  15.491 -0.0568 -0.1689 -0.7332
  283TMC3    C2 4268   0.807   2.421  15.525  0.8099  0.3196 -0.5962
  283TMC3    C3 4269   0.814   2.436  15.667  0.4983  0.2437 -0.1553
  283TMC3    C4 4270   0.750   2.195  15.574  0.0455 -0.4030 -0.7053
  283TMC3    C5 4271   0.760   2.217  15.704  0.1829  0.4915  0.0147
  283TMC3    C6 4272   0.796   2.336  15.756 -0.6800  0.0854  0.2606
  283TMC3     C 4273   0.753   2.271  15.348 -0.4274  0.1689 -0.2912
  283TMC3     O 4274   0.720   2.362  15.269  0.2622  0.2759 -0.6484
  283TMC3     H 4275   0.829   2.503  15.458 -2.6710 -1.5684 -4.0976
  283TMC3    H1 4276   0.689   2.113  15.537  0.6804 -1.0803 -0.2442
  283TMC3    H2 4277   0.813   2.351  15.862 -0.8324  0.1029  0.2824
  283TMC3    C7 4278   0.729   2.114  15.793 -0.3543  0.2157  0.4550
  283TMC3    C8 4279   0.862   2.556  15.731 -0.0039  0.0355  0.8746
  283TMC3    O1 4280   0.715   2.151  15.908 -0.0327  0.4711  0.2251
  283TMC3    O2 4281   0.882   2.558  15.854 -0.4999 -0.4582  0.4245
  284MPD2     C 4282   3.510   1.457  11.894  0.7106 -0.1520 -0.6682
  284MPD2    C1 4283   3.614   1.549  11.929  0.9214 -0.6007  0.6159
  284MPD2    C2 4284   3.685   1.537  12.047  0.1869 -0.0297  0.8712
  284MPD2    C3 4285   3.673   1.417  12.114 -0.9056 -0.0190 -0.0730
  284MPD2    C4 4286   3.568   1.329  12.080  0.3106  0.0426  0.4852
  284MPD2    C5 4287   3.483   1.355  11.974 -0.4784 -0.2153 -0.0625
  284MPD2     H 4288   3.762   1.603  12.083  0.5899 -1.0201  1.7984
  284MPD2    H1 4289   3.558   1.241  12.144  1.9049 -0.3818  0.1498
  284MPD2    H2 4290   3.447   1.471  11.807 -2.5506  0.7598  1.8583
  284MPD2    H3 4291   3.406   1.281  11.956  0.6394 -0.9979 -1.7110
  284MPD2     N 4292   3.754   1.375  12.222 -0.1016 -0.0113  0.2294
  284MPD2    H5 4293   3.742   1.279  12.251  1.1414 -0.5158 -0.9948
  284MPD2    N1 4294   3.662   1.646  11.846 -0.2465 -0.3833  0.0474
  284MPD2    H7 4295   3.749   1.679  11.885  0.0210 -0.3888 -0.5375
  285TMC3    C1 4296   3.725   1.734  11.633 -0.8053  0.2486 -0.6921
  285TMC3    C2 4297   3.750   1.685  11.504  0.4213 -0.2600 -0.4502
  285TMC3    C3 4298   3.865   1.730  11.447  0.0994 -0.2987  0.1174
  285TMC3    C4 4299   3.804   1.824  11.694  0.0927 -0.5971  0.0352
  285TMC3    C5 4300   3.911   1.868  11.630  0.1891  0.1988  0.1252
  285TMC3    C6 4301   3.944   1.822  11.506  0.1505  0.3825  0.4828
  285TMC3     C 4302   3.628   1.657  11.713  0.7477  0.2129  0.1490
  285TMC3     O 4303   3.532   1.620  11.651 -0.1271 -0.2716  0.1643
  285TMC3     H 4304   3.690   1.606  11.461 -2.3781  1.7490 -0.2705
  285TMC3    H1 4305   3.783   1.860  11.794  1.9449 -3.8166  1.5945
  285TMC3    H2 4306   4.032   1.863  11.458  0.7287  0.1781  1.3794
  285TMC3    C7 4307   3.989   1.969  11.693  0.0754 -0.3855  0.7232
  285TMC3    C8 4308   3.920   1.656  11.334  0.1618 -0.5029 -0.2297
  285TMC3    O1 4309   3.991   1.963  11.814 -0.7915 -0.1554 -0.4528
  285TMC3    O2 4310   3.839   1.598  11.267 -0.3221 -0.5357  0.3137
  286MPD2     C 4311   3.539   0.249   1.846  0.2863 -0.3490  0.2788
  286MPD2    C1 4312   3.549   0.300   1.718  0.2349 -0.3816  0.5352
  286MPD2    C2 4313   3.620   0.229   1.626 -0.2056  0.7149 -0.0937
  286MPD2    C3 4314   3.689   0.110   1.645  0.3165  0.2917 -0.0956
  286MPD2    C4 4315   3.679   0.061   1.773 -0.2686 -0.6071 -0.5437
  286MPD2    C5 4316   3.613   0.134   1.876  0.3107 -0.6146 -0.1822
  286MPD2     H 4317   3.628   0.270   1.526 -1.2334 -2.4974 -1.4996
  286MPD2    H1 4318   3.726   4.693   1.805 -0.1383  0.0949  1.2905
  286MPD2    H2 4319   3.488   0.307   1.921 -0.8285  1.5421 -1.9745
  286MPD2    H3 4320   3.626   0.101   1.978 -0.3521 -1.6091 -0.4190
  286MPD2     N 4321   3.746   0.044   1.537  0.3930 -0.1185 -0.0002
  286MPD2    H5 4322   3.809   4.692   1.564 -0.2207 -1.2590 -1.7670
  286MPD2    N1 4323   3.482   0.411   1.675 -0.4188  0.7472  0.4175
  286MPD2    H7 4324   3.490   0.425   1.574 -1.0748 -0.8801  0.1362
  287TMC3    C1 4325   3.801   4.699   1.305 -0.8488 -0.1921 -0.5706
  287TMC3    C2 4326   3.755   4.681   1.177 -0.0399 -0.9060 -0.2709
  287TMC3    C3 4327   3.831   4.607   1.089  0.2281  0.4968  0.0780
  287TMC3    C4 4328   3.926   4.647   1.343  0.2019  0.3811 -0.1671
  287TMC3    C5 4329   4.001   4.577   1.247 -0.1097  0.3006 -0.1476
  287TMC3    C6 4330   3.952   4.558   1.125 -0.8106 -0.2186  0.5771
  287TMC3     C 4331   3.713   0.049   1.400  0.0916 -0.4022 -0.4791
  287TMC3     O 4332   3.610   0.099   1.352  0.4126 -0.2909  0.0613
  287TMC3     H 4333   3.652   4.712   1.161 -0.4106 -0.4939  2.7309
  287TMC3    H1 4334   3.961   4.663   1.445  0.6311  1.7704 -0.5367
  287TMC3    H2 4335   4.006   4.499   1.052 -1.3417 -1.0270  0.8431
  287TMC3    C7 4336   4.140   4.547   1.278  0.6395 -0.0921 -0.9143
  287TMC3    C8 4337   3.794   4.578   0.955  0.8401  0.4167 -0.0107
  287TMC3    O1 4338   4.183   4.609   1.370  0.3939 -0.0615 -0.3441
  287TMC3    O2 4339   3.881   4.527   0.884 -0.3720  0.4768 -0.8581
  288TMC3    C1 4340   0.870   0.108  14.213 -0.0190  0.4338 -0.0633
  288TMC3    C2 4341   0.771   0.121  14.307  0.3827 -0.2485  0.3857
  288TMC3    C3 4342   0.771   0.231  14.390 -0.4777 -0.0024 -0.2691
  288TMC3    C4 4343   0.983   0.189  14.208  0.2439  0.1750 -0.2121
  288TMC3    C5 4344   0.983   0.292  14.301 -0.4517  0.5053  0.7126
  288TMC3    C6 4345   0.876   0.324  14.386 -0.4083  0.5165  0.5255
  288TMC3     C 4346   0.866   4.719  14.124 -0.0479  0.0449  0.1933
  288TMC3     O 4347   0.793   4.627  14.155 -0.3424 -0.1442  0.1418
  288TMC3     H 4348   0.695   0.045  14.315  1.2511 -1.3248 -1.6755
  288TMC3    H1 4349   1.072   0.154  14.157 -0.2708  1.1192 -1.7696
  288TMC3    H2 4350   0.872   0.413  14.448  0.3704  0.5343  0.5477
  288TMC3    C7 4351   1.090   0.389  14.314 -0.5886 -0.0565  0.1844
  288TMC3    C8 4352   0.686   0.237  14.510 -0.0311  0.4250 -0.8497
  288TMC3    O1 4353   1.067   0.475  14.399 -0.7336 -0.1101 -0.1286
  288TMC3    O2 4354   0.713   0.322  14.590 -0.3356  0.5394 -0.0008
  289MPD2     C 4355   1.128   4.150  14.473 -1.5811  0.3184 -0.0487
  289MPD2    C1 4356   1.132   4.207  14.349  0.4004  0.7719  0.0486
  289MPD2    C2 4357   1.035   4.171  14.252  0.9760  0.2147 -0.4900
  289MPD2    C3 4358   0.958   4.058  14.280  0.2450 -0.9972  0.3446
  289MPD2    C4 4359   0.966   3.993  14.401 -0.2303  0.3116  0.8444
  289MPD2    C5 4360   1.042   4.047  14.494 -0.2123  0.6107 -0.1628
  289MPD2     H 4361   1.032   4.219  14.154 -0.2428 -0.8837 -0.9903
  289MPD2    H1 4362   0.912   3.907  14.441  0.0706 -0.0447  0.4838
  289MPD2    H2 4363   1.192   4.162  14.560 -1.4193 -0.4284 -0.0677
  289MPD2    H3 4364   1.054   3.988  14.584 -0.7269  0.9979  0.1650
  289MPD2     N 4365   0.852   4.019  14.194 -0.5828  0.3991  0.1523
  289MPD2    H5 4366   0.812   3.926  14.200 -1.0199  0.3931 -2.6824
  289MPD2    N1 4367   1.220   4.316  14.334  0.5100  0.4928 -0.7478
  289MPD2    H7 4368   1.267   4.352  14.417  2.5025  0.2522 -1.7582
  290TMC3    C1 4369   0.677   4.055  14.020 -0.4262  0.0041  0.1788
  290TMC3    C2 4370   0.608   4.160  13.965  0.4524 -0.5027  0.0835
  290TMC3    C3 4371   0.486   4.135  13.923  1.0632 -0.0396  0.7421
  290TMC3    C4 4372   0.626   3.930  14.045 -0.3373 -0.0344 -0.4402
  290TMC3    C5 4373   0.505   3.905  13.985 -0.0689  0.0549 -0.9538
  290TMC3    C6 4374   0.435   4.006  13.923 -0.0054 -0.3388  0.2800
  290TMC3     C 4375   0.783   4.107  14.108  0.0497 -0.1253  0.1959
  290TMC3     O 4376   0.813   4.223  14.091  0.0196  0.2254 -0.1415
  290TMC3     H 4377   0.646   4.261  13.957  0.4297 -0.4520  0.6129
  290TMC3    H1 4378   0.688   3.854  14.091 -0.8776 -1.7124 -2.5061
  290TMC3    H2 4379   0.340   3.988  13.874  0.4016  2.0932 -1.4426
  290TMC3    C7 4380   0.432   3.780  13.998 -0.0137 -0.2893  0.6619
  290TMC3    C8 4381   0.385   4.244  13.895  0.7084 -0.3315 -0.2966
  290TMC3    O1 4382   0.321   3.773  13.949 -0.4237  0.1812  0.4032
  290TMC3    O2 4383   0.279   4.208  13.845 -0.3870 -0.0143  0.4880
  291MPD2     C 4384   4.720   3.967   0.168  0.3828  0.2115 -0.6020
  291MPD2    C1 4385   0.088   3.887   0.226 -0.2182  0.5492  0.3358
  291MPD2    C2 4386   0.204   3.942   0.279  0.3543  0.3040  0.1809
  291MPD2    C3 4387   0.224   4.076   0.264 -0.2931 -0.3146 -0.6867
  291MPD2    C4 4388   0.120   4.159   0.222  0.2671  0.4107  0.0341
  291MPD2    C5 4389   0.005   4.102   0.169  0.4116 -0.2918  0.5401
  291MPD2     H 4390   0.280   3.870   0.308  0.4084 -0.9403 -3.0637
  291MPD2    H1 4391   0.119   4.267   0.226  1.2428  0.3951  0.6288
  291MPD2    H2 4392   4.621   3.931   0.143 -0.0492 -0.5110  2.1671
  291MPD2    H3 4393   4.657   4.163   0.117  1.9434  1.8977  1.0135
  291MPD2     N 4394   0.352   4.137   0.284 -0.2749 -0.0421  0.0335
  291MPD2    H5 4395   0.354   4.236   0.262  0.0391 -0.0223  0.1634
  291MPD2    N1 4396   0.062   3.745   0.228 -0.4447  0.0194  0.0668
  291MPD2    H7 4397   0.134   3.689   0.273 -0.7837 -0.7511 -0.3667
  292TMC3    C1 4398   4.701   3.533   0.175 -0.2634  0.3263 -0.0507
  292TMC3    C2 4399   0.029   3.498   0.294  0.7447  0.3469  0.2495
  292TMC3    C3 4400   0.096   3.380   0.286 -0.7589 -0.0676 -0.7620
  292TMC3    C4 4401   4.695   3.462   0.058  0.1444  0.0957 -0.9376
  292TMC3    C5 4402   0.035   3.345   0.058  0.1831  0.5724  0.2506
  292TMC3    C6 4403   0.103   3.303   0.171 -0.0802 -0.1099  0.2769
  292TMC3     C 4404   4.692   3.674   0.158 -0.5605 -0.3286  0.3385
  292TMC3     O 4405   4.620   3.715   0.066 -0.7701  0.0530 -1.0463
  292TMC3     H 4406   0.010   3.553   0.386  1.1209 -0.5763  0.8791
  292TMC3    H1 4407   4.670   3.508  17.661  0.0904 -0.3235 -1.1277
  292TMC3    H2 4408   0.144   3.202   0.169  2.9837  1.1120  1.4002
  292TMC3    C7 4409   0.021   3.241  17.651 -0.2625 -0.1748  0.5381
  292TMC3    C8 4410   0.144   3.320   0.407 -0.1526  0.6424  0.0348
  292TMC3    O1 4411   0.096   3.148  17.675  0.3761 -1.0550  0.1831
  292TMC3    O2 4412   0.242   3.248   0.402  0.4675  0.0240 -0.0175
  293MPD2     C 4413   1.798   0.426  12.989  0.3737  0.1859  0.1825
  293MPD2    C1 4414   1.876   0.327  13.049  0.0230  0.1405 -0.6571
  293MPD2    C2 4415   1.989   0.352  13.124  0.4414  0.0069  0.2707
  293MPD2    C3 4416   2.023   0.485  13.130  0.0516 -0.3443  0.2550
  293MPD2    C4 4417   1.948   0.587  13.077  0.1703 -0.3021 -0.0404
  293MPD2    C5 4418   1.839   0.553  13.006  0.1889  0.2931 -0.4944
  293MPD2     H 4419   2.050   0.275  13.169  1.2973  0.1302 -0.6919
  293MPD2    H1 4420   1.974   0.691  13.096 -1.0688  0.1989 -1.0689
  293MPD2    H2 4421   1.699   0.413  12.947 -0.1340  0.7095  1.1979
  293MPD2    H3 4422   1.769   0.624  12.965  0.2746  0.7032  0.0791
  293MPD2     N 4423   2.149   0.513  13.189 -0.4636 -0.4264  0.0939
  293MPD2    H5 4424   2.187   0.440  13.247  0.5395 -2.2168 -2.8494
  293MPD2    N1 4425   1.844   0.190  13.008  0.7169  0.1151  0.2290
  293MPD2    H7 4426   1.778   0.176  12.933  0.3159 -0.3983  0.6787
  294TMC3    C1 4427   1.853   4.683  13.009 -0.3953  0.2946 -0.3284
  294TMC3    C2 4428   1.718   4.683  12.968 -0.5637  0.7032 -0.6155
  294TMC3    C3 4429   1.684   4.601  12.862  0.6709  0.5067  0.7866
  294TMC3    C4 4430   1.948   4.609  12.951 -0.7893 -0.2468  0.8424
  294TMC3    C5 4431   1.911   4.541  12.837  0.0401 -0.7629  0.1311
  294TMC3    C6 4432   1.780   4.533  12.792  0.2047 -0.1630  1.0301
  294TMC3     C 4433   1.910   0.079  13.053  0.0249  0.6583 -0.2438
  294TMC3     O 4434   2.011   0.063  13.114  0.1627 -0.2060 -0.3004
  294TMC3     H 4435   1.648   0.013  13.030 -2.3545  0.2648 -2.2390
  294TMC3    H1 4436   2.052   4.618  12.978 -0.5886  0.3672 -0.1254
  294TMC3    H2 4437   1.752   4.490  12.696 -0.9621  0.6559  0.9985
  294TMC3    C7 4438   1.992   4.577  12.716 -0.1562  0.9384  0.1141
  294TMC3    C8 4439   1.544   4.612  12.819  0.4297 -0.0056 -0.4170
  294TMC3    O1 4440   1.939   4.561  12.608  0.1173 -0.5213  0.1937
  294TMC3    O2 4441   1.479   4.677  12.897 -0.8443  0.2679  0.4909
  295MPD2     C 4442   2.638   3.200   0.746  0.8407  0.0836 -0.1444
  295MPD2    C1 4443   2.588   3.314   0.691 -0.3119 -0.5799  1.2288
  295MPD2    C2 4444   2.471   3.367   0.737 -0.6280  0.1990  0.4331
  295MPD2    C3 4445   2.404   3.306   0.836  0.1003 -0.1804 -0.5697
  295MPD2    C4 4446   2.454   3.186   0.890 -0.2251  0.0681  0.9221
  295MPD2    C5 4447   2.570   3.130   0.847 -0.2022  0.1334 -0.9036
  295MPD2     H 4448   2.434   3.458   0.692  0.2566 -0.1014 -0.8886
  295MPD2    H1 4449   2.404   3.131   0.970  0.3812 -0.3724  0.9934
  295MPD2    H2 4450   2.731   3.156   0.714  0.9463 -0.9984  1.6197
  295MPD2    H3 4451   2.603   3.033   0.882  0.6898  0.3121 -1.2506
  295MPD2     N 4452   2.285   3.364   0.895 -0.0029 -0.1280  0.0642
  295MPD2    H5 4453   2.255   3.311   0.977  0.4724  2.0303  1.6483
  295MPD2    N1 4454   2.638   3.378   0.571 -0.1271 -0.0004  0.2206
  295MPD2    H7 4455   2.572   3.446   0.534 -0.2686 -0.8190 -1.0160
  296TMC3    C1 4456   2.088   3.514   0.899 -0.0535  0.2386  0.4233
  296TMC3    C2 4457   2.011   3.600   0.813  0.6127  0.7004 -0.0282
  296TMC3    C3 4458   1.892   3.644   0.864  0.2774  0.7158  1.1761
  296TMC3    C4 4459   2.041   3.467   1.021  0.0126  0.2751  0.0474
  296TMC3    C5 4460   1.913   3.507   1.062  0.0688 -0.7906  0.2890
  296TMC3    C6 4461   1.843   3.602   0.985 -0.2569  0.3392 -0.3320
  296TMC3     C 4462   2.210   3.474   0.842  0.2322  0.8220 -0.2710
  296TMC3     O 4463   2.246   3.546   0.753  0.3158 -0.4838  0.5324
  296TMC3     H 4464   2.059   3.637   0.723 -0.7316  2.4824 -0.0078
  296TMC3    H1 4465   2.100   3.393   1.074  1.2525  1.8042  0.8113
  296TMC3    H2 4466   1.744   3.632   1.018 -0.7354  0.4008 -1.8137
  296TMC3    C7 4467   1.844   3.431   1.163  0.1778 -0.0480 -0.4060
  296TMC3    C8 4468   1.822   3.749   0.799 -0.1908  0.0730 -0.1205
  296TMC3    O1 4469   1.896   3.322   1.178 -0.5967 -0.1231 -0.1185
  296TMC3    O2 4470   1.856   3.773   0.682  0.3678  0.2069  0.4878
  297MPD2     C 4471   0.024   0.862  16.459  0.0045  0.6090  0.4616
  297MPD2    C1 4472   0.001   0.944  16.349 -0.3093 -0.5529 -0.2467
  297MPD2    C2 4473   0.095   1.043  16.324 -0.1913  0.4815  0.4261
  297MPD2    C3 4474   0.197   1.069  16.411 -0.3941  0.4509  0.0256
  297MPD2    C4 4475   0.225   0.977  16.513 -0.6670 -0.0562  0.3899
  297MPD2    C5 4476   0.139   0.874  16.533  0.0848 -0.0050  0.1732
  297MPD2     H 4477   0.079   1.108  16.239  0.3624  1.4489  1.0554
  297MPD2    H1 4478   0.310   1.001  16.576  0.6372 -1.8002 -0.6946
  297MPD2    H2 4479   4.681   0.787  16.501 -0.1623  1.4796  1.7262
  297MPD2    H3 4480   0.156   0.800  16.611 -0.3896 -0.3953 -0.0962
  297MPD2     N 4481   0.269   1.187  16.387  0.2684 -0.3706 -0.6087
  297MPD2    H5 4482   0.261   1.247  16.305  0.5553  2.1080  1.1566
  297MPD2    N1 4483   4.602   0.948  16.286 -0.3512 -0.0387 -0.0306
  297MPD2    H7 4484   4.594   1.020  16.215  0.0977 -0.1979 -0.2464
  298TMC3    C1 4485   4.387   0.908  16.217  0.5099  0.2715  0.7193
  298TMC3    C2 4486   4.419   0.936  16.088 -0.0834  1.1549  0.4306
  298TMC3    C3 4487   4.314   0.944  15.999  0.2306  0.6343  0.0693
  298TMC3    C4 4488   4.259   0.902  16.259 -0.5211 -0.1818 -0.3000
  298TMC3    C5 4489   4.160   0.910  16.165 -0.0548  0.0370 -0.2914
  298TMC3    C6 4490   4.186   0.926  16.029 -0.2480 -0.7471  0.4890
  298TMC3     C 4491   4.487   0.889  16.323  0.2597  0.4531 -0.5116
  298TMC3     O 4492   4.463   0.808  16.412 -0.0384  0.0314 -0.2023
  298TMC3     H 4493   4.520   0.929  16.048 -0.7372 -0.1499 -1.0181
  298TMC3    H1 4494   4.232   0.887  16.362 -0.0554 -0.0891 -0.1624
  298TMC3    H2 4495   4.111   0.936  15.952 -0.1850  0.5604  0.5938
  298TMC3    C7 4496   4.032   0.944  16.215 -0.2760 -0.4927 -0.2820
  298TMC3    C8 4497   4.346   0.932  15.856  0.3716 -0.3656  0.3919
  298TMC3    O1 4498   4.024   0.966  16.336 -0.5167  0.3968  0.2327
  298TMC3    O2 4499   4.249   0.934  15.775  0.0459  0.9611 -0.0457
  299MPD2     C 4500   0.751   1.191   9.810  0.4098 -0.3997  0.1731
  299MPD2    C1 4501   0.692   1.221   9.932 -0.2393  0.3024 -0.7827
  299MPD2    C2 4502   0.555   1.202   9.951 -0.5662  0.8885  0.1185
  299MPD2    C3 4503   0.480   1.163   9.844 -0.3087  0.5579  0.8281
  299MPD2    C4 4504   0.528   1.159   9.716  0.3830 -0.0310 -0.5164
  299MPD2    C5 4505   0.662   1.161   9.707 -0.1870 -0.5386 -0.0425
  299MPD2     H 4506   0.504   1.221  10.044 -1.5190 -3.3675  0.4529
  299MPD2    H1 4507   0.468   1.141   9.627  0.9643 -1.4925 -0.6112
  299MPD2    H2 4508   0.858   1.199   9.799  0.3523  0.1225  0.0008
  299MPD2    H3 4509   0.711   1.158   9.610  0.1367 -0.1374  0.1111
  299MPD2     N 4510   0.342   1.141   9.854 -0.1754 -0.4739 -0.1109
  299MPD2    H5 4511   0.284   1.131   9.771  1.0984 -1.0019 -0.9256
  299MPD2    N1 4512   0.772   1.250  10.042  0.0618 -0.1870 -0.6278
  299MPD2    H7 4513   0.871   1.235  10.024  0.6264  1.9388  0.7739
  300TMC3    C1 4514   0.147   1.060   9.962 -0.7705 -0.0040  0.2148
  300TMC3    C2 4515   0.062   1.158   9.918  0.3230 -0.5723 -0.1766
  300TMC3    C3 4516   4.660   1.167   9.966 -0.0588  0.7546  0.5074
  300TMC3    C4 4517   0.101   0.969  10.055  0.5650 -0.0254 -1.2241
  300TMC3    C5 4518   4.697   0.977  10.096  0.1299  0.1286 -0.1132
  300TMC3    C6 4519   4.616   1.078  10.060  0.5767 -0.1428  0.1771
  300TMC3     C 4520   0.286   1.095   9.971 -0.2417 -0.1224 -0.2258
  300TMC3     O 4521   0.334   1.067  10.077  0.0068 -0.4466 -0.2641
  300TMC3     H 4522   0.096   1.227   9.842  2.7870 -0.0475  1.4071
  300TMC3    H1 4523   0.167   0.900  10.107  0.0351 -0.4966 -1.1793
  300TMC3    H2 4524   4.521   1.086  10.111  0.2967  2.3219 -0.7247
  300TMC3    C7 4525   4.665   0.884  10.206  0.3559 -0.6037  0.0599
  300TMC3    C8 4526   4.639   1.306   9.994  0.2709 -0.4091  0.2473
  300TMC3    O1 4527   0.015   0.788  10.230 -0.3060 -0.2173  0.3209
  300TMC3    O2 4528   0.012   1.377   9.996  0.2108 -0.8854 -0.2935
  301MPD2     C 4529   2.262   1.992   1.563  0.4080 -0.4108 -0.1421
  301MPD2    C1 4530   2.183   1.970   1.451 -0.4490 -0.7465 -0.5131
  301MPD2    C2 4531   2.198   1.850   1.381 -0.0036 -0.2470 -0.0540
  301MPD2    C3 4532   2.307   1.768   1.403 -0.7983 -0.2699 -0.1686
  301MPD2    C4 4533   2.395   1.796   1.510  0.5642  0.5849  0.2760
  301MPD2    C5 4534   2.371   1.905   1.586  0.4271  0.2500  0.3480
  301MPD2     H 4535   2.131   1.833   1.297 -1.2790  1.8027  0.5399
  301MPD2    H1 4536   2.482   1.737   1.534  1.7075  2.1743  0.0265
  301MPD2    H2 4537   2.257   2.081   1.625 -0.9111 -1.1655  0.8477
  301MPD2    H3 4538   2.433   1.934   1.670  1.7231 -0.5814 -0.3381
  301MPD2     N 4539   2.326   1.648   1.333 -0.2893  0.3717  0.2296
  301MPD2    H5 4540   2.394   1.580   1.365  0.5382  1.3002  0.4507
  301MPD2    N1 4541   2.074   2.052   1.419  0.0644 -0.1926  0.3769
  301MPD2    H7 4542   2.004   2.016   1.354 -0.8792 -1.0399  1.8564
  302TMC3    C1 4543   2.256   1.481   1.181 -0.2443 -0.2398 -1.2744
  302TMC3    C2 4544   2.359   1.405   1.232  1.0960 -0.8422 -0.3283
  302TMC3    C3 4545   2.335   1.266   1.247 -0.3934 -0.5691 -0.6307
  302TMC3    C4 4546   2.138   1.428   1.148 -0.3080  0.6574  0.4073
  302TMC3    C5 4547   2.123   1.292   1.160  0.5778  0.3357  0.2556
  302TMC3    C6 4548   2.215   1.211   1.218 -0.4589 -0.3513 -0.2875
  302TMC3     C 4549   2.253   1.619   1.220 -0.2985 -0.3574 -0.5867
  302TMC3     O 4550   2.185   1.694   1.146  0.4618  0.0901 -0.0159
  302TMC3     H 4551   2.455   1.455   1.239  0.6234  0.4086 -2.6456
  302TMC3    H1 4552   2.077   1.490   1.085  2.1327  2.5688 -0.0933
  302TMC3    H2 4553   2.212   1.102   1.219  0.2274 -0.3906 -2.6323
  302TMC3    C7 4554   1.996   1.239   1.111 -0.4462  0.4031  0.9490
  302TMC3    C8 4555   2.434   1.198   1.332  0.4005  0.2100  0.3628
  302TMC3    O1 4556   1.992   1.118   1.128  0.4637 -0.1383 -0.0781
  302TMC3    O2 4557   2.551   1.240   1.316  0.7688  0.0988 -0.2068
  303MPD2     C 4558   2.814   0.591  10.121  0.2467 -0.1635  0.6930
  303MPD2    C1 4559   2.697   0.612  10.188 -0.4811 -0.2184  0.9059
  303MPD2    C2 4560   2.589   0.647  10.109 -0.1779 -0.4611 -0.3967
  303MPD2    C3 4561   2.597   0.668   9.967  0.2770 -0.4939 -0.0712
  303MPD2    C4 4562   2.716   0.652   9.911 -0.3444 -0.2292  0.4074
  303MPD2    C5 4563   2.824   0.618   9.981  0.2638  0.2713  0.6298
  303MPD2     H 4564   2.492   0.658  10.155  0.6096  0.5051  1.0595
  303MPD2    H1 4565   2.708   0.675   9.805  4.6567  0.7424  0.2246
  303MPD2    H2 4566   2.899   0.540  10.164  0.6599  0.7975  1.0059
  303MPD2    H3 4567   2.908   0.573   9.930 -1.2702 -2.2001  0.2931
  303MPD2     N 4568   2.487   0.719   9.884 -0.3397  0.2316  0.3319
  303MPD2    H5 4569   2.508   0.723   9.785  0.4508  0.5104  0.5107
  303MPD2    N1 4570   2.681   0.570  10.325 -0.4263 -0.2475  0.6847
  303MPD2    H7 4571   2.755   0.530  10.382 -0.8927 -0.2873  1.2652
  304TMC3    C1 4572   2.554   0.528  10.524  0.0875 -0.0146 -0.4465
  304TMC3    C2 4573   2.472   0.578  10.623 -0.7529  0.4233  0.3727
  304TMC3    C3 4574   2.454   0.502  10.736 -0.0869  0.1986 -0.1038
  304TMC3    C4 4575   2.618   0.406  10.546 -0.0893 -0.2952 -0.3210
  304TMC3    C5 4576   2.585   0.330  10.656  0.0108  0.2331  0.2160
  304TMC3    C6 4577   2.513   0.382  10.759 -0.4756 -0.0795 -0.2678
  304TMC3     C 4578   2.565   0.598  10.392  0.4938  0.3111  0.6949
  304TMC3     O 4579   2.492   0.697  10.369  0.1611  0.5302 -0.8810
  304TMC3     H 4580   2.412   0.663  10.594 -1.0414 -0.0644 -0.4526
  304TMC3    H1 4581   2.676   0.362  10.466 -0.8989  0.6431 -1.4253
  304TMC3    H2 4582   2.514   0.322  10.849 -0.4536  0.1889 -0.0890
  304TMC3    C7 4583   2.532   0.208  10.601 -0.1496  0.4623  0.1319
  304TMC3    C8 4584   2.322   0.499  10.784 -0.3591 -0.1036 -0.3867
  304TMC3    O1 4585   2.604   0.149  10.520  0.0035 -0.0380 -0.2495
  304TMC3    O2 4586   2.277   0.384  10.783 -0.4425  0.0549  0.2907
  305MPD2     C 4587   0.390   2.243  14.018 -0.6386 -0.3357  0.4218
  305MPD2    C1 4588   0.514   2.271  13.968 -0.2478 -0.5415 -0.5702
  305MPD2    C2 4589   0.541   2.245  13.839 -0.6665  0.7606 -0.7900
  305MPD2    C3 4590   0.450   2.173  13.756 -0.1682 -0.1830  0.2758
  305MPD2    C4 4591   0.330   2.130  13.808 -0.3158  0.0128 -0.7010
  305MPD2    C5 4592   0.299   2.165  13.940 -0.7754 -0.2471  0.4700
  305MPD2     H 4593   0.632   2.275  13.790 -0.9984  0.9046 -1.3154
  305MPD2    H1 4594   0.255   2.080  13.749 -1.0783  0.0188  0.2723
  305MPD2    H2 4595   0.367   2.269  14.121  0.4509 -0.1556  0.6242
  305MPD2    H3 4596   0.211   2.119  13.982 -1.0602 -0.2241 -0.1063
  305MPD2     N 4597   0.465   2.142  13.618  0.3454  0.3832  0.1345
  305MPD2    H5 4598   0.382   2.103  13.575  0.8967 -1.0416  0.3536
  305MPD2    N1 4599   0.600   2.328  14.062  0.1597 -0.1579  0.2768
  305MPD2    H7 4600   0.578   2.331  14.161 -3.1371 -0.1475 -0.4732
  306TMC3    C1 4601   0.803   2.381  14.151 -0.4400 -0.1661 -0.0993
  306TMC3    C2 4602   0.936   2.338  14.152 -0.0854  0.0712 -0.8165
  306TMC3    C3 4603   1.007   2.362  14.266  0.6784  0.1474 -0.0071
  306TMC3    C4 4604   0.756   2.463  14.247  0.2505  0.1019 -0.7028
  306TMC3    C5 4605   0.842   2.499  14.347  0.6777  0.4877 -0.6738
  306TMC3    C6 4606   0.963   2.454  14.360  0.0966 -0.0742 -0.5912
  306TMC3     C 4607   0.726   2.362  14.030  0.0914 -0.5884  0.6628
  306TMC3     O 4608   0.776   2.344  13.920 -0.6844 -0.6929 -0.7164
  306TMC3     H 4609   0.963   2.267  14.074 -0.6053 -0.3268 -0.6296
  306TMC3    H1 4610   0.653   2.494  14.235  0.2744  0.4167 -0.0761
  306TMC3    H2 4611   1.028   2.488  14.439 -1.5752  0.6571  0.4544
  306TMC3    C7 4612   0.782   2.580  14.446 -0.2764 -0.3171  0.1852
  306TMC3    C8 4613   1.111   2.270  14.307 -0.1347 -0.1199 -0.7859
  306TMC3    O1 4614   0.660   2.585  14.435  0.1827  0.6388  0.1206
  306TMC3    O2 4615   1.211   2.305  14.370  0.0147 -0.1703 -0.1090
  307MPD2     C 4616   2.622   4.551   1.436  0.3596 -0.4179 -0.0869
  307MPD2    C1 4617   2.569   4.668   1.374 -0.0297 -1.4607  0.6907
  307MPD2    C2 4618   2.442   4.655   1.323  0.1790  0.1470 -0.4594
  307MPD2    C3 4619   2.364   4.540   1.328  0.0506  0.1845 -0.3355
  307MPD2    C4 4620   2.408   4.429   1.403 -0.0022 -0.3004 -0.2315
  307MPD2    C5 4621   2.536   4.447   1.463  0.1549 -0.4077  0.1241
  307MPD2     H 4622   2.401   0.016   1.269 -3.0486 -1.1050  0.0216
  307MPD2    H1 4623   2.364   4.331   1.413 -1.4586  0.4560  0.8309
  307MPD2    H2 4624   2.723   4.546   1.476  0.5663 -3.1051 -0.9125
  307MPD2    H3 4625   2.576   4.362   1.518 -3.8545 -1.2962  1.7143
  307MPD2     N 4626   2.240   4.547   1.267  0.1541 -0.2987  1.0643
  307MPD2    H5 4627   2.227   4.630   1.209 -0.8979 -1.0434  0.2453
  307MPD2    N1 4628   2.645   0.060   1.350  0.0217  0.1675  0.8903
  307MPD2    H7 4629   2.591   0.124   1.293 -3.2291 -2.0978  1.4361
  308TMC3    C1 4630   1.899   4.504   1.009  0.3117  0.6232 -0.3094
  308TMC3    C2 4631   1.868   4.640   1.016 -0.1077 -0.0050  0.3825
  308TMC3    C3 4632   1.913   4.705   1.123 -0.0785  0.1088  0.8485
  308TMC3    C4 4633   1.972   4.437   1.098 -0.6709  0.0776  0.1404
  308TMC3    C5 4634   2.021   4.508   1.205  0.4904  0.3046 -0.2974
  308TMC3    C6 4635   1.998   4.646   1.208  0.2043 -0.0637  0.2454
  308TMC3     C 4636   1.898   4.451   0.870  0.7489 -0.6785 -0.0004
  308TMC3     O 4637   1.849   4.342   0.844 -0.4917 -1.1085  0.2554
  308TMC3     H 4638   1.795   4.679   0.946  0.2066  1.2517  0.7437
  308TMC3    H1 4639   1.989   4.331   1.079  0.1259  0.6596 -2.3871
  308TMC3    H2 4640   2.034   4.700   1.295 -1.0353  1.8284 -0.4195
  308TMC3    C7 4641   2.145   4.451   1.258 -0.1982  0.0934 -0.4837
  308TMC3    C8 4642   1.875   0.123   1.153  0.0225  0.2042  0.3165
  308TMC3    O1 4643   2.136   4.336   1.302  0.1139  0.2470  0.0610
  308TMC3    O2 4644   1.808   0.172   1.062  0.0557  0.0470  0.3301
  309MPD2     C 4645   2.438   0.753  17.102 -0.3121 -0.3684 -0.0757
  309MPD2    C1 4646   2.390   0.796  16.985 -0.1850 -0.5888  0.1075
  309MPD2    C2 4647   2.270   0.866  16.979  0.4656  0.1003  0.2218
  309MPD2    C3 4648   2.194   0.889  17.097 -0.2017  0.0822 -0.2449
  309MPD2    C4 4649   2.242   0.840  17.218 -0.0431  0.9123  0.6985
  309MPD2    C5 4650   2.368   0.778  17.218  0.1765  0.3863 -0.2264
  309MPD2     H 4651   2.241   0.919  16.889 -0.2933  0.3011  0.5848
  309MPD2    H1 4652   2.203   0.859  17.317 -0.5807 -2.3956  1.1367
  309MPD2    H2 4653   2.534   0.707  17.120  1.4420  2.3567 -2.3814
  309MPD2    H3 4654   2.424   0.761  17.309  1.3944 -1.3786 -1.3137
  309MPD2     N 4655   2.069   0.956  17.105  0.4277 -0.0045  0.1782
  309MPD2    H5 4656   2.037   0.970  17.201 -1.5638 -0.2694 -0.4497
  309MPD2    N1 4657   2.469   0.788  16.870  0.1025  0.2781 -0.1260
  309MPD2    H7 4658   2.422   0.829  16.789  2.0948 -2.3738 -2.6154
  310TMC3    C1 4659   2.634   0.720  16.716  0.5519  0.1439  0.1603
  310TMC3    C2 4660   2.570   0.794  16.625  0.0666  0.4977  0.1032
  310TMC3    C3 4661   2.633   0.814  16.501 -0.2370 -0.2364  0.5006
  310TMC3    C4 4662   2.750   0.655  16.685  0.6268  0.6345 -0.4453
  310TMC3    C5 4663   2.805   0.677  16.563  0.7367  0.6017  0.1102
  310TMC3    C6 4664   2.750   0.762  16.466 -0.3934 -0.3451  0.8536
  310TMC3     C 4665   2.576   0.705  16.849 -0.6805 -0.1624 -0.4393
  310TMC3     O 4666   2.624   0.625  16.924 -0.0944 -0.0590  1.0601
  310TMC3     H 4667   2.471   0.838  16.640 -0.1556  0.0578 -0.0705
  310TMC3    H1 4668   2.792   0.573  16.742 -2.2200 -0.1704  0.5021
  310TMC3    H2 4669   2.789   0.789  16.368 -0.4543  1.4905  1.3386
  310TMC3    C7 4670   2.944   0.634  16.538  0.3846  0.0467  0.7101
  310TMC3    C8 4671   2.555   0.865  16.391  0.3918  0.5837 -0.1622
  310TMC3    O1 4672   3.012   0.619  16.638  0.0221  0.1847 -0.0226
  310TMC3    O2 4673   2.578   0.824  16.278 -0.4248 -0.2973  0.2984
  311MPD2     C 4674   0.158   1.874  12.720 -0.7520 -0.1788  1.0165
  311MPD2    C1 4675   0.176   2.014  12.731  0.7739  0.2474 -1.0762
  311MPD2    C2 4676   0.072   2.084  12.786 -1.1009  0.4320  0.5609
  311MPD2    C3 4677   4.675   2.026  12.798 -0.2321 -0.0727  0.0880
  311MPD2    C4 4678   4.657   1.893  12.774  0.4908 -1.2747 -0.1336
  311MPD2    C5 4679   0.037   1.813  12.746  0.3742  0.5103 -0.5982
  311MPD2     H 4680   0.081   2.192  12.779 -0.6416  0.1862 -2.8073
  311MPD2    H1 4681   4.564   1.843  12.800  0.2265  0.2986  1.9165
  311MPD2    H2 4682   0.239   1.808  12.694  0.2850  1.6262 -0.3462
  311MPD2    H3 4683   0.030   1.705  12.738 -1.0878  0.4956  0.9509
  311MPD2     N 4684   4.576   2.116  12.830 -0.1575 -0.4267  0.1742
  311MPD2    H5 4685   4.613   2.209  12.851  1.4616 -0.5571 -2.1540
  311MPD2    N1 4686   0.288   2.081  12.678 -0.1845 -0.3005 -0.2628
  311MPD2    H7 4687   0.284   2.182  12.667  1.2446 -0.2481 -0.4180
  312TMC3    C1 4688   4.354   2.220  12.836 -0.0387 -0.1188  0.0841
  312TMC3    C2 4689   4.234   2.223  12.776  0.0621  0.2434  0.1505
  312TMC3    C3 4690   4.136   2.310  12.822  0.9878 -0.1698  0.8189
  312TMC3    C4 4691   4.374   2.295  12.944  0.2771  0.0967  0.5458
  312TMC3    C5 4692   4.285   2.388  12.976 -0.7486  0.2385  0.0003
  312TMC3    C6 4693   4.165   2.406  12.915  0.1228  0.1676  0.1026
  312TMC3     C 4694   4.445   2.105  12.798  0.4181 -0.3241 -0.5904
  312TMC3     O 4695   4.393   2.014  12.737  0.2647  0.3690 -0.1054
  312TMC3     H 4696   4.222   2.161  12.688 -1.9019  3.1067 -1.5894
  312TMC3    H1 4697   4.453   2.274  13.014  1.1312  0.2343 -0.3745
  312TMC3    H2 4698   4.099   2.487  12.942 -2.3419 -0.7207 -3.4172
  312TMC3    C7 4699   4.305   2.464  13.097 -0.1918 -0.5517 -0.0758
  312TMC3    C8 4700   4.007   2.324  12.740  0.2070 -0.0855 -0.3667
  312TMC3    O1 4701   4.212   2.525  13.150 -0.1351  0.0373 -0.0413
  312TMC3    O2 4702   3.992   2.287  12.625  0.1082  0.5335  0.1674
  313MPD2     C 4703   4.153   1.348  10.421  0.0889 -0.6896 -1.0414
  313MPD2    C1 4704   4.044   1.378  10.495 -0.2332  0.4138 -0.2646
  313MPD2    C2 4705   3.926   1.314  10.462  0.4928 -0.0673 -0.1535
  313MPD2    C3 4706   3.926   1.211  10.362  0.2381 -0.1082  0.5443
  313MPD2    C4 4707   4.047   1.174  10.302  0.3838 -0.3580 -0.8966
  313MPD2    C5 4708   4.160   1.237  10.335  0.2058  0.2394 -0.0000
  313MPD2     H 4709   3.839   1.336  10.523  0.1333 -1.4067 -0.1800
  313MPD2    H1 4710   4.052   1.084  10.241 -0.7598 -1.1961  0.2340
  313MPD2    H2 4711   4.244   1.405  10.437 -0.5821  0.0767 -0.0216
  313MPD2    H3 4712   4.253   1.208  10.287 -0.0024 -0.2542 -0.0965
  313MPD2     N 4713   3.807   1.152  10.351 -0.3472  0.0627 -0.8596
  313MPD2    H5 4714   3.725   1.180  10.403  0.2414  1.1177 -0.5094
  313MPD2    N1 4715   4.037   1.472  10.604 -0.0605  0.2532  0.8010
  313MPD2    H7 4716   3.949   1.479  10.653 -0.6294 -0.5996 -0.1072
  314TMC3    C1 4717   4.088   1.638  10.764 -0.2398  0.5552 -0.7045
  314TMC3    C2 4718   4.174   1.674  10.867  0.1443 -0.2375  0.4677
  314TMC3    C3 4719   4.134   1.777  10.951 -0.1039 -0.3003 -0.3772
  314TMC3    C4 4720   3.962   1.694  10.759 -0.0013 -0.1384 -1.0796
  314TMC3    C5 4721   3.927   1.801  10.843 -0.0360 -0.5310  0.1274
  314TMC3    C6 4722   4.016   1.842  10.936  0.6495  0.5542 -0.0814
  314TMC3     C 4723   4.135   1.554  10.658 -0.3290  0.4230  0.3299
  314TMC3     O 4724   4.254   1.550  10.637  0.3112 -0.1945  0.3941
  314TMC3     H 4725   4.270   1.625  10.880  0.0489 -0.6994 -0.5474
  314TMC3    H1 4726   3.900   1.689  10.671  0.0085  0.3755 -1.1159
  314TMC3    H2 4727   3.984   1.931  10.990  1.8896  0.9718 -0.0116
  314TMC3    C7 4728   3.836   1.897  10.789 -0.5373 -0.5650  0.1243
  314TMC3    C8 4729   4.243   1.865  10.990 -0.2335  0.4791  0.3925
  314TMC3    O1 4730   3.735   1.857  10.722  0.3405  0.2723 -0.2878
  314TMC3    O2 4731   4.212   1.984  10.977  0.0936 -0.7030  0.0975
  315MPD2     C 4732   3.421   0.543   0.336 -0.5076 -0.4960 -0.1441
  315MPD2    C1 4733   3.531   0.600   0.392 -0.2609  0.1072  0.4181
  315MPD2    C2 4734   3.609   0.693   0.324 -0.5622 -0.2192 -0.2417
  315MPD2    C3 4735   3.563   0.728   0.201  0.2325  0.7019 -0.9357
  315MPD2    C4 4736   3.445   0.676   0.147  1.1510  0.3830  0.0458
  315MPD2    C5 4737   3.370   0.583   0.214  0.0914  0.5082 -0.2857
  315MPD2     H 4738   3.693   0.743   0.371  0.6923 -2.0516 -0.5310
  315MPD2    H1 4739   3.430   0.687   0.040 -1.9750  2.4585  0.6860
  315MPD2    H2 4740   3.363   0.468   0.388 -1.2237  1.6363  2.1238
  315MPD2    H3 4741   3.287   0.535   0.164 -0.9479  2.3803 -0.3837
  315MPD2     N 4742   3.635   0.835   0.148 -0.1101  0.0511 -0.3525
  315MPD2    H5 4743   3.719   0.853   0.201  0.7999 -1.8596 -1.1510
  315MPD2    N1 4744   3.591   0.541   0.509 -1.0598  0.2451 -0.3186
  315MPD2    H7 4745   3.665   0.602   0.541 -0.8418 -0.6984  0.9734
  316TMC3    C1 4746   3.679   1.019   0.024  0.1386  0.7128  0.0770
  316TMC3    C2 4747   3.728   1.079   0.139 -0.1282  0.8396 -0.1585
  316TMC3    C3 4748   3.800   1.194   0.132  0.2825  0.7441 -0.0660
  316TMC3    C4 4749   3.709   1.077  17.599  0.6321 -0.5709  0.4220
  316TMC3    C5 4750   3.778   1.197  17.597  0.4714  0.1871 -0.1264
  316TMC3    C6 4751   3.823   1.255   0.012  0.1726 -0.3829 -0.0738
  316TMC3     C 4752   3.599   0.903   0.035 -0.5105  0.5187 -0.5304
  316TMC3     O 4753   3.523   0.873  17.641  0.0017 -0.3618  0.6704
  316TMC3     H 4754   3.688   1.056   0.237  2.6959 -0.7083  0.6083
  316TMC3    H1 4755   3.684   1.021  17.510 -1.0268  0.1800  0.4046
  316TMC3    H2 4756   3.883   1.345   0.003  0.4097 -0.4772  0.5176
  316TMC3    C7 4757   3.834   1.259  17.471 -0.4749 -0.3259 -0.1634
  316TMC3    C8 4758   3.855   1.251   0.254  0.0307 -1.4053 -0.5603
  316TMC3    O1 4759   3.919   1.347  17.471  0.0045  0.0976 -0.2314
  316TMC3    O2 4760   3.898   1.363   0.248  0.6097  0.2052  0.0628
  317MPD2     C 4761   0.575   4.252  12.961 -0.1331  0.1940 -0.4931
  317MPD2    C1 4762   0.626   4.132  12.912 -0.3326 -0.3277 -0.3780
  317MPD2    C2 4763   0.685   4.046  13.001 -0.2754 -0.3466 -0.4699
  317MPD2    C3 4764   0.727   4.088  13.123  0.0222  0.5832  0.1000
  317MPD2    C4 4765   0.677   4.205  13.173  0.3527 -0.6647  0.7286
  317MPD2    C5 4766   0.602   4.286  13.091  0.3382 -0.5525  0.6906
  317MPD2     H 4767   0.715   3.950  12.960  0.0169  0.1086 -1.3150
  317MPD2    H1 4768   0.693   4.238  13.275  1.6610  1.1393 -0.0643
  317MPD2    H2 4769   0.507   4.319  12.910  0.9913  0.1061 -2.1120
  317MPD2    H3 4770   0.575   4.387  13.119 -2.0221 -0.8632 -0.4965
  317MPD2     N 4771   0.810   4.002  13.195  0.0028 -0.0373  0.1304
  317MPD2    H5 4772   0.839   3.908  13.166 -0.8390  0.4198 -2.2202
  317MPD2    N1 4773   0.622   4.101  12.771 -0.0130  0.4282 -0.7365
  317MPD2    H7 4774   0.662   4.013  12.740  2.3024  0.6090  1.7715
  318TMC3    C1 4775   0.936   3.918  13.376 -0.2011 -0.2838  0.0866
  318TMC3    C2 4776   0.903   3.791  13.335 -0.6244 -0.6511 -0.1259
  318TMC3    C3 4777   0.983   3.691  13.393  0.5793  0.4549  0.8313
  318TMC3    C4 4778   1.035   3.941  13.467 -0.0274 -0.2333  0.9528
  318TMC3    C5 4779   1.114   3.840  13.521  0.1657 -0.4653  0.4477
  318TMC3    C6 4780   1.087   3.718  13.485 -0.4072  0.3902  0.1658
  318TMC3     C 4781   0.864   4.030  13.315  1.0480 -0.4220 -0.5149
  318TMC3     O 4782   0.869   4.137  13.376 -0.4876  0.4758  0.1434
  318TMC3     H 4783   0.826   3.771  13.261 -0.2664 -0.3854 -0.5690
  318TMC3    H1 4784   1.054   4.046  13.483 -1.5285  0.2211 -0.2327
  318TMC3    H2 4785   1.139   3.631  13.525 -2.3030 -1.5274 -1.5856
  318TMC3    C7 4786   1.247   3.884  13.561  0.8858  0.0677  0.0533
  318TMC3    C8 4787   0.921   3.566  13.403 -0.3677 -0.2258 -0.0023
  318TMC3    O1 4788   1.244   3.998  13.600  0.0019  0.0141 -0.4403
  318TMC3    O2 4789   0.932   3.500  13.502  0.5263 -0.1390  0.0020
  319MPD2     C 4790   1.629   0.771  16.863 -0.3345  0.5610  0.1314
  319MPD2    C1 4791   1.622   0.633  16.900 -0.0713 -0.1838  1.1704
  319MPD2    C2 4792   1.535   0.550  16.832  0.6492  0.2216  0.5760
  319MPD2    C3 4793   1.463   0.598  16.726  0.1415 -0.2253 -1.1087
  319MPD2    C4 4794   1.471   0.734  16.696  0.1102  0.3290  0.1951
  319MPD2    C5 4795   1.556   0.820  16.757  0.2898  0.4184 -0.0711
  319MPD2     H 4796   1.541   0.443  16.851 -0.1932  0.3854  1.7168
  319MPD2    H1 4797   1.415   0.778  16.614  0.4997 -0.9211 -0.7382
  319MPD2    H2 4798   1.693   0.842  16.914  0.9781 -0.3200 -0.2857
  319MPD2    H3 4799   1.553   0.926  16.734 -1.2070  0.3391 -0.2604
  319MPD2     N 4800   1.376   0.521  16.647  0.0238 -0.2769 -0.2523
  319MPD2    H5 4801   1.322   0.577  16.583  2.1429 -0.8457 -2.5457
  319MPD2    N1 4802   1.689   0.572  17.007 -0.0851  0.1177 -0.1818
  319MPD2    H7 4803   1.670   0.473  17.012 -3.4778  0.6776 -1.9424
  320TMC3    C1 4804   1.296   0.348  16.520  0.3801 -0.2162  0.1172
  320TMC3    C2 4805   1.269   0.442  16.422 -0.0060  0.2893  0.0352
  320TMC3    C3 4806   1.227   0.402  16.299  0.2525 -0.5446  0.3805
  320TMC3    C4 4807   1.275   0.217  16.502  0.4797  0.6345  0.2256
  320TMC3    C5 4808   1.239   0.180  16.373 -0.0915 -0.0422  0.2159
  320TMC3    C6 4809   1.210   0.271  16.275  0.2216 -0.7757  0.2717
  320TMC3     C 4810   1.374   0.380  16.641 -0.5965 -0.2511  0.4637
  320TMC3     O 4811   1.424   0.293  16.705  0.1282  0.1599  0.1716
  320TMC3     H 4812   1.272   0.549  16.434  0.6776  0.1705  0.8804
  320TMC3    H1 4813   1.319   0.144  16.570 -0.7283 -0.3223 -0.0225
  320TMC3    H2 4814   1.189   0.225  16.179  0.2980  0.4805 -0.3435
  320TMC3    C7 4815   1.287   0.057  16.327 -0.1947  0.4644 -0.5161
  320TMC3    C8 4816   1.162   0.500  16.211 -0.6860  0.0569  0.5035
  320TMC3    O1 4817   1.340   0.051  16.214 -0.1624  0.2567  0.3043
  320TMC3    O2 4818   1.168   0.616  16.241  1.1906 -0.3355  0.0375
  321TMC3    C1 4819   1.838   0.543  17.183 -0.0550 -0.2057 -0.1794
  321TMC3    C2 4820   1.756   0.446  17.237  0.2908  0.1931  0.4374
  321TMC3    C3 4821   1.797   0.382  17.348 -0.7670 -0.1613  0.2148
  321TMC3    C4 4822   1.959   0.568  17.237  0.3625  0.1977 -0.3582
  321TMC3    C5 4823   1.989   0.522  17.364  0.5836 -0.1178  0.1504
  321TMC3    C6 4824   1.907   0.427  17.413  0.0549 -0.3437  0.6115
  321TMC3     C 4825   1.796   0.625  17.072  0.4312  0.5684  0.0356
  321TMC3     O 4826   1.873   0.711  17.032 -0.1234 -0.0814  0.0365
  321TMC3     H 4827   1.674   0.404  17.180 -0.3468  1.2456  0.5961
  321TMC3    H1 4828   2.028   0.639  17.194 -0.1367  0.5977 -0.5012
  321TMC3    H2 4829   1.942   0.378  17.504  0.0310 -0.4573  0.5599
  321TMC3    C7 4830   2.121   0.475  17.395  0.6142  0.1704 -0.4964
  321TMC3    C8 4831   1.772   0.239  17.346  0.5733  0.6803  0.5654
  321TMC3    O1 4832   2.153   0.369  17.339 -0.2989  0.0611 -0.0595
  321TMC3    O2 4833   1.674   0.190  17.289 -0.3127 -0.1981  0.1524
  322MPD2     C 4834   0.708   1.770  13.288 -0.2958  0.1125  0.1087
  322MPD2    C1 4835   0.724   1.679  13.391 -0.5277 -0.7811 -0.2191
  322MPD2    C2 4836   0.769   1.555  13.362 -0.1066 -0.7666 -0.0621
  322MPD2    C3 4837   0.801   1.519  13.229  0.0088  0.2373 -0.7772
  322MPD2    C4 4838   0.797   1.616  13.133  0.3086  0.4652 -0.6597
  322MPD2    C5 4839   0.751   1.740  13.162 -0.4568  0.5212 -0.2464
  322MPD2     H 4840   0.783   1.483  13.442  0.5363 -1.0879 -0.4622
  322MPD2    H1 4841   0.823   1.606  13.028 -1.9353 -2.0532 -0.9735
  322MPD2    H2 4842   0.660   1.867  13.301 -2.1766 -0.6075 -1.4345
  322MPD2    H3 4843   0.752   1.820  13.089 -0.4271  0.1056 -0.7076
  322MPD2     N 4844   0.852   1.391  13.201 -0.1237  0.1411 -0.5633
  322MPD2    H5 4845   0.839   1.325  13.276 -2.4995  1.0215 -0.1915
  322MPD2    N1 4846   0.696   1.726  13.523  0.2090  0.1436  0.1688
  322MPD2    H7 4847   0.663   1.821  13.535 -0.3260 -0.4422  3.4006
  323TMC3    C1 4848   0.672   1.736  13.742  0.3796 -0.3554  0.2836
  323TMC3    C2 4849   0.733   1.864  13.728 -0.0993 -0.0214  0.1401
  323TMC3    C3 4850   0.745   1.937  13.845  0.7891 -0.3850 -0.5998
  323TMC3    C4 4851   0.650   1.678  13.860 -0.4004 -0.5973  0.2154
  323TMC3    C5 4852   0.641   1.756  13.972  0.6308  0.1618  0.0949
  323TMC3    C6 4853   0.688   1.888  13.963 -0.6568 -0.4156  0.2682
  323TMC3     C 4854   0.672   1.648  13.631 -0.1782  0.3596 -0.2347
  323TMC3     O 4855   0.669   1.524  13.645  0.0296 -0.2373 -0.6072
  323TMC3     H 4856   0.781   1.902  13.639  1.5567  0.3697  1.2050
  323TMC3    H1 4857   0.624   1.574  13.870 -0.9268 -0.2898  2.0372
  323TMC3    H2 4858   0.705   1.955  14.046 -2.5316 -1.2439  1.3138
  323TMC3    C7 4859   0.679   1.690  14.100  0.1589  0.3407 -0.8474
  323TMC3    C8 4860   0.861   2.021  13.874 -0.0423  0.0211  0.8430
  323TMC3    O1 4861   0.706   1.574  14.089  0.4373 -0.3236  0.6479
  323TMC3    O2 4862   0.917   1.997  13.979 -0.0048 -0.3864 -0.0463
  324MPD2     C 4863   2.697   2.769  14.891 -0.1273 -0.0287 -0.8440
  324MPD2    C1 4864   2.758   2.797  14.773 -0.4608  0.0011  0.5808
  324MPD2    C2 4865   2.677   2.837  14.665 -0.0930 -0.3758  0.1711
  324MPD2    C3 4866   2.543   2.860  14.678 -0.0002 -1.0640 -0.1438
  324MPD2    C4 4867   2.488   2.830  14.795  0.2308  0.2132 -0.0749
  324MPD2    C5 4868   2.563   2.787  14.895 -1.2961  0.4469 -0.7246
  324MPD2     H 4869   2.717   2.851  14.565  0.5819  1.3683  0.6897
  324MPD2    H1 4870   2.385   2.856  14.820  0.0624 -0.4271 -0.1142
  324MPD2    H2 4871   2.747   2.719  14.973 -4.3016 -2.0460  0.4382
  324MPD2    H3 4872   2.519   2.757  14.989 -0.3556  1.7218  0.1259
  324MPD2     N 4873   2.463   2.909  14.576  0.0230 -0.0355 -0.0284
  324MPD2    H5 4874   2.364   2.911  14.598 -0.4302  1.4241 -2.2402
  324MPD2    N1 4875   2.901   2.793  14.750 -0.3604 -0.4037 -0.0832
  324MPD2    H7 4876   2.930   2.835  14.662  0.8434  0.4840  0.7376
  325TMC3    C1 4877   2.375   2.993  14.382  0.3489 -0.4347  0.1101
  325TMC3    C2 4878   2.265   2.911  14.389  0.8328  0.4434  0.8994
  325TMC3    C3 4879   2.152   2.968  14.346 -0.7678  0.7901 -0.0983
  325TMC3    C4 4880   2.379   3.116  14.323 -0.3576  0.0232 -0.0681
  325TMC3    C5 4881   2.258   3.167  14.284 -0.3414 -0.4334  0.0854
  325TMC3    C6 4882   2.141   3.100  14.292 -0.2977 -0.3114  0.4997
  325TMC3     C 4883   2.494   2.958  14.452 -0.4917  0.0709 -0.2960
  325TMC3     O 4884   2.597   2.992  14.400  0.0602  0.7939  0.0957
  325TMC3     H 4885   2.272   2.813  14.436 -2.6020  0.5218  1.5330
  325TMC3    H1 4886   2.469   3.177  14.320 -0.2869 -0.0788  0.0054
  325TMC3    H2 4887   2.051   3.133  14.242  1.0700  0.9209 -1.1645
  325TMC3    C7 4888   2.246   3.310  14.288 -0.0272  0.5509  0.6696
  325TMC3    C8 4889   2.041   2.878  14.333 -0.5066  0.1329  0.2821
  325TMC3    O1 4890   2.347   3.373  14.262  0.1389 -0.1645 -0.1515
  325TMC3    O2 4891   2.071   2.762  14.310  0.2609 -0.5020 -0.3746
  326MPD2     C 4892   3.275   4.410  10.784 -0.3702  0.3952 -0.2434
  326MPD2    C1 4893   3.333   4.285  10.787  0.0408 -0.0580 -0.1894
  326MPD2    C2 4894   3.471   4.273  10.787 -0.1685 -0.0213  0.1953
  326MPD2    C3 4895   3.540   4.394  10.787 -0.7495 -0.1785  0.0612
  326MPD2    C4 4896   3.477   4.514  10.785 -0.5048  1.1647 -0.0044
  326MPD2    C5 4897   3.346   4.522  10.780  0.5064 -0.3302  0.0639
  326MPD2     H 4898   3.520   4.176  10.791 -1.4416 -0.5170  3.8778
  326MPD2    H1 4899   3.532   4.608  10.784  1.9955 -0.2819  1.3383
  326MPD2    H2 4900   3.168   4.426  10.787 -0.1101  2.0016  0.6545
  326MPD2    H3 4901   3.287   4.612  10.770  0.5628 -0.3381 -0.3266
  326MPD2     N 4902   3.679   4.399  10.784 -0.1009 -0.0395 -0.0609
  326MPD2    H5 4903   3.717   4.492  10.797  1.4709 -0.7588  0.5972
  326MPD2    N1 4904   3.257   4.165  10.787  0.2947 -0.0839 -0.0846
  326MPD2    H7 4905   3.312   4.080  10.784 -1.2064 -1.0369 -0.1745
  327TMC3    C1 4906   3.077   4.022  10.770 -0.2459 -0.2833  0.4755
  327TMC3    C2 4907   2.944   4.002  10.737 -0.1340 -0.7287 -0.0712
  327TMC3    C3 4908   2.891   3.874  10.722 -0.2232 -0.3005 -0.2836
  327TMC3    C4 4909   3.150   3.912  10.811 -0.0150  0.2369  0.3100
  327TMC3    C5 4910   3.094   3.783  10.805 -0.4357 -0.0138  0.0148
  327TMC3    C6 4911   2.962   3.769  10.769  0.2048 -0.5143 -0.1593
  327TMC3     C 4912   3.120   4.162  10.780  0.1737 -0.9227  0.4753
  327TMC3     O 4913   3.046   4.251  10.738 -0.5057 -0.3691 -0.3736
  327TMC3     H 4914   2.880   4.082  10.702 -0.4470 -0.4431  1.1599
  327TMC3    H1 4915   3.256   3.916  10.836  0.2695  3.3240 -1.4747
  327TMC3    H2 4916   2.913   3.672  10.769  1.0944 -0.9651 -0.1149
  327TMC3    C7 4917   3.165   3.658  10.819  0.1540  0.0780  0.5952
  327TMC3    C8 4918   2.861   3.858  10.578 -0.3341  0.1925 -0.6980
  327TMC3    O1 4919   3.109   3.557  10.777  0.4516 -0.3134  0.0390
  327TMC3    O2 4920   2.810   3.952  10.514  0.7696 -0.3705  0.3666
  328MPD2     C 4921   1.317   3.356  17.428  0.5111 -0.0371 -0.5063
  328MPD2    C1 4922   1.237   3.286  17.343  0.1521  0.6386 -0.5697
  328MPD2    C2 4923   1.258   3.289  17.206 -0.1458  0.5406 -0.2093
  328MPD2    C3 4924   1.359   3.373  17.156 -0.8440 -0.5179  0.4842
  328MPD2    C4 4925   1.436   3.435  17.251  0.1503  0.4265  0.0218
  328MPD2    C5 4926   1.416   3.432  17.383  0.0718  0.0728  0.3679
  328MPD2     H 4927   1.193   3.234  17.138 -1.7757 -0.0912  1.8752
  328MPD2    H1 4928   1.509   3.508  17.216 -0.4164  0.1183 -1.8457
  328MPD2    H2 4929   1.297   3.363  17.535  2.1949  0.4592 -0.2181
  328MPD2    H3 4930   1.483   3.483  17.451 -0.5255  1.0109  0.2538
  328MPD2     N 4931   1.365   3.412  17.019  0.4106 -0.3867 -0.2714
  328MPD2    H5 4932   1.420   3.494  16.997  1.3680 -0.9451  0.0149
  328MPD2    N1 4933   1.122   3.234  17.406 -0.1660  0.0443 -0.1512
  328MPD2    H7 4934   1.114   3.248  17.506 -1.2574  1.7557 -0.4746
  329TMC3    C1 4935   0.909   3.135  17.430 -0.0032 -0.6354  0.2276
  329TMC3    C2 4936   0.842   3.248  17.473 -0.0707  0.9484  0.1739
  329TMC3    C3 4937   0.708   3.264  17.440  0.4211  0.0344  0.4283
  329TMC3    C4 4938   0.838   3.033  17.375 -0.2235 -0.7511  0.0383
  329TMC3    C5 4939   0.705   3.051  17.337 -0.2287 -0.4917  0.2786
  329TMC3    C6 4940   0.642   3.168  17.369 -0.0952 -0.6992 -0.9057
  329TMC3     C 4941   1.025   3.157  17.348 -0.5186 -0.7448  0.8362
  329TMC3     O 4942   1.032   3.104  17.240 -0.1142 -0.1734  0.1070
  329TMC3     H 4943   0.890   3.327  17.530  1.9526  0.5910 -1.0616
  329TMC3    H1 4944   0.886   2.939  17.352  1.2367  0.4069 -1.6241
  329TMC3    H2 4945   0.538   3.187  17.345 -0.0748  0.7900  0.2385
  329TMC3    C7 4946   0.658   2.972  17.224 -0.6453 -0.0451 -0.6153
  329TMC3    C8 4947   0.677   3.394  17.395 -0.1250  0.0565 -0.1699
  329TMC3    O1 4948   0.538   2.974  17.201 -0.2469 -0.4410 -0.4067
  329TMC3    O2 4949   0.648   3.409  17.279  0.0537 -0.5729 -0.1517
  330TMC3    C1 4950   4.700   3.630   9.693  0.0064 -0.4965  0.7081
  330TMC3    C2 4951   4.681   3.514   9.616  0.3654 -0.5689  0.4235
  330TMC3    C3 4952   4.685   3.392   9.676  0.3830 -0.2291 -0.0546
  330TMC3    C4 4953   4.696   3.610   9.828 -0.1280  1.2666 -0.2493
  330TMC3    C5 4954   4.675   3.490   9.890  0.3346  0.2397  0.4883
  330TMC3    C6 4955   4.680   3.379   9.809 -0.4133 -0.3930  0.2428
  330TMC3     C 4956   4.620   3.752   9.657 -0.8368  0.4385 -0.2047
  330TMC3     O 4957   4.638   3.855   9.728  0.3833  0.1634  0.1652
  330TMC3     H 4958   4.683   3.514   9.507  4.7168  0.5316  0.4967
  330TMC3    H1 4959   4.704   3.700   9.888 -1.7734  0.2417  1.5170
  330TMC3    H2 4960   4.700   3.280   9.848 -1.8016 -1.5443 -1.9813
  330TMC3    C7 4961   4.676   3.479  10.035  0.0273 -0.3628  0.0294
  330TMC3    C8 4962   4.673   3.274   9.594  0.4039  0.4304  0.2704
  330TMC3    O1 4963   4.694   3.575  10.108  0.6320 -0.1670  0.2185
  330TMC3    O2 4964   0.010   3.287   9.490 -0.9424  0.0964 -0.3481
  331MPD2     C 4965   2.727   2.690  12.487  0.3667  0.3072 -0.2185
  331MPD2    C1 4966   2.598   2.719  12.455 -0.1489  0.0491  0.0501
  331MPD2    C2 4967   2.519   2.618  12.411 -0.5038  0.1827 -0.0531
  331MPD2    C3 4968   2.553   2.487  12.399  0.1081  0.1917 -0.3908
  331MPD2    C4 4969   2.670   2.452  12.453 -0.4693  0.0333 -0.1473
  331MPD2    C5 4970   2.753   2.559  12.487 -0.5267 -0.1430  0.9240
  331MPD2     H 4971   2.427   2.645  12.360 -1.5997  0.8500  2.3077
  331MPD2    H1 4972   2.705   2.349  12.451 -0.8456 -0.0551 -1.9637
  331MPD2    H2 4973   2.800   2.765  12.513 -0.6002  1.8752 -2.0419
  331MPD2    H3 4974   2.852   2.529  12.519  0.7961  1.8870 -1.2755
  331MPD2     N 4975   2.476   2.388  12.341  0.1022 -0.0627 -0.1150
  331MPD2    H5 4976   2.520   2.297  12.341  1.0404  0.3924  1.0366
  331MPD2    N1 4977   2.554   2.851  12.459  0.2830 -0.0187 -0.1505
  331MPD2    H7 4978   2.625   2.923  12.472  0.2055  0.2665 -1.2475
  332TMC3    C1 4979   2.323   2.288  12.191 -0.1661  0.0245 -0.0200
  332TMC3    C2 4980   2.232   2.303  12.088  0.2187 -0.1445  0.2120
  332TMC3    C3 4981   2.225   2.206  11.987 -0.3259 -0.1416 -0.5288
  332TMC3    C4 4982   2.393   2.172  12.207  0.8110  0.0960 -0.1753
  332TMC3    C5 4983   2.387   2.086  12.104  0.2910 -0.0455 -0.6685
  332TMC3    C6 4984   2.305   2.095  11.996 -0.2515  0.7082  0.3997
  332TMC3     C 4985   2.357   2.405  12.276  0.3482 -0.3023  0.2072
  332TMC3     O 4986   2.294   2.509  12.250  0.3026 -0.1636  0.5604
  332TMC3     H 4987   2.192   2.402  12.068 -0.8824 -0.1018  2.5568
  332TMC3    H1 4988   2.466   2.157  12.285 -0.8710 -1.3016  1.1439
  332TMC3    H2 4989   2.302   2.018  11.920 -0.0346 -1.1321  2.2637
  332TMC3    C7 4990   2.447   1.956  12.119  0.4480  0.6481 -0.6672
  332TMC3    C8 4991   2.210   2.266  11.859 -0.7030 -0.8013 -0.4019
  332TMC3    O1 4992   2.377   1.861  12.089  0.3138 -0.3003  0.7653
  332TMC3    O2 4993   2.300   2.257  11.778  0.1795  0.2957  0.4305
  333MPD2     C 4994   2.386   2.465  10.937 -0.3131 -0.1938 -0.7255
  333MPD2    C1 4995   2.479   2.385  10.869  0.1609 -0.0050 -0.1086
  333MPD2    C2 4996   2.499   2.256  10.919  0.1934  0.4239 -0.3120
  333MPD2    C3 4997   2.422   2.204  11.019 -0.2330 -0.7772 -0.7374
  333MPD2    C4 4998   2.324   2.282  11.078 -0.0335 -0.2189  0.6857
  333MPD2    C5 4999   2.312   2.414  11.042  0.5404 -0.2277 -0.1738
  333MPD2     H 5000   2.575   2.192  10.876  3.4645  3.0665  1.6511
  333MPD2    H1 5001   2.255   2.233  11.146  2.0960 -0.7650  2.4499
  333MPD2    H2 5002   2.365   2.569  10.912  0.0454  0.8995  3.6747
  333MPD2    H3 5003   2.228   2.474  11.076  0.2517 -0.4624 -0.4754
  333MPD2     N 5004   2.448   2.070  11.061 -0.4400  0.0225  0.2156
  333MPD2    H5 5005   2.527   2.030  11.011  0.6541  1.7314  0.6022
  333MPD2    N1 5006   2.544   2.449  10.761 -0.0663 -0.6167  0.0329
  333MPD2    H7 5007   2.504   2.540  10.741 -0.4982 -0.4950  1.4391
  334TMC3    C1 5008   2.688   2.492  10.577 -0.7415 -0.5178  0.3607
  334TMC3    C2 5009   2.746   2.447  10.463 -0.0576 -0.5367 -0.2228
  334TMC3    C3 5010   2.803   2.533  10.376 -0.0284 -0.1463 -0.5987
  334TMC3    C4 5011   2.692   2.624  10.602  0.4821  0.4088 -0.0858
  334TMC3    C5 5012   2.750   2.706  10.514  0.0497 -0.0904 -0.6122
  334TMC3    C6 5013   2.805   2.668  10.399 -0.5465  0.6006  0.2038
  334TMC3     C 5014   2.640   2.398  10.675  0.1643  0.3599 -0.7400
  334TMC3     O 5015   2.682   2.284  10.667 -0.5167 -0.2614  0.5713
  334TMC3     H 5016   2.758   2.340  10.447  1.4965 -0.4932  0.6515
  334TMC3    H1 5017   2.642   2.661  10.691  0.3369 -0.0914  0.0432
  334TMC3    H2 5018   2.840   2.742  10.327  2.4067  0.7306  1.7646
  334TMC3    C7 5019   2.737   2.850  10.539 -0.2424 -0.2798 -0.5482
  334TMC3    C8 5020   2.906   2.456  10.311 -0.6563  0.2297  0.0331
  334TMC3    O1 5021   2.689   2.879  10.647 -0.2923 -0.5771 -0.3188
  334TMC3    O2 5022   2.877   2.365  10.233 -0.4750  0.1308 -0.3793
  335TMC3    C1 5023   2.309   3.657  17.553  0.4403  0.0064 -0.5856
  335TMC3    C2 5024   2.207   3.688  17.466 -0.5335  0.3563  0.5957
  335TMC3    C3 5025   2.243   3.707  17.334 -0.0944 -0.0843  0.1386
  335TMC3    C4 5026   2.439   3.652  17.519 -0.6671 -0.0156  0.3833
  335TMC3    C5 5027   2.472   3.666  17.385  0.8039  0.4750 -0.6030
  335TMC3    C6 5028   2.372   3.680  17.287  0.8197  0.0407 -0.1786
  335TMC3     C 5029   2.270   3.631  17.692  0.8403 -0.2282  0.0684
  335TMC3     O 5030   2.166   3.683   0.030  0.1964  0.1578  0.2341
  335TMC3     H 5031   2.102   3.696  17.492 -0.6762 -1.6584  0.6683
  335TMC3    H1 5032   2.516   3.620  17.588 -0.9895 -0.9281  0.3308
  335TMC3    H2 5033   2.394   3.690  17.182 -2.1552  0.1455 -0.8044
  335TMC3    C7 5034   2.609   3.676  17.354 -0.5476  0.1869  0.3472
  335TMC3    C8 5035   2.144   3.679  17.230 -0.3217 -0.3167  0.0625
  335TMC3    O1 5036   2.647   3.597  17.264  0.0234  0.3900  0.0477
  335TMC3    O2 5037   2.162   3.714  17.113  0.2917 -0.4097  0.8996
  336MPD2     C 5038   1.770   1.588  15.840 -0.0481 -0.1603  0.4991
  336MPD2    C1 5039   1.692   1.495  15.770  0.1918 -0.4224  0.3189
  336MPD2    C2 5040   1.692   1.366  15.817 -0.7146  0.2463 -0.0674
  336MPD2    C3 5041   1.744   1.335  15.948 -0.7699  0.2752  0.5093
  336MPD2    C4 5042   1.828   1.426  16.012 -0.5705 -0.3256  0.2848
  336MPD2    C5 5043   1.839   1.556  15.955 -0.8560 -0.5965  0.4799
  336MPD2     H 5044   1.630   1.291  15.770  1.4740 -0.2951 -2.0739
  336MPD2    H1 5045   1.871   1.404  16.109  0.4995 -1.6193 -0.4790
  336MPD2    H2 5046   1.771   1.691  15.806  1.6675 -1.0281 -2.0343
  336MPD2    H3 5047   1.900   1.628  16.009 -0.6453 -0.0336 -0.5034
  336MPD2     N 5048   1.718   1.217  16.020  1.0070  0.5577  0.1904
  336MPD2    H5 5049   1.760   1.215  16.112  0.5952  3.0569  0.4432
  336MPD2    N1 5050   1.615   1.526  15.656 -0.3255 -0.4637 -0.4761
  336MPD2    H7 5051   1.546   1.457  15.627 -0.1051 -1.5481  1.6254
  337TMC3    C1 5052   1.516   1.642  15.479 -0.2535 -0.2882 -0.6632
  337TMC3    C2 5053   1.392   1.600  15.513 -0.3756 -0.2662  0.6815
  337TMC3    C3 5054   1.288   1.664  15.448 -0.7473 -0.0822 -0.8934
  337TMC3    C4 5055   1.540   1.736  15.388  0.6453 -0.2288  0.3329
  337TMC3    C5 5056   1.437   1.800  15.338 -0.2752 -0.4658  0.3004
  337TMC3    C6 5057   1.305   1.772  15.366 -0.4194 -0.3217 -0.2313
  337TMC3     C 5058   1.619   1.639  15.586 -0.0810 -0.5909  0.1626
  337TMC3     O 5059   1.694   1.736  15.594  0.8606  0.3961 -0.1762
  337TMC3     H 5060   1.373   1.519  15.582 -2.1659 -1.8145 -1.5962
  337TMC3    H1 5061   1.636   1.785  15.379  1.3886 -1.6145  0.6292
  337TMC3    H2 5062   1.220   1.837  15.344  0.0119  1.1983  2.6730
  337TMC3    C7 5063   1.450   1.913  15.243 -0.4442 -0.1922  0.2772
  337TMC3    C8 5064   1.148   1.626  15.473 -0.1604 -0.6313 -1.0853
  337TMC3    O1 5065   1.353   1.988  15.243 -0.1103 -0.2896 -0.1503
  337TMC3    O2 5066   1.123   1.578  15.583 -0.2136  0.0142  0.5301
  338MPD2     C 5067   1.621   0.676   0.813 -0.7874 -0.0191 -0.1633
  338MPD2    C1 5068   1.573   0.715   0.693  0.2552  0.6866  0.1055
  338MPD2    C2 5069   1.467   0.800   0.705 -0.6413  0.1773 -0.6186
  338MPD2    C3 5070   1.420   0.849   0.827 -0.1140  0.1499 -0.2516
  338MPD2    C4 5071   1.477   0.814   0.945 -0.4518  0.0650 -0.4723
  338MPD2    C5 5072   1.587   0.730   0.931 -0.0263  0.5557 -0.3943
  338MPD2     H 5073   1.406   0.827   0.620 -0.4041 -1.3129 -1.2526
  338MPD2    H1 5074   1.458   0.854   1.044 -0.4649  0.4799 -0.6424
  338MPD2    H2 5075   1.711   0.616   0.810 -0.9192 -0.1835 -0.8996
  338MPD2    H3 5076   1.634   0.701   1.024 -1.0805 -0.6719 -0.2433
  338MPD2     N 5077   1.324   0.945   0.807 -0.1120  0.3846  0.0655
  338MPD2    H5 5078   1.283   0.954   0.715  1.3416 -1.2543 -0.7395
  338MPD2    N1 5079   1.604   0.655   0.572 -0.0225 -0.1120 -0.1484
  338MPD2    H7 5080   1.530   0.653   0.502  0.2734 -1.4001 -0.4414
  339TMC3    C1 5081   1.152   1.079   0.864  0.0426  0.2804  0.3937
  339TMC3    C2 5082   1.057   1.040   0.951  0.0184  0.7101  0.9480
  339TMC3    C3 5083   0.937   0.989   0.898  0.6032 -0.6878 -0.2565
  339TMC3    C4 5084   1.138   1.062   0.726  0.2273  0.2148 -0.3295
  339TMC3    C5 5085   1.017   1.005   0.677  0.4307  0.2304 -0.1451
  339TMC3    C6 5086   0.912   0.970   0.761  0.2723 -0.5026  0.1192
  339TMC3     C 5087   1.274   1.027   0.906 -0.5294  0.1731  0.0312
  339TMC3     O 5088   1.298   1.036   1.027  0.2852 -0.3228 -0.0909
  339TMC3     H 5089   1.075   1.056   1.057 -0.1556 -0.0976  1.0964
  339TMC3    H1 5090   1.210   1.103   0.656  0.4185  1.4011  0.5662
  339TMC3    H2 5091   0.820   0.927   0.723 -0.2568  0.8480 -0.1273
  339TMC3    C7 5092   1.035   0.961   0.541 -0.0587  0.6113  0.2007
  339TMC3    C8 5093   0.838   0.943   0.991 -0.1582  0.1373  0.3756
  339TMC3    O1 5094   1.149   0.930   0.515  0.4219 -0.5074  0.5613
  339TMC3    O2 5095   0.719   0.952   0.953  0.5626 -0.2467 -0.4126
  340MPD2     C 5096   2.400   3.564   9.961  0.2012 -0.3578  0.4659
  340MPD2    C1 5097   2.492   3.548   9.858 -0.4154  0.1979  0.2539
  340MPD2    C2 5098   2.590   3.645   9.849  0.0178 -0.6068 -0.5275
  340MPD2    C3 5099   2.609   3.752   9.941  0.7400  0.6534 -0.3838
  340MPD2    C4 5100   2.510   3.764  10.035  0.7509 -0.4936  0.7426
  340MPD2    C5 5101   2.407   3.673  10.041  0.0883  0.6804  0.0475
  340MPD2     H 5102   2.653   3.639   9.761  1.3050 -3.2243  0.5607
  340MPD2    H1 5103   2.519   3.842  10.109 -1.1338  0.3723  0.0701
  340MPD2    H2 5104   2.326   3.487   9.983 -0.7639  0.2695 -0.5892
  340MPD2    H3 5105   2.342   3.678  10.127 -0.5887  0.8747 -0.4772
  340MPD2     N 5106   2.713   3.851   9.931  0.1035  0.6429  0.5709
  340MPD2    H5 5107   2.708   3.930   9.995 -0.9674  1.2227 -0.2320
  340MPD2    N1 5108   2.486   3.426   9.783 -0.0457 -0.0085  0.7208
  340MPD2    H7 5109   2.409   3.364   9.806  0.9370 -1.2047  0.7579
  341TMC3    C1 5110   2.557   3.252   9.657  0.3901  1.0624  0.0713
  341TMC3    C2 5111   2.508   3.172   9.754  0.2329 -0.3076 -0.0725
  341TMC3    C3 5112   2.534   3.037   9.741  0.0998 -0.0585  0.1803
  341TMC3    C4 5113   2.630   3.204   9.550  0.2713 -0.7810  0.5150
  341TMC3    C5 5114   2.642   3.067   9.528  0.1771  0.4917 -0.3238
  341TMC3    C6 5115   2.601   2.980   9.633 -0.2781 -0.1356  0.7171
  341TMC3     C 5116   2.581   3.389   9.695 -0.1276 -0.8354 -0.1811
  341TMC3     O 5117   2.667   3.453   9.635 -0.4805  0.2683  0.0699
  341TMC3     H 5118   2.471   3.202   9.851  1.7560 -0.3925  0.5501
  341TMC3    H1 5119   2.674   3.274   9.480  0.0874 -0.3643  0.8211
  341TMC3    H2 5120   2.607   2.874   9.611 -0.9758  0.1581 -0.8850
  341TMC3    C7 5121   2.736   3.021   9.433  0.0437  0.2485 -0.5606
  341TMC3    C8 5122   2.455   2.953   9.828  0.2355  0.1127  0.0413
  341TMC3    O1 5123   2.791   2.917   9.461  0.0219 -0.0321 -0.1502
  341TMC3    O2 5124   2.363   3.012   9.877 -0.2870 -0.2802  0.0356
  342MPD2     C 5125   4.455   1.969   0.043 -0.1226 -0.7011 -0.7500
  342MPD2    C1 5126   4.524   1.934  17.627  0.0797 -0.0940 -1.0688
  342MPD2    C2 5127   4.558   2.034  17.537  0.5683 -0.6796 -0.1358
  342MPD2    C3 5128   4.539   2.169  17.569 -0.1941  0.2814  0.0570
  342MPD2    C4 5129   4.470   2.203  17.681 -0.5797  0.4126  0.3074
  342MPD2    C5 5130   4.425   2.102   0.070  0.9942 -0.3189 -0.5634
  342MPD2     H 5131   4.597   2.013  17.438 -1.2014 -0.7362 -0.8221
  342MPD2    H1 5132   4.450   2.308   0.003 -0.1293  0.6303 -0.3878
  342MPD2    H2 5133   4.432   1.913   0.133  3.3238  0.2476  0.7432
  342MPD2    H3 5134   4.379   2.129   0.164  1.7257  2.6101 -1.0370
  342MPD2     N 5135   4.587   2.275  17.486  0.1739 -0.3846  0.9929
  342MPD2    H5 5136   4.562   2.365  17.524 -0.0825  0.4492 -1.1797
  342MPD2    N1 5137   4.562   1.804  17.595 -0.3142  0.5272  0.3678
  342MPD2    H7 5138   4.619   1.795  17.511 -2.1530 -0.3237 -0.7904
  343TMC3    C1 5139   4.585   1.571  17.600 -0.0889 -0.3845  0.2034
  343TMC3    C2 5140   4.704   1.580  17.530 -0.2570 -0.0059 -0.0979
  343TMC3    C3 5141   0.044   1.465  17.519  0.1178 -0.4596 -0.0983
  343TMC3    C4 5142   4.523   1.458  17.638 -0.3210  0.4998  0.3409
  343TMC3    C5 5143   4.587   1.343  17.603  0.6427 -0.3677 -0.1870
  343TMC3    C6 5144   4.716   1.347  17.557 -0.9729 -0.6409  0.7410
  343TMC3     C 5145   4.529   1.689  17.660 -0.0354 -0.3995 -0.5303
  343TMC3     O 5146   4.443   1.670   0.047  0.0752  0.4278 -0.0373
  343TMC3     H 5147   0.036   1.671  17.510 -0.8207  0.3293 -0.1758
  343TMC3    H1 5148   4.423   1.453  17.679 -0.8693 -1.4745 -1.1789
  343TMC3    H2 5149   0.054   1.259  17.572 -0.7235 -0.3887  1.1664
  343TMC3    C7 5150   4.549   1.212  17.645 -0.0463 -0.7166 -0.0784
  343TMC3    C8 5151   0.188   1.480  17.505  0.0824  0.6261  0.1048
  343TMC3    O1 5152   4.593   1.118  17.578 -0.2513 -0.0562 -0.0820
  343TMC3    O2 5153   0.240   1.591  17.538  0.7474  0.5327  0.5801
  344MPD2     C 5154   1.402   1.519  10.266  0.0750 -0.3497 -0.0074
  344MPD2    C1 5155   1.277   1.574  10.235 -0.1142 -0.1929 -0.1394
  344MPD2    C2 5156   1.254   1.700  10.177 -0.6424  0.1804 -0.1892
  344MPD2    C3 5157   1.369   1.768  10.137 -0.1279 -0.2641 -0.7093
  344MPD2    C4 5158   1.491   1.727  10.176 -0.2597  0.2321 -0.0098
  344MPD2    C5 5159   1.507   1.600  10.236  0.0534 -0.3910 -0.4318
  344MPD2     H 5160   1.152   1.730  10.154  0.0313  0.5795 -2.6011
  344MPD2    H1 5161   1.578   1.791  10.165 -1.6363  1.9573 -0.8030
  344MPD2    H2 5162   1.418   1.417  10.299 -0.3835 -0.2777  0.4333
  344MPD2    H3 5163   1.608   1.563  10.252 -0.0523  0.9024  3.3251
  344MPD2     N 5164   1.378   1.892  10.071 -0.2496  0.4443 -0.0113
  344MPD2    H5 5165   1.473   1.924  10.056  0.8031 -2.0567  1.2305
  344MPD2    N1 5166   1.166   1.491  10.252  0.4832 -0.6422 -0.1764
  344MPD2    H7 5167   1.076   1.526  10.221  1.3420  2.8683  1.2936
  345TMC3    C1 5168   1.308   2.109  10.010  0.1513 -1.0284  0.8072
  345TMC3    C2 5169   1.386   2.151  10.116  0.8094 -0.6148 -0.1053
  345TMC3    C3 5170   1.354   2.261  10.194 -0.1132  0.4124  0.4459
  345TMC3    C4 5171   1.200   2.187   9.970 -0.4031 -0.8635  0.4876
  345TMC3    C5 5172   1.170   2.294  10.046 -0.2985  0.2791 -0.3315
  345TMC3    C6 5173   1.234   2.322  10.169  0.2721  0.1222  0.0532
  345TMC3     C 5174   1.274   1.964  10.021  0.6764 -0.5641 -0.6557
  345TMC3     O 5175   1.153   1.961  10.029 -0.0501  0.3552  0.1544
  345TMC3     H 5176   1.471   2.097  10.157  2.3025  0.4050 -1.8032
  345TMC3    H1 5177   1.151   2.171   9.875  0.0441 -2.0990  0.4601
  345TMC3    H2 5178   1.208   2.410  10.227 -0.3447 -0.2348  0.3252
  345TMC3    C7 5179   1.154   2.425   9.982 -0.1899 -0.1557  0.2217
  345TMC3    C8 5180   1.460   2.356  10.221  0.8158 -0.6699  0.6059
  345TMC3    O1 5181   1.243   2.511   9.999 -0.2509 -0.0678 -0.5769
  345TMC3    O2 5182   1.436   2.476  10.216  0.0670  0.0455  0.3608
  346MPD2     C 5183   0.860   3.438  14.472  0.1462 -0.4558  0.1032
  346MPD2    C1 5184   0.961   3.384  14.406  0.0169 -0.1797 -0.5108
  346MPD2    C2 5185   1.092   3.404  14.459  0.0178  0.7043  0.3872
  346MPD2    C3 5186   1.113   3.459  14.578 -0.0083  0.3394  0.4135
  346MPD2    C4 5187   1.007   3.497  14.651  0.3309  0.5047 -0.5695
  346MPD2    C5 5188   0.882   3.485  14.601 -0.3584 -0.6771 -0.1829
  346MPD2     H 5189   1.173   3.377  14.392 -0.2922  0.4902  0.1005
  346MPD2    H1 5190   1.021   3.537  14.751 -1.9069  0.5922 -0.2788
  346MPD2    H2 5191   0.765   3.456  14.421  0.7311  2.2306 -0.0239
  346MPD2    H3 5192   0.803   3.533  14.657 -0.3293 -1.2098  0.3186
  346MPD2     N 5193   1.245   3.491  14.621  0.2773  0.3663  0.3379
  346MPD2    H5 5194   1.322   3.465  14.561 -2.3775  2.1910 -3.9006
  346MPD2    N1 5195   0.948   3.324  14.275  0.1588 -0.1768  0.0582
  346MPD2    H7 5196   1.038   3.322  14.227  0.4483 -2.2271  0.6921
  347TMC3    C1 5197   1.410   3.615  14.740 -0.0193  0.0263 -0.2844
  347TMC3    C2 5198   1.486   3.603  14.626  0.4153  0.1879  0.2554
  347TMC3    C3 5199   1.600   3.677  14.617  0.6634 -0.0581 -0.4746
  347TMC3    C4 5200   1.443   3.698  14.835  0.4316  0.1852  0.2302
  347TMC3    C5 5201   1.559   3.761  14.827  0.6636 -0.1248 -0.2064
  347TMC3    C6 5202   1.631   3.759  14.716 -0.1436 -0.7518 -0.0172
  347TMC3     C 5203   1.274   3.562  14.740 -0.1671  0.2518  0.3798
  347TMC3     O 5204   1.197   3.624  14.812 -0.3037  0.1801 -0.1058
  347TMC3     H 5205   1.468   3.540  14.539  0.7777 -1.6045  1.4776
  347TMC3    H1 5206   1.375   3.713  14.918 -0.5534 -0.3859 -0.4659
  347TMC3    H2 5207   1.735   3.782  14.734 -1.0841  1.9126  1.8759
  347TMC3    C7 5208   1.629   3.807  14.951  0.3893  0.2431 -0.3286
  347TMC3    C8 5209   1.712   3.603  14.561 -0.1393  0.9079  0.3993
  347TMC3    O1 5210   1.727   3.885  14.928  0.4345  0.3804  0.3873
  347TMC3    O2 5211   1.691   3.491  14.506  0.5476 -0.0410 -0.4447
  348MPD2     C 5212   4.402   2.462  11.987 -0.0262  0.2791 -0.2466
  348MPD2    C1 5213   4.506   2.551  11.974  0.3469  0.4518  0.1643
  348MPD2    C2 5214   4.490   2.659  11.892  0.0547 -0.0675 -0.4042
  348MPD2    C3 5215   4.371   2.683  11.825 -0.2727  0.1922  0.2192
  348MPD2    C4 5216   4.270   2.591  11.837 -0.1280 -0.1041  0.3872
  348MPD2    C5 5217   4.284   2.480  11.921  0.2211  0.1085 -0.1910
  348MPD2     H 5218   4.574   2.724  11.869  1.0976 -0.3762  2.4634
  348MPD2    H1 5219   4.173   2.606  11.792 -0.4367 -0.7427  0.8551
  348MPD2    H2 5220   4.407   2.369  12.043 -1.8841 -1.3207 -2.6690
  348MPD2    H3 5221   4.202   2.408  11.921  0.7501 -0.4962  1.7055
  348MPD2     N 5222   4.366   2.794  11.738  0.5905 -0.8920 -0.2800
  348MPD2    H5 5223   4.439   2.863  11.749  0.9276 -1.4647  1.0997
  348MPD2    N1 5224   4.631   2.543  12.038  0.1760  0.2627  0.1755
  348MPD2    H7 5225   4.691   2.624  12.028  1.9963 -0.9576  1.1299
  349TMC3    C1 5226   0.093   2.424  12.130  0.2905 -0.2945 -0.1167
  349TMC3    C2 5227   0.145   2.302  12.157  0.1446  0.0441  1.2302
  349TMC3    C3 5228   0.253   2.272  12.081 -0.6538  0.3596  0.1234
  349TMC3    C4 5229   0.159   2.523  12.055  0.3757 -0.4225 -0.6437
  349TMC3    C5 5230   0.266   2.486  11.986  0.6540 -0.4516  0.6855
  349TMC3    C6 5231   0.312   2.360  11.995 -0.5204  0.6596 -0.7903
  349TMC3     C 5232   4.671   2.430  12.107  0.4830 -0.1535 -0.7930
  349TMC3     O 5233   4.605   2.339  12.156  0.8239  0.6106 -0.2817
  349TMC3     H 5234   0.091   2.226  12.211  0.6935 -1.9376 -1.0089
  349TMC3    H1 5235   0.123   2.625  12.049  0.1256 -0.6331 -2.6798
  349TMC3    H2 5236   0.394   2.332  11.929  0.1512  1.0221 -0.1011
  349TMC3    C7 5237   0.284   2.557  11.853  0.7189 -0.5807  0.0010
  349TMC3    C8 5238   0.323   2.150  12.122  0.0547  0.3141 -0.1423
  349TMC3    O1 5239   0.275   2.476  11.755  0.4669 -0.1553  0.0663
  349TMC3    O2 5240   0.268   2.085  12.211  1.0050  0.0429 -0.9606
  350MPD2     C 5241   3.119   0.737   9.660  0.5822 -0.2549  0.5236
  350MPD2    C1 5242   3.255   0.741   9.671  0.4406 -0.3550  1.2459
  350MPD2    C2 5243   3.314   0.757   9.793 -0.4193  0.2855 -0.6580
  350MPD2    C3 5244   3.241   0.769   9.913  1.2270  0.4461  0.7896
  350MPD2    C4 5245   3.105   0.773   9.902 -0.3397 -0.1428 -0.3921
  350MPD2    C5 5246   3.048   0.761   9.778 -0.0330  0.6129  0.7211
  350MPD2     H 5247   3.422   0.760   9.789 -0.4248  1.9040  0.4634
  350MPD2    H1 5248   3.047   0.802   9.989 -2.5789 -1.9051 -1.2872
  350MPD2    H2 5249   3.071   0.725   9.564  1.3910 -0.4999  0.1525
  350MPD2    H3 5250   2.941   0.776   9.780 -0.1071  0.0760  0.9237
  350MPD2     N 5251   3.301   0.792  10.040  0.2006  0.2727  0.1925
  350MPD2    H5 5252   3.239   0.799  10.120  0.4868  3.0376  0.1857
  350MPD2    N1 5253   3.332   0.717   9.554 -0.2058 -0.1998 -0.0554
  350MPD2    H7 5254   3.432   0.700   9.559 -0.2152 -0.4582 -0.6634
  351TMC3    C1 5255   3.417   0.649   9.353  0.2154 -0.7918 -0.0347
  351TMC3    C2 5256   3.515   0.569   9.414 -0.3541 -0.0616 -0.2627
  351TMC3    C3 5257   3.630   0.556   9.339 -1.0186  0.3445  0.3451
  351TMC3    C4 5258   3.433   0.719   9.233 -0.3002 -0.4313 -0.0433
  351TMC3    C5 5259   3.546   0.697   9.170  0.4294  0.0935 -0.5258
  351TMC3    C6 5260   3.644   0.611   9.215  0.5192  0.2081 -0.4541
  351TMC3     C 5261   3.299   0.692   9.422 -0.2770 -0.2085  0.0066
  351TMC3     O 5262   3.193   0.723   9.369 -0.3138  0.3331  0.4397
  351TMC3     H 5263   3.489   0.514   9.503  0.3525  0.4268  0.2390
  351TMC3    H1 5264   3.353   0.776   9.186 -0.0042 -0.4537 -0.5720
  351TMC3    H2 5265   3.741   0.625   9.169  0.6007 -0.0301 -0.3544
  351TMC3    C7 5266   3.574   0.775   9.055 -0.8402  0.0215 -0.1239
  351TMC3    C8 5267   3.723   0.452   9.366  0.0924 -0.0818  0.2757
  351TMC3    O1 5268   3.686   0.805   9.024 -0.4252  0.1457  0.2575
  351TMC3    O2 5269   3.778   0.407   9.270 -0.3635  0.5292 -0.2754
  352MPD2     C 5270   1.965   3.049   1.379 -0.1973 -0.4282  0.2687
  352MPD2    C1 5271   1.842   2.990   1.347 -0.2393 -0.6761  0.5046
  352MPD2    C2 5272   1.812   2.865   1.400  0.4826 -0.3760  0.0283
  352MPD2    C3 5273   1.905   2.789   1.465 -0.4150  1.1266  0.6953
  352MPD2    C4 5274   2.023   2.842   1.500  0.5382 -0.4179 -0.3933
  352MPD2    C5 5275   2.049   2.974   1.461 -0.6104  0.3371 -0.8648
  352MPD2     H 5276   1.716   2.825   1.371  0.7871  0.0595 -1.5785
  352MPD2    H1 5277   2.102   2.780   1.541 -0.7375 -1.6525  0.1915
  352MPD2    H2 5278   1.996   3.149   1.349 -1.9340 -0.3647 -1.3199
  352MPD2    H3 5279   2.143   3.018   1.493 -1.7666  0.6680  2.1620
  352MPD2     N 5280   1.886   2.650   1.484 -0.1294  0.4682 -0.1605
  352MPD2    H5 5281   1.962   2.607   1.537 -0.1386  0.0046 -0.5221
  352MPD2    N1 5282   1.751   3.063   1.263  0.5722 -0.4403 -0.4954
  352MPD2    H7 5283   1.781   3.154   1.229 -0.4416  0.7617  1.8857
  353TMC3    C1 5284   1.801   2.429   1.443  0.0241  0.2557  0.2513
  353TMC3    C2 5285   1.926   2.374   1.458  0.1707  0.0915  1.5274
  353TMC3    C3 5286   1.939   2.240   1.430 -0.2369  0.2691  0.1207
  353TMC3    C4 5287   1.696   2.350   1.418 -0.2082  0.2822 -0.3754
  353TMC3    C5 5288   1.713   2.214   1.417  0.3390  1.1853 -0.0069
  353TMC3    C6 5289   1.832   2.153   1.404  0.0842 -0.2615  0.1989
  353TMC3     C 5290   1.780   2.577   1.437 -0.4976  0.4003  0.3558
  353TMC3     O 5291   1.672   2.608   1.396 -0.1545 -0.1181  0.5555
  353TMC3     H 5292   2.018   2.430   1.477  0.5901  0.2045 -0.8354
  353TMC3    H1 5293   1.599   2.396   1.407  0.2429  0.7571 -2.3269
  353TMC3    H2 5294   1.839   2.045   1.393  2.5354 -0.1314  0.3834
  353TMC3    C7 5295   1.605   2.126   1.376  0.3368 -0.4254  0.5558
  353TMC3    C8 5296   2.065   2.181   1.465 -0.2398  1.1248 -0.0551
  353TMC3    O1 5297   1.617   2.007   1.357 -0.0908  0.7141 -0.0828
  353TMC3    O2 5298   2.156   2.253   1.499  0.9540  0.4553  0.0502
  354TMC3    C1 5299   3.490   4.457  13.091 -0.3807  0.1949  0.0365
  354TMC3    C2 5300   3.565   4.573  13.084  0.9654 -0.0674  0.3463
  354TMC3    C3 5301   3.656   4.580  12.973  0.0299  0.1155 -0.1223
  354TMC3    C4 5302   3.496   4.354  13.001  0.3025 -0.1809 -0.0562
  354TMC3    C5 5303   3.604   4.362  12.910  0.0785 -0.2855 -0.2256
  354TMC3    C6 5304   3.687   4.472  12.897 -1.2129  0.2081 -0.2263
  354TMC3     C 5305   3.404   4.447  13.212 -0.0754 -0.0315  0.4621
  354TMC3     O 5306   3.367   4.545  13.278  0.0967 -0.0085  0.0293
  354TMC3     H 5307   3.547   4.648  13.159  0.4631 -0.9829  1.1454
  354TMC3    H1 5308   3.427   4.270  13.005  1.4989 -1.0819  1.2075
  354TMC3    H2 5309   3.758   4.478  12.815 -1.6187  0.7881 -0.5428
  354TMC3    C7 5310   3.626   4.242  12.835  0.2822 -0.2326  0.1830
  354TMC3    C8 5311   3.707   4.704  12.928 -0.2578  1.2032  0.0234
  354TMC3    O1 5312   3.535   4.167  12.812  0.2890 -0.0544  0.4746
  354TMC3    O2 5313   3.800   4.708  12.846  0.4711 -0.2449  0.0284
  355MPD2     C 5314   3.541   0.393  11.303 -0.0401  0.4590 -0.2267
  355MPD2    C1 5315   3.606   0.428  11.187 -0.1196  0.7394 -0.9435
  355MPD2    C2 5316   3.741   0.440  11.185 -0.2965  0.5210 -0.2296
  355MPD2    C3 5317   3.816   0.430  11.302  0.3710 -0.1851  0.2368
  355MPD2    C4 5318   3.745   0.404  11.414 -0.4448 -0.8177  0.1549
  355MPD2    C5 5319   3.611   0.379  11.416 -0.7260 -0.3838 -0.0839
  355MPD2     H 5320   3.786   0.447  11.086  1.3600  1.3451  0.5870
  355MPD2    H1 5321   3.792   0.379  11.509 -1.6642 -2.3988  0.3449
  355MPD2    H2 5322   3.434   0.379  11.304  0.1923 -1.4045 -0.4382
  355MPD2    H3 5323   3.569   0.357  11.514  0.2772  0.5596  0.5609
  355MPD2     N 5324   3.955   0.438  11.304  0.5399  0.2170 -0.1482
  355MPD2    H5 5325   4.007   0.410  11.387 -1.2773 -1.0728  0.5750
  355MPD2    N1 5326   3.525   0.455  11.077 -0.3139  0.9424  0.1931
  355MPD2    H7 5327   3.431   0.420  11.093  1.1341 -1.1285  4.3877
  356TMC3    C1 5328   4.143   0.553  11.236 -0.6531  0.0151  0.6012
  356TMC3    C2 5329   4.236   0.586  11.134  0.0486 -0.4569  0.1094
  356TMC3    C3 5330   4.342   0.671  11.160 -0.8811  0.5482  0.3019
  356TMC3    C4 5331   4.175   0.598  11.361  0.7797  0.4329  0.4347
  356TMC3    C5 5332   4.283   0.682  11.386 -0.2619 -0.3897  0.0299
  356TMC3    C6 5333   4.367   0.717  11.281 -0.1339 -0.3681  0.8610
  356TMC3     C 5334   4.018   0.498  11.206  0.5862 -0.0626 -0.0833
  356TMC3     O 5335   3.993   0.522  11.087 -0.0659  0.2500  0.2055
  356TMC3     H 5336   4.218   0.540  11.038 -0.1061 -1.3466  0.5677
  356TMC3    H1 5337   4.110   0.575  11.445 -1.2701  2.4647 -0.6211
  356TMC3    H2 5338   4.423   0.808  11.295  0.0148 -0.5707  1.5731
  356TMC3    C7 5339   4.291   0.736  11.515  0.2852 -0.4476  0.0530
  356TMC3    C8 5340   4.425   0.707  11.043 -0.1256  0.1877  0.1454
  356TMC3    O1 5341   4.204   0.709  11.598  0.3448 -0.0076  0.2862
  356TMC3    O2 5342   4.372   0.684  10.936 -0.3744  0.0520 -0.3104
  357MPD2     C 5343   2.829   4.362   0.673 -0.2418  1.0791  0.5395
  357MPD2    C1 5344   2.908   4.253   0.679  0.4519  0.3888 -0.1371
  357MPD2    C2 5345   2.865   4.137   0.739  0.0658  0.1218  0.8063
  357MPD2    C3 5346   2.749   4.140   0.806  0.0028  0.1853 -0.0993
  357MPD2    C4 5347   2.669   4.254   0.804 -0.3291  0.0836  0.3096
  357MPD2    C5 5348   2.709   4.360   0.733  0.6777  0.2865  0.1674
  357MPD2     H 5349   2.919   4.043   0.732  0.9735  0.8173 -1.6049
  357MPD2    H1 5350   2.575   4.259   0.859  0.4912 -2.2822  1.9052
  357MPD2    H2 5351   2.847   4.450   0.612 -0.3566  0.4823 -0.3503
  357MPD2    H3 5352   2.647   4.449   0.739 -2.3767 -1.7543 -1.0886
  357MPD2     N 5353   2.701   4.022   0.873 -0.0117 -0.0026 -0.3853
  357MPD2    H5 5354   2.621   4.038   0.934 -0.2797 -3.7735  0.2585
  357MPD2    N1 5355   3.035   4.244   0.628  0.4651  0.3503 -0.0652
  357MPD2    H7 5356   3.084   4.155   0.626  1.4182  0.9110 -0.9038
  358TMC3    C1 5357   3.237   4.304   0.550 -0.2495 -0.0702 -0.1875
  358TMC3    C2 5358   3.240   4.197   0.470  0.0285 -0.0522 -0.0172
  358TMC3    C3 5359   3.352   4.111   0.501 -0.2467  0.5280  0.0750
  358TMC3    C4 5360   3.327   4.325   0.656 -0.8206 -0.5922 -0.3232
  358TMC3    C5 5361   3.406   4.223   0.695  0.2972 -0.4759  0.1058
  358TMC3    C6 5362   3.427   4.111   0.614  0.4514  0.0401  0.4824
  358TMC3     C 5363   3.109   4.349   0.583 -0.0128 -0.2892  0.0743
  358TMC3     O 5364   3.088   4.470   0.603  0.0321  0.3681  0.8001
  358TMC3     H 5365   3.187   4.190   0.375  1.4191 -2.3724 -0.6276
  358TMC3    H1 5366   3.320   4.417   0.712  0.5846 -0.9861  0.5048
  358TMC3    H2 5367   3.521   4.058   0.626  1.0550  0.8086 -0.8348
  358TMC3    C7 5368   3.506   4.247   0.799  0.1586 -0.0081  1.1476
  358TMC3    C8 5369   3.385   4.009   0.393 -0.5079  0.0590 -0.6970
  358TMC3    O1 5370   3.625   4.211   0.779  0.3672  0.1229  0.4232
  358TMC3    O2 5371   3.348   4.043   0.280  0.5884  0.0600 -0.2083
  359MPD2     C 5372   4.534   3.123  12.500  0.2927  0.3697  0.0343
  359MPD2    C1 5373   4.431   3.188  12.426 -0.1089 -0.1815 -0.1739
  359MPD2    C2 5374   4.308   3.186  12.476 -0.2238 -0.5590 -0.4959
  359MPD2    C3 5375   4.270   3.136  12.605 -0.4752 -0.3940  0.4710
  359MPD2    C4 5376   4.371   3.072  12.672  0.1694 -0.5503 -0.2332
  359MPD2    C5 5377   4.497   3.068  12.621 -0.1232  0.0273  0.2892
  359MPD2     H 5378   4.235   3.247  12.424  1.4557  1.3802 -0.5841
  359MPD2    H1 5379   4.355   3.030  12.771 -1.1189  2.3252  0.7567
  359MPD2    H2 5380   4.639   3.123  12.472  0.4358 -1.2952  0.6033
  359MPD2    H3 5381   4.569   3.015  12.683  0.7694  1.5625  0.5640
  359MPD2     N 5382   4.135   3.132  12.656 -0.1982 -0.1496 -0.4035
  359MPD2    H5 5383   4.126   3.102  12.753  2.2103 -2.8514 -1.0297
  359MPD2    N1 5384   4.439   3.266  12.308 -0.7484  0.3742  0.1920
  359MPD2    H7 5385   4.350   3.307  12.282 -0.4354  1.6171  1.0624
  360TMC3    C1 5386   4.525   3.402  12.140  0.2732  0.0688  0.3441
  360TMC3    C2 5387   4.616   3.503  12.111  0.3998  0.5692  0.0586
  360TMC3    C3 5388   4.575   3.598  12.014  1.2087 -0.4954  0.6206
  360TMC3    C4 5389   4.400   3.394  12.086 -0.1635 -0.3323  0.4015
  360TMC3    C5 5390   4.368   3.487  11.989  0.6302  0.0071 -0.5593
  360TMC3    C6 5391   4.455   3.589  11.951  0.2059  1.2298  0.0083
  360TMC3     C 5392   4.556   3.306  12.244  0.4450  0.6595 -0.4419
  360TMC3     O 5393   4.674   3.282  12.264  0.5684  0.5352 -0.0778
  360TMC3     H 5394   4.697   3.522  12.181  0.9600  0.0961 -0.4601
  360TMC3    H1 5395   4.348   3.299  12.093  1.1846 -0.9172  2.6031
  360TMC3    H2 5396   4.434   3.661  11.872  1.4097  0.5884 -0.8916
  360TMC3    C7 5397   4.238   3.497  11.933  0.2311 -0.2327  0.8557
  360TMC3    C8 5398   4.658   3.703  11.983  0.0691  0.2840  0.1596
  360TMC3    O1 5399   4.213   3.598  11.868  0.2999 -0.6159 -0.1566
  360TMC3    O2 5400   4.606   3.801  11.933 -0.2842  0.8162 -0.2630
  361MPD2     C 5401   0.656   1.982  16.797  0.3040  0.3037  0.1512
  361MPD2    C1 5402   0.709   2.109  16.813  1.0404  0.7345 -0.2479
  361MPD2    C2 5403   0.845   2.126  16.823  0.4414 -0.2243 -0.1572
  361MPD2    C3 5404   0.930   2.013  16.811  0.0775  0.4406 -0.3578
  361MPD2    C4 5405   0.875   1.891  16.789 -0.0177  0.3212  0.1597
  361MPD2    C5 5406   0.740   1.880  16.785 -0.7943 -0.7306 -0.6662
  361MPD2     H 5407   0.874   2.230  16.831 -1.3775  0.2669  0.0570
  361MPD2    H1 5408   0.935   1.801  16.785 -1.6672 -0.8297  1.2641
  361MPD2    H2 5409   0.549   1.964  16.792 -0.2605  3.3490  1.4225
  361MPD2    H3 5410   0.697   1.781  16.774  1.8498 -1.8966 -0.5053
  361MPD2     N 5411   1.073   2.018  16.799  0.1373  0.1596 -0.4958
  361MPD2    H5 5412   1.116   1.928  16.782 -0.7288 -0.0491 -1.5807
  361MPD2    N1 5413   0.627   2.224  16.827 -0.2135 -0.1672 -0.3697
  361MPD2    H7 5414   0.684   2.308  16.831 -0.3147 -0.1208  0.0989
  362TMC3    C1 5415   0.442   2.380  16.829  0.5359  0.3291 -0.2526
  362TMC3    C2 5416   0.328   2.409  16.889  0.3413  0.2601 -0.2159
  362TMC3    C3 5417   0.251   2.511  16.847 -0.5288  0.1059  0.0397
  362TMC3    C4 5418   0.480   2.457  16.719  0.4767  0.7607  0.2438
  362TMC3    C5 5419   0.398   2.553  16.672 -0.1661 -0.2530 -0.1154
  362TMC3    C6 5420   0.273   2.578  16.729  0.3344  0.7209 -0.1962
  362TMC3     C 5421   0.488   2.235  16.845 -0.2685  0.2095  0.3771
  362TMC3     O 5422   0.415   2.145  16.884 -0.6324 -0.4145  0.4830
  362TMC3     H 5423   0.285   2.348  16.968  2.4141  1.2785  1.7005
  362TMC3    H1 5424   0.575   2.442  16.668  1.1199 -0.6256  1.8568
  362TMC3    H2 5425   0.221   2.665  16.694 -0.0867  1.6787  2.7689
  362TMC3    C7 5426   0.417   2.602  16.540 -0.1627 -0.5618 -0.0751
  362TMC3    C8 5427   0.119   2.534  16.917 -0.1400 -0.6574 -0.1162
  362TMC3    O1 5428   0.532   2.616  16.505  0.2173  0.3190 -0.9376
  362TMC3    O2 5429   0.060   2.442  16.968  0.2903 -0.3550  0.0995
  363TMC3    C1 5430   4.199   0.424   9.157  0.1770  0.4381  0.3586
  363TMC3    C2 5431   4.235   0.345   9.259  0.9488 -0.4548 -0.3381
  363TMC3    C3 5432   4.182   0.378   9.388 -0.3207  0.1203 -0.3087
  363TMC3    C4 5433   4.111   0.527   9.169  0.0729  0.4773  0.4193
  363TMC3    C5 5434   4.064   0.561   9.296  0.2251  0.0714  0.0866
  363TMC3    C6 5435   4.098   0.486   9.406 -1.3560 -0.1723 -0.0158
  363TMC3     C 5436   4.252   0.403   9.025 -0.3421  0.5801  0.1298
  363TMC3     O 5437   4.188   0.459   8.939 -0.3439  0.2763  0.3490
  363TMC3     H 5438   4.292   0.254   9.250  2.0415  0.3506 -1.5802
  363TMC3    H1 5439   4.078   0.589   9.086  2.0493  0.8103 -0.1212
  363TMC3    H2 5440   4.061   0.511   9.504 -1.9151 -1.2790  0.0583
  363TMC3    C7 5441   3.998   0.691   9.318  0.3327  0.2264  0.9350
  363TMC3    C8 5442   4.222   0.306   9.502  0.4570 -0.1921  0.3184
  363TMC3    O1 5443   3.961   0.736   9.209  0.0230  0.1544  0.1435
  363TMC3    O2 5444   4.163   0.337   9.605  0.5074  0.0320 -0.2796
  364MPD2     C 5445   3.100   3.694  10.159 -0.5378  0.3925 -0.2237
  364MPD2    C1 5446   3.020   3.805  10.185 -0.1979 -0.2164  0.1703
  364MPD2    C2 5447   2.954   3.820  10.297 -0.6980  0.2940  0.7802
  364MPD2    C3 5448   2.968   3.721  10.397  0.3023 -0.4307  0.3162
  364MPD2    C4 5449   3.044   3.608  10.372 -0.5930 -0.0663  0.1911
  364MPD2    C5 5450   3.110   3.595  10.254 -0.2890  0.3821 -0.4621
  364MPD2     H 5451   2.912   3.916  10.324 -1.1526  0.1940  0.4337
  364MPD2    H1 5452   3.059   3.526  10.442 -1.3633  0.1854  0.6519
  364MPD2    H2 5453   3.172   3.689  10.079 -0.4121 -0.0743 -0.0836
  364MPD2    H3 5454   3.179   3.515  10.231 -0.2638  0.4567 -0.6408
  364MPD2     N 5455   2.927   3.745  10.532 -0.6914  0.5016  0.3643
  364MPD2    H5 5456   2.953   3.671  10.596  1.4298  1.8620  1.0855
  364MPD2    N1 5457   3.039   3.913  10.092 -0.0740 -0.0139 -0.1604
  364MPD2    H7 5458   3.122   3.897  10.036 -1.0496 -0.5198 -1.4599
  365TMC3    C1 5459   3.046   4.134  10.015  0.2411 -0.0571 -0.3655
  365TMC3    C2 5460   3.133   4.096   9.913 -0.3973  0.0222  0.2341
  365TMC3    C3 5461   3.199   4.194   9.850 -0.3327 -0.3014 -1.2705
  365TMC3    C4 5462   3.035   4.261  10.062 -0.3645  0.6478  0.1944
  365TMC3    C5 5463   3.108   4.358   9.996  0.3112 -0.7854  0.3912
  365TMC3    C6 5464   3.195   4.323   9.888  0.6904  0.1023 -0.0913
  365TMC3     C 5465   2.984   4.038  10.098  0.0127  0.1648  0.3791
  365TMC3     O 5466   2.896   4.084  10.167  0.4863  0.2855 -0.2097
  365TMC3     H 5467   3.104   4.006   9.861 -0.0433  1.6969 -2.8449
  365TMC3    H1 5468   2.971   4.280  10.148  1.0771  1.0107  1.1786
  365TMC3    H2 5469   3.244   4.402   9.833 -0.4928  2.7607  2.7253
  365TMC3    C7 5470   3.135   4.488  10.051  0.2030  0.9568 -0.0757
  365TMC3    C8 5471   3.249   4.167   9.712  0.0700 -0.2637 -0.1385
  365TMC3    O1 5472   3.214   4.559   9.994 -0.1361 -0.3202  0.4607
  365TMC3    O2 5473   3.263   4.267   9.639 -0.8788 -0.0934 -0.2792
  366MPD2     C 5474   0.897   0.486  15.480 -0.2450  0.1383 -0.4139
  366MPD2    C1 5475   0.948   0.512  15.356  0.1374 -0.2748  0.2029
  366MPD2    C2 5476   0.988   0.412  15.270 -0.2136 -0.2912  0.3018
  366MPD2    C3 5477   0.991   0.285  15.318 -0.0019 -0.0209  1.0072
  366MPD2    C4 5478   0.927   0.256  15.438 -0.0969  0.1970  0.3645
  366MPD2    C5 5479   0.887   0.353  15.518 -0.4305  1.1867  0.3406
  366MPD2     H 5480   1.021   0.438  15.170  0.0142 -1.2124  0.1369
  366MPD2    H1 5481   0.920   0.157  15.483  1.5838 -0.7445 -1.4366
  366MPD2    H2 5482   0.880   0.558  15.559  3.9725 -0.6128  1.2079
  366MPD2    H3 5483   0.842   0.322  15.612  0.5250 -0.0500  0.3785
  366MPD2     N 5484   1.041   0.173  15.242  0.1766  0.2649  0.1130
  366MPD2    H5 5485   0.997   0.083  15.248  0.2689  0.2997  1.3555
  366MPD2    N1 5486   0.978   0.644  15.310 -0.1234  0.1456  0.2489
  366MPD2    H7 5487   1.021   0.649  15.218 -0.6888  1.4074  0.0371
  367TMC3    C1 5488   1.017   0.875  15.298 -0.7891 -0.3931 -0.0691
  367TMC3    C2 5489   1.107   0.937  15.374 -0.4354  0.4461  0.4149
  367TMC3    C3 5490   1.181   1.045  15.327 -0.0767  0.4375 -0.3449
  367TMC3    C4 5491   0.992   0.908  15.174  0.0090 -0.0770  0.1971
  367TMC3    C5 5492   1.068   1.011  15.125 -0.2172 -0.3132  0.3901
  367TMC3    C6 5493   1.151   1.087  15.206 -0.1525  0.1033 -0.6020
  367TMC3     C 5494   0.952   0.766  15.367 -0.3867  0.1846 -0.3578
  367TMC3     O 5495   0.922   0.790  15.483 -0.6235  0.3301 -0.2242
  367TMC3     H 5496   1.123   0.891  15.470 -0.5912 -2.0377 -0.7592
  367TMC3    H1 5497   0.924   0.854  15.109 -1.2573  0.8850  0.7130
  367TMC3    H2 5498   1.224   1.150  15.156  0.1213 -0.2921 -0.6936
  367TMC3    C7 5499   1.008   1.096  15.021  0.0412  0.4402 -0.0273
  367TMC3    C8 5500   1.313   1.066  15.391 -0.1040  0.3210 -0.1396
  367TMC3    O1 5501   1.040   1.212  15.013 -0.5676  0.2482 -0.2355
  367TMC3    O2 5502   1.352   0.973  15.460 -0.4606  0.0128 -0.4440
  368MPD2     C 5503   2.359   2.520  13.005 -0.6944 -0.2363  0.1664
  368MPD2    C1 5504   2.404   2.642  12.958 -0.7968  0.2000 -0.0640
  368MPD2    C2 5505   2.540   2.659  12.950 -0.2433 -0.2269  0.8018
  368MPD2    C3 5506   2.637   2.565  12.985 -0.0649 -0.0127 -0.0353
  368MPD2    C4 5507   2.588   2.445  13.029  0.0919  0.7886 -0.0917
  368MPD2    C5 5508   2.453   2.424  13.042 -0.1653 -0.2203 -0.3609
  368MPD2     H 5509   2.571   2.757  12.914  0.2973 -1.3800 -1.8562
  368MPD2    H1 5510   2.659   2.371  13.066  1.3363  1.1683 -1.7392
  368MPD2    H2 5511   2.255   2.494  13.019 -0.3163 -2.2096 -0.6284
  368MPD2    H3 5512   2.411   2.332  13.084  0.4485  0.3417  1.4997
  368MPD2     N 5513   2.781   2.579  12.985 -0.1644 -0.7070 -0.5551
  368MPD2    H5 5514   2.835   2.496  13.008  0.3099 -0.3157 -0.2661
  368MPD2    N1 5515   2.310   2.738  12.923 -0.2372  0.0027 -0.0586
  368MPD2    H7 5516   2.211   2.714  12.931 -0.4789  1.2703  0.6907
  369TMC3    C1 5517   2.213   2.950  12.864  0.0137  0.2568 -0.4943
  369TMC3    C2 5518   2.249   3.081  12.867  0.9262 -0.0572 -0.4395
  369TMC3    C3 5519   2.153   3.175  12.913  0.0547 -0.2006  0.2319
  369TMC3    C4 5520   2.092   2.906  12.918  0.3015  0.2866 -0.1052
  369TMC3    C5 5521   1.996   2.996  12.957  0.2281 -0.0884  0.4485
  369TMC3    C6 5522   2.026   3.133  12.964  0.6651  0.3006  0.1637
  369TMC3     C 5523   2.333   2.857  12.859  0.2673  0.5431  0.2588
  369TMC3     O 5524   2.439   2.909  12.821  0.2484  0.4118 -0.4792
  369TMC3     H 5525   2.349   3.109  12.835  1.5681 -0.4690  1.1742
  369TMC3    H1 5526   2.063   2.802  12.914  0.2430  0.4204 -2.8897
  369TMC3    H2 5527   1.957   3.204  13.006 -0.2066  0.3927 -1.4292
  369TMC3    C7 5528   1.892   2.954  13.046  0.6205  0.1371  0.6973
  369TMC3    C8 5529   2.176   3.317  12.912  0.3999  0.3799  0.1793
  369TMC3    O1 5530   1.876   3.020  13.150  0.1021  0.0715  0.5762
  369TMC3    O2 5531   2.086   3.399  12.922  0.6123 -0.1277  0.4416
  370TMC3    C1 5532   2.180   3.164  16.249  0.5041  0.6336  0.5497
  370TMC3    C2 5533   2.128   3.109  16.366  0.1998 -1.3041  0.5492
  370TMC3    C3 5534   2.124   2.975  16.367 -0.2776 -0.3544  0.6759
  370TMC3    C4 5535   2.222   3.091  16.141  0.0399 -0.4864 -0.0337
  370TMC3    C5 5536   2.218   2.957  16.152 -0.1852 -0.6928 -0.4365
  370TMC3    C6 5537   2.176   2.894  16.269  0.8193 -0.0672 -0.1639
  370TMC3     C 5538   2.143   3.306  16.225  0.4371  0.1625 -0.1089
  370TMC3     O 5539   2.049   3.353  16.286  0.5373 -0.0925 -0.5216
  370TMC3     H 5540   2.097   3.168  16.451  2.1349  0.3682  0.0985
  370TMC3    H1 5541   2.260   3.137  16.050  0.0256  0.5125  0.4584
  370TMC3    H2 5542   2.144   2.790  16.260  1.4506 -0.2809  0.0681
  370TMC3    C7 5543   2.270   2.875  16.048 -0.0661  0.9426  0.0100
  370TMC3    C8 5544   2.100   2.903  16.492  0.2727 -0.0637 -0.3730
  370TMC3    O1 5545   2.290   2.931  15.944  0.0241 -0.2960  0.9539
  370TMC3    O2 5546   2.121   2.783  16.489  0.2603 -0.2191  0.5550
  371TMC3    C1 5547   3.290   1.145  15.738 -0.2346  0.7443 -0.5121
  371TMC3    C2 5548   3.154   1.143  15.719  0.2663 -0.6488  0.3859
  371TMC3    C3 5549   3.088   1.257  15.696  0.4180 -0.2888  0.5169
  371TMC3    C4 5550   3.366   1.260  15.737 -0.5607  0.7262 -1.1885
  371TMC3    C5 5551   3.292   1.372  15.729 -0.4598  0.2708  0.2121
  371TMC3    C6 5552   3.156   1.374  15.708 -0.4219 -0.2640  0.3476
  371TMC3     C 5553   3.366   1.014  15.728  0.1002 -0.6649  0.6423
  371TMC3     O 5554   3.484   1.036  15.691 -0.3591 -0.3425 -0.0684
  371TMC3     H 5555   3.107   1.046  15.708  1.8702 -1.5951  2.0368
  371TMC3    H1 5556   3.473   1.272  15.735 -0.5352  0.7593  1.1506
  371TMC3    H2 5557   3.106   1.470  15.702 -2.0757 -1.1894 -0.5726
  371TMC3    C7 5558   3.367   1.504  15.735 -0.6821 -0.2960 -0.1601
  371TMC3    C8 5559   2.954   1.247  15.746  0.1469 -1.0631  0.7021
  371TMC3    O1 5560   3.328   1.606  15.680 -0.7866  0.2270 -0.3278
  371TMC3    O2 5561   2.893   1.143  15.731 -0.3983 -0.2925 -0.1891
  372MPD2     C 5562   2.366   2.987  13.179  0.0150  0.1108  0.0649
  372MPD2    C1 5563   2.488   2.929  13.181 -0.3050 -0.4629  0.3947
  372MPD2    C2 5564   2.504   2.811  13.252  0.3522  0.7493 -0.7848
  372MPD2    C3 5565   2.399   2.747  13.312 -0.6494 -0.8329  0.0443
  372MPD2    C4 5566   2.283   2.816  13.318  0.1736 -0.1837  0.3548
  372MPD2    C5 5567   2.265   2.931  13.253  0.1876  0.1338 -0.8757
  372MPD2     H 5568   2.599   2.758  13.242 -0.0999 -0.0116 -1.0465
  372MPD2    H1 5569   2.198   2.776  13.372 -0.9396  1.4524 -0.1724
  372MPD2    H2 5570   2.343   3.076  13.122 -1.2987 -0.8491 -0.9003
  372MPD2    H3 5571   2.167   2.977  13.263  0.9653  1.9631 -1.6218
  372MPD2     N 5572   2.429   2.628  13.380  0.2862  0.3879 -0.1697
  372MPD2    H5 5573   2.527   2.602  13.382 -0.8952 -4.2339 -3.3529
  372MPD2    N1 5574   2.598   2.979  13.107 -0.1631  0.1897  0.7041
  372MPD2    H7 5575   2.682   2.922  13.108 -0.1308  0.2161 -0.1405
  373TMC3    C1 5576   2.383   2.430  13.499 -0.1759  0.5697 -0.6007
  373TMC3    C2 5577   2.327   2.416  13.624  0.2377  0.1965 -0.2086
  373TMC3    C3 5578   2.401   2.344  13.716 -0.4755  0.2187  0.3947
  373TMC3    C4 5579   2.482   2.353  13.443  0.4990  0.5499 -0.1697
  373TMC3    C5 5580   2.541   2.265  13.532  0.6292  0.3002 -0.2805
  373TMC3    C6 5581   2.514   2.268  13.667  0.4407  0.7752 -0.0764
  373TMC3     C 5582   2.330   2.544  13.420  0.0486  0.1660 -0.1590
  373TMC3     O 5583   2.210   2.554  13.412  0.0401  0.4461  0.4913
  373TMC3     H 5584   2.255   2.494  13.646  0.3468 -0.2383  1.7378
  373TMC3    H1 5585   2.510   2.375  13.341  1.2356 -1.1913 -0.3436
  373TMC3    H2 5586   2.567   2.207  13.739 -2.6262 -1.1535  0.5315
  373TMC3    C7 5587   2.659   2.203  13.485 -0.0416 -0.2656 -0.5192
  373TMC3    C8 5588   2.424   2.410  13.847 -0.1735  0.0705  0.9804
  373TMC3    O1 5589   2.658   2.194  13.363  0.0386  0.1611 -0.0567
  373TMC3    O2 5590   2.519   2.379  13.919  0.0941  0.0266 -0.3243
  374TMC3    C1 5591   4.144   3.106   9.463 -0.0955  0.4037  0.5342
  374TMC3    C2 5592   4.183   3.209   9.545 -0.6912 -0.1636  0.3289
  374TMC3    C3 5593   4.288   3.286   9.501  0.3790 -0.3234 -0.1717
  374TMC3    C4 5594   4.214   3.064   9.348  0.2807  0.2279 -0.1692
  374TMC3    C5 5595   4.313   3.147   9.314 -0.1173  0.1031  0.3981
  374TMC3    C6 5596   4.360   3.251   9.389 -0.3634 -0.2694  0.9063
  374TMC3     C 5597   4.031   3.040   9.496  0.0615 -0.3397 -0.8941
  374TMC3     O 5598   4.010   3.029   9.614 -0.3447  0.5799  0.1053
  374TMC3     H 5599   4.133   3.223   9.640 -0.3962  0.5603  0.3794
  374TMC3    H1 5600   4.209   2.961   9.313 -1.2165  1.0357 -2.3326
  374TMC3    H2 5601   4.456   3.299   9.373  0.5678 -2.0975  1.0915
  374TMC3    C7 5602   4.402   3.108   9.209  0.3136  1.1834 -0.0974
  374TMC3    C8 5603   4.324   3.409   9.564 -0.6456  0.7966 -0.4425
  374TMC3    O1 5604   4.518   3.152   9.213  0.3338 -0.0334 -0.1198
  374TMC3    O2 5605   4.384   3.497   9.512 -0.0101  0.2852 -0.2196
  375MPD2     C 5606   3.943   3.216  17.238  0.4172  0.4138 -0.4298
  375MPD2    C1 5607   3.847   3.246  17.140 -0.0517  0.1830  0.1775
  375MPD2    C2 5608   3.879   3.228  17.006  0.5445  0.6284 -0.1994
  375MPD2    C3 5609   3.997   3.174  16.969 -0.9794  0.3206 -0.5066
  375MPD2    C4 5610   4.094   3.139  17.064  0.0744 -0.3571  0.2242
  375MPD2    C5 5611   4.061   3.155  17.196  0.2989 -0.0264  0.0272
  375MPD2     H 5612   3.820   3.259  16.920  0.7518 -0.5821 -0.7809
  375MPD2    H1 5613   4.189   3.092  17.043  0.1766 -0.3616  0.6989
  375MPD2    H2 5614   3.915   3.225  17.342  0.3006  1.4104 -0.5456
  375MPD2    H3 5615   4.122   3.123  17.280  0.1843 -1.3794 -0.4082
  375MPD2     N 5616   4.009   3.148  16.832 -0.4290  0.6560 -0.3994
  375MPD2    H5 5617   3.926   3.157  16.774 -0.3861  1.9155 -0.2545
  375MPD2    N1 5618   3.715   3.290  17.176 -0.2082 -0.2586 -0.1082
  375MPD2    H7 5619   3.658   3.302  17.092 -0.0244 -0.3596 -0.2462
  376TMC3    C1 5620   4.108   3.080  16.628  0.1774 -0.7485 -0.4173
  376TMC3    C2 5621   4.233   3.058  16.568 -0.7727  0.3386 -0.1648
  376TMC3    C3 5622   4.251   3.103  16.435  0.6138 -0.1821  0.4556
  376TMC3    C4 5623   4.014   3.156  16.552  0.4618 -0.6260 -0.3524
  376TMC3    C5 5624   4.037   3.190  16.420  0.4377  0.5930 -0.7918
  376TMC3    C6 5625   4.154   3.163  16.359  0.4511 -0.3385  0.0565
  376TMC3     C 5626   4.122   3.109  16.770  0.8504 -0.6720 -0.0278
  376TMC3     O 5627   4.240   3.112  16.813 -0.0738 -0.2941  0.2569
  376TMC3     H 5628   4.318   3.013  16.620  0.3021  1.5376 -0.8822
  376TMC3    H1 5629   3.919   3.188  16.594  1.0267  1.3361 -0.5732
  376TMC3    H2 5630   4.171   3.193  16.257 -0.3221 -0.9996 -0.2746
  376TMC3    C7 5631   3.949   3.269  16.339 -0.1152  0.4773  0.0300
  376TMC3    C8 5632   4.385   3.131  16.385 -0.6382 -0.3045 -0.8373
  376TMC3    O1 5633   3.934   3.242  16.221 -0.4293  0.6048  0.2212
  376TMC3    O2 5634   4.406   3.170  16.271 -0.1709  0.4097  0.4208
  377MPD2     C 5635   1.590   3.137  12.900 -0.1013 -0.1974 -0.6771
  377MPD2    C1 5636   1.542   3.145  12.774  0.1863  0.3792 -0.1144
  377MPD2    C2 5637   1.408   3.128  12.761 -0.1848  0.0958 -0.4953
  377MPD2    C3 5638   1.321   3.098  12.865  0.3614  0.2059 -0.2269
  377MPD2    C4 5639   1.377   3.068  12.993 -1.0665 -0.0710  0.0598
  377MPD2    C5 5640   1.509   3.088  13.003 -0.8296  1.0121  0.5130
  377MPD2     H 5641   1.363   3.133  12.663  0.1072  0.9868 -0.5828
  377MPD2    H1 5642   1.315   3.044  13.078 -2.2202 -2.1158 -1.3446
  377MPD2    H2 5643   1.698   3.137  12.908 -0.0244 -0.0672 -1.8128
  377MPD2    H3 5644   1.560   3.070  13.097 -0.7540  1.3012  0.5245
  377MPD2     N 5645   1.183   3.074  12.849  0.1617 -0.5816  0.2641
  377MPD2    H5 5646   1.125   3.032  12.921 -2.3104 -1.8274 -2.4076
  377MPD2    N1 5647   1.635   3.185  12.673  0.0266  0.5038 -0.7469
  377MPD2    H7 5648   1.734   3.173  12.691  0.0924  1.4671 -0.5057
  378TMC3    C1 5649   1.750   3.310  12.230  1.3701 -0.3464  0.2741
  378TMC3    C2 5650   1.665   3.243  12.319  0.4145  0.1518 -0.5063
  378TMC3    C3 5651   1.706   3.254  12.449 -0.2988 -0.4583  0.3512
  378TMC3    C4 5652   1.855   3.389  12.269  0.0739  0.6101  0.1674
  378TMC3    C5 5653   1.881   3.397  12.404  0.8355 -0.3183  0.2750
  378TMC3    C6 5654   1.796   3.345  12.498  0.2198  0.7263  0.4287
  378TMC3     C 5655   1.689   3.309  12.091 -0.8435  0.7471 -1.1856
  378TMC3     O 5656   1.570   3.289  12.098  0.4119  0.0091 -0.1150
  378TMC3     H 5657   1.590   3.170  12.294 -0.2712  0.8558 -0.5119
  378TMC3    H1 5658   1.902   3.446  12.189  0.8494  2.3587  1.8548
  378TMC3    H2 5659   1.825   3.349  12.602 -0.2624  3.0690  0.4814
  378TMC3    C7 5660   2.028   3.405  12.446 -0.2301 -0.3323  0.6057
  378TMC3    C8 5661   1.601   3.207  12.542 -0.2056  0.4615  0.6594
  378TMC3    O1 5662   2.052   3.351  12.556 -0.7092  0.3014  0.2426
  378TMC3    O2 5663   1.488   3.188  12.496 -0.4284 -0.5950  0.2175
  379MPD2     C 5664   2.279   1.234  16.181  0.5181  0.5094 -0.5958
  379MPD2    C1 5665   2.287   1.104  16.142 -0.6666 -0.0536  0.3460
  379MPD2    C2 5666   2.365   1.027  16.225 -0.2519 -0.0083  0.7093
  379MPD2    C3 5667   2.438   1.079  16.331  0.2875 -0.4490  0.6265
  379MPD2    C4 5668   2.423   1.211  16.370  0.7969 -0.1947  0.4353
  379MPD2    C5 5669   2.349   1.288  16.291 -0.1039  0.2546 -0.1134
  379MPD2     H 5670   2.366   0.920  16.211 -1.5062 -0.0817  1.1226
  379MPD2    H1 5671   2.490   1.250  16.446 -0.5645  2.2740  0.3276
  379MPD2    H2 5672   2.228   1.302  16.113  0.2114 -0.3401 -1.2030
  379MPD2    H3 5673   2.330   1.391  16.320  0.3125 -0.0364  1.2199
  379MPD2     N 5674   2.513   0.991  16.418 -0.0331 -0.1984 -0.5718
  379MPD2    H5 5675   2.536   1.032  16.508 -0.7944  1.0598 -0.9602
  379MPD2    N1 5676   2.202   1.057  16.035  0.1506  0.3182 -0.0221
  379MPD2    H7 5677   2.152   1.130  15.986 -2.2912 -0.0384  1.8991
  380TMC3    C1 5678   2.125   0.922  15.862 -0.5047  0.3360 -0.2880
  380TMC3    C2 5679   2.120   0.799  15.796  0.1412  0.5484 -0.3394
  380TMC3    C3 5680   2.040   0.778  15.689 -0.4170 -0.0502  0.6911
  380TMC3    C4 5681   2.026   1.018  15.842 -0.0938  0.3525 -0.5231
  380TMC3    C5 5682   1.946   0.988  15.727  0.6327 -0.0900  0.0948
  380TMC3    C6 5683   1.946   0.868  15.659  0.8271 -0.0750  0.0809
  380TMC3     C 5684   2.216   0.937  15.970 -0.5639  0.1610  0.2659
  380TMC3     O 5685   2.284   0.843  16.000 -0.2530 -0.6639  0.7493
  380TMC3     H 5686   2.195   0.723  15.817 -0.7080 -0.2617 -0.2756
  380TMC3    H1 5687   2.022   1.113  15.893 -0.6373  1.3309 -2.4209
  380TMC3    H2 5688   1.881   0.846  15.575  2.0447  1.4242 -1.2582
  380TMC3    C7 5689   1.902   1.100  15.648 -0.3671  0.0306  0.0375
  380TMC3    C8 5690   2.050   0.660  15.607  0.5694  0.1267  0.0002
  380TMC3    O1 5691   1.963   1.206  15.669 -0.2768  0.1340 -0.2676
  380TMC3    O2 5692   1.949   0.619  15.553  0.1542  0.4490 -0.0124
  381TMC3    C1 5693   2.045   2.235  16.345 -0.2629 -0.0052  0.7384
  381TMC3    C2 5694   2.148   2.321  16.325 -0.9757 -0.4243  0.1638
  381TMC3    C3 5695   2.177   2.415  16.421 -0.6805  0.1579 -0.7076
  381TMC3    C4 5696   1.978   2.230  16.466  0.0121 -0.2694 -0.1122
  381TMC3    C5 5697   2.009   2.324  16.557 -0.4380  0.3675 -0.1362
  381TMC3    C6 5698   2.114   2.415  16.541 -0.2959  0.2689  0.0743
  381TMC3     C 5699   1.987   2.186  16.219  0.2712 -0.4953  0.1727
  381TMC3     O 5700   2.012   2.240  16.110 -0.5361 -0.5795  0.0017
  381TMC3     H 5701   2.200   2.318  16.230 -0.1899  1.2302  0.5349
  381TMC3    H1 5702   1.901   2.156  16.486 -1.3366  0.6612 -1.9596
  381TMC3    H2 5703   2.143   2.483  16.621  1.8201  0.2318 -0.6537
  381TMC3    C7 5704   1.958   2.295  16.691 -0.1771 -0.0930 -0.2300
  381TMC3    C8 5705   2.315   2.451  16.415  0.1652 -0.1896  0.1924
  381TMC3    O1 5706   1.911   2.184  16.714 -0.1919 -0.1483  0.1310
  381TMC3    O2 5707   2.389   2.386  16.344  0.2120 -0.3920 -0.0686
  382MPD2     C 5708   1.556   4.377  17.162  0.5284  0.9804  0.6481
  382MPD2    C1 5709   1.456   4.384  17.254 -0.4449 -0.0586 -0.6104
  382MPD2    C2 5710   1.409   4.269  17.305 -0.1901  0.5132 -0.2958
  382MPD2    C3 5711   1.466   4.150  17.268  0.0725  0.1702  0.2096
  382MPD2    C4 5712   1.563   4.146  17.171  0.2358  0.1154  0.6673
  382MPD2    C5 5713   1.609   4.261  17.120  0.0420 -0.5702  0.2379
  382MPD2     H 5714   1.342   4.276  17.390  2.2764  1.4908  1.5961
  382MPD2    H1 5715   1.609   4.054  17.135 -1.9433 -1.0088  0.7332
  382MPD2    H2 5716   1.608   4.462  17.117  0.6500  0.7317  0.3175
  382MPD2    H3 5717   1.688   4.264  17.046 -0.1077  2.2223  0.1985
  382MPD2     N 5718   1.435   4.025  17.324 -0.1379 -0.6169  0.0051
  382MPD2    H5 5719   1.478   3.944  17.281 -0.5068 -0.9317  0.2296
  382MPD2    N1 5720   1.385   4.504  17.288  0.8977 -0.0268 -0.5144
  382MPD2    H7 5721   1.306   4.498  17.352 -0.3068 -0.3443 -2.0322
  383TMC3    C1 5722   1.305   3.867  17.437 -0.5558  0.8666 -0.3372
  383TMC3    C2 5723   1.278   3.803  17.316 -0.2871 -0.1556  0.1805
  383TMC3    C3 5724   1.189   3.701  17.313  0.4378  0.0298  0.4172
  383TMC3    C4 5725   1.250   3.823  17.551  0.5895  0.0597 -0.3479
  383TMC3    C5 5726   1.165   3.713  17.545  0.2183 -0.3436 -0.4484
  383TMC3    C6 5727   1.136   3.646  17.425 -0.6826  0.0751 -0.1088
  383TMC3     C 5728   1.334   4.007  17.420 -0.8051  0.5550  0.3647
  383TMC3     O 5729   1.290   4.084  17.507  0.3053 -0.2112  1.2983
  383TMC3     H 5730   1.313   3.839  17.219 -0.9370  0.9594  0.3529
  383TMC3    H1 5731   1.272   3.872  17.645  1.3342  0.7196 -0.8606
  383TMC3    H2 5732   1.063   3.566  17.429 -0.4292 -0.0959  1.2640
  383TMC3    C7 5733   1.090   3.669  17.664 -0.0644  0.4438  0.0534
  383TMC3    C8 5734   1.134   3.667  17.187 -0.1309 -0.6269  0.5298
  383TMC3    O1 5735   1.044   3.552  17.668 -0.7233 -0.4108  0.1372
  383TMC3    O2 5736   1.160   3.736  17.091 -0.1945 -0.3510 -0.2184
  384MPD2     C 5737   2.870   1.002  11.915  0.1910  0.3502  0.8537
  384MPD2    C1 5738   2.978   0.963  11.980 -0.1919 -0.0622  0.0817
  384MPD2    C2 5739   3.081   0.902  11.902  0.0803 -0.0406  0.3324
  384MPD2    C3 5740   3.058   0.861  11.775  0.4979  0.2274 -0.1333
  384MPD2    C4 5741   2.940   0.900  11.717 -0.1144  0.5737  0.6622
  384MPD2    C5 5742   2.849   0.974  11.787 -0.1091  0.2359 -0.0078
  384MPD2     H 5743   3.180   0.883  11.943  0.1219  0.9317  0.6800
  384MPD2    H1 5744   2.926   0.878  11.612  0.3824  3.7018 -0.0317
  384MPD2    H2 5745   2.801   1.066  11.969 -0.0805  0.7160  0.0647
  384MPD2    H3 5746   2.774   1.024  11.727  3.0334  1.1568 -3.1634
  384MPD2     N 5747   3.161   0.789  11.709  0.2833 -0.7267 -0.0846
  384MPD2    H5 5748   3.227   0.746  11.773  1.6041 -0.0798 -1.0081
  384MPD2    N1 5749   3.015   0.977  12.120 -0.0550  0.1715  0.8256
  384MPD2    H7 5750   3.101   0.932  12.151  0.9994  1.0966 -0.7174
  385TMC3    C1 5751   3.276   0.639  11.577  0.8533  0.1704 -0.4815
  385TMC3    C2 5752   3.237   0.526  11.515  0.1566  0.4171 -0.3944
  385TMC3    C3 5753   3.276   0.408  11.574 -0.9366 -0.0156  0.3250
  385TMC3    C4 5754   3.369   0.647  11.673  0.6467  0.3807 -0.6324
  385TMC3    C5 5755   3.403   0.534  11.735 -0.5126  0.1088 -0.2454
  385TMC3    C6 5756   3.355   0.412  11.690 -0.3667  0.2780  0.2945
  385TMC3     C 5757   3.165   0.733  11.584  0.3535 -0.5409  0.1365
  385TMC3     O 5758   3.083   0.741  11.495  0.1166  0.2246 -0.4737
  385TMC3     H 5759   3.167   0.535  11.433 -0.3191  1.3046  0.0988
  385TMC3    H1 5760   3.390   0.745  11.714 -0.4530  1.0319 -1.6072
  385TMC3    H2 5761   3.389   0.318  11.733  0.5343  0.0916 -0.8321
  385TMC3    C7 5762   3.393   0.553  11.878 -0.1898 -0.6032 -0.1825
  385TMC3    C8 5763   3.182   0.303  11.562 -0.3902 -0.3693  0.5799
  385TMC3    O1 5764   3.302   0.631  11.900  0.1272  0.0058 -0.4108
  385TMC3    O2 5765   3.178   0.233  11.664 -0.3182  0.1127  0.2396
  386TMC3    C1 5766   3.202   3.697  11.971  0.0779 -0.1553  0.6463
  386TMC3    C2 5767   3.209   3.705  11.835  0.0619  0.0202  0.7189
  386TMC3    C3 5768   3.166   3.814  11.771  0.2768  0.7359 -0.4430
  386TMC3    C4 5769   3.128   3.785  12.043 -0.7835  0.0902 -0.2313
  386TMC3    C5 5770   3.069   3.883  11.978  0.0770  0.9441 -0.6864
  386TMC3    C6 5771   3.091   3.905  11.842 -0.0987  0.2019  0.0178
  386TMC3     C 5772   3.245   3.580  12.047 -0.0430  0.4971  0.2268
  386TMC3     O 5773   3.198   3.563  12.157 -0.2418  0.9290 -0.1759
  386TMC3     H 5774   3.249   3.621  11.780 -2.9901  0.2190 -1.8066
  386TMC3    H1 5775   3.092   3.757  12.142 -1.5665  0.4982 -0.4062
  386TMC3    H2 5776   3.040   3.990  11.799  0.4381  0.0181 -0.9920
  386TMC3    C7 5777   2.927   3.873  11.996 -0.0325  0.3541  0.3478
  386TMC3    C8 5778   3.105   3.786  11.646  0.1466 -0.4595  0.5452
  386TMC3    O1 5779   2.886   3.859  12.111  0.1692 -0.1833  0.4067
  386TMC3    O2 5780   2.995   3.833  11.627  0.4374  0.0767 -0.1897
  387MPD2     C 5781   1.130   3.954  10.042  0.2343  0.0892 -0.6997
  387MPD2    C1 5782   1.243   3.882  10.025  0.5566 -0.3402 -0.7509
  387MPD2    C2 5783   1.239   3.743  10.020 -0.5130  1.0902  0.2346
  387MPD2    C3 5784   1.119   3.675  10.009 -0.1807 -0.0942  0.1347
  387MPD2    C4 5785   1.009   3.755  10.013 -0.8366 -0.4810 -0.6906
  387MPD2    C5 5786   1.012   3.889  10.042 -0.0204  0.5685  0.3544
  387MPD2     H 5787   1.332   3.689  10.008 -0.9696  0.1256  1.0398
  387MPD2    H1 5788   0.912   3.709  10.000 -1.0620 -0.4331  0.8913
  387MPD2    H2 5789   1.137   4.062  10.054  2.8658 -0.0786 -0.6523
  387MPD2    H3 5790   0.921   3.946  10.056 -0.2762  0.3324 -0.3358
  387MPD2     N 5791   1.122   3.535   9.980  0.1501  0.4167 -0.0454
  387MPD2    H5 5792   1.213   3.491   9.985 -0.1924 -0.3484 -0.6090
  387MPD2    N1 5793   1.372   3.930  10.011  0.3883  0.3842 -0.3409
  387MPD2    H7 5794   1.447   3.864   9.994  1.3821  1.1175  1.2855
  388TMC3    C1 5795   1.560   4.065   9.952  0.8801 -0.2292 -0.0515
  388TMC3    C2 5796   1.629   4.182   9.970 -0.1535 -0.6688 -0.1435
  388TMC3    C3 5797   1.746   4.191   9.896  0.1676 -0.2446 -0.2504
  388TMC3    C4 5798   1.600   3.960   9.866  0.4993 -0.3656 -0.1125
  388TMC3    C5 5799   1.719   3.971   9.806  0.4277 -0.1639  0.0610
  388TMC3    C6 5800   1.796   4.091   9.818 -0.0140 -0.3197 -0.1401
  388TMC3     C 5801   1.421   4.062  10.009 -0.1041  0.3880  0.1051
  388TMC3     O 5802   1.367   4.161  10.054  0.1472 -0.2306  0.3250
  388TMC3     H 5803   1.584   4.260  10.030  1.1893  0.4546 -0.6059
  388TMC3    H1 5804   1.536   3.876   9.843  0.7909 -0.2858 -1.2332
  388TMC3    H2 5805   1.894   4.103   9.772  0.8817  0.7380  2.0627
  388TMC3    C7 5806   1.789   3.855   9.753 -1.0519 -0.4492 -0.2155
  388TMC3    C8 5807   1.816   4.315   9.901 -0.3245  0.3015  0.5419
  388TMC3    O1 5808   1.868   3.877   9.658  0.8053 -0.5949  0.1941
  388TMC3    O2 5809   1.904   4.328   9.822  0.1227  0.2184 -0.6734
  389MPD2     C 5810   0.339   1.742  10.972 -0.0458 -0.1936 -0.2577
  389MPD2    C1 5811   0.226   1.694  10.915  0.4764 -0.7917 -0.2267
  389MPD2    C2 5812   0.145   1.605  10.992  0.0579 -0.4305  0.3024
  389MPD2    C3 5813   0.188   1.579  11.123 -0.6016 -0.3929 -0.1009
  389MPD2    C4 5814   0.301   1.633  11.178 -0.8626 -0.0047 -0.0407
  389MPD2    C5 5815   0.372   1.710  11.100  0.1380 -0.4159 -0.1283
  389MPD2     H 5816   0.053   1.562  10.953 -0.0948  0.7210 -0.5895
  389MPD2    H1 5817   0.330   1.617  11.282 -0.5693 -1.4987 -0.3547
  389MPD2    H2 5818   0.399   1.811  10.914  0.2918 -0.7360 -0.5484
  389MPD2    H3 5819   0.461   1.756  11.140 -0.7874  0.4278  0.9886
  389MPD2     N 5820   0.121   1.496  11.217  0.0360  0.6039  0.1636
  389MPD2    H5 5821   0.167   1.490  11.308  2.8659 -1.8383 -1.4134
  389MPD2    N1 5822   0.195   1.738  10.783 -0.0805  0.3892  0.0603
  389MPD2    H7 5823   0.260   1.803  10.740  0.0297 -0.4833 -1.0787
  390TMC3    C1 5824   4.718   1.321  11.298  0.0064 -0.2271 -0.0115
  390TMC3    C2 5825   4.627   1.227  11.269  0.4185 -0.0442  0.1899
  390TMC3    C3 5826   4.546   1.183  11.370  0.0158 -0.7874  0.3208
  390TMC3    C4 5827   0.012   1.372  11.424 -1.4071  0.7442  0.4253
  390TMC3    C5 5828   4.660   1.321  11.520  0.2738 -0.2189 -0.3866
  390TMC3    C6 5829   4.559   1.228  11.499  0.0720  0.1529 -0.2094
  390TMC3     C 5830   0.016   1.417  11.189  0.0637  0.2564 -0.4543
  390TMC3     O 5831   4.687   1.391  11.083  0.2283  0.0870 -0.6224
  390TMC3     H 5832   4.616   1.170  11.178 -0.7451  0.0406  0.2726
  390TMC3    H1 5833   0.080   1.452  11.452 -0.4747  0.3922 -0.8215
  390TMC3    H2 5834   4.508   1.173  11.576 -1.0351  5.2547  2.6824
  390TMC3    C7 5835   4.678   1.381  11.649  0.1067 -0.2661  0.7424
  390TMC3    C8 5836   4.425   1.124  11.323  0.0870  0.2221  0.6831
  390TMC3    O1 5837   0.041   1.464  11.662  0.0150  0.0020  0.3157
  390TMC3    O2 5838   4.429   1.056  11.224 -0.4237  0.7603 -0.2542
  391MPD2     C 5839   3.973   2.844  11.050  0.7990  0.2712  0.4440
  391MPD2    C1 5840   4.049   2.955  11.085  0.3171 -0.1880 -0.4167
  391MPD2    C2 5841   4.111   3.035  10.987  0.6655 -0.0343  0.1655
  391MPD2    C3 5842   4.079   3.011  10.855  0.0711  0.2469 -0.5623
  391MPD2    C4 5843   3.986   2.910  10.817  0.5759 -0.2595 -0.9280
  391MPD2    C5 5844   3.940   2.826  10.918  0.5491  0.2484  0.0384
  391MPD2     H 5845   4.180   3.112  11.020  0.5883  0.3214 -0.4980
  391MPD2    H1 5846   3.956   2.891  10.715  0.7655  1.2876 -1.2690
  391MPD2    H2 5847   3.937   2.781  11.130  2.8616  1.5687  2.4144
  391MPD2    H3 5848   3.881   2.741  10.885  0.2836  1.4386 -2.5662
  391MPD2     N 5849   4.147   3.095  10.762 -0.6638  0.4290  0.0781
  391MPD2    H5 5850   4.202   3.172  10.800  1.2336 -1.7212  1.6503
  391MPD2    N1 5851   4.067   2.973  11.225  0.7621 -0.6457  0.1903
  391MPD2    H7 5852   4.026   2.902  11.285  1.2454 -0.4950  0.7007
  392TMC3    C1 5853   4.192   3.204  10.558 -0.9421  0.1510  0.0482
  392TMC3    C2 5854   4.179   3.220  10.420 -0.5421  0.2815 -0.7430
  392TMC3    C3 5855   4.233   3.333  10.365  0.0889 -1.1035  0.2631
  392TMC3    C4 5856   4.263   3.298  10.634  0.1428 -0.1559 -0.7449
  392TMC3    C5 5857   4.321   3.406  10.575  0.3582  0.2437  0.1999
  392TMC3    C6 5858   4.317   3.420  10.439  0.4011 -0.5710  0.5093
  392TMC3     C 5859   4.129   3.089  10.626 -0.9245  0.3145  0.5981
  392TMC3     O 5860   4.055   3.020  10.558  0.2134 -0.2625  0.3327
  392TMC3     H 5861   4.127   3.142  10.366  0.4723 -0.5318 -0.5563
  392TMC3    H1 5862   4.277   3.293  10.742 -0.6364  0.5293 -0.6092
  392TMC3    H2 5863   4.389   3.490  10.397 -0.5396 -0.5877 -1.1255
  392TMC3    C7 5864   4.416   3.487  10.655  0.4904  0.0098  0.0293
  392TMC3    C8 5865   4.229   3.349  10.224  0.1007 -0.1433 -0.5665
  392TMC3    O1 5866   4.466   3.437  10.758 -0.1327 -0.3332  0.1717
  392TMC3    O2 5867   4.192   3.253  10.160 -0.4989  0.1213 -0.6033
  393TMC3    C1 5868   2.894   1.675  10.089  0.3109 -0.4082  0.8838
  393TMC3    C2 5869   2.771   1.729  10.093  0.3530 -0.7205 -0.0438
  393TMC3    C3 5870   2.697   1.720  10.207  0.3953 -0.0597 -0.5334
  393TMC3    C4 5871   2.950   1.632  10.203  0.5747  0.5083  0.2550
  393TMC3    C5 5872   2.878   1.628  10.321  0.4088  0.6618  0.1898
  393TMC3    C6 5873   2.750   1.677  10.323 -0.0709 -0.9293 -0.2107
  393TMC3     C 5874   2.966   1.682   9.967  0.1823 -0.4832  0.1249
  393TMC3     O 5875   2.950   1.782   9.897 -0.4734 -0.2962 -0.3947
  393TMC3     H 5876   2.738   1.763   9.996  3.2629  1.1957 -0.3610
  393TMC3    H1 5877   3.052   1.597  10.193  0.6184  1.2924 -2.1227
  393TMC3    H2 5878   2.689   1.665  10.411 -1.8754  2.1562 -1.0190
  393TMC3    C7 5879   2.932   1.575  10.441  0.2081  0.0826 -0.1991
  393TMC3    C8 5880   2.559   1.757  10.190  0.4385  0.1907 -1.0112
  393TMC3    O1 5881   2.875   1.587  10.551 -0.2469  0.2136  0.2473
  393TMC3    O2 5882   2.527   1.811  10.086 -0.8051  0.5003  0.6035
  394TMC3    C1 5883   0.070   1.785  10.591 -0.5124 -0.1949  0.1226
  394TMC3    C2 5884   4.672   1.800  10.541  0.7304  0.1980  0.3808
  394TMC3    C3 5885   4.658   1.879  10.435 -0.1032 -0.4585 -0.4524
  394TMC3    C4 5886   0.179   1.840  10.527  0.6162 -0.1116  0.5626
  394TMC3    C5 5887   0.159   1.915  10.417 -0.2812  0.5387  0.7439
  394TMC3    C6 5888   0.034   1.929  10.359 -0.4319  0.5018  0.0794
  394TMC3     C 5889   0.081   1.714  10.715  0.7880  0.0175  0.6761
  394TMC3     O 5890   4.712   1.641  10.747 -0.3595 -0.6460  0.0033
  394TMC3     H 5891   4.586   1.769  10.600 -0.5550 -0.0114 -1.5822
  394TMC3    H1 5892   0.276   1.814  10.567  1.2172 -0.2605 -0.9749
  394TMC3    H2 5893   0.014   1.993  10.274  0.4351  0.7209  0.0431
  394TMC3    C7 5894   0.273   1.979  10.354 -0.0384 -0.9168  0.1493
  394TMC3    C8 5895   4.545   1.849  10.363  0.0723  0.0654 -0.2084
  394TMC3    O1 5896   0.251   2.035  10.246  0.1166 -0.1899  0.5063
  394TMC3    O2 5897   4.433   1.877  10.411  0.0679 -0.8872 -0.3942
  395TMC3    C1 5898   4.178   3.586  13.900  0.0360  0.1666 -0.1811
  395TMC3    C2 5899   4.051   3.599  13.946 -0.0174 -1.3589 -0.2557
  395TMC3    C3 5900   4.012   3.709  14.026 -0.2344 -0.1214 -0.0419
  395TMC3    C4 5901   4.280   3.674  13.939  0.6603 -0.5145 -0.7228
  395TMC3    C5 5902   4.239   3.786  14.004 -0.1585  0.6389  0.4988
  395TMC3    C6 5903   4.109   3.807  14.048  0.2168  0.0344 -0.4365
  395TMC3     C 5904   4.218   3.451  13.940 -1.0387  0.7267 -0.0937
  395TMC3     O 5905   4.153   3.406  14.032 -0.3323  0.2845  0.8028
  395TMC3     H 5906   3.983   3.518  13.924 -0.8952 -0.0595 -2.2812
  395TMC3    H1 5907   4.383   3.654  13.911  0.0338 -1.0158 -2.7253
  395TMC3    H2 5908   4.080   3.891  14.109 -2.4878 -0.2878 -1.2583
  395TMC3    C7 5909   4.342   3.859  14.078  0.0806  0.1328 -0.0688
  395TMC3    C8 5910   3.935   3.674  14.149 -0.5227 -0.2692  1.4295
  395TMC3    O1 5911   4.303   3.912  14.182  0.4920 -0.3172  0.5181
  395TMC3    O2 5912   3.894   3.764  14.224  0.6574 -0.5695 -0.5461
  396MPD2     C 5913   4.601   4.096  16.935  0.4001  0.2540 -0.4539
  396MPD2    C1 5914   4.521   4.115  17.041  0.2768 -0.1876  0.4091
  396MPD2    C2 5915   4.536   4.227  17.111 -0.4878  0.1894 -0.6293
  396MPD2    C3 5916   4.619   4.331  17.070  0.5375  0.1342 -0.1167
  396MPD2    C4 5917   4.699   4.312  16.956 -0.2848  0.7323  0.2449
  396MPD2    C5 5918   4.698   4.186  16.893 -0.3858  0.9084  0.8431
  396MPD2     H 5919   4.470   4.244  17.195 -1.3319 -1.9071 -0.8609
  396MPD2    H1 5920   0.032   4.393  16.911 -1.8686  0.8300 -1.5715
  396MPD2    H2 5921   4.595   4.004  16.878 -0.1262 -0.1488  0.2583
  396MPD2    H3 5922   0.021   4.162  16.798 -1.1859 -0.5894  0.8355
  396MPD2     N 5923   4.631   4.454  17.132  0.2216  0.0060 -0.7347
  396MPD2    H5 5924   4.687   4.526  17.087  1.8099 -0.4023  0.6049
  396MPD2    N1 5925   4.430   4.016  17.067 -0.2036  0.1282  0.0528
  396MPD2    H7 5926   4.408   3.951  16.993 -0.4869 -0.6333  0.8169
  397TMC3    C1 5927   4.278   3.883  17.172 -0.8687  0.0672  0.1847
  397TMC3    C2 5928   4.286   3.811  17.057  0.5161 -0.1671  0.4447
  397TMC3    C3 5929   4.178   3.778  16.983  0.3252  0.3617  0.0404
  397TMC3    C4 5930   4.153   3.942  17.197 -0.0280  0.4576  0.4710
  397TMC3    C5 5931   4.046   3.918  17.116 -0.3541 -0.4388  0.2281
  397TMC3    C6 5932   4.057   3.841  17.010  0.4811 -0.1356  0.2405
  397TMC3     C 5933   4.377   3.983  17.187  0.3713 -0.3243 -0.9232
  397TMC3     O 5934   4.391   4.035  17.295  0.7580 -0.5225 -0.1176
  397TMC3     H 5935   4.364   3.736  17.055  0.9952  0.3495 -0.3174
  397TMC3    H1 5936   4.156   4.028  17.263  0.5642  0.4460  0.4649
  397TMC3    H2 5937   3.969   3.809  16.956 -1.3694  0.2005  3.0652
  397TMC3    C7 5938   3.923   4.002  17.119  0.0385  0.2249  0.3070
  397TMC3    C8 5939   4.223   3.782  16.847  0.5489 -0.0157  0.1581
  397TMC3    O1 5940   3.833   3.988  17.040 -0.4655 -0.2432  0.1472
  397TMC3    O2 5941   4.329   3.839  16.822 -0.2771  0.4940  0.1417
  398MPD2     C 5942   2.049   0.517   0.154 -0.2781 -0.2829  0.3085
  398MPD2    C1 5943   2.089   0.440   0.255 -0.8313  0.2914 -0.3327
  398MPD2    C2 5944   2.092   0.495   0.384  0.6421  0.5582  0.4557
  398MPD2    C3 5945   2.080   0.632   0.407  0.4992 -0.2067  0.4156
  398MPD2    C4 5946   2.049   0.713   0.302  0.0191  0.2489 -0.6071
  398MPD2    C5 5947   2.032   0.646   0.177 -0.5409 -1.0853  0.2965
  398MPD2     H 5948   2.130   0.434   0.465 -0.3431 -1.7718 -0.8352
  398MPD2    H1 5949   2.019   0.817   0.307 -0.1329  0.0925  1.7644
  398MPD2    H2 5950   2.041   0.482   0.052  0.3481  0.9398 -0.1585
  398MPD2    H3 5951   2.004   0.704   0.090  1.7216 -1.8080 -0.9172
  398MPD2     N 5952   2.089   0.681   0.537 -0.1434 -0.0615 -0.5766
  398MPD2    H5 5953   2.087   0.609   0.609 -1.1466 -0.5227 -1.0699
  398MPD2    N1 5954   2.122   0.308   0.249 -0.7937 -0.3829 -0.0600
  398MPD2    H7 5955   2.132   0.261   0.338 -1.8002  2.8930  1.7823
  399TMC3    C1 5956   2.146   0.083   0.164 -0.3872 -0.1891 -0.2244
  399TMC3    C2 5957   2.212   0.050   0.280  0.9525 -0.1040 -0.6497
  399TMC3    C3 5958   2.200   4.649   0.324 -0.2710 -0.6142 -0.3964
  399TMC3    C4 5959   2.065   4.713   0.097  0.2287 -0.0119  0.2570
  399TMC3    C5 5960   2.059   4.585   0.154  0.1063 -0.5828  0.6950
  399TMC3    C6 5961   2.129   4.555   0.262 -0.4153  0.3153  0.0475
  399TMC3     C 5962   2.111   0.220   0.136  0.4489 -0.6166 -0.3306
  399TMC3     O 5963   2.054   0.246   0.030  0.3118  0.2379 -0.3644
  399TMC3     H 5964   2.263   0.125   0.338  3.0569 -2.0961  0.0965
  399TMC3    H1 5965   2.012   0.016   0.007 -0.8712 -1.8628  0.3430
  399TMC3    H2 5966   2.123   4.453   0.299  0.7964  0.3405  0.3224
  399TMC3    C7 5967   1.954   4.495   0.125 -0.1742  0.1867 -0.4693
  399TMC3    C8 5968   2.233   4.627   0.466 -0.2242 -0.4286  0.2625
  399TMC3    O1 5969   1.962   4.375   0.148  0.6513 -0.0703 -0.0124
  399TMC3    O2 5970   2.263   4.723   0.534  0.0124 -0.6598  0.2689
  400TMC3    C1 5971   1.300   3.427  16.786 -0.0977 -0.1407 -0.5892
  400TMC3    C2 5972   1.188   3.450  16.722 -1.2606  0.3058 -0.2108
  400TMC3    C3 5973   1.165   3.563  16.657 -0.4230 -0.6912 -1.1075
  400TMC3    C4 5974   1.398   3.520  16.775  0.4418 -0.1606  0.3086
  400TMC3    C5 5975   1.361   3.641  16.724  0.8662 -0.1272  0.1092
  400TMC3    C6 5976   1.247   3.670  16.661  0.0931 -0.0083 -0.5291
  400TMC3     C 5977   1.289   3.354  16.912 -0.6702  0.4933 -0.2831
  400TMC3     O 5978   1.214   3.252  16.915  0.3291  0.2099 -0.1470
  400TMC3     H 5979   1.112   3.376  16.747 -0.4551 -1.2430 -2.2798
  400TMC3    H1 5980   1.494   3.500  16.821 -0.0528 -1.5328  0.7491
  400TMC3    H2 5981   1.226   3.770  16.624 -1.9415  0.6677  2.5082
  400TMC3    C7 5982   1.465   3.743  16.741 -0.2256 -0.2066 -0.5246
  400TMC3    C8 5983   1.037   3.591  16.599 -0.0016 -0.8252  0.4133
  400TMC3    O1 5984   1.584   3.713  16.747  0.8416  0.3623  0.2372
  400TMC3    O2 5985   1.015   3.711  16.582 -0.7671  0.0709 -0.0309
  401MPD2     C 5986   3.733   3.142   0.851 -0.3352  0.3872 -0.0014
  401MPD2    C1 5987   3.830   3.047   0.891 -0.6222 -0.2688  0.6035
  401MPD2    C2 5988   3.814   2.909   0.894  0.1941 -0.4514 -0.0342
  401MPD2    C3 5989   3.690   2.860   0.853  0.3169  0.1003  0.3498
  401MPD2    C4 5990   3.592   2.950   0.819 -0.3438  0.2681 -0.3284
  401MPD2    C5 5991   3.614   3.085   0.828  0.4817 -0.3626 -0.4388
  401MPD2     H 5992   3.890   2.834   0.918 -1.6340 -2.4554 -0.4892
  401MPD2    H1 5993   3.488   2.919   0.813 -0.4066  0.2783  0.6948
  401MPD2    H2 5994   3.744   3.249   0.840 -1.1757  0.4634 -0.1370
  401MPD2    H3 5995   3.524   3.140   0.802  0.4334  0.2153  1.0045
  401MPD2     N 5996   3.684   2.723   0.837  0.1591 -0.5868 -0.3058
  401MPD2    H5 5997   3.764   2.674   0.877  0.9646  0.3457 -0.7712
  401MPD2    N1 5998   3.959   3.084   0.943 -0.6374  0.4969  0.2654
  401MPD2    H7 5999   4.023   3.012   0.975  0.9018  2.0828  0.7241
  402TMC3    C1 6000   3.602   2.523   0.744  0.1083 -0.2879 -0.4823
  402TMC3    C2 6001   3.621   2.436   0.853  0.2634 -0.9537  0.9128
  402TMC3    C3 6002   3.641   2.303   0.829  0.1227 -0.7465  0.0551
  402TMC3    C4 6003   3.606   2.465   0.619  0.4104 -0.1995  0.4859
  402TMC3    C5 6004   3.642   2.332   0.599  0.2164  1.1346  0.0747
  402TMC3    C6 6005   3.660   2.243   0.702 -0.7765  0.9030  0.0747
  402TMC3     C 6006   3.584   2.668   0.759 -0.2663  0.3972  0.0565
  402TMC3     O 6007   3.517   2.731   0.677 -0.3013 -0.0230 -0.1819
  402TMC3     H 6008   3.628   2.485   0.949 -0.9138 -1.4037  1.2321
  402TMC3    H1 6009   3.589   2.530   0.533  1.4671  0.0353  0.4521
  402TMC3    H2 6010   3.651   2.135   0.697  1.4644  0.7870 -1.2397
  402TMC3    C7 6011   3.688   2.290   0.464 -0.3510 -0.2760  0.1820
  402TMC3    C8 6012   3.678   2.225   0.939  0.3142 -0.3928  0.4979
  402TMC3    O1 6013   3.658   2.353   0.360  0.3285  0.1842  0.2631
  402TMC3    O2 6014   3.769   2.144   0.913 -0.2557 -0.5339  0.1181
  403MPD2     C 6015   2.456   1.230  13.342  0.2948  0.0699  0.6078
  403MPD2    C1 6016   2.519   1.125  13.400  0.3397  0.0060 -0.4018
  403MPD2    C2 6017   2.617   1.154  13.502  0.1989  1.1573  0.0984
  403MPD2    C3 6018   2.630   1.287  13.542 -0.2107 -0.1705  0.0930
  403MPD2    C4 6019   2.550   1.389  13.496 -0.7616 -0.8837 -0.3902
  403MPD2    C5 6020   2.465   1.359  13.393 -0.3725 -0.5866  0.6580
  403MPD2     H 6021   2.675   1.080  13.555 -1.8846 -0.9016 -0.4720
  403MPD2    H1 6022   2.545   1.490  13.535 -1.5775 -1.0530 -0.0623
  403MPD2    H2 6023   2.379   1.224  13.267 -0.1527  0.2284  1.0546
  403MPD2    H3 6024   2.409   1.436  13.343 -0.6045 -1.4436 -0.3884
  403MPD2     N 6025   2.731   1.308  13.636  0.4358  0.2491 -0.2457
  403MPD2    H5 6026   2.789   1.228  13.662  1.0760  0.7395 -0.1763
  403MPD2    N1 6027   2.500   0.990  13.365  0.1321  0.1492  0.4044
  403MPD2    H7 6028   2.462   0.968  13.274 -1.7137  0.1826  1.1552
  404TMC3    C1 6029   2.476   0.759  13.412  0.0741 -0.3096  0.0834
  404TMC3    C2 6030   2.502   0.647  13.488 -0.9446  0.2513 -0.2472
  404TMC3    C3 6031   2.458   0.523  13.449 -0.1856  1.0215  0.7550
  404TMC3    C4 6032   2.399   0.744  13.300  0.6125 -0.5869 -0.0953
  404TMC3    C5 6033   2.336   0.625  13.275  0.4004 -0.1747  0.8331
  404TMC3    C6 6034   2.375   0.509  13.338 -0.4407  0.4461  0.0919
  404TMC3     C 6035   2.518   0.887  13.455  0.4643  0.3179  0.1630
  404TMC3     O 6036   2.544   0.887  13.575  0.1386 -0.1465  0.7249
  404TMC3     H 6037   2.569   0.651  13.573 -0.2685  0.5764 -0.7951
  404TMC3    H1 6038   2.369   0.826  13.236  0.1830 -0.0615  0.7684
  404TMC3    H2 6039   2.339   0.411  13.312  0.4914 -0.4277  2.0905
  404TMC3    C7 6040   2.223   0.631  13.182  0.3083  1.4614  0.1948
  404TMC3    C8 6041   2.486   0.403  13.532  0.2050 -0.1190  0.5089
  404TMC3    O1 6042   2.205   0.732  13.117 -0.2227 -0.1272  0.5374
  404TMC3    O2 6043   2.504   0.293  13.478 -0.3079  0.1844 -0.0352
  405MPD2     C 6044   2.858   1.430  15.093 -0.1989  0.2619  0.4961
  405MPD2    C1 6045   2.844   1.335  14.993 -0.2184  0.2312  0.2148
  405MPD2    C2 6046   2.852   1.381  14.860  0.4036  0.1617  0.1472
  405MPD2    C3 6047   2.860   1.514  14.831  1.0869 -0.1590  0.4263
  405MPD2    C4 6048   2.873   1.604  14.934 -0.0373  0.6469 -0.6513
  405MPD2    C5 6049   2.868   1.559  15.060 -0.6411  0.3000 -0.1059
  405MPD2     H 6050   2.843   1.313  14.775  4.1408 -0.1131 -0.0364
  405MPD2    H1 6051   2.898   1.708  14.915  3.0129  0.7760  4.1129
  405MPD2    H2 6052   2.856   1.413  15.200  2.2786 -0.6212  0.4116
  405MPD2    H3 6053   2.879   1.627  15.144  1.5722 -1.1632  0.7886
  405MPD2     N 6054   2.852   1.552  14.697 -0.6322 -0.2168 -0.8948
  405MPD2    H5 6055   2.876   1.484  14.626  0.5740 -1.4143  0.6623
  405MPD2    N1 6056   2.811   1.198  15.026  0.1294 -0.1831 -0.7351
  405MPD2    H7 6057   2.796   1.186  15.126 -0.4841  0.8267 -0.7127
  406TMC3    C1 6058   2.633   1.780  14.370 -0.0795 -0.0103  0.2335
  406TMC3    C2 6059   2.577   1.665  14.333  0.1701 -0.4032 -0.5802
  406TMC3    C3 6060   2.632   1.548  14.375  0.3699 -0.1343  0.5563
  406TMC3    C4 6061   2.735   1.788  14.458 -0.1623 -0.1106  0.5165
  406TMC3    C5 6062   2.785   1.667  14.510  0.6934  0.1666 -0.0445
  406TMC3    C6 6063   2.741   1.546  14.458  1.0219  0.3009 -0.0546
  406TMC3     C 6064   2.549   1.905  14.375  0.0628 -0.0756  0.1492
  406TMC3     O 6065   2.603   2.014  14.360 -0.0299  0.6628  0.0824
  406TMC3     H 6066   2.486   1.664  14.273 -1.2183 -1.5485  1.5483
  406TMC3    H1 6067   2.759   1.883  14.505 -4.0001  1.1648 -0.1164
  406TMC3    H2 6068   2.803   1.457  14.467  0.5533 -0.0982 -0.7887
  406TMC3    C7 6069   2.825   1.674  14.652  0.3964  0.3623 -0.6372
  406TMC3    C8 6070   2.561   1.426  14.348 -0.8713  0.8919  0.3974
  406TMC3    O1 6071   2.839   1.784  14.702  0.1614 -0.0835  0.4754
  406TMC3    O2 6072   2.458   1.426  14.278  0.2148 -0.3152  0.5495
  407MPD2     C 6073   0.459   3.258   9.505  0.4597  0.2098  0.4800
  407MPD2    C1 6074   0.586   3.263   9.558  0.1401  0.6161 -0.2138
  407MPD2    C2 6075   0.605   3.315   9.687 -0.2686  0.4439 -0.4054
  407MPD2    C3 6076   0.495   3.359   9.755 -0.2780  0.1391  0.5052
  407MPD2    C4 6077   0.373   3.357   9.698  0.1948 -0.2633  0.0116
  407MPD2    C5 6078   0.351   3.302   9.581  0.0413 -0.4772  0.3096
  407MPD2     H 6079   0.706   3.312   9.727 -1.0358  0.3609  1.5310
  407MPD2    H1 6080   0.286   3.408   9.738 -0.9670 -0.5492 -2.1547
  407MPD2    H2 6081   0.446   3.214   9.407  0.7324  1.2143 -0.0087
  407MPD2    H3 6082   0.254   3.314   9.535 -1.1004  2.6479  3.5262
  407MPD2     N 6083   0.507   3.413   9.886 -0.1686 -0.1040  0.5971
  407MPD2    H5 6084   0.427   3.469   9.913 -0.8780 -0.2016 -1.3434
  407MPD2    N1 6085   0.694   3.229   9.479  0.4181  0.3019  0.0792
  407MPD2    H7 6086   0.667   3.193   9.388 -0.3604 -1.8113  1.1394
  408TMC3    C1 6087   0.925   3.241   9.409 -0.2581 -0.0150 -0.6173
  408TMC3    C2 6088   0.963   3.109   9.425  0.4264  0.8550 -0.3922
  408TMC3    C3 6089   1.088   3.081   9.385 -0.1738 -0.5279 -0.0027
  408TMC3    C4 6090   1.011   3.343   9.388  0.3387 -0.1712  1.2417
  408TMC3    C5 6091   1.133   3.310   9.348 -0.2985  0.8665  0.0513
  408TMC3    C6 6092   1.184   3.180   9.353  0.1880  0.1002 -0.4130
  408TMC3     C 6093   0.820   3.287   9.496  0.2158 -0.4881  0.6684
  408TMC3     O 6094   0.859   3.372   9.570 -0.6725 -0.2186 -0.3412
  408TMC3     H 6095   0.892   3.027   9.429  2.2528 -0.5331  3.3546
  408TMC3    H1 6096   0.968   3.441   9.376  0.7986 -0.0746  0.4112
  408TMC3    H2 6097   1.291   3.165   9.338  0.2063  1.7193 -1.8354
  408TMC3    C7 6098   1.237   3.407   9.358 -0.3928 -0.1358  0.3852
  408TMC3    C8 6099   1.136   2.950   9.397  0.8272 -0.0573  0.2759
  408TMC3    O1 6100   1.337   3.401   9.287 -0.1521  0.3791  0.5416
  408TMC3    O2 6101   1.054   2.860   9.384  0.0170 -0.0634 -0.3219
  409MPD2     C 6102   4.557   3.657  16.394  0.2679 -0.7135  0.5856
  409MPD2    C1 6103   4.624   3.613  16.508 -0.0432 -0.8745 -0.5492
  409MPD2    C2 6104   0.031   3.651  16.528 -0.5442 -0.1921 -0.1488
  409MPD2    C3 6105   0.101   3.731  16.444  0.4941 -0.3567  0.2736
  409MPD2    C4 6106   0.033   3.787  16.343  0.6339 -0.0712 -0.2985
  409MPD2    C5 6107   4.629   3.747  16.321 -0.1592 -0.3496  0.4744
  409MPD2     H 6108   0.084   3.631  16.621  0.2098  0.8093 -0.3648
  409MPD2    H1 6109   0.074   3.865  16.280 -0.7578  0.7320 -0.2077
  409MPD2    H2 6110   4.461   3.616  16.367 -0.2009  1.1828 -0.6563
  409MPD2    H3 6111   4.572   3.780  16.235 -0.5527 -1.9400  0.1301
  409MPD2     N 6112   0.237   3.773  16.463 -0.0708  0.4474 -0.2051
  409MPD2    H5 6113   0.268   3.849  16.404  0.7537 -0.2623 -0.6793
  409MPD2    N1 6114   4.574   3.528  16.608 -0.2953  0.0560 -0.3560
  409MPD2    H7 6115   4.632   3.527  16.691 -1.2334  1.9688  0.3129
  410TMC3    C1 6116   0.460   3.786  16.561  0.3867  0.0716 -0.0689
  410TMC3    C2 6117   0.543   3.746  16.665  0.6678  0.1145  0.4923
  410TMC3    C3 6118   0.657   3.817  16.695 -0.3529  0.1717 -0.4631
  410TMC3    C4 6119   0.487   3.898  16.488  0.1894 -1.0043  0.0817
  410TMC3    C5 6120   0.583   3.975  16.538  0.0604 -0.1789  0.3046
  410TMC3    C6 6121   0.668   3.940  16.637  0.2007  0.2402  0.2201
  410TMC3     C 6122   0.331   3.714  16.548 -0.5511 -0.1092  0.1769
  410TMC3     O 6123   0.323   3.611  16.614 -0.1660 -0.6529  0.0570
  410TMC3     H 6124   0.506   3.665  16.726 -0.8328 -0.2709 -0.9205
  410TMC3    H1 6125   0.418   3.932  16.412  0.2103  0.5543  0.7489
  410TMC3    H2 6126   0.755   3.999  16.665 -1.1639  0.9278  2.9838
  410TMC3    C7 6127   0.666   4.022  16.433 -0.0291 -0.5441 -0.0324
  410TMC3    C8 6128   0.756   3.770  16.792  0.5708  0.6677  0.1663
  410TMC3    O1 6129   0.776   3.970  16.422 -0.1034 -0.0879  0.0952
  410TMC3    O2 6130   0.832   3.845  16.848  0.5016 -0.4529 -0.2048
  411MPD2     C 6131   0.258   4.670  14.313  0.1326  0.7013  0.4465
  411MPD2    C1 6132   0.129   4.670  14.362  0.4094 -0.6564 -0.3622
  411MPD2    C2 6133   0.037   4.570  14.326 -0.2895  0.0394 -0.0587
  411MPD2    C3 6134   0.084   4.473  14.231  0.0931 -0.2449 -0.1651
  411MPD2    C4 6135   0.217   4.461  14.204  1.0473  0.2027  0.0284
  411MPD2    C5 6136   0.297   4.563  14.242 -0.4342  0.2540 -0.3239
  411MPD2     H 6137   4.656   4.569  14.349 -0.5188 -2.3165 -1.2100
  411MPD2    H1 6138   0.258   4.396  14.127 -1.4998 -2.1099  0.6420
  411MPD2    H2 6139   0.331   0.023  14.335 -0.7973  1.8650 -0.5875
  411MPD2    H3 6140   0.394   4.560  14.195 -1.2656 -0.3684 -1.9718
  411MPD2     N 6141   4.722   4.383  14.164 -0.3329 -0.7434 -0.4970
  411MPD2    H5 6142   0.040   4.327  14.091 -1.6239 -1.2133 -0.8872
  411MPD2    N1 6143   0.079   0.053  14.432  0.3481 -0.0705 -0.3352
  411MPD2    H7 6144   4.706   0.046  14.458 -0.3939  0.5293 -2.8970
  412TMC3    C1 6145   4.517   4.315  14.061 -0.3222  0.0886 -0.1889
  412TMC3    C2 6146   4.394   4.252  14.079 -0.1286 -0.5881 -0.0275
  412TMC3    C3 6147   4.340   4.201  13.963 -0.1770 -0.1633 -0.2976
  412TMC3    C4 6148   4.589   4.326  13.941 -0.0784  0.0566  0.1048
  412TMC3    C5 6149   4.530   4.276  13.833  0.3243  0.0997  0.1021
  412TMC3    C6 6150   4.412   4.209  13.846  0.1621 -0.0727 -0.2857
  412TMC3     C 6151   4.583   4.373  14.183  0.6755 -0.1060  0.2115
  412TMC3     O 6152   4.509   4.411  14.272 -0.3413 -0.3047  0.1917
  412TMC3     H 6153   4.351   4.259  14.178 -0.3266  0.2634 -0.1768
  412TMC3    H1 6154   4.654   4.413  13.930  0.0859 -0.2309 -1.1921
  412TMC3    H2 6155   4.373   4.161  13.757 -2.6370  2.8469 -0.6581
  412TMC3    C7 6156   4.531   4.353  13.704  0.0570  0.1198  0.6158
  412TMC3    C8 6157   4.207   4.240  13.933  0.4882 -0.0261 -0.3071
  412TMC3    O1 6158   4.629   4.424  13.690  0.9001 -0.1331  0.6022
  412TMC3    O2 6159   4.175   4.231  13.814  0.0475  0.5457  0.2975
  413MPD2     C 6160   1.400   2.322  15.394 -0.4329 -0.9669  0.3073
  413MPD2    C1 6161   1.467   2.440  15.376 -0.6521 -0.8236  0.4021
  413MPD2    C2 6162   1.600   2.442  15.409  0.1473 -0.5075  0.5775
  413MPD2    C3 6163   1.663   2.335  15.466 -0.1444 -1.3079  0.0653
  413MPD2    C4 6164   1.590   2.217  15.487 -0.3382 -0.5879 -0.5261
  413MPD2    C5 6165   1.459   2.207  15.447 -0.5252  0.2717 -0.3355
  413MPD2     H 6166   1.665   2.527  15.392 -0.6806 -0.2586 -1.3131
  413MPD2    H1 6167   1.637   2.133  15.538  1.5302 -0.1088 -1.4410
  413MPD2    H2 6168   1.300   2.314  15.354 -1.2073  1.7824  1.6483
  413MPD2    H3 6169   1.398   2.119  15.459  0.0654  0.1624  1.8683
  413MPD2     N 6170   1.797   2.351  15.498 -0.2372 -0.0946 -0.2310
  413MPD2    H5 6171   1.847   2.422  15.445 -1.8013  2.0685  1.1916
  413MPD2    N1 6172   1.397   2.549  15.316  0.1435 -0.0981  0.2791
  413MPD2    H7 6173   1.307   2.531  15.273 -0.4506  3.8965 -0.0824
  414TMC3    C1 6174   2.009   2.317  15.595  0.3608  0.3431 -0.1191
  414TMC3    C2 6175   2.062   2.267  15.717  0.3233  0.1505 -0.3610
  414TMC3    C3 6176   2.199   2.261  15.724  0.0600  0.3926 -0.0322
  414TMC3    C4 6177   2.085   2.360  15.491 -0.3660  0.2312 -0.7406
  414TMC3    C5 6178   2.215   2.361  15.504  0.2107 -0.0478 -0.2205
  414TMC3    C6 6179   2.269   2.320  15.625  0.4531  0.2450  0.3424
  414TMC3     C 6180   1.877   2.269  15.575 -0.2777  0.2199  0.5532
  414TMC3     O 6181   1.846   2.178  15.651 -0.2902  0.1064  0.3122
  414TMC3     H 6182   2.001   2.236  15.802  0.6225  0.3351 -0.0794
  414TMC3    H1 6183   2.043   2.360  15.391 -0.8938  0.4048 -0.5203
  414TMC3    H2 6184   2.374   2.295  15.631  0.3276 -0.1997  0.6232
  414TMC3    C7 6185   2.310   2.395  15.394 -0.4643  0.3060 -0.1269
  414TMC3    C8 6186   2.234   2.125  15.743  0.9966 -0.1802  0.7890
  414TMC3    O1 6187   2.425   2.409  15.432 -0.2630 -0.1051  0.3759
  414TMC3    O2 6188   2.284   2.068  15.645 -0.2245 -0.3132 -0.6190
  415TMC3    C1 6189   2.275   0.739   9.808  0.4186  0.3156  0.4492
  415TMC3    C2 6190   2.300   0.806   9.695 -0.1159 -0.6746 -0.2183
  415TMC3    C3 6191   2.193   0.838   9.610  0.1509 -0.4111 -0.2656
  415TMC3    C4 6192   2.142   0.698   9.832  0.3440  0.5383  0.3617
  415TMC3    C5 6193   2.047   0.710   9.738  0.3792 -0.7064  0.5554
  415TMC3    C6 6194   2.070   0.772   9.619 -1.1746 -0.0272  0.0443
  415TMC3     C 6195   2.360   0.742   9.926  0.3527  0.6801 -0.2666
  415TMC3     O 6196   2.303   0.731  10.035 -0.3061 -0.7148 -0.0194
  415TMC3     H 6197   2.399   0.846   9.674 -0.2003 -0.2090  0.2850
  415TMC3    H1 6198   2.136   0.620   9.906  0.7753 -0.2542 -0.4435
  415TMC3    H2 6199   1.990   0.790   9.548 -0.5089  0.8996 -0.4582
  415TMC3    C7 6200   1.908   0.664   9.770 -0.4022  0.4997  0.1556
  415TMC3    C8 6201   2.208   0.906   9.485  0.0473 -0.2354 -0.5362
  415TMC3    O1 6202   1.827   0.686   9.682 -0.3666  0.1628  0.3287
  415TMC3    O2 6203   2.125   0.893   9.398 -0.4680  0.1590 -0.1111
  416MPD2     C 6204   4.293   4.262  11.502  0.1567 -0.4009  0.3405
  416MPD2    C1 6205   4.180   4.261  11.422 -0.2065  0.0464  0.0119
  416MPD2    C2 6206   4.157   4.145  11.345 -0.3137 -0.1038  0.1954
  416MPD2    C3 6207   4.239   4.038  11.359  0.3023 -0.0728  0.2441
  416MPD2    C4 6208   4.347   4.036  11.444  0.5520  0.2127 -0.0881
  416MPD2    C5 6209   4.369   4.151  11.517  0.2451 -0.4359 -0.5236
  416MPD2     H 6210   4.068   4.134  11.283 -0.6510  1.5047  0.3914
  416MPD2    H1 6211   4.407   3.949  11.467  0.0502  0.5233  2.4772
  416MPD2    H2 6212   4.312   4.347  11.566  0.4648  0.5995 -1.0717
  416MPD2    H3 6213   4.440   4.138  11.597  0.4637 -1.1760 -0.8358
  416MPD2     N 6214   4.207   3.915  11.290  0.7161 -0.4603 -0.1012
  416MPD2    H5 6215   4.263   3.838  11.324  0.0168 -1.4949 -1.2647
  416MPD2    N1 6216   4.095   4.371  11.430 -0.0012  0.2111 -0.2964
  416MPD2    H7 6217   4.125   4.442  11.496 -0.9344  0.6857 -0.3764
  417TMC3    C1 6218   3.931   4.517  11.360  0.0381  0.5581 -0.1553
  417TMC3    C2 6219   3.920   4.569  11.484 -0.4475  1.0148 -0.2010
  417TMC3    C3 6220   3.835   4.670  11.506 -0.2663  0.0781 -0.1336
  417TMC3    C4 6221   3.848   4.567  11.259 -0.1692 -1.0369 -0.5135
  417TMC3    C5 6222   3.775   4.676  11.285 -0.4684 -0.7183 -0.3393
  417TMC3    C6 6223   3.770   0.011  11.404 -0.1601 -0.0708 -1.2528
  417TMC3     C 6224   4.003   4.397  11.333  0.1175 -0.2066 -0.3448
  417TMC3     O 6225   3.986   4.343  11.226  0.0632  0.3936  0.7188
  417TMC3     H 6226   3.985   4.535  11.564 -0.0072 -0.0896 -1.0290
  417TMC3    H1 6227   3.857   4.521  11.162 -0.0098 -0.7422 -0.6358
  417TMC3    H2 6228   3.720   0.105  11.427  2.4891  0.6401  1.5882
  417TMC3    C7 6229   3.696   4.715  11.175  0.1577  0.2328 -0.4496
  417TMC3    C8 6230   3.810   4.711  11.642  0.4508 -0.2625  0.2801
  417TMC3    O1 6231   3.732   4.684  11.063  0.0946  0.7632  0.1793
  417TMC3    O2 6232   3.748   0.088  11.669  0.1165 -0.0436 -0.1088
  418TMC3    C1 6233   2.177   0.908   0.909 -0.4396  0.4369  0.8318
  418TMC3    C2 6234   2.159   0.918   0.778 -0.1615 -0.7396  0.3786
  418TMC3    C3 6235   2.079   0.824   0.719  0.3289 -0.0320  0.6676
  418TMC3    C4 6236   2.126   0.801   0.982  0.0388 -0.5669  0.6338
  418TMC3    C5 6237   2.035   0.720   0.924  1.1824 -0.3901  0.9147
  418TMC3    C6 6238   2.018   0.723   0.786 -0.4727 -0.4855 -0.0944
  418TMC3     C 6239   2.306   0.953   0.946  0.4690  0.3590 -0.3593
  418TMC3     O 6240   2.344   1.061   0.906 -0.0477 -0.2983 -0.3770
  418TMC3     H 6241   2.194   1.005   0.724  0.9308 -1.7459 -0.5348
  418TMC3    H1 6242   2.143   0.789   1.088 -2.7660  2.6818  1.4643
  418TMC3    H2 6243   1.947   0.655   0.740 -2.5885  1.8629 -0.3099
  418TMC3    C7 6244   1.971   0.616   0.993  0.3063 -0.0451  1.1719
  418TMC3    C8 6245   2.088   0.811   0.579  0.8186 -0.4987 -0.0325
  418TMC3    O1 6246   1.944   0.517   0.927  0.0835  0.1263 -0.0085
  418TMC3    O2 6247   2.093   0.915   0.518  0.1680 -0.2908  0.3265
  419MPD2     C 6248   1.145   3.858  12.290  0.2268  0.3073  0.5526
  419MPD2    C1 6249   1.095   3.983  12.334  0.2084  0.5855 -0.4878
  419MPD2    C2 6250   1.084   4.010  12.468  0.1244 -0.3807  0.5850
  419MPD2    C3 6251   1.111   3.920  12.563  0.2062  0.1211  0.3950
  419MPD2    C4 6252   1.152   3.796  12.518 -0.8250  0.2132  0.0569
  419MPD2    C5 6253   1.165   3.763  12.386 -0.7103 -0.1250  0.0317
  419MPD2     H 6254   1.055   4.110  12.498 -0.2773 -0.2416 -0.2695
  419MPD2    H1 6255   1.166   3.713  12.586 -1.8246 -1.2219 -1.4707
  419MPD2    H2 6256   1.159   3.838  12.185 -0.9083  0.2186  0.4218
  419MPD2    H3 6257   1.196   3.664  12.353  1.2961  0.3792  0.4233
  419MPD2     N 6258   1.089   3.958  12.693 -0.3143  0.1936 -0.0023
  419MPD2    H5 6259   1.082   4.058  12.713  0.4572  0.0879  0.8050
  419MPD2    N1 6260   1.073   4.085  12.239  0.4858  0.4275 -0.2822
  419MPD2    H7 6261   1.064   4.177  12.280 -1.3543 -0.2434  0.7881
  420TMC3    C1 6262   1.039   3.955  12.914 -0.1677  0.0354  0.0363
  420TMC3    C2 6263   0.970   4.058  12.860  0.3779 -0.2169  0.3703
  420TMC3    C3 6264   0.988   4.182  12.908  0.4342 -0.4006  0.2446
  420TMC3    C4 6265   1.132   3.979  12.999  0.3870 -0.3105 -0.5287
  420TMC3    C5 6266   1.164   4.106  13.036  0.2855 -0.3291 -0.1081
  420TMC3    C6 6267   1.079   4.207  13.002  0.5458  0.0971 -0.1485
  420TMC3     C 6268   1.080   3.875  12.802 -0.2102  0.0626 -0.4395
  420TMC3     O 6269   1.076   3.755  12.812 -0.3038 -0.1984 -0.1753
  420TMC3     H 6270   0.880   4.033  12.806 -1.4973  4.1092  1.4879
  420TMC3    H1 6271   1.189   3.890  13.025  1.2035  0.4688  0.3684
  420TMC3    H2 6272   1.110   4.306  13.033 -0.0780  0.7338 -1.5473
  420TMC3    C7 6273   1.234   4.110  13.160  0.2690  0.2159 -0.2596
  420TMC3    C8 6274   0.933   4.290  12.831  0.0721 -0.0064  0.7085
  420TMC3    O1 6275   1.235   4.021  13.244  0.2186 -0.2772  0.7315
  420TMC3    O2 6276   0.913   4.267  12.710 -0.4468  0.6457 -0.4039
  421TMC3    C1 6277   2.899   1.411  13.765 -0.5452  0.1711 -1.2359
  421TMC3    C2 6278   2.993   1.516  13.766 -0.5294  0.1683 -0.2013
  421TMC3    C3 6279   3.087   1.515  13.872 -0.0529 -0.0507 -0.9682
  421TMC3    C4 6280   2.909   1.314  13.859 -0.1734 -0.2944 -0.3727
  421TMC3    C5 6281   2.998   1.320  13.964 -0.6492 -0.9762  0.1687
  421TMC3    C6 6282   3.087   1.420  13.971  0.0866 -0.5718  0.2760
  421TMC3     C 6283   2.785   1.422  13.678 -0.4650 -0.3480  0.1898
  421TMC3     O 6284   2.770   1.538  13.638 -0.1445  0.3165 -0.5871
  421TMC3     H 6285   2.991   1.594  13.692 -1.4719  1.5895  1.3220
  421TMC3    H1 6286   2.838   1.232  13.865 -0.0597 -0.2555  1.7180
  421TMC3    H2 6287   3.175   1.409  14.034 -0.9571 -0.3495  1.7783
  421TMC3    C7 6288   3.026   1.210  14.057  0.2534  0.4762  0.1851
  421TMC3    C8 6289   3.204   1.605  13.859 -0.1260  0.8013  0.3349
  421TMC3    O1 6290   3.115   1.234  14.136  0.3809  0.1700 -0.2954
  421TMC3    O2 6291   3.228   1.639  13.740  0.1960 -0.0916 -0.1926
  422TMC3    C1 6292   0.673   2.136  12.412  0.1934  0.2404 -0.3136
  422TMC3    C2 6293   0.639   2.263  12.378 -0.2954 -0.3577 -0.1184
  422TMC3    C3 6294   0.523   2.312  12.438  1.0666 -0.3287  0.4277
  422TMC3    C4 6295   0.594   2.057  12.490  0.7060  0.7042  0.4681
  422TMC3    C5 6296   0.490   2.117  12.556 -0.0595 -0.8445 -0.1244
  422TMC3    C6 6297   0.453   2.245  12.532 -0.3893  0.6383  0.8046
  422TMC3     C 6298   0.787   2.090  12.338 -0.1185 -0.4565 -0.2552
  422TMC3     O 6299   0.839   2.170  12.261  0.2013 -0.6677  0.2557
  422TMC3     H 6300   0.689   2.320  12.301  2.2442  2.1193  3.3616
  422TMC3    H1 6301   0.622   1.955  12.512 -1.0960 -0.6444 -3.4482
  422TMC3    H2 6302   0.387   2.292  12.604 -0.6414  0.5956  0.6026
  422TMC3    C7 6303   0.400   2.023  12.627 -0.3483  0.2660  0.0212
  422TMC3    C8 6304   0.502   2.451  12.429 -0.1632  0.1119 -0.5657
  422TMC3    O1 6305   0.432   1.905  12.633  0.1696  0.1683  0.8810
  422TMC3    O2 6306   0.589   2.532  12.414 -0.0370 -0.1441 -0.5165
  423MPD2     C 6307   1.851   3.257   0.595 -0.2212  0.2566 -0.7477
  423MPD2    C1 6308   1.738   3.184   0.602 -0.1217  0.3313 -0.2287
  423MPD2    C2 6309   1.706   3.099   0.500 -0.0077 -0.5232  0.0609
  423MPD2    C3 6310   1.785   3.098   0.377 -0.5024 -0.0259  0.1251
  423MPD2    C4 6311   1.894   3.181   0.369 -0.4775  0.3246  0.1121
  423MPD2    C5 6312   1.935   3.241   0.490  0.1491  0.1881  0.4920
  423MPD2     H 6313   1.623   3.031   0.515  0.3278 -1.0089 -0.3011
  423MPD2    H1 6314   1.959   3.188   0.282  0.1714  0.5591  0.6119
  423MPD2    H2 6315   1.903   3.322   0.664 -1.8167 -0.5329  1.2006
  423MPD2    H3 6316   2.033   3.287   0.486  1.3358 -2.3792  0.4885
  423MPD2     N 6317   1.750   3.022   0.268  0.2813 -0.8263  0.2847
  423MPD2    H5 6318   1.805   3.030   0.184 -1.0466  0.3389 -0.4751
  423MPD2    N1 6319   1.655   3.180   0.718 -0.2490  0.0583  0.7850
  423MPD2    H7 6320   1.575   3.118   0.717 -1.9220  2.3054 -1.1310
  424TMC3    C1 6321   1.590   3.217   0.939  0.3898 -0.0328 -0.0431
  424TMC3    C2 6322   1.636   3.165   1.053 -0.7107  0.5047  0.5939
  424TMC3    C3 6323   1.552   3.103   1.136 -0.3160 -0.2627 -0.1133
  424TMC3    C4 6324   1.460   3.218   0.907 -0.1696  0.1083 -0.0484
  424TMC3    C5 6325   1.379   3.164   1.001 -0.3814  0.1595  0.3891
  424TMC3    C6 6326   1.419   3.112   1.120  0.0661 -0.6068  0.1892
  424TMC3     C 6327   1.692   3.241   0.836  0.5797  0.8989 -0.5891
  424TMC3     O 6328   1.793   3.298   0.872 -0.0654  0.2956  0.0331
  424TMC3     H 6329   1.743   3.159   1.061 -0.7631 -0.2324  0.7412
  424TMC3    H1 6330   1.421   3.269   0.820 -2.1658  0.8172  1.2786
  424TMC3    H2 6331   1.355   3.065   1.194 -1.5711 -2.0958 -2.1553
  424TMC3    C7 6332   1.237   3.193   0.978  0.2050 -0.9569 -0.0906
  424TMC3    C8 6333   1.617   3.022   1.236  0.1146 -0.1854  0.0865
  424TMC3    O1 6334   1.206   3.241   0.868  0.6231  0.2830 -0.0169
  424TMC3    O2 6335   1.551   2.938   1.293 -0.1885  0.1029 -0.0104
  425MPD2     C 6336   0.780   2.402  17.124  0.0020  0.2964 -0.3571
  425MPD2    C1 6337   0.721   2.312  17.211  0.4530  0.0750  0.0157
  425MPD2    C2 6338   0.591   2.335  17.247  0.3615  0.0861 -0.6957
  425MPD2    C3 6339   0.519   2.447  17.205  0.0165 -0.3377 -0.4237
  425MPD2    C4 6340   0.579   2.532  17.117 -0.0537 -0.2413 -0.3475
  425MPD2    C5 6341   0.710   2.501  17.072 -0.1230 -0.1990 -0.6092
  425MPD2     H 6342   0.538   2.263  17.309 -0.6381  1.6582  0.2586
  425MPD2    H1 6343   0.528   2.622  17.083  0.3256  0.3276  0.5685
  425MPD2    H2 6344   0.880   2.379  17.087  0.3471  2.7805 -0.9683
  425MPD2    H3 6345   0.753   2.576  17.007 -0.0577 -0.8467 -1.3218
  425MPD2     N 6346   0.382   2.462  17.244  0.1905 -0.2453  0.0703
  425MPD2    H5 6347   0.353   2.404  17.322 -0.3934  1.9248  1.4705
  425MPD2    N1 6348   0.794   2.193  17.244 -0.5675  0.0267 -0.2295
  425MPD2    H7 6349   0.883   2.188  17.195 -0.9095  0.0455 -0.8612
  426TMC3    C1 6350   0.840   1.975  17.336  0.2441  0.2366  0.0925
  426TMC3    C2 6351   0.871   1.929  17.209  0.9788  0.4337  0.3067
  426TMC3    C3 6352   0.899   1.795  17.199 -0.1344  0.3056  0.1529
  426TMC3    C4 6353   0.847   1.897  17.451 -0.3062  0.1293 -0.3182
  426TMC3    C5 6354   0.886   1.769  17.432 -0.2403 -0.8695  0.2436
  426TMC3    C6 6355   0.915   1.712  17.309 -0.0205  0.3929 -0.3244
  426TMC3     C 6356   0.760   2.098  17.340  0.1025  0.7795  0.4373
  426TMC3     O 6357   0.681   2.104  17.431 -0.3825 -0.4107 -0.2178
  426TMC3     H 6358   0.840   1.993  17.127 -1.5494  0.2248  1.0851
  426TMC3    H1 6359   0.831   1.951  17.543 -1.1561 -1.4928  0.4808
  426TMC3    H2 6360   0.920   1.605  17.294 -0.5173  0.4876 -1.1764
  426TMC3    C7 6361   0.868   1.679  17.545  0.0701  1.0281 -0.3228
  426TMC3    C8 6362   0.857   1.722  17.084  0.0065  0.4060 -0.3627
  426TMC3    O1 6363   0.924   1.573  17.547  0.9040  0.5293  0.7087
  426TMC3    O2 6364   0.939   1.643  17.032  0.0195 -0.0505 -0.5451
  427MPD2     C 6365   3.728   3.978  14.530 -0.2751 -0.8184  0.7309
  427MPD2    C1 6366   3.742   4.023  14.662  0.2836  1.1337  0.5653
  427MPD2    C2 6367   3.654   4.115  14.718  0.1476 -0.4209  0.4944
  427MPD2    C3 6368   3.541   4.153  14.647  0.0326 -0.2807 -0.5556
  427MPD2    C4 6369   3.530   4.122  14.513  0.3105  0.1073  0.3138
  427MPD2    C5 6370   3.619   4.032  14.460 -0.7253 -0.5633  0.4141
  427MPD2     H 6371   3.681   4.141  14.820  1.2438 -2.0645  0.6246
  427MPD2    H1 6372   3.454   4.165  14.448 -0.0441  0.9276  1.2848
  427MPD2    H2 6373   3.800   3.913  14.484 -0.9118 -1.2798  0.3911
  427MPD2    H3 6374   3.611   3.995  14.359  1.6333 -0.6901  0.2695
  427MPD2     N 6375   3.443   4.241  14.707  0.7039 -0.0213 -0.0186
  427MPD2    H5 6376   3.363   4.264  14.648  1.6865  1.6376 -0.7143
  427MPD2    N1 6377   3.852   3.991  14.737 -0.8243  0.1037  0.1077
  427MPD2    H7 6378   3.860   4.030  14.831 -1.5418 -1.7967  0.9589
  428TMC3    C1 6379   4.025   3.850  14.814 -0.3681 -0.3875  0.0853
  428TMC3    C2 6380   4.056   3.718  14.844  0.3820  0.0338  0.2710
  428TMC3    C3 6381   4.108   3.694  14.966  0.4464  0.1972  0.0826
  428TMC3    C4 6382   4.069   3.957  14.887  0.3694  0.7887  0.1465
  428TMC3    C5 6383   4.138   3.919  15.005  0.9242  0.4697  0.3961
  428TMC3    C6 6384   4.147   3.787  15.052 -0.0242 -0.1923  0.2544
  428TMC3     C 6385   3.928   3.875  14.708 -0.4378  0.1884 -0.6076
  428TMC3     O 6386   3.917   3.791  14.624 -0.1167  0.5112 -0.4543
  428TMC3     H 6387   4.014   3.642  14.780 -0.1942  0.9578 -0.4658
  428TMC3    H1 6388   4.056   4.060  14.856  0.6491 -0.0089 -2.5871
  428TMC3    H2 6389   4.202   3.767  15.143  1.2288 -0.6153 -0.5967
  428TMC3    C7 6390   4.213   4.019  15.072  0.6044 -0.2130 -0.6427
  428TMC3    C8 6391   4.117   3.554  15.013  0.1822  0.3565 -0.2731
  428TMC3    O1 6392   4.222   4.025  15.191 -0.4906  0.3614  0.2015
  428TMC3    O2 6393   4.119   3.542  15.137 -0.7461  0.3465  0.4581
  429MPD2     C 6394   0.630   4.421  17.546 -0.0048  0.2609  0.7366
  429MPD2    C1 6395   0.638   4.329  17.442  0.2645  0.2524 -0.7150
  429MPD2    C2 6396   0.731   4.356  17.347 -0.4431  0.6568 -0.1722
  429MPD2    C3 6397   0.808   4.473  17.346  0.4174  0.2929  0.3087
  429MPD2    C4 6398   0.789   4.566  17.446 -0.2414  0.1890  0.9966
  429MPD2    C5 6399   0.707   4.534  17.551  0.8309 -0.2754 -0.8310
  429MPD2     H 6400   0.743   4.283  17.268  0.0795  0.9931 -0.4033
  429MPD2    H1 6401   0.835   4.664  17.446 -0.5691  0.3242 -1.5249
  429MPD2    H2 6402   0.566   4.408  17.632 -1.4756  0.0893 -0.3729
  429MPD2    H3 6403   0.692   4.601  17.635  3.8883  0.2106 -0.6517
  429MPD2     N 6404   0.893   4.495  17.234  0.3159  0.5177  0.4811
  429MPD2    H5 6405   0.898   4.422  17.164 -0.3607  0.5970  0.3436
  429MPD2    N1 6406   0.566   4.211  17.449 -0.3162 -0.2342 -0.1462
  429MPD2    H7 6407   0.587   4.145  17.375 -0.4031 -1.4352  0.8991
  430TMC3    C1 6408   1.045   4.590  17.095  0.0111  0.4235  0.0945
  430TMC3    C2 6409   1.044   4.687  17.001  0.0562  1.0338  0.0232
  430TMC3    C3 6410   1.108   4.664  16.879  0.4209 -0.4745 -0.4858
  430TMC3    C4 6411   1.112   4.474  17.076 -0.1391  0.4272 -0.0211
  430TMC3    C5 6412   1.169   4.449  16.957 -0.6345 -0.1564 -0.2861
  430TMC3    C6 6413   1.167   4.547  16.854 -0.3426 -0.4811 -0.3832
  430TMC3     C 6414   0.962   4.606  17.209 -0.4978 -0.1349  0.3622
  430TMC3     O 6415   0.958   4.717  17.258  0.0816 -0.6373 -0.1073
  430TMC3     H 6416   0.977   0.045  17.025 -0.4872  0.1728  1.4548
  430TMC3    H1 6417   1.123   4.400  17.155 -0.2357 -0.3102 -0.6954
  430TMC3    H2 6418   1.218   4.526  16.760 -0.7458 -1.1104 -0.4610
  430TMC3    C7 6419   1.235   4.318  16.937  0.5516  0.2535 -0.1756
  430TMC3    C8 6420   1.083   0.028  16.765  0.6771  0.0363 -0.2170
  430TMC3    O1 6421   1.185   4.224  16.992  0.1987 -0.1518 -0.1428
  430TMC3    O2 6422   1.089   4.695  16.656 -0.7756  0.1950  0.0782
  431MPD2     C 6423   1.281   4.639  12.695 -0.1634  0.0936 -0.3880
  431MPD2    C1 6424   1.382   4.573  12.634  0.0402  0.5510 -0.1170
  431MPD2    C2 6425   1.367   4.524  12.505  0.6493  0.3093 -0.4273
  431MPD2    C3 6426   1.238   4.533  12.451 -0.0052 -0.0381  0.2266
  431MPD2    C4 6427   1.137   4.595  12.515  0.2660 -0.4830 -0.1901
  431MPD2    C5 6428   1.161   4.646  12.637  0.2858 -0.0431 -0.3277
  431MPD2     H 6429   1.454   4.483  12.455  1.6200  3.4743 -1.3969
  431MPD2    H1 6430   1.037   4.609  12.476 -0.2358 -1.5603  0.6886
  431MPD2    H2 6431   1.285   4.668  12.799 -1.1969 -1.0393 -0.0392
  431MPD2    H3 6432   1.073   4.680  12.690  1.1059 -0.3809  1.2514
  431MPD2     N 6433   1.195   4.486  12.322  0.2587  0.2487  0.3069
  431MPD2    H5 6434   1.097   4.501  12.301  0.0092 -0.6658  0.8219
  431MPD2    N1 6435   1.518   4.557  12.696 -0.2881  0.0414 -0.0842
  431MPD2    H7 6436   1.593   4.517  12.640 -0.0573  0.0992  0.1853
  432TMC3    C1 6437   1.209   4.387  12.106 -0.5517  0.0659 -0.0425
  432TMC3    C2 6438   1.297   4.366  12.007 -0.5888 -0.3938  0.0267
  432TMC3    C3 6439   1.254   4.280  11.909 -0.2614 -0.6886 -0.3385
  432TMC3    C4 6440   1.097   4.309  12.135  0.1480 -0.0100 -0.1219
  432TMC3    C5 6441   1.070   4.218  12.040 -0.2163  0.4177  0.3561
  432TMC3    C6 6442   1.134   4.216  11.919  1.1263 -0.0867 -0.2115
  432TMC3     C 6443   1.278   4.444  12.224 -1.3559  0.5706  0.1063
  432TMC3     O 6444   1.402   4.449  12.223  0.7310  0.0861  0.0431
  432TMC3     H 6445   1.363   4.447  11.977 -0.9742 -1.2158 -3.0496
  432TMC3    H1 6446   1.034   4.327  12.221  0.9151  2.3134 -0.0624
  432TMC3    H2 6447   1.101   4.145  11.844  0.5866  0.0190 -0.0744
  432TMC3    C7 6448   1.067   4.081  12.097 -0.6151  0.2452  0.1324
  432TMC3    C8 6449   1.293   4.309  11.773 -0.6670 -0.3107 -0.3703
  432TMC3    O1 6450   1.081   3.987  12.020  0.8860  0.4278  0.1027
  432TMC3    O2 6451   1.216   4.279  11.681 -0.5005  0.0969 -0.2580
  433MPD2     C 6452   0.399   3.597  10.912  0.4796 -0.1489 -0.1755
  433MPD2    C1 6453   0.374   3.476  10.967 -0.1607 -0.2319  0.0115
  433MPD2    C2 6454   0.394   3.463  11.102  0.2597  0.1176 -0.0529
  433MPD2    C3 6455   0.457   3.564  11.175 -0.2496 -0.9228 -0.5140
  433MPD2    C4 6456   0.483   3.677  11.109 -0.2808 -0.4327  0.0739
  433MPD2    C5 6457   0.461   3.702  10.979  0.0926 -0.5133 -0.6019
  433MPD2     H 6458   0.362   3.370  11.146 -1.9062  1.2284  0.7148
  433MPD2    H1 6459   0.516   3.760  11.169  0.9624 -1.1599  0.4019
  433MPD2    H2 6460   0.385   3.608  10.805 -1.1656 -3.2978 -0.2791
  433MPD2    H3 6461   0.508   3.791  10.939  0.0342 -0.1085  0.2186
  433MPD2     N 6462   0.489   3.535  11.306  0.0857  0.1663  0.0362
  433MPD2    H5 6463   0.465   3.440  11.330 -2.2488 -0.0926 -3.3420
  433MPD2    N1 6464   0.338   3.369  10.885 -0.5666 -0.2968  1.0064
  433MPD2    H7 6465   0.310   3.404  10.794  2.4445 -0.9949 -0.1908
  434TMC3    C1 6466   0.291   3.141  10.822  0.0227  0.0451 -0.0279
  434TMC3    C2 6467   0.298   3.009  10.856  0.1526  0.0925  0.5851
  434TMC3    C3 6468   0.298   2.917  10.753  0.1881  0.6120 -0.4926
  434TMC3    C4 6469   0.269   3.190  10.691  0.8917 -0.0101  0.0046
  434TMC3    C5 6470   0.265   3.095  10.587 -0.1962  0.5261  0.1735
  434TMC3    C6 6471   0.285   2.964  10.625  0.0382  0.1566  0.2898
  434TMC3     C 6472   0.323   3.232  10.929  0.3260 -0.1581  0.1599
  434TMC3     O 6473   0.330   3.177  11.039 -0.1562  0.6282  0.0428
  434TMC3     H 6474   0.317   2.976  10.957  0.6317 -1.9909 -0.1873
  434TMC3    H1 6475   0.261   3.293  10.658 -0.8484  0.3644  1.6235
  434TMC3    H2 6476   0.281   2.888  10.548  0.4003  0.4164  0.0111
  434TMC3    C7 6477   0.313   3.114  10.450 -0.2153  0.4041  0.8553
  434TMC3    C8 6478   0.381   2.800  10.778  1.2365 -0.9628  0.4608
  434TMC3    O1 6479   0.431   3.144  10.437 -0.0723 -0.5888  0.0319
  434TMC3    O2 6480   0.343   2.708  10.852 -0.6248  0.2628 -0.0401
  435MPD2     C 6481   2.539   2.706  15.333 -0.2331  0.4221  0.0827
  435MPD2    C1 6482   2.502   2.774  15.442 -0.5239  0.2809  0.5596
  435MPD2    C2 6483   2.584   2.779  15.553  0.3868  0.0562 -0.0222
  435MPD2    C3 6484   2.712   2.732  15.548  0.5889 -0.4424 -0.3430
  435MPD2    C4 6485   2.754   2.679  15.429  0.3111  0.0242  0.8457
  435MPD2    C5 6486   2.662   2.645  15.329 -0.0968  0.7909 -0.0868
  435MPD2     H 6487   2.556   2.824  15.648  1.1601  0.0431  0.2146
  435MPD2    H1 6488   2.844   2.621  15.414  1.3829  1.9336 -0.0688
  435MPD2    H2 6489   2.476   2.710  15.245 -1.0827 -1.4874  0.6229
  435MPD2    H3 6490   2.690   2.591  15.239 -0.5043  1.8407 -0.8414
  435MPD2     N 6491   2.790   2.728  15.666  0.0257  0.3672 -0.2093
  435MPD2    H5 6492   2.734   2.765  15.742  1.9052  1.5339  0.6190
  435MPD2    N1 6493   2.371   2.822  15.442 -0.4524 -0.0871  0.0372
  435MPD2    H7 6494   2.317   2.799  15.359 -0.3351 -1.9805  0.4675
  436TMC3    C1 6495   1.995   2.791  15.676 -0.1211  0.5966  0.7693
  436TMC3    C2 6496   2.109   2.859  15.655 -0.4193 -0.5456  0.1680
  436TMC3    C3 6497   2.165   2.881  15.534  0.0127 -0.5622  0.3092
  436TMC3    C4 6498   1.941   2.726  15.570 -0.0263  0.4413  0.6936
  436TMC3    C5 6499   1.993   2.752  15.449  0.0934 -0.6748  0.3968
  436TMC3    C6 6500   2.102   2.827  15.423  0.0847  0.1506 -0.5559
  436TMC3     C 6501   1.964   2.751  15.804  0.2574 -0.3456 -0.0384
  436TMC3     O 6502   1.922   2.636  15.821 -0.7222  0.5899 -0.8920
  436TMC3     H 6503   2.172   2.884  15.740  0.2680 -0.8681 -0.2454
  436TMC3    H1 6504   1.863   2.653  15.589 -0.5589  1.2225  1.5097
  436TMC3    H2 6505   2.153   2.824  15.328  1.8210  0.0816  0.3747
  436TMC3    C7 6506   1.939   2.670  15.338 -0.6870 -0.2108  0.1261
  436TMC3    C8 6507   2.312   2.903  15.533  0.0537  0.4127  0.4631
  436TMC3    O1 6508   1.903   2.559  15.373  0.1564 -0.0750 -0.1150
  436TMC3    O2 6509   2.368   2.950  15.632 -0.7732  0.0040 -0.2819
  437TMC3    C1 6510   1.191   0.162  12.317  0.0347  0.0372  0.9983
  437TMC3    C2 6511   1.109   0.229  12.407 -0.8921  0.0507 -0.0083
  437TMC3    C3 6512   1.167   0.280  12.517 -0.1594 -0.0671  1.0425
  437TMC3    C4 6513   1.334   0.155  12.333 -0.1317  0.7068 -0.0549
  437TMC3    C5 6514   1.382   0.216  12.446 -0.5353  0.6434 -0.8323
  437TMC3    C6 6515   1.299   0.284  12.532 -0.3089  0.1639  0.0552
  437TMC3     C 6516   1.127   0.068  12.220 -0.0634  0.0693  0.5060
  437TMC3     O 6517   1.018   0.021  12.248 -0.0523  0.0814 -0.6262
  437TMC3     H 6518   1.001   0.234  12.397 -0.8687 -0.0082 -0.2966
  437TMC3    H1 6519   1.383   0.076  12.277 -1.1944 -0.9951  1.4099
  437TMC3    H2 6520   1.333   0.304  12.632  1.6803  0.3095 -0.6608
  437TMC3    C7 6521   1.514   0.268  12.421 -0.2720  0.2479  0.1770
  437TMC3    C8 6522   1.088   0.326  12.621  0.0657 -0.4138  0.1940
  437TMC3    O1 6523   1.572   0.217  12.328  0.1254  0.1532 -0.0407
  437TMC3    O2 6524   1.127   0.313  12.736  0.1276  0.0768  0.5099
  438MPD2     C 6525   3.033   0.516  17.086  0.4824 -0.1898  0.0129
  438MPD2    C1 6526   3.100   0.539  17.207  0.6196  0.1214  0.3617
  438MPD2    C2 6527   3.058   0.489  17.323  0.7366  0.1414 -0.3277
  438MPD2    C3 6528   2.948   0.410  17.331 -0.8592  0.5741 -0.1001
  438MPD2    C4 6529   2.881   0.384  17.214 -0.6027  0.9116  0.9518
  438MPD2    C5 6530   2.916   0.442  17.093 -0.0907  0.3036 -0.2207
  438MPD2     H 6531   3.121   0.503  17.410 -0.4135 -0.9976  0.6971
  438MPD2    H1 6532   2.795   0.318  17.215 -0.2386  0.4372  1.3184
  438MPD2    H2 6533   3.067   0.562  16.994  4.2141  0.0465  1.5114
  438MPD2    H3 6534   2.857   0.418  17.005  0.1398  1.3811 -0.6698
  438MPD2     N 6535   2.912   0.337  17.449 -0.1113 -0.3307  0.4573
  438MPD2    H5 6536   2.844   0.262  17.440  0.2327 -0.4334 -1.4260
  438MPD2    N1 6537   3.219   0.616  17.217  0.5351 -0.3065  0.5918
  438MPD2    H7 6538   3.259   0.636  17.308  0.4360  0.9078  0.3712
  439TMC3    C1 6539   3.400   0.745  17.147  0.3545  0.6222 -0.3163
  439TMC3    C2 6540   3.440   0.844  17.057  0.2310 -0.0830  0.1854
  439TMC3    C3 6541   3.561   0.896  17.073  0.5611  0.4824 -0.2463
  439TMC3    C4 6542   3.483   0.695  17.240 -0.2256  0.0632 -0.3652
  439TMC3    C5 6543   3.601   0.755  17.262 -0.9910 -0.1737  0.1757
  439TMC3    C6 6544   3.640   0.850  17.170  0.2256 -0.0690 -0.2187
  439TMC3     C 6545   3.287   0.669  17.106 -0.4758 -0.2343  0.3364
  439TMC3     O 6546   3.251   0.673  16.991 -0.5983 -0.5416 -0.5718
  439TMC3     H 6547   3.360   0.883  16.995  2.2731  2.6216 -0.7709
  439TMC3    H1 6548   3.452   0.621  17.313  0.5171  0.7634  0.6784
  439TMC3    H2 6549   3.745   0.876  17.170 -0.2318  1.7738  0.3845
  439TMC3    C7 6550   3.705   0.657  17.266  0.1954  0.2742  0.0261
  439TMC3    C8 6551   3.628   0.940  16.951  0.0352 -0.3196 -0.3300
  439TMC3    O1 6552   3.729   0.607  17.376  0.1359 -0.1443  0.0113
  439TMC3    O2 6553   3.753   0.943  16.943  0.4932  0.1495 -0.0515
  440MPD2     C 6554   2.515   1.509  14.876  0.0539  1.5091 -0.0416
  440MPD2    C1 6555   2.510   1.608  14.974 -0.3360 -0.3763  0.0763
  440MPD2    C2 6556   2.520   1.563  15.106  0.7999 -0.0893  0.3831
  440MPD2    C3 6557   2.522   1.431  15.140  0.2075 -0.1436 -0.0495
  440MPD2    C4 6558   2.522   1.330  15.039  0.0173  0.3684 -0.2476
  440MPD2    C5 6559   2.521   1.377  14.907  0.2409 -0.1403 -0.1947
  440MPD2     H 6560   2.542   1.643  15.175  0.2285  0.7827 -0.4443
  440MPD2    H1 6561   2.521   1.225  15.063 -1.6527 -0.1900 -2.7804
  440MPD2    H2 6562   2.518   1.541  14.773 -0.7195 -0.1336 -0.5659
  440MPD2    H3 6563   2.525   1.307  14.823  2.5268  1.9090 -1.7763
  440MPD2     N 6564   2.537   1.382  15.269  0.5427 -0.1563  0.1712
  440MPD2    H5 6565   2.555   1.282  15.272 -2.8133 -0.7996 -0.7212
  440MPD2    N1 6566   2.514   1.746  14.957  0.4769  0.1196 -0.0563
  440MPD2    H7 6567   2.529   1.809  15.036 -1.6878 -0.6391  0.9431
  441TMC3    C1 6568   2.545   1.389  15.512 -0.1784 -0.0941 -0.2851
  441TMC3    C2 6569   2.498   1.465  15.612 -0.2552 -0.1908 -0.8449
  441TMC3    C3 6570   2.434   1.403  15.723 -0.6545  0.4809 -0.3129
  441TMC3    C4 6571   2.542   1.251  15.506  0.3030 -0.1518  0.2222
  441TMC3    C5 6572   2.473   1.191  15.610 -0.4545 -0.4226 -0.2655
  441TMC3    C6 6573   2.415   1.270  15.711 -0.3909  0.0716 -0.0651
  441TMC3     C 6574   2.535   1.460  15.386 -0.6018  0.0409 -0.5222
  441TMC3     O 6575   2.516   1.581  15.396 -0.0154 -0.1343 -0.0731
  441TMC3     H 6576   2.520   1.571  15.615 -1.8304  0.0918  0.2037
  441TMC3    H1 6577   2.579   1.193  15.421  0.5986  0.7572 -0.2671
  441TMC3    H2 6578   2.369   1.213  15.791  1.5631 -1.9029 -0.3717
  441TMC3    C7 6579   2.401   1.069  15.578  0.2707 -0.3329  0.1189
  441TMC3    C8 6580   2.342   1.475  15.797 -0.7437 -0.0927 -0.2153
  441TMC3    O1 6581   2.280   1.072  15.599  0.4773 -0.0593 -0.2338
  441TMC3    O2 6582   2.264   1.404  15.856  0.0332  0.2936 -0.1360
  442MPD2     C 6583   0.359   2.225  16.471 -0.5428 -0.6209  0.0117
  442MPD2    C1 6584   0.291   2.138  16.560 -0.0756 -0.1598 -0.6155
  442MPD2    C2 6585   0.330   2.003  16.569 -0.1706 -0.1864  0.0468
  442MPD2    C3 6586   0.452   1.956  16.504 -0.2303 -0.7639  0.4428
  442MPD2    C4 6587   0.528   2.056  16.435 -0.2399  0.4492  0.2959
  442MPD2    C5 6588   0.478   2.181  16.423 -0.6769  0.2099 -0.5260
  442MPD2     H 6589   0.278   1.927  16.626  1.5923  0.5601  2.6386
  442MPD2    H1 6590   0.609   2.021  16.372 -0.4457 -0.0253  0.2998
  442MPD2    H2 6591   0.332   2.328  16.450 -0.1872 -0.3803  0.7284
  442MPD2    H3 6592   0.536   2.252  16.365  0.9586 -0.6056  0.1155
  442MPD2     N 6593   0.494   1.825  16.494  0.0083  0.4053  0.3944
  442MPD2    H5 6594   0.583   1.808  16.448 -0.2838 -0.9367  0.3341
  442MPD2    N1 6595   0.181   2.176  16.640  0.3983 -0.0373  0.4383
  442MPD2    H7 6596   0.160   2.115  16.718 -1.7655  1.3053  0.8899
  443TMC3    C1 6597   4.711   2.288  16.709 -0.9367 -0.2951 -0.2886
  443TMC3    C2 6598   4.619   2.368  16.655 -0.0983  0.6541 -0.4047
  443TMC3    C3 6599   4.489   2.357  16.700 -0.0563 -0.6424  0.9545
  443TMC3    C4 6600   4.679   2.191  16.805  0.2091  0.1755 -0.5895
  443TMC3    C5 6601   4.546   2.187  16.852  0.5516  0.7103 -0.6984
  443TMC3    C6 6602   4.449   2.266  16.801  0.2591  0.3254  0.5575
  443TMC3     C 6603   0.106   2.284  16.625  0.4920 -0.2337 -0.0745
  443TMC3     O 6604   0.114   2.372  16.543 -0.2107  0.0300  0.1636
  443TMC3     H 6605   4.648   2.456  16.599 -2.4303  0.6972 -1.5211
  443TMC3    H1 6606   0.027   2.128  16.856 -1.5807 -1.4744 -0.0703
  443TMC3    H2 6607   4.344   2.250  16.821 -0.1032  2.9242  0.8423
  443TMC3    C7 6608   4.517   2.109  16.969  0.5550  0.4394  0.4804
  443TMC3    C8 6609   4.373   2.419  16.633 -0.0016 -0.5157  0.3710
  443TMC3    O1 6610   4.599   2.027  17.004  0.3282 -0.0003  0.0863
  443TMC3    O2 6611   4.284   2.450  16.714 -0.1116 -0.1785 -0.3593
  444MPD2     C 6612   0.466   1.442  17.428  0.4260  0.1802 -0.4979
  444MPD2    C1 6613   0.372   1.358  17.387 -0.4360 -0.3840 -0.5520
  444MPD2    C2 6614   0.404   1.261  17.293  0.8311 -0.7537  0.5351
  444MPD2    C3 6615   0.536   1.247  17.252 -0.6300 -0.2507  0.4645
  444MPD2    C4 6616   0.633   1.324  17.310  0.1876  0.8916 -0.2758
  444MPD2    C5 6617   0.596   1.424  17.394 -0.2333 -0.7381  0.5732
  444MPD2     H 6618   0.323   1.194  17.268 -1.4722  1.3205  2.4690
  444MPD2    H1 6619   0.737   1.316  17.281 -0.2092  0.0662 -1.5115
  444MPD2    H2 6620   0.459   1.519  17.504 -0.9088 -0.6824  0.2509
  444MPD2    H3 6621   0.663   1.493  17.445 -2.6671  1.2159  1.1446
  444MPD2     N 6622   0.560   1.145  17.157  0.1843 -0.1870  0.3487
  444MPD2    H5 6623   0.491   1.076  17.127 -0.1821  0.2273  0.2454
  444MPD2    N1 6624   0.241   1.374  17.431  0.6891 -0.4637 -0.2116
  444MPD2    H7 6625   0.178   1.301  17.399 -1.0305  1.1873 -0.5829
  445TMC3    C1 6626   0.698   1.003  17.026  0.4983  0.2206 -0.1970
  445TMC3    C2 6627   0.639   0.885  17.055  0.3001  0.4246 -0.3598
  445TMC3    C3 6628   0.692   0.778  16.991 -0.0688 -0.3737  0.2197
  445TMC3    C4 6629   0.801   1.018  16.931  0.5137  0.1013 -0.5535
  445TMC3    C5 6630   0.845   0.911  16.864 -1.0915 -0.5873 -0.2273
  445TMC3    C6 6631   0.792   0.790  16.890  0.1939  0.2494  0.1760
  445TMC3     C 6632   0.680   1.133  17.095 -0.3911  0.6327 -0.2651
  445TMC3     O 6633   0.774   1.214  17.098 -0.0680 -0.0995  0.3678
  445TMC3     H 6634   0.554   0.876  17.121  0.5281  0.6988 -0.0312
  445TMC3    H1 6635   0.844   1.116  16.914  0.4254  0.5445  1.8704
  445TMC3    H2 6636   0.821   0.701  16.836  2.2374  1.0975 -0.1526
  445TMC3    C7 6637   0.969   0.924  16.789  0.8102 -0.1216 -0.0347
  445TMC3    C8 6638   0.632   0.642  16.983 -0.9235 -0.3369 -0.3959
  445TMC3    O1 6639   0.998   0.839  16.710 -0.1144 -0.0928 -0.1826
  445TMC3    O2 6640   0.697   0.555  16.932 -0.1068 -0.2771  0.4493
  446MPD2     C 6641   0.326   2.824  11.319 -0.5048 -0.2270 -0.6029
  446MPD2    C1 6642   0.343   2.795  11.184 -0.3899  0.2991  0.2259
  446MPD2    C2 6643   0.461   2.822  11.126 -0.8878  0.1523 -0.0245
  446MPD2    C3 6644   0.568   2.868  11.197  0.6518  0.1528 -0.2410
  446MPD2    C4 6645   0.553   2.895  11.330 -0.3356  0.2978  0.1238
  446MPD2    C5 6646   0.430   2.870  11.392 -0.0467 -0.0403  0.6149
  446MPD2     H 6647   0.470   2.797  11.021  0.5134 -0.9681  0.3592
  446MPD2    H1 6648   0.630   2.941  11.391  0.5652  1.3756 -1.8336
  446MPD2    H2 6649   0.237   2.799  11.374 -0.1588 -0.0877  0.0127
  446MPD2    H3 6650   0.409   2.893  11.496 -0.3939  3.8746 -0.3358
  446MPD2     N 6651   0.690   2.889  11.125  1.1006  0.3536 -0.4699
  446MPD2    H5 6652   0.690   2.857  11.029 -3.0272  0.5601 -0.5611
  446MPD2    N1 6653   0.253   2.718  11.104 -0.1408 -0.5524  0.7040
  446MPD2    H7 6654   0.283   2.709  11.007  1.0827  1.0006  0.9334
  447TMC3    C1 6655   0.919   2.936  11.100  0.8365  0.9204  0.9263
  447TMC3    C2 6656   0.882   3.009  10.988  0.0606  0.4917 -0.1723
  447TMC3    C3 6657   0.990   3.072  10.924  0.6515  0.2140  0.2545
  447TMC3    C4 6658   1.044   2.916  11.140 -0.5176 -0.0360  0.0523
  447TMC3    C5 6659   1.149   2.972  11.067  0.1447  0.1083 -0.4231
  447TMC3    C6 6660   1.123   3.047  10.960 -0.0873  0.3698 -0.0910
  447TMC3     C 6661   0.808   2.901  11.190 -0.5384  0.0436  1.0110
  447TMC3     O 6662   0.835   2.877  11.304  0.6024 -0.5772  0.0109
  447TMC3     H 6663   0.782   3.024  10.950  0.3236  1.1883 -0.5846
  447TMC3    H1 6664   1.064   2.857  11.229 -0.4717  0.2836  0.2558
  447TMC3    H2 6665   1.203   3.094  10.904 -0.6890  3.1066  1.3201
  447TMC3    C7 6666   1.296   2.950  11.096 -0.6038  1.0065 -0.1930
  447TMC3    C8 6667   0.963   3.156  10.811 -0.2561 -0.1031  0.3905
  447TMC3    O1 6668   1.378   2.996  11.021  0.5900 -0.3053 -0.8810
  447TMC3    O2 6669   0.853   3.150  10.761 -0.1081  0.5001  0.1223
  448TMC3    C1 6670   2.945   2.362  16.791  0.1854 -0.4353 -0.3666
  448TMC3    C2 6671   2.933   2.230  16.755 -0.6156 -0.3205 -0.2490
  448TMC3    C3 6672   3.039   2.147  16.782  0.0495 -0.3611  0.0378
  448TMC3    C4 6673   3.053   2.414  16.855 -0.2127 -0.1218  0.2216
  448TMC3    C5 6674   3.144   2.324  16.897  0.1538  0.4737  0.6716
  448TMC3    C6 6675   3.142   2.194  16.852  0.0345  0.6907 -0.0424
  448TMC3     C 6676   2.821   2.446  16.796 -0.1498  0.9205 -1.0305
  448TMC3     O 6677   2.715   2.390  16.828  0.0429  0.8634  0.3046
  448TMC3     H 6678   2.847   2.196  16.698  0.3554 -1.2517 -1.1483
  448TMC3    H1 6679   3.046   2.514  16.895 -1.8214 -0.4974  0.8575
  448TMC3    H2 6680   3.227   2.130  16.867  0.5679  1.3521 -0.2398
  448TMC3    C7 6681   3.257   2.377  16.972  0.1620  0.6916 -0.9473
  448TMC3    C8 6682   3.038   2.005  16.740 -0.2400  0.2908 -0.2745
  448TMC3    O1 6683   3.263   2.500  16.966 -0.3195 -0.1665  0.3265
  448TMC3    O2 6684   3.076   1.919  16.818 -0.2788 -0.0950  0.3936
  449MPD2     C 6685   0.268   1.694  13.744  0.1316  0.1968  0.5171
  449MPD2    C1 6686   0.317   1.571  13.720  0.0005 -0.4228  0.5750
  449MPD2    C2 6687   0.334   1.482  13.826 -0.2394 -0.3360 -0.2269
  449MPD2    C3 6688   0.311   1.517  13.959  0.0879 -0.2142  0.1945
  449MPD2    C4 6689   0.268   1.645  13.980 -0.5916  0.6113 -0.5720
  449MPD2    C5 6690   0.253   1.735  13.880 -0.0852 -0.2024 -0.4224
  449MPD2     H 6691   0.363   1.378  13.817  1.6167  0.0370  1.4295
  449MPD2    H1 6692   0.250   1.681  14.081  1.3841 -0.7176  0.2440
  449MPD2    H2 6693   0.247   1.766  13.666 -0.0183 -1.0235 -0.5801
  449MPD2    H3 6694   0.228   1.835  13.912  1.1730 -1.1659  3.4941
  449MPD2     N 6695   0.321   1.419  14.055  0.2561 -0.4004  0.1210
  449MPD2    H5 6696   0.358   1.335  14.011 -0.7138  0.1987 -1.8330
  449MPD2    N1 6697   0.352   1.531  13.587  0.0835 -0.4101 -0.0792
  449MPD2    H7 6698   0.362   1.430  13.585  0.8521 -0.3092 -1.1321
  450TMC3    C1 6699   0.318   1.516  13.361 -0.2618  0.2417  0.0582
  450TMC3    C2 6700   0.425   1.504  13.274  0.0009  0.2704 -0.8753
  450TMC3    C3 6701   0.469   1.378  13.240  0.1997  0.2535  0.0039
  450TMC3    C4 6702   0.259   1.395  13.406 -1.5198 -0.3936 -0.0261
  450TMC3    C5 6703   0.316   1.271  13.381  0.0989 -0.3954 -0.4751
  450TMC3    C6 6704   0.416   1.259  13.287  0.5920  0.4579 -0.3959
  450TMC3     C 6705   0.343   1.603  13.469 -0.4590  0.6738  0.4556
  450TMC3     O 6706   0.363   1.718  13.442 -0.1980  0.2401  0.6494
  450TMC3     H 6707   0.469   1.595  13.236  0.3602 -0.0687 -1.2698
  450TMC3    H1 6708   0.178   1.400  13.478 -0.2380  0.8899  1.3511
  450TMC3    H2 6709   0.457   1.161  13.265 -0.7386 -0.3171  0.5794
  450TMC3    C7 6710   0.318   1.193  13.498  0.3611  0.0666  0.0451
  450TMC3    C8 6711   0.512   1.368  13.100 -0.5924 -0.0614  0.1270
  450TMC3    O1 6712   0.287   1.253  13.599 -0.2710 -0.7094 -0.1453
  450TMC3    O2 6713   0.536   1.477  13.051  0.4943  1.4258  0.2784
  451MPD2     C 6714   0.609   4.332   1.117  0.9552 -0.0375 -0.5075
  451MPD2    C1 6715   0.727   4.399   1.148  0.0086  0.8378 -0.5495
  451MPD2    C2 6716   0.851   4.340   1.133 -0.3164 -0.3592  0.3525
  451MPD2    C3 6717   0.861   4.214   1.072  0.0683  0.2875 -0.3147
  451MPD2    C4 6718   0.751   4.161   1.019  0.1670 -0.1851 -0.5565
  451MPD2    C5 6719   0.624   4.215   1.039  0.3862 -0.2093 -0.4931
  451MPD2     H 6720   0.947   4.381   1.162 -2.1293  3.3880  0.9663
  451MPD2    H1 6721   0.754   4.074   0.955  0.7702  0.0702 -0.8727
  451MPD2    H2 6722   0.508   4.369   1.128  0.3058 -2.3592  1.2516
  451MPD2    H3 6723   0.539   4.167   0.992 -0.2980  0.2285  0.2797
  451MPD2     N 6724   0.987   4.146   1.054  0.4095 -0.6011  0.6035
  451MPD2    H5 6725   1.001   4.060   1.001  0.0306 -0.1914 -0.1627
  451MPD2    N1 6726   0.706   4.521   1.218 -0.3298 -0.5262  0.2767
  451MPD2    H7 6727   0.610   4.542   1.246  0.1754  0.3042  1.4221
  452TMC3    C1 6728   1.208   4.084   1.079  0.0160 -0.0341  0.6085
  452TMC3    C2 6729   1.294   4.047   1.177  0.6837 -0.7851  0.4779
  452TMC3    C3 6730   1.366   3.935   1.160  0.5607 -0.4660 -0.1863
  452TMC3    C4 6731   1.199   4.014   0.962 -0.3153 -0.1334 -0.8660
  452TMC3    C5 6732   1.275   3.900   0.952  0.1764 -0.3374  1.0218
  452TMC3    C6 6733   1.360   3.857   1.048 -0.1414  0.5297  0.4558
  452TMC3     C 6734   1.098   4.167   1.128  0.0041  1.1581 -0.0844
  452TMC3     O 6735   1.115   4.239   1.226 -0.0394 -0.1494 -0.3568
  452TMC3     H 6736   1.311   4.113   1.261 -0.0339 -1.1899  0.9406
  452TMC3    H1 6737   1.149   4.056   0.876 -0.6781  2.4089  0.5740
  452TMC3    H2 6738   1.433   3.777   1.054 -0.8977 -0.2704 -0.9452
  452TMC3    C7 6739   1.299   3.855   0.816 -0.3185  0.1816 -0.3486
  452TMC3    C8 6740   1.427   3.874   1.278 -0.7527 -0.1613  0.5959
  452TMC3    O1 6741   1.254   3.917   0.722  0.0030  0.0713  0.5928
  452TMC3    O2 6742   1.395   3.760   1.313  0.3761  0.4055  0.3816
  453TMC3    C1 6743   2.715   1.630  11.736 -0.9950 -0.2898 -0.4869
  453TMC3    C2 6744   2.600   1.610  11.804  0.1737 -0.1850 -0.2187
  453TMC3    C3 6745   2.481   1.666  11.758 -0.1122 -0.0643  0.2103
  453TMC3    C4 6746   2.720   1.704  11.626 -0.0360 -0.4515  0.1914
  453TMC3    C5 6747   2.606   1.768  11.590  0.2024  0.1716  0.1764
  453TMC3    C6 6748   2.484   1.756  11.654 -0.1342 -0.2920  0.2354
  453TMC3     C 6749   2.841   1.626  11.810 -0.8488  0.1065 -0.1266
  453TMC3     O 6750   2.930   1.694  11.762 -0.3924 -0.2130 -0.4288
  453TMC3     H 6751   2.597   1.545  11.891 -0.1034  1.7472  1.1996
  453TMC3    H1 6752   2.809   1.718  11.566 -0.3004  1.9873  0.3738
  453TMC3    H2 6753   2.395   1.787  11.601  0.9951 -0.1886 -1.6308
  453TMC3    C7 6754   2.637   1.887  11.514 -0.0434 -0.3823  0.4041
  453TMC3    C8 6755   2.353   1.629  11.812 -0.2788 -0.0842  0.4206
  453TMC3    O1 6756   2.746   1.899  11.465 -0.2899 -0.6444 -0.1980
  453TMC3    O2 6757   2.253   1.697  11.786 -0.2910  0.4858  0.2833
  454MPD2     C 6758   1.427   1.366  16.076 -0.1938  0.7610 -0.3706
  454MPD2    C1 6759   1.344   1.265  16.055  0.0556 -0.4218 -0.4330
  454MPD2    C2 6760   1.260   1.208  16.152  0.4269 -0.1236  0.0433
  454MPD2    C3 6761   1.253   1.267  16.280  0.4260  0.3647 -0.1185
  454MPD2    C4 6762   1.343   1.370  16.303 -0.1425  0.2231 -0.3186
  454MPD2    C5 6763   1.420   1.423  16.204 -0.4567 -0.2591 -0.3577
  454MPD2     H 6764   1.198   1.124  16.125 -0.5697  0.4528  0.5314
  454MPD2    H1 6765   1.343   1.420  16.399  0.9354 -0.7219  0.1666
  454MPD2    H2 6766   1.489   1.415  16.003  1.5956  0.1958  0.7514
  454MPD2    H3 6767   1.482   1.508  16.231 -0.1347 -0.9297  1.0199
  454MPD2     N 6768   1.148   1.235  16.372 -0.1941  0.1802 -0.0490
  454MPD2    H5 6769   1.148   1.286  16.459  1.5358 -1.9700  1.2107
  454MPD2    N1 6770   1.323   1.207  15.931 -0.9335  0.2521 -0.0497
  454MPD2    H7 6771   1.263   1.125  15.936  0.7609 -1.0535 -0.9472
  455TMC3    C1 6772   0.940   1.146  16.442  0.6120 -0.4355  0.2620
  455TMC3    C2 6773   0.919   1.264  16.506 -0.2665  0.6466 -0.0279
  455TMC3    C3 6774   0.796   1.289  16.548 -0.3224  0.0433  0.9815
  455TMC3    C4 6775   0.847   1.044  16.439  0.8117 -0.2297  0.9121
  455TMC3    C5 6776   0.720   1.066  16.482 -1.0507 -0.2653 -0.6141
  455TMC3    C6 6777   0.696   1.189  16.535 -0.1883  0.6809 -0.3964
  455TMC3     C 6778   1.053   1.136  16.351 -0.2852 -0.4032  0.2528
  455TMC3     O 6779   1.050   1.047  16.266  0.3590  0.5769 -0.7654
  455TMC3     H 6780   0.992   1.343  16.514  1.6661 -1.2803  1.1494
  455TMC3    H1 6781   0.865   0.957  16.377 -0.4884 -0.3208  0.6620
  455TMC3    H2 6782   0.596   1.208  16.571 -1.6457 -1.0986 -3.5380
  455TMC3    C7 6783   0.632   1.042  16.373 -0.8363 -0.1053  0.1027
  455TMC3    C8 6784   0.782   1.400  16.650  0.3535  0.0626  0.6495
  455TMC3    O1 6785   0.640   1.104  16.269  0.1152  0.4615  0.4083
  455TMC3    O2 6786   0.874   1.482  16.659 -0.2371 -0.2780  0.4490
  456MPD2     C 6787   3.719   0.911  16.032  0.2207 -0.2444  0.1458
  456MPD2    C1 6788   3.797   0.944  16.140  0.4242  0.1370  0.1754
  456MPD2    C2 6789   3.746   1.019  16.248  0.0091 -0.5893  0.3718
  456MPD2    C3 6790   3.611   1.057  16.237  0.6242  0.4060  0.0130
  456MPD2    C4 6791   3.529   1.012  16.134 -0.1499  0.5472 -0.2817
  456MPD2    C5 6792   3.587   0.938  16.029  0.2088 -0.2319 -0.1236
  456MPD2     H 6793   3.820   1.044  16.323 -1.8031 -1.1001  2.3251
  456MPD2    H1 6794   3.422   1.023  16.131 -0.1461  1.6414  2.9035
  456MPD2    H2 6795   3.754   0.853  15.948  1.8072 -1.6235  1.7674
  456MPD2    H3 6796   3.538   0.891  15.943  0.4695  1.8218 -1.3954
  456MPD2     N 6797   3.555   1.123  16.350 -0.2120 -0.9715  0.3342
  456MPD2    H5 6798   3.624   1.146  16.421  0.4558  0.0161 -0.6312
  456MPD2    N1 6799   3.933   0.912  16.126 -0.3372 -0.3271 -0.3138
  456MPD2    H7 6800   3.960   0.868  16.038 -0.3441  0.4419 -0.6963
  457TMC3    C1 6801   3.398   1.238  16.489 -0.4215 -0.4322  0.5498
  457TMC3    C2 6802   3.295   1.330  16.502  0.6072  1.0401 -0.4855
  457TMC3    C3 6803   3.296   1.399  16.619 -0.0216 -0.1321 -0.6117
  457TMC3    C4 6804   3.477   1.212  16.597 -0.2041 -0.1054  0.1331
  457TMC3    C5 6805   3.462   1.278  16.716  0.7108 -0.5865  0.1659
  457TMC3    C6 6806   3.363   1.374  16.728 -0.5245  0.3606  0.4168
  457TMC3     C 6807   3.423   1.168  16.361 -0.3763  0.1114 -0.7985
  457TMC3     O 6808   3.330   1.173  16.282 -0.0336  0.2461  0.1461
  457TMC3     H 6809   3.227   1.345  16.419  1.3277 -0.7418 -1.4060
  457TMC3    H1 6810   3.562   1.145  16.593  0.7924  1.2273 -0.9830
  457TMC3    H2 6811   3.377   1.447  16.807  0.6429 -1.7662  2.1736
  457TMC3    C7 6812   3.584   1.301  16.780 -0.0003 -0.1496 -0.2749
  457TMC3    C8 6813   3.217   1.522  16.614  0.0289 -0.0886  0.7902
  457TMC3    O1 6814   3.672   1.347  16.709  0.2303 -0.2119  0.2415
  457TMC3    O2 6815   3.252   1.600  16.698 -0.3619  0.3165  0.2059
  458MPD2     C 6816   1.838   0.658  12.371 -0.0982  0.6483  0.5018
  458MPD2    C1 6817   1.793   0.653  12.506 -0.7054 -0.1781  0.2372
  458MPD2    C2 6818   1.690   0.558  12.539  0.5815  0.3152  0.3245
  458MPD2    C3 6819   1.640   0.469  12.444 -0.1744 -0.4636  0.1636
  458MPD2    C4 6820   1.681   0.487  12.311 -0.2652  0.8151 -0.5833
  458MPD2    C5 6821   1.778   0.581  12.280  0.1080 -0.3177 -0.1216
  458MPD2     H 6822   1.654   0.540  12.639 -1.0940  0.4952 -0.2284
  458MPD2    H1 6823   1.650   0.429  12.225  0.4555  1.6527 -1.4099
  458MPD2    H2 6824   1.918   0.722  12.337  0.6011 -0.0853  0.7758
  458MPD2    H3 6825   1.822   0.596  12.182 -3.1403  0.4662 -1.4330
  458MPD2     N 6826   1.531   0.394  12.476 -0.3070  0.4699  0.1970
  458MPD2    H5 6827   1.477   0.415  12.559 -2.5064  2.2458 -1.6439
  458MPD2    N1 6828   1.854   0.748  12.587  0.3092  0.4104  0.1302
  458MPD2    H7 6829   1.927   0.801  12.541 -0.1446  0.5810 -0.4037
  459TMC3    C1 6830   1.900   0.876  12.786 -0.0625  0.0096  0.6084
  459TMC3    C2 6831   2.028   0.897  12.746  0.4603  0.2940  0.6640
  459TMC3    C3 6832   2.126   0.947  12.828 -0.9165  0.0696  0.1037
  459TMC3    C4 6833   1.866   0.908  12.920  0.0044  0.0834  0.6891
  459TMC3    C5 6834   1.963   0.970  13.000  0.2122 -0.7608 -0.7489
  459TMC3    C6 6835   2.096   0.979  12.958 -0.3537 -0.1111  0.0736
  459TMC3     C 6836   1.807   0.790  12.716 -0.1825  0.2739 -0.0889
  459TMC3     O 6837   1.706   0.756  12.777  0.3565  0.0288  0.6659
  459TMC3     H 6838   2.056   0.858  12.649 -1.4358 -0.9948  0.6296
  459TMC3    H1 6839   1.770   0.894  12.968 -1.1790  1.5585 -1.2352
  459TMC3    H2 6840   2.177   1.006  13.025 -1.4688  0.4140  1.2075
  459TMC3    C7 6841   1.934   0.960  13.142  0.5784  0.3509 -0.1154
  459TMC3    C8 6842   2.266   0.933  12.774 -0.4275  0.6478 -0.4566
  459TMC3    O1 6843   1.838   0.894  13.178  0.2252  0.1110 -0.5626
  459TMC3    O2 6844   2.286   0.971  12.661 -0.0131  0.2046 -0.3592
  460MPD2     C 6845   1.206   3.365  10.631  0.2394  0.1913 -0.6021
  460MPD2    C1 6846   1.081   3.306  10.651  0.1841 -0.2111 -0.1328
  460MPD2    C2 6847   0.973   3.335  10.575  0.6768  0.2669 -0.5897
  460MPD2    C3 6848   0.988   3.431  10.468 -0.9516 -0.0592  0.4357
  460MPD2    C4 6849   1.111   3.492  10.448 -0.1673  0.3471 -0.3901
  460MPD2    C5 6850   1.217   3.459  10.531 -0.4240  0.1542  0.0881
  460MPD2     H 6851   0.880   3.280  10.580 -0.5107  2.3349 -0.0850
  460MPD2    H1 6852   1.131   3.567  10.373  2.8392  1.6720  1.7261
  460MPD2    H2 6853   1.296   3.342  10.687 -0.6804 -0.4728  0.6024
  460MPD2    H3 6854   1.312   3.510  10.527 -0.2344 -0.1236  1.0521
  460MPD2     N 6855   0.876   3.465  10.386 -0.0916  0.1842  0.9015
  460MPD2    H5 6856   0.798   3.400  10.384 -0.2511  0.4564 -2.7788
  460MPD2    N1 6857   1.074   3.220  10.764 -0.0074  0.1435  0.3841
  460MPD2    H7 6858   1.164   3.220  10.811  1.2134  2.7084 -2.0077
  461TMC3    C1 6859   0.744   3.599  10.247  0.0519 -0.6907 -1.0160
  461TMC3    C2 6860   0.702   3.495  10.176 -0.0878  0.3849  0.5395
  461TMC3    C3 6861   0.637   3.512  10.055  0.3354  0.0251 -0.1547
  461TMC3    C4 6862   0.716   3.726  10.202 -0.6082  0.2198 -0.0240
  461TMC3    C5 6863   0.645   3.748  10.082  0.0939  1.2341 -0.3308
  461TMC3    C6 6864   0.622   3.638  10.004  0.1619  0.9029  0.1101
  461TMC3     C 6865   0.861   3.586  10.324 -0.4203 -0.2253  0.2772
  461TMC3     O 6866   0.933   3.684  10.319  0.1107  0.1855 -0.5120
  461TMC3     H 6867   0.738   3.393  10.188  0.4890  0.4455 -0.6422
  461TMC3    H1 6868   0.747   3.810  10.262  0.1705 -0.8183  1.0118
  461TMC3    H2 6869   0.572   3.644   9.909 -0.5657 -2.6831  0.2524
  461TMC3    C7 6870   0.632   3.880  10.016  0.5031  0.8584 -0.3662
  461TMC3    C8 6871   0.621   3.405   9.961  0.1783 -0.3349 -0.0847
  461TMC3    O1 6872   0.584   3.885   9.905  0.4967 -0.0593 -0.4056
  461TMC3    O2 6873   0.708   3.323   9.962 -0.1306 -0.3259 -0.0053
  462TMC3    C1 6874   0.720   4.309   0.214  0.3059  0.2213  0.4858
  462TMC3    C2 6875   0.808   4.223   0.150 -0.2071  0.2885 -0.4211
  462TMC3    C3 6876   0.774   4.092   0.140 -0.3357 -0.5789 -0.2510
  462TMC3    C4 6877   0.608   4.263   0.271  0.3207  0.4812  0.1334
  462TMC3    C5 6878   0.586   4.128   0.271 -0.7173 -0.1808 -0.2659
  462TMC3    C6 6879   0.669   4.040   0.209  0.1321 -0.3145  0.2930
  462TMC3     C 6880   0.736   4.448   0.199  0.1017  0.1573 -0.5385
  462TMC3     O 6881   0.851   4.481   0.162 -0.0313 -0.0405 -0.2147
  462TMC3     H 6882   0.881   4.270   0.085  0.5902  1.5544  1.3717
  462TMC3    H1 6883   0.538   4.331   0.319  0.2801  0.7839 -0.3621
  462TMC3    H2 6884   0.629   3.945   0.175 -2.4983  1.0461 -0.4064
  462TMC3    C7 6885   0.465   4.069   0.326  0.4386  0.4650  0.7158
  462TMC3    C8 6886   0.826   4.031   0.019  0.6351  0.3091  0.2339
  462TMC3    O1 6887   0.481   3.955   0.372 -0.2129  0.5702  0.2786
  462TMC3    O2 6888   0.899   4.103  17.652 -0.4440 -0.0347  0.1188
  463MPD2     C 6889   1.797   2.132   1.788 -0.0679 -0.2605 -0.0926
  463MPD2    C1 6890   1.665   2.184   1.787 -0.2550  0.2731 -0.0135
  463MPD2    C2 6891   1.658   2.319   1.793 -0.0367  0.7383 -0.6104
  463MPD2    C3 6892   1.762   2.406   1.798 -0.0559 -0.2594  0.0550
  463MPD2    C4 6893   1.887   2.352   1.796 -0.7037  0.5539 -0.3338
  463MPD2    C5 6894   1.907   2.216   1.788  0.7981 -0.2916 -0.8369
  463MPD2     H 6895   1.558   2.359   1.777 -1.1539 -2.0476 -0.6880
  463MPD2    H1 6896   1.975   2.413   1.810  0.4167 -1.6627  2.3865
  463MPD2    H2 6897   1.819   2.026   1.779  1.9445  0.3669 -2.4334
  463MPD2    H3 6898   2.010   2.183   1.792  0.9817  0.2143 -1.3559
  463MPD2     N 6899   1.762   2.547   1.788  0.5409  0.1067  0.2351
  463MPD2    H5 6900   1.849   2.592   1.762  1.5202 -1.5851  0.5589
  463MPD2    N1 6901   1.550   2.114   1.750 -0.1129 -0.5161 -0.1006
  463MPD2    H7 6902   1.466   2.172   1.747  0.5729  0.4483 -0.5208
  464TMC3    C1 6903   1.413   1.936   1.661 -0.3395 -0.0451 -0.3835
  464TMC3    C2 6904   1.304   2.016   1.647  0.3151 -0.0515 -0.1279
  464TMC3    C3 6905   1.186   1.967   1.599  0.3190  0.8139 -0.2312
  464TMC3    C4 6906   1.405   1.809   1.605 -0.3022 -0.4926  0.0400
  464TMC3    C5 6907   1.286   1.765   1.552 -0.3292  0.2115  0.0600
  464TMC3    C6 6908   1.170   1.838   1.562  0.4065  0.1919  0.1097
  464TMC3     C 6909   1.540   1.981   1.713  0.1152 -0.1910 -0.4335
  464TMC3     O 6910   1.627   1.895   1.729 -0.5693  0.6574 -0.4186
  464TMC3     H 6911   1.296   2.114   1.694 -0.1939 -0.4483  0.6032
  464TMC3    H1 6912   1.496   1.752   1.588  0.9946  2.3662 -2.6550
  464TMC3    H2 6913   1.079   1.781   1.543  0.4263  0.4960 -0.8917
  464TMC3    C7 6914   1.304   1.663   1.438 -0.6961  0.4779  0.3335
  464TMC3    C8 6915   1.064   2.042   1.603  1.1123 -0.3487 -0.3559
  464TMC3    O1 6916   1.415   1.622   1.415 -0.5894  0.2003  0.5266
  464TMC3    O2 6917   1.074   2.162   1.622 -0.1420 -0.0172  0.1819
  465MPD2     C 6918   2.959   0.927  16.964  0.4874  0.3470 -0.9270
  465MPD2    C1 6919   2.901   0.992  17.066 -0.5564 -0.1671 -0.0926
  465MPD2    C2 6920   2.773   1.043  17.053  0.7577 -0.0583 -0.5278
  465MPD2    C3 6921   2.722   1.054  16.925  0.3206  0.5449  0.3129
  465MPD2    C4 6922   2.794   0.998  16.817 -0.4611 -0.2768  0.5188
  465MPD2    C5 6923   2.901   0.922  16.838 -0.2592  0.0754  0.0508
  465MPD2     H 6924   2.731   1.092  17.140  3.1041  1.3897 -0.2034
  465MPD2    H1 6925   2.747   0.998  16.719 -1.2000  0.9965  0.8679
  465MPD2    H2 6926   3.055   0.876  16.966  0.7233  0.9100  1.6245
  465MPD2    H3 6927   2.954   0.867  16.761 -2.5787 -0.8752 -0.8869
  465MPD2     N 6928   2.591   1.112  16.913  0.1714  0.7869  0.1074
  465MPD2    H5 6929   2.548   1.148  16.997 -0.9828  0.4091 -0.3209
  465MPD2    N1 6930   2.964   0.998  17.194 -0.5577  0.2222  0.0353
  465MPD2    H7 6931   2.912   1.035  17.273 -0.2571  3.0377 -1.0791
  466TMC3    C1 6932   2.277   1.311  16.977  0.8278 -0.1126 -0.9332
  466TMC3    C2 6933   2.252   1.407  16.889 -0.1571 -0.0001  0.1684
  466TMC3    C3 6934   2.314   1.398  16.767  0.4351 -0.3124  0.3206
  466TMC3    C4 6935   2.352   1.200  16.951  0.9120 -0.0780  0.2095
  466TMC3    C5 6936   2.402   1.191  16.822 -0.0275  0.4489  0.4879
  466TMC3    C6 6937   2.386   1.294  16.731 -0.1185 -0.3637 -0.1062
  466TMC3     C 6938   2.199   1.318  17.104  0.6285 -0.1144 -0.3746
  466TMC3     O 6939   2.255   1.277  17.205 -0.1798  0.1350  0.4093
  466TMC3     H 6940   2.197   1.496  16.918 -0.7785 -0.7132  1.1887
  466TMC3    H1 6941   2.354   1.124  17.028 -4.4869 -0.8107 -0.3594
  466TMC3    H2 6942   2.440   1.295  16.637 -0.3582  0.7802 -0.2311
  466TMC3    C7 6943   2.520   1.112  16.793 -0.1486 -0.6380  0.3153
  466TMC3    C8 6944   2.317   1.513  16.668 -0.8278 -0.2897 -0.0853
  466TMC3    O1 6945   2.552   1.097  16.677 -0.1760  0.1518  0.0220
  466TMC3    O2 6946   2.339   1.485  16.548  0.1376  0.1138  0.4450
  467TMC3    C1 6947   3.487   0.314  13.614 -0.3427 -0.0687  0.1125
  467TMC3    C2 6948   3.477   0.416  13.521  0.2837 -0.3229 -0.1792
  467TMC3    C3 6949   3.357   0.454  13.463  0.3848 -0.3847 -0.0657
  467TMC3    C4 6950   3.375   0.246  13.649 -0.5937  1.1500 -0.1010
  467TMC3    C5 6951   3.251   0.278  13.591  0.1077  0.2880  0.2304
  467TMC3    C6 6952   3.237   0.390  13.501 -0.9360  0.0428 -0.0543
  467TMC3     C 6953   3.605   0.236  13.609  0.9569 -0.3336 -0.0509
  467TMC3     O 6954   3.620   0.151  13.698  0.3359 -0.2227  0.1380
  467TMC3     H 6955   3.562   0.478  13.493 -0.7883  1.0045 -0.4580
  467TMC3    H1 6956   3.390   0.159  13.712  2.6996  0.6300 -1.5673
  467TMC3    H2 6957   3.137   0.412  13.466 -1.4364 -1.2374  0.5643
  467TMC3    C7 6958   3.145   0.182  13.581 -0.4415 -0.3088  1.0602
  467TMC3    C8 6959   3.374   0.516  13.331 -0.1464 -0.1247 -0.3192
  467TMC3    O1 6960   3.072   0.186  13.487 -0.0046 -0.0392  0.3295
  467TMC3    O2 6961   3.482   0.562  13.298 -0.6281 -0.0401  0.1080
  468MPD2     C 6962   2.778   3.357  10.467 -0.1989  0.0705 -0.4594
  468MPD2    C1 6963   2.733   3.280  10.574 -0.5000  0.7091  0.4175
  468MPD2    C2 6964   2.752   3.143  10.571 -0.0855  0.5099  0.1075
  468MPD2    C3 6965   2.800   3.077  10.456 -0.7518 -0.0437 -0.5550
  468MPD2    C4 6966   2.841   3.156  10.350 -0.4376 -0.2670 -1.0071
  468MPD2    C5 6967   2.838   3.299  10.355 -0.4064 -0.4648  0.0640
  468MPD2     H 6968   2.722   3.092  10.662 -0.2484  2.4371  1.1289
  468MPD2    H1 6969   2.880   3.106  10.262  0.1305 -1.1498 -0.2511
  468MPD2    H2 6970   2.769   3.465  10.459  0.6077  0.0062 -2.1341
  468MPD2    H3 6971   2.858   3.347  10.260 -1.7283 -0.3668 -0.1685
  468MPD2     N 6972   2.791   2.938  10.439  0.3433 -0.2647  0.5108
  468MPD2    H5 6973   2.827   2.892  10.355 -0.1646  0.8456 -0.3229
  468MPD2    N1 6974   2.686   3.338  10.694  0.1004 -0.2356  0.3513
  468MPD2    H7 6975   2.686   3.284  10.780 -2.7039 -1.2219 -0.2759
  469TMC3    C1 6976   2.634   3.495  10.853  0.9373 -0.3640 -0.0355
  469TMC3    C2 6977   2.727   3.441  10.930  0.7985 -0.2630  0.3442
  469TMC3    C3 6978   2.743   3.492  11.058  0.1689 -0.1763  0.4569
  469TMC3    C4 6979   2.554   3.597  10.903  0.2619 -0.7668  0.1502
  469TMC3    C5 6980   2.565   3.631  11.036 -0.3515 -0.7099  0.6102
  469TMC3    C6 6981   2.659   3.579  11.117 -0.0339 -0.3212 -0.2726
  469TMC3     C 6982   2.652   3.469  10.716 -0.6447  0.4543 -0.3445
  469TMC3     O 6983   2.639   3.565  10.643  0.0635 -0.1455 -0.2210
  469TMC3     H 6984   2.807   3.384  10.885  0.4697 -0.8486  0.4990
  469TMC3    H1 6985   2.478   3.632  10.834  0.8461  0.4311  0.1080
  469TMC3    H2 6986   2.665   3.587  11.225 -0.1008  0.5258 -0.3260
  469TMC3    C7 6987   2.451   3.705  11.095  0.2522  0.4118 -0.5708
  469TMC3    C8 6988   2.883   3.492  11.103  0.0150  0.5093  0.1042
  469TMC3    O1 6989   2.362   3.719  11.015  0.2648  0.3657  0.3960
  469TMC3    O2 6990   2.966   3.422  11.049  0.3009  0.2294  0.2643
  470TMC3    C1 6991   4.499   3.661   0.527  0.8694  1.0307  0.3674
  470TMC3    C2 6992   4.494   3.779   0.459 -0.0856  0.2821 -0.0921
  470TMC3    C3 6993   4.544   3.895   0.514 -0.0949 -0.4294  0.1723
  470TMC3    C4 6994   4.561   3.657   0.649 -0.3125  0.3175 -0.2557
  470TMC3    C5 6995   4.610   3.773   0.698 -0.3979  0.4440  0.7728
  470TMC3    C6 6996   4.593   3.891   0.639 -0.1999  0.8616 -0.0977
  470TMC3     C 6997   4.474   3.540   0.456 -0.4030  0.1714  0.2877
  470TMC3     O 6998   4.511   3.440   0.513 -0.0233  0.5660 -0.3242
  470TMC3     H 6999   4.462   3.790   0.356 -2.2762 -0.6466  0.4840
  470TMC3    H1 7000   4.564   3.560   0.696  1.9531 -0.9541 -3.0419
  470TMC3    H2 7001   4.613   3.985   0.689 -0.6662  0.7223  0.3541
  470TMC3    C7 7002   4.701   3.782   0.807 -0.0749 -0.0530  0.6493
  470TMC3    C8 7003   4.499   4.027   0.455  0.0371  0.0892 -0.3942
  470TMC3    O1 7004   0.043   3.886   0.813  0.1327  0.1866  0.2667
  470TMC3    O2 7005   4.436   4.024   0.350  0.1065  0.4111  0.0234
  471MPD2     C 7006   0.919   0.454  16.561 -0.1440 -0.0242  0.3487
  471MPD2    C1 7007   0.898   0.324  16.524  0.0340  0.2981 -0.3917
  471MPD2    C2 7008   0.943   0.221  16.604  0.3747 -0.4332  0.1919
  471MPD2    C3 7009   1.009   0.251  16.721  0.1068 -0.2506  0.2390
  471MPD2    C4 7010   1.021   0.379  16.762  0.0885 -0.5495  0.6122
  471MPD2    C5 7011   0.986   0.482  16.673  0.5107 -0.0168  0.0341
  471MPD2     H 7012   0.929   0.121  16.564  1.5589 -1.4801  2.3738
  471MPD2    H1 7013   1.073   0.408  16.852 -0.1043  0.4293  0.4054
  471MPD2    H2 7014   0.906   0.535  16.490 -0.1262  0.5588  1.0174
  471MPD2    H3 7015   0.994   0.579  16.720 -1.9328  0.2757 -0.1386
  471MPD2     N 7016   1.063   0.155  16.804 -0.2024  0.5033 -0.0496
  471MPD2    H5 7017   1.094   0.186  16.896  0.7719  2.1171 -0.9285
  471MPD2    N1 7018   0.815   0.290  16.412  0.0194  0.6808  0.5182
  471MPD2    H7 7019   0.817   0.193  16.385 -0.1961  0.3867  1.5513
  472TMC3    C1 7020   0.660   0.301  16.249  0.5612 -0.2268 -0.0324
  472TMC3    C2 7021   0.525   0.316  16.270  0.3745 -0.0761 -0.1115
  472TMC3    C3 7022   0.442   0.207  16.249 -0.3374  0.7694  0.4722
  472TMC3    C4 7023   0.706   0.184  16.205  0.4727  0.1063 -0.7377
  472TMC3    C5 7024   0.619   0.081  16.185  0.1565 -0.3587  0.0837
  472TMC3    C6 7025   0.485   0.081  16.219 -0.0546 -0.4768 -0.3953
  472TMC3     C 7026   0.736   0.377  16.344  0.2946  0.9315  0.3542
  472TMC3     O 7027   0.693   0.488  16.372 -0.3680  0.2306  0.8304
  472TMC3     H 7028   0.488   0.417  16.279 -0.1131 -0.2254 -0.4556
  472TMC3    H1 7029   0.809   0.178  16.172  0.3736 -3.3911 -0.5056
  472TMC3    H2 7030   0.417   0.002  16.186 -0.9335  0.1098  0.0145
  472TMC3    C7 7031   0.677   4.684  16.129 -0.3835 -1.2551  0.0409
  472TMC3    C8 7032   0.295   0.232  16.270 -0.9856  0.3469  0.1730
  472TMC3    O1 7033   0.783   4.696  16.066 -0.0673 -0.1844  0.3248
  472TMC3    O2 7034   0.266   0.352  16.286 -0.2705  0.1446 -0.4226
  473MPD2     C 7035   0.135   2.499  14.073 -0.2687 -0.8217  0.5578
  473MPD2    C1 7036   0.251   2.541  14.014 -0.3097 -0.2692 -0.7189
  473MPD2    C2 7037   0.337   2.613  14.092 -0.5216 -0.2451 -0.5360
  473MPD2    C3 7038   0.313   2.641  14.220 -0.2657  0.0350 -0.1073
  473MPD2    C4 7039   0.201   2.596  14.282  0.0661 -0.0751  0.2315
  473MPD2    C5 7040   0.116   2.524  14.206  0.6686  0.1413 -0.1482
  473MPD2     H 7041   0.416   2.670  14.045  1.2632 -1.9046  0.4075
  473MPD2    H1 7042   0.173   2.606  14.386  0.4323 -1.7470  0.4851
  473MPD2    H2 7043   0.050   2.456  14.023 -0.7577  2.0358 -1.0318
  473MPD2    H3 7044   0.027   2.482  14.251 -1.0217  3.0838 -0.7260
  473MPD2     N 7045   0.396   2.724  14.300  0.0098  0.5291 -0.0344
  473MPD2    H5 7046   0.367   2.736  14.397  0.7570 -1.1691  0.4003
  473MPD2    N1 7047   0.269   2.537  13.876  0.2866  0.5670 -0.6922
  473MPD2    H7 7048   0.351   2.589  13.845  1.9828 -1.4464  0.4043
  474TMC3    C1 7049   0.557   2.867  14.370  0.0677  1.3063 -0.1617
  474TMC3    C2 7050   0.458   2.962  14.414 -0.1745 -0.3710  0.2365
  474TMC3    C3 7051   0.500   3.088  14.460 -0.2091 -0.0143  0.2558
  474TMC3    C4 7052   0.687   2.900  14.374 -1.2339  0.3954 -0.2636
  474TMC3    C5 7053   0.723   3.023  14.428 -0.0084  0.6219  0.1099
  474TMC3    C6 7054   0.639   3.119  14.477  0.5116  0.2843 -0.0680
  474TMC3     C 7055   0.518   2.777  14.268  0.0705  0.3069 -0.1815
  474TMC3     O 7056   0.577   2.788  14.163 -0.1847 -0.3768  0.5553
  474TMC3     H 7057   0.351   2.948  14.407 -0.1219 -1.8404  2.3669
  474TMC3    H1 7058   0.761   2.829  14.337  1.4027  1.7208  2.4411
  474TMC3    H2 7059   0.670   3.216  14.516 -1.3260  1.5957 -1.8612
  474TMC3    C7 7060   0.863   3.028  14.464 -0.4930 -0.2484  0.2978
  474TMC3    C8 7061   0.404   3.198  14.435 -0.9177 -0.3174 -0.2437
  474TMC3    O1 7062   0.947   2.967  14.395 -0.5318  0.0711 -0.0422
  474TMC3    O2 7063   0.280   3.180  14.454  0.1036  0.0711 -0.2416
  475MPD2     C 7064   3.318   1.331  10.681  0.0336  0.0660 -0.0877
  475MPD2    C1 7065   3.281   1.267  10.562  0.5528 -0.2433  0.7295
  475MPD2    C2 7066   3.185   1.321  10.482  0.0271  0.1568  0.1348
  475MPD2    C3 7067   3.120   1.437  10.512 -0.0368  0.7809  0.2844
  475MPD2    C4 7068   3.154   1.495  10.628 -0.0680 -0.0088 -0.3259
  475MPD2    C5 7069   3.246   1.440  10.711 -0.3126 -0.0896  0.5148
  475MPD2     H 7070   3.182   1.269  10.387  0.1069 -1.4896  1.0130
  475MPD2    H1 7071   3.103   1.588  10.652 -0.9342 -0.5246 -0.1700
  475MPD2    H2 7072   3.399   1.299  10.746  2.1899 -0.1606 -2.8690
  475MPD2    H3 7073   3.263   1.494  10.804 -1.3197  1.7033 -0.3539
  475MPD2     N 7074   3.039   1.492  10.415  0.3752  0.4382  0.0168
  475MPD2    H5 7075   3.068   1.465  10.321 -0.3526  4.1373 -1.2827
  475MPD2    N1 7076   3.366   1.159  10.521  0.1994  0.1464  0.3058
  475MPD2    H7 7077   3.448   1.144  10.579  1.5254 -0.7841 -1.7962
  476TMC3    C1 7078   3.441   0.991  10.362  0.5582 -0.0081  0.5123
  476TMC3    C2 7079   3.389   0.896  10.279 -0.3171  0.0189  0.2641
  476TMC3    C3 7080   3.483   0.852  10.187 -0.7423  1.1226  0.6808
  476TMC3    C4 7081   3.566   1.042  10.351 -0.1291 -0.4370 -0.1734
  476TMC3    C5 7082   3.653   1.001  10.257  0.5351  0.2097 -0.6428
  476TMC3    C6 7083   3.615   0.899  10.178  1.1536  0.5076 -1.0507
  476TMC3     C 7084   3.336   1.078  10.418  0.5349  0.3033 -0.4380
  476TMC3     O 7085   3.225   1.054  10.368 -0.0590  0.1386  1.1194
  476TMC3     H 7086   3.291   0.851  10.288 -0.3244  0.5306  2.7015
  476TMC3    H1 7087   3.582   1.129  10.414  1.3533 -0.6887 -0.2141
  476TMC3    H2 7088   3.681   0.862  10.100 -1.3340 -0.3315 -2.7481
  476TMC3    C7 7089   3.781   1.056  10.253 -0.1697  0.0324  1.0242
  476TMC3    C8 7090   3.437   0.790  10.062 -0.1710  0.4105 -0.1938
  476TMC3    O1 7091   3.847   1.023  10.158  0.5117 -0.2590 -0.3922
  476TMC3    O2 7092   3.519   0.752   9.981 -0.0270  0.5362 -0.3754
  477MPD2     C 7093   1.430   2.105  11.151 -0.3113 -0.2576  0.0144
  477MPD2    C1 7094   1.353   2.144  11.260 -0.0640 -0.2106 -0.5901
  477MPD2    C2 7095   1.380   2.073  11.378 -0.0059 -0.2098  0.1595
  477MPD2    C3 7096   1.473   1.975  11.383 -0.2885  0.1273  0.1530
  477MPD2    C4 7097   1.534   1.934  11.271 -0.1199  0.0275 -0.4120
  477MPD2    C5 7098   1.519   2.000  11.156  0.7353  0.0304  1.0234
  477MPD2     H 7099   1.330   2.093  11.472  1.2818  1.5010  0.4686
  477MPD2    H1 7100   1.609   1.857  11.260  0.7030  0.7544  0.1857
  477MPD2    H2 7101   1.419   2.158  11.058 -0.5178  0.1283  0.2591
  477MPD2    H3 7102   1.576   1.973  11.068 -0.6311  1.7110 -0.3776
  477MPD2     N 7103   1.497   1.889  11.495  0.3457 -0.1520 -0.7417
  477MPD2    H5 7104   1.542   1.799  11.477 -0.2296  0.0902 -3.4316
  477MPD2    N1 7105   1.247   2.242  11.252 -0.4463  0.6247  0.1470
  477MPD2    H7 7106   1.228   2.285  11.162 -3.6929  1.3357  1.1434
  478TMC3    C1 7107   1.063   2.374  11.325 -0.0510 -0.4244 -0.1219
  478TMC3    C2 7108   0.974   2.408  11.424  0.2225 -0.3771 -0.3346
  478TMC3    C3 7109   0.873   2.491  11.399 -1.7497 -0.1006  0.1566
  478TMC3    C4 7110   1.050   2.420  11.200  0.4526 -0.1727 -0.0915
  478TMC3    C5 7111   0.946   2.508  11.178 -0.4572  0.3966 -0.4052
  478TMC3    C6 7112   0.861   2.553  11.277 -0.3763 -0.5544 -0.0431
  478TMC3     C 7113   1.168   2.281  11.360  0.0349  0.6099  0.3293
  478TMC3     O 7114   1.168   2.254  11.475 -0.2508  0.3947 -0.2910
  478TMC3     H 7115   0.992   2.372  11.525  0.5023 -1.6080 -0.8190
  478TMC3    H1 7116   1.111   2.397  11.113  1.3825  0.8889  0.2844
  478TMC3    H2 7117   0.788   2.631  11.258 -2.4335 -2.8108 -1.3478
  478TMC3    C7 7118   0.940   2.571  11.048  0.4054 -0.6969  0.0023
  478TMC3    C8 7119   0.798   2.534  11.514 -0.7318 -0.4600 -0.5876
  478TMC3    O1 7120   1.054   2.592  11.005  0.6381  0.1643  0.3913
  478TMC3    O2 7121   0.765   2.448  11.598 -0.2068 -0.1937  0.1541
  479MPD2     C 7122   4.349   4.322  14.897  0.0902  0.5664  0.3132
  479MPD2    C1 7123   4.326   4.239  15.007  0.5079  0.3687  0.0463
  479MPD2    C2 7124   4.373   4.278  15.133 -0.1028  0.6693  0.3025
  479MPD2    C3 7125   4.448   4.403  15.144 -0.1581  0.0563  0.3808
  479MPD2    C4 7126   4.472   4.474  15.027 -0.6589 -0.0037  0.0989
  479MPD2    C5 7127   4.432   4.429  14.906  0.0678  0.0517 -0.0519
  479MPD2     H 7128   4.372   4.203  15.211 -2.0272 -0.2173 -0.5646
  479MPD2    H1 7129   4.531   4.564  15.027 -0.0397 -0.4103 -0.4501
  479MPD2    H2 7130   4.318   4.287  14.799 -2.8130  1.6457  0.8250
  479MPD2    H3 7131   4.458   4.485  14.817  0.6393 -1.6411 -0.9660
  479MPD2     N 7132   4.512   4.454  15.251  0.4938 -0.0154 -0.2101
  479MPD2    H5 7133   4.580   4.524  15.226 -0.4625  0.8090 -0.5191
  479MPD2    N1 7134   4.252   4.117  14.989 -0.4785  0.0896 -0.1686
  479MPD2    H7 7135   4.234   4.097  14.891  0.8495  0.8414 -0.5683
  480TMC3    C1 7136   0.038   4.408  15.636 -0.1754 -0.7916  0.0969
  480TMC3    C2 7137   0.118   4.507  15.588 -0.9972  0.6622  0.0005
  480TMC3    C3 7138   0.073   4.586  15.484 -0.2479 -0.0740 -0.8096
  480TMC3    C4 7139   4.643   4.379  15.573 -0.8668 -0.1589  1.2490
  480TMC3    C5 7140   4.602   4.456  15.465  0.4049  0.1985  0.2809
  480TMC3    C6 7141   4.673   4.565  15.422  0.5041  0.4487  0.3246
  480TMC3     C 7142   0.088   4.310  15.730  0.1750 -0.2183 -0.3149
  480TMC3     O 7143   0.015   4.222  15.772  0.4064  0.1732  0.0669
  480TMC3     H 7144   0.214   4.537  15.631  0.2469 -1.3816 -1.3724
  480TMC3    H1 7145   4.573   4.305  15.608  0.5915 -1.2488  1.8960
  480TMC3    H2 7146   4.616   4.635  15.362 -1.5046 -1.7059 -0.3185
  480TMC3    C7 7147   4.504   4.400  15.375  0.1900  0.7040 -0.6887
  480TMC3    C8 7148   0.147   4.700  15.448 -0.8145  0.9675 -0.2925
  480TMC3    O1 7149   4.415   4.327  15.414 -1.2983  0.3084 -0.5401
  480TMC3    O2 7150   0.218   0.027  15.531  0.5607 -0.3144  0.1118
  481MPD2     C 7151   1.771   4.411  14.293 -0.8143 -0.1426  0.0396
  481MPD2    C1 7152   1.671   4.322  14.313 -0.1849  0.1437 -0.6277
  481MPD2    C2 7153   1.627   4.300  14.445  0.0174 -0.4788  0.0259
  481MPD2    C3 7154   1.697   4.364  14.549  0.3974 -0.2261 -0.5031
  481MPD2    C4 7155   1.797   4.453  14.518 -0.2019  0.3779  0.8776
  481MPD2    C5 7156   1.834   4.484  14.392  0.8672 -0.3863  0.0672
  481MPD2     H 7157   1.535   4.244  14.456  0.0015 -0.0929  1.7807
  481MPD2    H1 7158   1.850   4.513  14.592 -0.7114  3.7026 -1.4729
  481MPD2    H2 7159   1.809   4.429  14.193  3.7404  0.8303  1.9131
  481MPD2    H3 7160   1.915   4.553  14.369 -0.6696  1.8485  1.4044
  481MPD2     N 7161   1.669   4.345  14.687 -0.2801  0.8322 -0.0945
  481MPD2    H5 7162   1.716   4.408  14.751  1.3214  0.0559 -0.5039
  481MPD2    N1 7163   1.604   4.265  14.202  0.1178 -0.5376  0.1727
  481MPD2    H7 7164   1.629   4.315  14.117 -1.0077 -1.5157 -0.7289
  482TMC3    C1 7165   1.437   4.166  14.081 -0.0603 -0.2916 -0.1027
  482TMC3    C2 7166   1.342   4.064  14.065  0.2070  0.5712 -0.1028
  482TMC3    C3 7167   1.257   4.072  13.957 -0.0719 -0.4552 -0.1667
  482TMC3    C4 7168   1.448   4.268  13.989 -0.3172  0.8412 -0.3638
  482TMC3    C5 7169   1.369   4.262  13.877 -0.0265 -0.5335 -0.1129
  482TMC3    C6 7170   1.272   4.163  13.856  0.7536  0.7537  0.1956
  482TMC3     C 7171   1.503   4.174  14.208 -0.2766  0.3265  0.2205
  482TMC3     O 7172   1.478   4.095  14.300 -0.1327  0.5071 -0.3258
  482TMC3     H 7173   1.345   3.976  14.128  2.0932  0.5538 -0.2269
  482TMC3    H1 7174   1.528   4.341  13.992 -0.5027  0.9424  2.3595
  482TMC3    H2 7175   1.199   4.176  13.777  0.1015 -2.3368  0.2909
  482TMC3    C7 7176   1.420   4.322  13.757 -0.0892  0.1941 -0.2847
  482TMC3    C8 7177   1.160   3.962  13.946  0.0863  0.2232  0.1070
  482TMC3    O1 7178   1.473   4.432  13.776 -0.9582  0.0581  0.5759
  482TMC3    O2 7179   1.191   3.857  14.004 -0.2929 -0.2973 -0.2626
  483TMC3    C1 7180   4.143   3.213   1.013  0.6956  1.1432 -0.7003
  483TMC3    C2 7181   4.234   3.301   0.969 -0.3472  0.4265 -0.4766
  483TMC3    C3 7182   4.370   3.271   0.999 -0.2158  0.3086  0.0335
  483TMC3    C4 7183   4.175   3.107   1.087 -0.0874  0.1981  0.2779
  483TMC3    C5 7184   4.309   3.086   1.113  0.3311  0.0581  0.1153
  483TMC3    C6 7185   4.404   3.166   1.077 -0.0446  0.4669 -0.7482
  483TMC3     C 7186   4.007   3.212   0.956  0.0546 -0.1246 -0.4538
  483TMC3     O 7187   3.963   3.313   0.905 -0.1280 -0.0841  0.8144
  483TMC3     H 7188   4.204   3.370   0.891 -2.7854  0.4085  0.4171
  483TMC3    H1 7189   4.099   3.049   1.140  0.7491 -0.6155  0.5776
  483TMC3    H2 7190   4.505   3.128   1.087 -0.0054 -0.0278 -3.0581
  483TMC3    C7 7191   4.353   2.962   1.178  0.1127  0.4279 -0.8291
  483TMC3    C8 7192   4.466   3.335   0.916  0.4112  0.8192 -0.2985
  483TMC3    O1 7193   4.455   2.946   1.249  0.5506  0.5826  0.0657
  483TMC3    O2 7194   4.424   3.399   0.824  0.3625  0.0376  0.1397
  484MPD2     C 7195   2.487   0.682  12.925  0.2166 -0.0931 -0.8247
  484MPD2    C1 7196   2.466   0.798  12.847 -0.3813  0.3371 -0.0841
  484MPD2    C2 7197   2.553   0.832  12.748 -0.4344 -0.2209  0.2911
  484MPD2    C3 7198   2.674   0.770  12.729  0.0836 -0.1490 -0.2144
  484MPD2    C4 7199   2.699   0.664  12.810  0.5474  0.4746 -0.8825
  484MPD2    C5 7200   2.607   0.616  12.899  0.8552 -0.1175  0.1062
  484MPD2     H 7201   2.523   0.917  12.688  2.0549 -0.4631 -1.2878
  484MPD2    H1 7202   2.794   0.610  12.814  0.5700  0.5900  0.1104
  484MPD2    H2 7203   2.419   0.650  13.002  0.3898  0.0607 -0.6094
  484MPD2    H3 7204   2.630   0.523  12.950 -0.7496 -1.3546 -1.4115
  484MPD2     N 7205   2.760   0.826  12.637  0.4512 -0.4575 -0.0523
  484MPD2    H5 7206   2.741   0.922  12.608  0.3076 -1.0647 -1.9414
  484MPD2    N1 7207   2.340   0.858  12.866 -0.2098 -0.3303  0.5621
  484MPD2    H7 7208   2.280   0.823  12.940 -1.0153  0.6434  0.3697
  485TMC3    C1 7209   2.959   0.830  12.497  0.4169 -0.2771 -0.4691
  485TMC3    C2 7210   3.088   0.787  12.482 -0.1155 -0.2170 -0.1625
  485TMC3    C3 7211   3.171   0.866  12.411 -0.2933  0.1987  0.2719
  485TMC3    C4 7212   2.910   0.946  12.431  0.8495  0.0258  0.7047
  485TMC3    C5 7213   2.993   1.014  12.350  0.2690 -0.0404  0.3030
  485TMC3    C6 7214   3.129   0.979  12.347  0.0424 -0.8764  0.2522
  485TMC3     C 7215   2.869   0.757  12.587  0.1062 -0.1640  0.4340
  485TMC3     O 7216   2.905   0.645  12.608 -0.8398 -0.4434  0.3563
  485TMC3     H 7217   3.125   0.695  12.526  1.9031  0.5926 -0.1285
  485TMC3    H1 7218   2.805   0.971  12.427  0.7638 -0.6158 -1.1915
  485TMC3    H2 7219   3.193   1.041  12.286  0.2355  0.6638  2.0050
  485TMC3    C7 7220   2.936   1.039  12.218  0.0254  0.3196 -0.3110
  485TMC3    C8 7221   3.259   0.799  12.320 -0.6307 -0.1886 -0.1462
  485TMC3    O1 7222   2.825   1.091  12.204  0.2421  0.4846 -0.7436
  485TMC3    O2 7223   3.233   0.834  12.205 -0.0071  0.0070 -0.0136
  486MPD2     C 7224   4.650   4.291  12.332 -0.1584  0.0058 -0.3108
  486MPD2    C1 7225   4.597   4.320  12.456  0.1508  0.2872  0.3748
  486MPD2    C2 7226   4.558   4.450  12.482 -0.0659  0.0952  0.0788
  486MPD2    C3 7227   4.579   4.548  12.380  0.4516  0.3287  0.3916
  486MPD2    C4 7228   4.642   4.513  12.266 -0.2966  0.5268 -0.2687
  486MPD2    C5 7229   4.664   4.385  12.235  0.0227 -0.9219  0.9067
  486MPD2     H 7230   4.520   4.487  12.577  0.1157 -1.7759  0.8898
  486MPD2    H1 7231   4.674   4.581  12.188 -0.1813 -0.0823 -0.7532
  486MPD2    H2 7232   4.680   4.192  12.299  0.7413 -0.2729  1.3235
  486MPD2    H3 7233   0.004   4.374  12.148 -1.1125 -0.7556  0.0474
  486MPD2     N 7234   4.555   4.686  12.414 -0.0731 -0.9932 -0.2235
  486MPD2    H5 7235   4.499   4.705  12.497 -2.6200  3.0874 -2.8100
  486MPD2    N1 7236   4.575   4.214  12.545 -0.0579  0.8377 -0.6523
  486MPD2    H7 7237   4.596   4.118  12.518 -2.6462  0.1807 -0.2770
  487TMC3    C1 7238   4.452   4.095  12.711  0.7344  0.2659  0.3632
  487TMC3    C2 7239   4.402   3.993  12.630  0.3876 -0.1826 -0.5840
  487TMC3    C3 7240   4.330   3.891  12.680  0.8173  0.0495 -0.1873
  487TMC3    C4 7241   4.423   4.088  12.850  0.8592  0.6646 -0.0415
  487TMC3    C5 7242   4.363   3.976  12.904 -0.0106  0.4496  0.5927
  487TMC3    C6 7243   4.322   3.876  12.818 -0.1969  0.5636 -0.1018
  487TMC3     C 7244   4.503   4.221  12.664 -0.1279 -0.0217  0.0039
  487TMC3     O 7245   4.460   4.316  12.726  0.1826 -0.1446 -0.2137
  487TMC3     H 7246   4.397   4.013  12.524 -2.9944 -0.0959 -0.4277
  487TMC3    H1 7247   4.449   4.162  12.924 -1.7843  1.6404 -0.0844
  487TMC3    H2 7248   4.252   3.799  12.849  1.0222 -0.5096  0.0272
  487TMC3    C7 7249   4.282   4.012  13.015  0.4660  0.6652 -0.0603
  487TMC3    C8 7250   4.209   3.873  12.609  0.3929  0.3332  0.0189
  487TMC3    O1 7251   4.264   4.132  13.036  0.3233  0.3014  0.2040
  487TMC3    O2 7252   4.198   3.837  12.491  0.2647  0.1966  0.0874
  488MPD2     C 7253   4.676   1.340  16.499 -0.5713  0.6732 -0.3632
  488MPD2    C1 7254   4.687   1.468  16.558  0.1553 -0.7307  0.1561
  488MPD2    C2 7255   4.620   1.492  16.676  0.1016 -0.3531  0.4773
  488MPD2    C3 7256   4.573   1.387  16.749 -0.3467  0.2426 -0.1832
  488MPD2    C4 7257   4.580   1.258  16.697 -0.4944 -0.3519 -0.3006
  488MPD2    C5 7258   4.631   1.234  16.570 -0.4483 -0.7286  0.1712
  488MPD2     H 7259   4.625   1.586  16.729  0.2976  0.1799 -0.4878
  488MPD2    H1 7260   4.539   1.175  16.753 -1.8646 -0.5721 -1.6032
  488MPD2    H2 7261   4.711   1.313  16.400  1.5919 -1.1477  0.8766
  488MPD2    H3 7262   4.622   1.137  16.522 -0.6818 -0.4802 -0.2901
  488MPD2     N 7263   4.529   1.414  16.887  0.5204  0.1583 -0.3279
  488MPD2    H5 7264   4.533   1.512  16.913  0.3739 -0.5217  2.2386
  488MPD2    N1 7265   0.026   1.577  16.496 -0.1669  0.2876 -0.7015
  488MPD2    H7 7266   0.006   1.669  16.534  1.0766  1.0047 -1.7798
  489TMC3    C1 7267   4.450   1.367  17.110 -0.4238  0.0638 -0.0543
  489TMC3    C2 7268   4.478   1.500  17.143  0.5735 -0.3499  0.0505
  489TMC3    C3 7269   4.413   1.557  17.250  0.1092 -0.3644 -0.3020
  489TMC3    C4 7270   4.370   1.288  17.186  0.2754 -0.4916  0.2081
  489TMC3    C5 7271   4.307   1.351  17.294 -0.6347 -0.6604  0.5470
  489TMC3    C6 7272   4.339   1.480  17.337  0.3401 -0.0622 -0.4811
  489TMC3     C 7273   4.488   1.318  16.979  0.1988  0.5957  0.1471
  489TMC3     O 7274   4.476   1.198  16.969  0.1130  0.1913 -0.5957
  489TMC3     H 7275   4.549   1.562  17.090 -0.7049 -0.3053 -1.6432
  489TMC3    H1 7276   4.334   1.192  17.150  1.6691 -0.7089 -0.6000
  489TMC3    H2 7277   4.315   1.515  17.437 -0.8305  0.6618 -1.0114
  489TMC3    C7 7278   4.254   1.260  17.396  0.5287  0.6252 -0.6704
  489TMC3    C8 7279   4.434   1.696  17.290 -0.3011 -0.4259 -0.6170
  489TMC3    O1 7280   4.259   1.296  17.514  0.4732  0.1921  0.0675
  489TMC3    O2 7281   4.545   1.743  17.285 -0.6050 -0.0180  0.2183
  490MPD2     C 7282   0.142   1.223   0.182  0.6189 -0.8384  0.6525
  490MPD2    C1 7283   0.173   1.098   0.147  0.1186  0.7424  0.3885
  490MPD2    C2 7284   0.286   1.075   0.074  0.1285  0.6904 -0.7044
  490MPD2    C3 7285   0.372   1.174   0.037  0.3508  0.2823 -0.0131
  490MPD2    C4 7286   0.337   1.306   0.074  0.7304 -0.5101 -0.5519
  490MPD2    C5 7287   0.223   1.327   0.145 -0.0180 -0.2069 -0.4930
  490MPD2     H 7288   0.306   0.971   0.052 -0.9672  0.4812 -0.6914
  490MPD2    H1 7289   0.396   1.393   0.049  0.1475 -0.1709 -0.7579
  490MPD2    H2 7290   0.052   1.246   0.239 -0.1268  0.6495 -1.1273
  490MPD2    H3 7291   0.205   1.427   0.184  2.6824  0.1894 -0.2337
  490MPD2     N 7292   0.496   1.158  17.660 -0.3193  0.8303  0.2410
  490MPD2    H5 7293   0.555   1.237  17.637  1.1330 -0.0764  0.8298
  490MPD2    N1 7294   0.094   0.986   0.196 -0.0369  0.6227 -0.1163
  490MPD2    H7 7295   0.113   0.893   0.159  0.8729  1.7520 -2.5023
  491TMC3    C1 7296   4.667   0.874   0.332  0.3978 -0.0647 -0.4395
  491TMC3    C2 7297   4.628   0.874   0.467  0.1590 -0.7108  0.2731
  491TMC3    C3 7298   4.607   0.752   0.523 -0.4419 -0.3102  1.6530
  491TMC3    C4 7299   4.684   0.763   0.258 -0.1697  0.1515 -0.0101
  491TMC3    C5 7300   4.651   0.648   0.320 -0.0596  0.3300  0.9267
  491TMC3    C6 7301   4.607   0.637   0.450 -0.2365 -0.5717 -0.2660
  491TMC3     C 7302   4.720   0.999   0.298 -0.6488 -0.1276 -0.2163
  491TMC3     O 7303   4.690   1.093   0.372 -0.0560 -0.5896 -0.0314
  491TMC3     H 7304   4.634   0.964   0.527 -1.5148 -0.7348  0.4735
  491TMC3    H1 7305   4.715   0.774   0.155  0.1300 -0.5730  0.0003
  491TMC3    H2 7306   4.589   0.542   0.498 -0.4428 -0.6933 -0.5849
  491TMC3    C7 7307   4.650   0.531   0.236 -0.0072 -0.3305 -0.4145
  491TMC3    C8 7308   4.599   0.749   0.671 -0.1771  0.4893  0.5395
  491TMC3    O1 7309   4.647   0.547   0.112 -0.2197  0.3952  0.4973
  491TMC3    O2 7310   4.547   0.852   0.712 -0.4645  0.3815  0.5078
  492MPD2     C 7311   0.966   1.236  10.929 -0.6323 -0.1583 -0.0319
  492MPD2    C1 7312   0.892   1.161  10.848  0.5850  0.0094 -0.3080
  492MPD2    C2 7313   0.790   1.077  10.890 -0.6359 -0.8438 -0.0595
  492MPD2    C3 7314   0.759   1.072  11.025 -0.3263 -0.6903 -0.1834
  492MPD2    C4 7315   0.836   1.146  11.107  0.6919 -0.5169  0.5672
  492MPD2    C5 7316   0.935   1.227  11.063 -0.4530  0.1087  0.1492
  492MPD2     H 7317   0.722   1.032  10.818 -1.5928 -1.1921  1.0549
  492MPD2    H1 7318   0.809   1.137  11.211  1.6925  1.9005  1.0386
  492MPD2    H2 7319   1.035   1.311  10.891 -0.7281 -0.8662 -1.6049
  492MPD2    H3 7320   0.999   1.290  11.125 -1.3417  1.9232 -0.7852
  492MPD2     N 7321   0.653   0.994  11.078  0.4804  0.5104 -0.3926
  492MPD2    H5 7322   0.637   0.995  11.178  3.1447 -1.0533  0.0419
  492MPD2    N1 7323   0.913   1.182  10.709 -0.0941  0.2247  0.6819
  492MPD2    H7 7324   0.989   1.243  10.682  0.4041 -1.0876 -0.8610
  493TMC3    C1 7325   0.876   1.214  10.492 -0.7617 -0.1201 -0.7832
  493TMC3    C2 7326   1.007   1.259  10.478 -0.6256  0.2537 -0.2321
  493TMC3    C3 7327   1.038   1.325  10.359 -0.2033 -0.1236  0.5781
  493TMC3    C4 7328   0.782   1.231  10.392  0.5893  0.2391 -0.3199
  493TMC3    C5 7329   0.823   1.284  10.274 -0.1693  0.6799  0.4176
  493TMC3    C6 7330   0.953   1.320  10.250 -0.3717  0.2180 -0.5628
  493TMC3     C 7331   0.830   1.153  10.613 -0.2010 -0.2838  0.2225
  493TMC3     O 7332   0.716   1.107  10.614 -0.7166  0.2074  0.0749
  493TMC3     H 7333   1.087   1.256  10.551 -0.3697  0.4845 -0.5006
  493TMC3    H1 7334   0.678   1.218  10.422  0.5296  0.4602 -0.4265
  493TMC3    H2 7335   0.990   1.356  10.155 -1.7618 -1.7280 -1.8425
  493TMC3    C7 7336   0.725   1.285  10.165  0.6982 -0.1594 -0.0217
  493TMC3    C8 7337   1.161   1.396  10.347 -0.3345  0.2377 -0.3285
  493TMC3    O1 7338   0.611   1.317  10.200 -0.1089 -0.1652  0.3941
  493TMC3    O2 7339   1.239   1.372  10.436 -0.8341  0.5130  0.3325
  494TMC3    C1 7340   1.119   2.802   0.688  0.3547 -0.4966  0.1040
  494TMC3    C2 7341   1.084   2.671   0.672 -0.6089  0.5032  0.2822
  494TMC3    C3 7342   1.079   2.616   0.548 -0.5092  0.1798 -0.4270
  494TMC3    C4 7343   1.149   2.878   0.578  0.1251  0.1147 -0.1953
  494TMC3    C5 7344   1.142   2.818   0.457  0.0243  0.0875 -0.3027
  494TMC3    C6 7345   1.106   2.692   0.434  0.2872 -0.1456  0.2254
  494TMC3     C 7346   1.139   2.847   0.817  0.1788 -0.6886 -0.0991
  494TMC3     O 7347   1.227   2.930   0.835  0.0936  0.2667 -0.6315
  494TMC3     H 7348   1.077   2.599   0.753  2.2385  1.7793  1.6577
  494TMC3    H1 7349   1.181   2.981   0.592 -0.0211  0.1673 -0.2546
  494TMC3    H2 7350   1.104   2.646   0.336  1.1254  1.7218 -0.6714
  494TMC3    C7 7351   1.214   2.884   0.342 -0.4386 -0.1371  0.5822
  494TMC3    C8 7352   1.065   2.470   0.533  0.0845  0.8262 -1.1442
  494TMC3    O1 7353   1.222   2.817   0.242 -0.4397  0.2086  0.1308
  494TMC3    O2 7354   1.025   2.407   0.632 -0.3932 -0.1585 -0.2384
  495TMC3    C1 7355   0.039   0.259  14.515  0.0111 -0.6488  0.5750
  495TMC3    C2 7356   4.645   0.227  14.451  0.2123 -0.1690  0.1327
  495TMC3    C3 7357   4.529   0.211  14.532 -0.7952 -0.3019 -0.5135
  495TMC3    C4 7358   0.047   0.260  14.650  0.4892  0.1409 -0.9402
  495TMC3    C5 7359   4.656   0.253  14.725 -0.3231  0.6541  0.4093
  495TMC3    C6 7360   4.535   0.233  14.667 -0.4197 -1.0400  0.4656
  495TMC3     C 7361   0.138   0.174  14.462  0.0150  0.1560  0.1883
  495TMC3     O 7362   0.256   0.211  14.453 -0.0035  0.6402 -0.1893
  495TMC3     H 7363   4.654   0.197  14.347  1.4394  2.1566 -0.4349
  495TMC3    H1 7364   0.142   0.269  14.702 -0.4054  2.0218  0.3668
  495TMC3    H2 7365   4.448   0.221  14.731 -1.4921  0.0157 -0.8188
  495TMC3    C7 7366   4.676   0.211  14.863 -0.2399  0.5664 -0.3327
  495TMC3    C8 7367   4.418   0.134  14.480  0.1875 -0.0739 -0.0494
  495TMC3    O1 7368   4.616   0.115  14.906  0.0952 -0.0689  0.0428
  495TMC3    O2 7369   4.333   0.111  14.565  0.5363 -0.0085 -0.2606
  496MPD2     C 7370   2.170   4.375  15.196 -0.0704 -1.2616  0.3306
  496MPD2    C1 7371   2.134   4.259  15.260  0.0403 -0.0077  0.9730
  496MPD2    C2 7372   2.025   4.268  15.352 -0.5640  0.8688 -0.2208
  496MPD2    C3 7373   1.968   4.395  15.374  0.0282 -0.0493  0.1230
  496MPD2    C4 7374   2.010   4.504  15.303  0.0738  0.9832  0.1671
  496MPD2    C5 7375   2.118   4.495  15.220  0.2885  0.3970 -0.9925
  496MPD2     H 7376   1.982   4.179  15.396 -3.2312  2.7149  0.8412
  496MPD2    H1 7377   1.969   4.603  15.313 -0.0222  0.8652  0.9489
  496MPD2    H2 7378   2.245   4.368  15.119  0.7249  2.2584  0.7786
  496MPD2    H3 7379   2.149   4.579  15.160  0.8712  0.3436 -0.7704
  496MPD2     N 7380   1.868   4.409  15.476  0.1969  0.5024 -0.8742
  496MPD2    H5 7381   1.830   4.324  15.517  0.0477  1.9501  1.9962
  496MPD2    N1 7382   2.208   4.147  15.223  0.0455 -0.2711 -1.1211
  496MPD2    H7 7383   2.296   4.163  15.175 -0.2938 -2.6169 -2.4921
  497TMC3    C1 7384   1.764   4.527  15.653 -0.7400  0.8872 -0.1515
  497TMC3    C2 7385   1.637   4.488  15.622 -0.5407  0.3956 -0.0117
  497TMC3    C3 7386   1.546   4.515  15.722  0.0857 -0.6740  0.1399
  497TMC3    C4 7387   1.804   4.603  15.762 -0.5015 -0.0710  0.0972
  497TMC3    C5 7388   1.708   4.622  15.857  0.2649  0.0763 -0.1651
  497TMC3    C6 7389   1.577   4.579  15.837 -0.3342 -0.3213  0.0410
  497TMC3     C 7390   1.856   4.531  15.547  0.1567  0.1481  0.1721
  497TMC3     O 7391   1.941   4.622  15.560  0.1336 -0.3525 -0.0470
  497TMC3     H 7392   1.619   4.423  15.537  0.0849  1.9574 -1.3404
  497TMC3    H1 7393   1.910   4.605  15.787 -0.2595  0.2662 -0.9466
  497TMC3    H2 7394   1.501   4.611  15.906 -1.5355 -1.4795 -0.7388
  497TMC3    C7 7395   1.737   4.657  15.997 -0.1972 -0.0560  0.2108
  497TMC3    C8 7396   1.411   4.509  15.681  0.1680 -0.6872 -0.5088
  497TMC3    O1 7397   1.648   4.627  16.077  0.8678 -0.7279 -0.2311
  497TMC3    O2 7398   1.334   4.534  15.772 -0.0838 -0.4895  0.7268
  498MPD2     C 7399   2.505   1.200   9.177  0.7683 -0.5094  0.2250
  498MPD2    C1 7400   2.574   1.162   9.291 -1.1485  0.5420 -0.2516
  498MPD2    C2 7401   2.512   1.076   9.386 -0.4222 -0.0206  0.4545
  498MPD2    C3 7402   2.387   1.025   9.366 -0.0499  0.3089  0.3598
  498MPD2    C4 7403   2.321   1.059   9.246 -0.0421  0.0893  0.3212
  498MPD2    C5 7404   2.381   1.150   9.158 -1.0305  0.1073  0.7900
  498MPD2     H 7405   2.572   1.036   9.467  1.7985 -1.1040 -1.7212
  498MPD2    H1 7406   2.233   1.005   9.211 -0.1706 -0.2846  1.1985
  498MPD2    H2 7407   2.545   1.272   9.105  1.5101 -0.1960  0.9454
  498MPD2    H3 7408   2.324   1.184   9.073  0.9726  0.3203 -0.4723
  498MPD2     N 7409   2.333   0.952   9.473 -0.3672  0.0448  0.1377
  498MPD2    H5 7410   2.394   0.936   9.553  1.5054  0.7933 -1.1400
  498MPD2    N1 7411   2.713   1.191   9.307  0.2383 -0.0298  0.0838
  498MPD2    H7 7412   2.753   1.148   9.390  0.7125  4.7117  2.2718
  499TMC3    C1 7413   2.925   1.286   9.287 -0.1306  0.0501 -0.3655
  499TMC3    C2 7414   2.957   1.218   9.397 -0.4765  0.1355 -0.4387
  499TMC3    C3 7415   3.075   1.242   9.463  0.0677 -0.2378 -0.4624
  499TMC3    C4 7416   3.012   1.372   9.222 -0.2745 -0.3514 -0.0390
  499TMC3    C5 7417   3.134   1.390   9.289  0.4820 -0.1995  0.0019
  499TMC3    C6 7418   3.166   1.328   9.405  0.2651 -0.7164  0.2494
  499TMC3     C 7419   2.790   1.270   9.233  0.0952 -0.7334  0.1206
  499TMC3     O 7420   2.776   1.340   9.132 -0.1265  0.0613 -0.4543
  499TMC3     H 7421   2.893   1.147   9.448  0.3313 -1.7810 -2.0732
  499TMC3    H1 7422   2.979   1.439   9.144 -0.0359 -0.3992 -0.1805
  499TMC3    H2 7423   3.265   1.334   9.447  0.4475  0.1869 -0.2895
  499TMC3    C7 7424   3.241   1.460   9.228 -0.1732 -0.3516 -0.4526
  499TMC3    C8 7425   3.092   1.177   9.593 -0.3244 -0.0808  0.3994
  499TMC3    O1 7426   3.356   1.446   9.271  0.5074 -0.0549 -0.1330
  499TMC3    O2 7427   2.993   1.116   9.638  0.2317 -0.0040 -0.1820
  500MPD2     C 7428   0.136   2.237  10.711  0.0955 -0.3703  0.0212
  500MPD2    C1 7429   0.160   2.338  10.617 -0.2757  0.0801 -0.1156
  500MPD2    C2 7430   0.053   2.367  10.530  0.0685  0.3471  0.2519
  500MPD2    C3 7431   4.662   2.288  10.528 -0.0122 -0.5140 -0.3665
  500MPD2    C4 7432   4.648   2.189  10.622 -0.1721  0.1904 -0.1308
  500MPD2    C5 7433   0.027   2.162  10.709 -0.1686  0.2206 -0.1188
  500MPD2     H 7434   0.063   2.451  10.462 -3.8891  0.3472 -0.3484
  500MPD2    H1 7435   4.567   2.119  10.607  0.5132 -0.6693  0.1655
  500MPD2    H2 7436   0.212   2.220  10.787  0.7582 -2.4196 -1.1103
  500MPD2    H3 7437   0.014   2.078  10.776  0.5477  0.2049 -0.0067
  500MPD2     N 7438   4.560   2.313  10.435 -0.2592 -0.4947  0.1731
  500MPD2    H5 7439   4.469   2.274  10.457 -0.8647 -0.3854 -2.1440
  500MPD2    N1 7440   0.282   2.410  10.598  0.0336 -0.5542  0.2247
  500MPD2    H7 7441   0.279   2.483  10.528 -3.1024  1.6716  2.6326
  501TMC3    C1 7442   0.520   2.436  10.573 -0.1977  0.2589  0.0954
  501TMC3    C2 7443   0.494   2.515  10.465 -0.6358  0.4818 -0.1030
  501TMC3    C3 7444   0.607   2.585  10.423 -0.0098  0.3229 -0.2659
  501TMC3    C4 7445   0.644   2.405  10.618 -0.2028  0.1775  0.8472
  501TMC3    C5 7446   0.757   2.469  10.556  0.2180  0.1164 -0.0282
  501TMC3    C6 7447   0.734   2.577  10.467 -0.0048 -0.0643  0.4695
  501TMC3     C 7448   0.407   2.369  10.635 -0.9291  0.0194  0.0032
  501TMC3     O 7449   0.437   2.285  10.717  0.5596  0.2407 -0.0261
  501TMC3     H 7450   0.393   2.539  10.434 -0.5930 -0.3786 -0.8962
  501TMC3    H1 7451   0.657   2.345  10.708 -0.3998  1.6469  1.8631
  501TMC3    H2 7452   0.810   2.628  10.410 -0.9442  1.0729  0.2384
  501TMC3    C7 7453   0.886   2.401  10.589 -0.0783 -0.4549  0.2102
  501TMC3    C8 7454   0.582   2.698  10.335 -0.0677 -0.4660 -0.3804
  501TMC3    O1 7455   0.873   2.307  10.670  0.3869 -0.0020 -0.0799
  501TMC3    O2 7456   0.663   2.786  10.345 -0.2711 -0.0154  0.4707
  502TMC3    C1 7457   4.155   0.452  15.454 -0.3124 -0.5538  0.1735
  502TMC3    C2 7458   4.143   0.497  15.322 -0.1921  0.4798 -0.1527
  502TMC3    C3 7459   4.030   0.477  15.258 -1.1152 -0.1353  0.3513
  502TMC3    C4 7460   4.060   0.370  15.513 -0.5965 -0.2372 -0.0746
  502TMC3    C5 7461   3.946   0.349  15.441  0.0699 -0.1424  0.4272
  502TMC3    C6 7462   3.926   0.407  15.317 -0.2350 -0.8769  0.3270
  502TMC3     C 7463   4.269   0.504  15.537 -0.5086 -0.1591  0.4257
  502TMC3     O 7464   4.379   0.529  15.480 -0.5026 -0.1062  0.1251
  502TMC3     H 7465   4.228   0.554  15.287  1.2331 -0.5415  1.6420
  502TMC3    H1 7466   4.066   0.329  15.614 -0.5222  3.0427  1.2427
  502TMC3    H2 7467   3.842   0.385  15.253 -0.5068  1.4531 -0.1455
  502TMC3    C7 7468   3.835   0.293  15.507  0.4397 -0.2882  0.6644
  502TMC3    C8 7469   4.004   0.525  15.120  0.8711  0.0811  0.0110
  502TMC3    O1 7470   3.861   0.218  15.598 -0.1414  0.2767 -0.3281
  502TMC3    O2 7471   3.915   0.466  15.061 -0.3649  0.3330  0.1074
  503MPD2     C 7472   1.674   1.648  16.557  0.4689 -0.0121 -0.1859
  503MPD2    C1 7473   1.617   1.646  16.683 -0.2454  0.2919  0.6953
  503MPD2    C2 7474   1.607   1.527  16.754 -0.1392 -1.3603  0.4333
  503MPD2    C3 7475   1.664   1.410  16.714 -0.5190  0.2966 -0.2725
  503MPD2    C4 7476   1.725   1.414  16.587 -0.3316  0.2304  0.2560
  503MPD2    C5 7477   1.719   1.532  16.508  0.0052 -0.4749  0.6415
  503MPD2     H 7478   1.561   1.528  16.852 -0.1520  0.5689  0.4132
  503MPD2    H1 7479   1.774   1.326  16.548 -0.1271 -0.0367  1.1228
  503MPD2    H2 7480   1.691   1.736  16.496 -2.4219  1.7834  1.6310
  503MPD2    H3 7481   1.767   1.526  16.411  1.2634 -1.1766  1.3072
  503MPD2     N 7482   1.669   1.282  16.781 -0.2829  0.2243  0.5272
  503MPD2    H5 7483   1.712   1.200  16.738 -0.5674 -0.3840  1.4185
  503MPD2    N1 7484   1.571   1.756  16.749  0.0711  0.3266 -0.6599
  503MPD2    H7 7485   1.537   1.751  16.844 -0.5308  0.6515 -0.8579
  504TMC3    C1 7486   1.675   1.147  16.968  0.0063 -0.7642 -0.0783
  504TMC3    C2 7487   1.612   1.104  17.082 -0.0580 -0.2530 -0.1816
  504TMC3    C3 7488   1.669   1.018  17.166  0.7026 -0.0377  0.0184
  504TMC3    C4 7489   1.799   1.107  16.934 -0.1292  0.1320  0.5739
  504TMC3    C5 7490   1.861   1.041  17.036 -0.1657  0.4536 -0.2365
  504TMC3    C6 7491   1.801   0.990  17.150 -0.3240  0.2794 -0.8974
  504TMC3     C 7492   1.625   1.270  16.910 -0.0377  0.1385 -0.2142
  504TMC3     O 7493   1.547   1.342  16.976 -0.2758 -0.0213 -0.2979
  504TMC3     H 7494   1.521   1.153  17.116 -0.4169 -0.6462 -0.5762
  504TMC3    H1 7495   1.853   1.154  16.854 -0.3489  0.6990  0.7628
  504TMC3    H2 7496   1.847   0.923  17.221 -0.7682  0.9665  0.0326
  504TMC3    C7 7497   1.989   0.989  16.998  0.2385  0.4675  0.4968
  504TMC3    C8 7498   1.578   0.927  17.235  0.1568 -0.0337  0.0303
  504TMC3    O1 7499   2.011   0.989  16.878 -0.3891  0.3709  0.6490
  504TMC3    O2 7500   1.461   0.938  17.199  0.5040  0.2691  0.4055
  505MPD2     C 7501   1.872   0.702  10.834 -0.6223 -0.5055 -0.4223
  505MPD2    C1 7502   1.902   0.575  10.791  0.2395 -0.3128  0.2609
  505MPD2    C2 7503   2.036   0.547  10.788  1.3239  0.1679 -0.5217
  505MPD2    C3 7504   2.132   0.634  10.827 -0.1059  0.1805 -0.6317
  505MPD2    C4 7505   2.101   0.753  10.883 -0.5001  0.6680 -0.0902
  505MPD2    C5 7506   1.969   0.786  10.892  1.1768 -0.5230 -0.1196
  505MPD2     H 7507   2.068   0.451  10.749  0.4163 -0.8734  1.3353
  505MPD2    H1 7508   2.168   0.821  10.934  0.0324  0.8061 -0.9809
  505MPD2    H2 7509   1.772   0.742  10.831 -0.5942 -0.3147  1.1621
  505MPD2    H3 7510   1.951   0.884  10.935 -0.3385 -1.7480  2.0117
  505MPD2     N 7511   2.268   0.611  10.829 -0.2350 -0.1137  0.1688
  505MPD2    H5 7512   2.331   0.689  10.844  0.2836 -0.9212  2.1010
  505MPD2    N1 7513   1.804   0.479  10.746 -0.0197 -0.1362 -0.2738
  505MPD2    H7 7514   1.709   0.512  10.729  0.6108  1.3998 -0.8211
  506TMC3    C1 7515   1.724   0.267  10.676 -0.1887 -0.5464 -0.0124
  506TMC3    C2 7516   1.685   0.316  10.553 -0.0083  0.1824 -0.0518
  506TMC3    C3 7517   1.676   0.215  10.454 -0.1740 -1.0062  0.5890
  506TMC3    C4 7518   1.750   0.133  10.697  0.6444 -0.8142  0.0028
  506TMC3    C5 7519   1.743   0.040  10.595  0.1535 -0.6757  0.1279
  506TMC3    C6 7520   1.695   0.080  10.474 -0.0249 -0.8648  0.9191
  506TMC3     C 7521   1.820   0.342  10.741 -0.7005  0.3220 -0.1038
  506TMC3     O 7522   1.915   0.273  10.784  0.0306 -0.7109  0.4314
  506TMC3     H 7523   1.692   0.422  10.529 -1.5675  0.2931  0.0193
  506TMC3    H1 7524   1.782   0.095  10.793 -1.6120  0.3503  1.2072
  506TMC3    H2 7525   1.692   0.007  10.394  1.1253  1.0176 -0.8077
  506TMC3    C7 7526   1.859   4.679  10.571 -0.1141 -0.4295  0.5028
  506TMC3    C8 7527   1.639   0.250  10.317 -0.9232  0.1596 -0.2116
  506TMC3    O1 7528   1.857   4.605  10.473 -0.3624  0.2992 -0.5535
  506TMC3    O2 7529   1.567   0.166  10.259  0.3217  0.2327 -0.0097
  507TMC3    C1 7530   2.556   0.899  15.108  0.0385 -0.9102  0.4115
  507TMC3    C2 7531   2.522   0.816  14.999 -0.4015 -0.6256 -0.4923
  507TMC3    C3 7532   2.608   0.808  14.889  0.3664  0.6255 -0.2668
  507TMC3    C4 7533   2.670   0.981  15.105  0.4912  0.3946  0.6327
  507TMC3    C5 7534   2.749   0.970  14.992  0.3541  0.3931  0.6216
  507TMC3    C6 7535   2.725   0.877  14.893 -0.0319 -0.0447  0.4591
  507TMC3     C 7536   2.454   0.938  15.208  0.2969  0.2846  0.4474
  507TMC3     O 7537   2.458   1.055  15.248 -0.0964  0.4619 -0.0255
  507TMC3     H 7538   2.435   0.753  14.988  1.3982 -3.1604 -0.1445
  507TMC3    H1 7539   2.682   1.049  15.189  1.4620 -0.1791  0.9586
  507TMC3    H2 7540   2.786   0.867  14.804 -1.2873  0.4491 -0.4712
  507TMC3    C7 7541   2.814   1.088  14.933  0.5937  0.6335  1.1254
  507TMC3    C8 7542   2.538   0.828  14.764  0.2346 -0.0629  0.0345
  507TMC3    O1 7543   2.843   1.086  14.817 -0.3670 -0.1904  0.0259
  507TMC3    O2 7544   2.423   0.784  14.762 -0.3411 -0.0631  0.1583
  508MPD2     C 7545   3.715   3.534  16.446  0.2042 -0.3777  0.3883
  508MPD2    C1 7546   3.771   3.447  16.355  0.2379 -0.2513  1.0141
  508MPD2    C2 7547   3.724   3.452  16.222 -0.5671 -0.0339  0.6224
  508MPD2    C3 7548   3.616   3.536  16.195 -0.0638 -0.9207  0.3909
  508MPD2    C4 7549   3.548   3.599  16.291 -0.2061  0.2886 -0.4592
  508MPD2    C5 7550   3.608   3.608  16.412 -0.4060  0.2599 -0.1428
  508MPD2     H 7551   3.775   3.405  16.139  1.4942  2.1277  0.6480
  508MPD2    H1 7552   3.455   3.654  16.280  0.8698  2.1693 -0.1785
  508MPD2    H2 7553   3.758   3.542  16.545  0.3483  0.1541  0.2862
  508MPD2    H3 7554   3.575   3.680  16.486 -1.3901  0.6531 -0.9577
  508MPD2     N 7555   3.578   3.544  16.061  0.2808 -0.0944  0.1408
  508MPD2    H5 7556   3.625   3.482  15.996  0.3080  0.2899 -0.2000
  508MPD2    N1 7557   3.870   3.355  16.406 -0.5375 -0.3264 -0.0787
  508MPD2    H7 7558   3.879   3.347  16.507  3.0942  0.4861 -0.3417
  509TMC3    C1 7559   3.325   3.701  15.693 -0.7432  0.0876 -0.0043
  509TMC3    C2 7560   3.431   3.679  15.605 -0.0419  0.0149  0.0578
  509TMC3    C3 7561   3.547   3.625  15.654  1.2970  0.5722 -0.0862
  509TMC3    C4 7562   3.335   3.649  15.822 -0.3397  0.2787 -0.3963
  509TMC3    C5 7563   3.447   3.589  15.866  0.9200 -0.7263  1.0293
  509TMC3    C6 7564   3.558   3.581  15.785 -0.4843  0.1090 -0.8506
  509TMC3     C 7565   3.229   3.803  15.673 -0.6054  0.1427  0.0683
  509TMC3     O 7566   3.181   3.839  15.779  0.2249  0.1144 -0.3350
  509TMC3     H 7567   3.439   3.724  15.507  2.3442  1.5230  0.9328
  509TMC3    H1 7568   3.251   3.664  15.890  0.4607  3.2105 -0.0307
  509TMC3    H2 7569   3.658   3.559  15.823 -0.3415  0.0640 -1.2574
  509TMC3    C7 7570   3.463   3.607  16.011  0.8811  0.1159 -0.2513
  509TMC3    C8 7571   3.677   3.666  15.600 -0.2348 -0.0479  0.0820
  509TMC3    O1 7572   3.377   3.672  16.067  0.1569  0.3651  0.4723
  509TMC3    O2 7573   3.784   3.599  15.616 -0.2061 -0.1045 -0.1143
  510MPD2     C 7574   1.622   0.669  14.594 -0.0876 -0.1305 -1.1143
  510MPD2    C1 7575   1.611   0.533  14.596 -0.1070 -0.0098 -0.4928
  510MPD2    C2 7576   1.716   0.447  14.555  0.2522 -0.7493 -0.3884
  510MPD2    C3 7577   1.838   0.496  14.514 -0.0948  0.5813  0.0319
  510MPD2    C4 7578   1.848   0.638  14.510  0.5108  0.4027 -0.7797
  510MPD2    C5 7579   1.736   0.720  14.547  0.3232  0.2688 -0.9652
  510MPD2     H 7580   1.695   0.341  14.553  1.9542 -1.0526 -2.8686
  510MPD2    H1 7581   1.934   0.694  14.475  0.4952  0.7346 -0.2928
  510MPD2    H2 7582   1.539   0.737  14.610 -0.7569 -0.6985 -2.1925
  510MPD2    H3 7583   1.748   0.826  14.531  1.2421  0.1704 -0.9183
  510MPD2     N 7584   1.941   0.413  14.468 -0.2753 -0.1871  0.5736
  510MPD2    H5 7585   1.921   0.314  14.472 -0.5521 -0.2201 -1.8567
  510MPD2    N1 7586   1.493   0.467  14.634 -0.5266  0.5977 -0.0269
  510MPD2    H7 7587   1.485   0.373  14.599  0.7883 -0.6491  3.0103
  511TMC3    C1 7588   1.272   0.425  14.706 -0.0528  0.6949  0.3443
  511TMC3    C2 7589   1.172   0.463  14.794 -0.4083  0.0100  0.0577
  511TMC3    C3 7590   1.058   0.392  14.796 -0.2110 -0.1506 -0.9975
  511TMC3    C4 7591   1.269   0.315  14.624 -0.1796 -0.2679 -0.6959
  511TMC3    C5 7592   1.158   0.239  14.642 -0.0028  0.3880  0.1961
  511TMC3    C6 7593   1.054   0.280  14.719 -0.7663  0.1007  0.5614
  511TMC3     C 7594   1.379   0.520  14.694  0.7583 -0.3671  0.4735
  511TMC3     O 7595   1.364   0.632  14.745  0.0711  0.1215  0.0487
  511TMC3     H 7596   1.199   0.543  14.862  2.6760 -0.1010 -1.0418
  511TMC3    H1 7597   1.351   0.289  14.558  0.7461 -0.0673  0.3937
  511TMC3    H2 7598   0.961   0.225  14.714 -0.7299  0.2634 -1.9461
  511TMC3    C7 7599   1.131   0.123  14.557  0.6876  0.2346 -0.6830
  511TMC3    C8 7600   0.961   0.417  14.905 -0.2779 -0.1031 -0.2503
  511TMC3    O1 7601   1.197   0.113  14.456  0.5163 -0.5305  0.2274
  511TMC3    O2 7602   0.953   0.528  14.949 -0.3644  0.2236 -0.4500
  512TMC3    C1 7603   0.095   4.400  12.797  0.0087  0.3286 -0.4326
  512TMC3    C2 7604   0.115   4.351  12.926 -0.0188 -0.8205 -0.2005
  512TMC3    C3 7605   0.185   4.233  12.938  0.0884 -0.3153  0.2509
  512TMC3    C4 7606   0.152   4.331  12.695 -0.2562 -0.4113  0.1171
  512TMC3    C5 7607   0.215   4.209  12.710 -0.1204  0.2426  0.9166
  512TMC3    C6 7608   0.218   4.154  12.833  0.3653  0.4725 -0.1229
  512TMC3     C 7609   0.025   4.523  12.783 -0.0188 -0.0609  0.0639
  512TMC3     O 7610   0.075   4.604  12.709 -0.0903  0.3064  0.2270
  512TMC3     H 7611   0.083   4.416  13.006  0.3558 -0.0244 -0.7002
  512TMC3    H1 7612   0.120   4.367  12.597 -0.4574 -0.1412  0.2813
  512TMC3    H2 7613   0.272   4.061  12.847  1.0397  0.7562 -0.8584
  512TMC3    C7 7614   0.245   4.130  12.594 -0.0471  0.8735  0.6626
  512TMC3    C8 7615   0.223   4.166  13.064  0.3368 -0.0429  0.4513
  512TMC3    O1 7616   0.222   4.180  12.485 -0.3242 -0.0657  0.0306
  512TMC3    O2 7617   0.213   4.044  13.062 -0.8613  0.2529 -0.1318
  513MPD2     C 7618   1.670   4.085  13.113  0.0802 -0.2341 -0.1709
  513MPD2    C1 7619   1.775   4.150  13.061 -0.8163 -0.0526 -0.2821
  513MPD2    C2 7620   1.851   4.237  13.144  0.0859 -0.7992  0.3453
  513MPD2    C3 7621   1.814   4.263  13.273  0.0836 -0.3060 -0.2023
  513MPD2    C4 7622   1.707   4.195  13.330  0.2038  0.3684 -0.4788
  513MPD2    C5 7623   1.637   4.110  13.244  0.0330  0.2758  0.1247
  513MPD2     H 7624   1.933   4.295  13.104  0.1337 -1.2740 -0.2559
  513MPD2    H1 7625   1.668   4.221  13.427  2.7955 -2.8937  1.4219
  513MPD2    H2 7626   1.604   4.022  13.054  1.3772  0.6767 -2.6005
  513MPD2    H3 7627   1.543   4.081  13.290  0.0023 -0.7382 -0.5918
  513MPD2     N 7628   1.892   4.351  13.349 -0.0781 -0.1230  0.2321
  513MPD2    H5 7629   1.960   4.407  13.298  0.3641 -0.8378  0.0418
  513MPD2    N1 7630   1.812   4.121  12.930 -0.0249  0.0427 -0.2472
  513MPD2    H7 7631   1.742   4.067  12.880 -0.9434  0.5807  0.4566
  514TMC3    C1 7632   1.942   4.127  12.727  0.2066 -0.0059 -0.1414
  514TMC3    C2 7633   1.860   4.193  12.640 -0.1855 -0.1894 -0.4557
  514TMC3    C3 7634   1.917   4.252  12.531 -0.4656  0.2317 -0.1458
  514TMC3    C4 7635   2.076   4.128  12.709  0.2676 -0.4414 -0.0052
  514TMC3    C5 7636   2.128   4.212  12.613 -0.4492 -0.5455  0.0392
  514TMC3    C6 7637   2.050   4.267  12.516 -0.0115 -0.2606  0.1336
  514TMC3     C 7638   1.922   4.168  12.864  0.3633  0.2680  0.0340
  514TMC3     O 7639   2.011   4.243  12.897  0.4854  0.4369  0.0579
  514TMC3     H 7640   1.753   4.191  12.654 -0.0430 -1.8794  0.4301
  514TMC3    H1 7641   2.140   4.091  12.789 -1.2913  0.0783  1.4917
  514TMC3    H2 7642   2.096   4.350  12.464  0.1926  0.6260  1.7561
  514TMC3    C7 7643   2.242   4.291  12.654  0.4322  0.8675  0.8010
  514TMC3    C8 7644   1.821   4.321  12.438 -0.3650  0.1038  0.1010
  514TMC3    O1 7645   2.329   4.305  12.567  0.2346 -0.9046 -0.1269
  514TMC3    O2 7646   1.703   4.323  12.465  0.2367 -0.2284  0.1848
  515MPD2     C 7647   4.562   1.347  14.452  0.0654 -0.5386 -0.1585
  515MPD2    C1 7648   4.609   1.265  14.553 -0.0598  0.3171  0.3954
  515MPD2    C2 7649   0.000   1.299  14.612  0.3815 -0.1805  0.1075
  515MPD2    C3 7650   0.071   1.421  14.575  0.1182 -0.0237 -0.2286
  515MPD2    C4 7651   0.014   1.502  14.484 -0.2281  0.6197  0.6885
  515MPD2    C5 7652   4.621   1.466  14.427 -0.4220 -0.2285 -0.1609
  515MPD2     H 7653   0.041   1.238  14.691 -0.5279 -0.6899  0.1729
  515MPD2    H1 7654   0.066   1.594  14.458  0.9219  0.0332  0.9294
  515MPD2    H2 7655   4.476   1.326  14.389  1.1330  1.1262 -2.1448
  515MPD2    H3 7656   4.580   1.534  14.354 -0.6217  0.0704  0.2320
  515MPD2     N 7657   0.190   1.464  14.639 -0.9275  0.0837 -0.4749
  515MPD2    H5 7658   0.242   1.539  14.594 -0.8874  1.4121  1.8015
  515MPD2    N1 7659   4.549   1.146  14.584  0.8271  0.8150 -0.5274
  515MPD2    H7 7660   4.591   1.090  14.657  1.2696 -1.1843 -2.3092
  516TMC3    C1 7661   4.444   0.940  14.522 -0.8353  0.4643 -0.5296
  516TMC3    C2 7662   4.459   0.872  14.406  0.5918 -0.3354  0.3908
  516TMC3    C3 7663   4.510   0.744  14.418 -0.3469  0.0933 -0.2641
  516TMC3    C4 7664   4.469   0.897  14.651 -0.0878 -0.9723 -0.2116
  516TMC3    C5 7665   4.492   0.760  14.659 -0.7594  0.2690 -0.9678
  516TMC3    C6 7666   4.515   0.681  14.544  0.9843 -0.9195 -0.2174
  516TMC3     C 7667   4.448   1.090  14.509 -0.0151 -0.1582 -0.4509
  516TMC3     O 7668   4.385   1.130  14.410  0.2555  0.6784 -0.0767
  516TMC3     H 7669   4.432   0.909  14.308  1.7727 -0.5223  0.0050
  516TMC3    H1 7670   4.458   0.953  14.743 -0.0865  0.8301 -1.3179
  516TMC3    H2 7671   4.550   0.579  14.552 -0.7939 -1.4751  0.3673
  516TMC3    C7 7672   4.492   0.705  14.792 -0.1831  0.3747  0.1978
  516TMC3    C8 7673   4.530   0.667  14.300 -0.1728 -1.1653  0.1767
  516TMC3    O1 7674   4.523   0.786  14.874  0.1923 -0.5689  0.1192
  516TMC3    O2 7675   4.501   0.546  14.302  0.0284  0.2396 -0.1970
  517MPD2     C 7676   4.473   3.006  17.277 -0.8796  0.0189 -0.0609
  517MPD2    C1 7677   4.583   2.957  17.352 -0.1353  0.5770 -0.6235
  517MPD2    C2 7678   4.644   3.050  17.443  0.1695 -0.1000 -0.3207
  517MPD2    C3 7679   4.584   3.176  17.457 -0.1574  0.6603  0.4010
  517MPD2    C4 7680   4.481   3.219  17.386  0.1433 -0.0929  0.7897
  517MPD2    C5 7681   4.425   3.134  17.290 -0.4706  0.1087  0.4551
  517MPD2     H 7682   0.001   3.011  17.502  0.6532 -0.2747 -1.0964
  517MPD2    H1 7683   4.437   3.315  17.411 -0.3600 -0.2189  0.3965
  517MPD2    H2 7684   4.421   2.936  17.212 -0.6099 -0.4512  0.2298
  517MPD2    H3 7685   4.331   3.158  17.243 -0.3212  1.5745  0.9086
  517MPD2     N 7686   4.631   3.267  17.566  0.0671  0.3931  0.7547
  517MPD2    H5 7687   4.582   3.355  17.563 -1.5581 -0.4507  2.2466
  517MPD2    N1 7688   4.631   2.828  17.348  0.2460 -0.0411 -0.0485
  517MPD2    H7 7689   0.003   2.811  17.377  0.1871 -0.8125 -0.3009
  518TMC3    C1 7690   4.658   2.608  17.266 -0.3824 -0.1073 -0.5159
  518TMC3    C2 7691   4.613   2.489  17.306 -0.5048  0.7064 -0.7191
  518TMC3    C3 7692   4.703   2.386  17.312 -0.5320  0.3136 -0.3437
  518TMC3    C4 7693   0.064   2.634  17.246  0.3257  0.7373  0.5930
  518TMC3    C5 7694   0.155   2.530  17.257 -0.0467  0.4535 -0.2198
  518TMC3    C6 7695   0.113   2.407  17.298 -0.1597  0.1015  0.2949
  518TMC3     C 7696   4.570   2.727  17.275 -0.1028  0.3782  0.1395
  518TMC3     O 7697   4.455   2.691  17.251  0.2900 -0.0344 -0.4998
  518TMC3     H 7698   4.508   2.466  17.320 -0.6226  1.7473  0.0605
  518TMC3    H1 7699   0.101   2.732  17.219 -0.5800  1.2355  1.1680
  518TMC3    H2 7700   0.182   2.323  17.299 -1.3230 -0.8927 -1.9669
  518TMC3    C7 7701   0.291   2.556  17.208  0.3947  0.2892  0.5742
  518TMC3    C8 7702   4.659   2.260  17.372 -0.3377  0.9551 -0.5136
  518TMC3    O1 7703   0.310   2.645  17.126  0.2408 -0.2154 -0.1915
  518TMC3    O2 7704   0.019   2.172  17.349  0.4219 -0.6883  0.4744
  519MPD2     C 7705   1.400   1.273  14.314 -0.1016  0.3518  0.3296
  519MPD2    C1 7706   1.334   1.226  14.201  0.1577  0.6500  0.7890
  519MPD2    C2 7707   1.396   1.135  14.119  0.0654  0.2399  0.2094
  519MPD2    C3 7708   1.518   1.087  14.148  0.0246  0.4419  0.4276
  519MPD2    C4 7709   1.591   1.144  14.254  0.2426  0.3130 -0.2524
  519MPD2    C5 7710   1.527   1.233  14.339 -0.8664 -0.2949 -0.6026
  519MPD2     H 7711   1.332   1.099  14.039  1.4095 -1.6969  0.0208
  519MPD2    H1 7712   1.693   1.112  14.275  0.2819  0.0848 -0.8028
  519MPD2    H2 7713   1.346   1.328  14.391  0.0142 -0.1933  0.8044
  519MPD2    H3 7714   1.581   1.281  14.420  0.1581  0.8883 -2.0018
  519MPD2     N 7715   1.577   0.977  14.072 -0.5100  0.2535 -0.4404
  519MPD2    H5 7716   1.671   0.946  14.094 -0.1430  2.4399  1.0721
  519MPD2    N1 7717   1.205   1.263  14.159  1.0647  0.0785  0.1997
  519MPD2    H7 7718   1.169   1.216  14.076 -0.4183  0.4690  0.6276
  520TMC3    C1 7719   1.619   0.825  13.888  0.6466 -0.2070 -0.3707
  520TMC3    C2 7720   1.592   0.795  13.760 -0.6498 -0.1781 -0.3061
  520TMC3    C3 7721   1.670   0.697  13.697 -0.0908 -0.1569 -0.6326
  520TMC3    C4 7722   1.700   0.753  13.961 -0.0765  0.0578  0.7103
  520TMC3    C5 7723   1.780   0.658  13.902 -0.2757  0.0785  0.8270
  520TMC3    C6 7724   1.761   0.622  13.767  0.7260 -0.3124  0.1179
  520TMC3     C 7725   1.527   0.917  13.954  0.3873  0.1079 -0.8777
  520TMC3     O 7726   1.420   0.943  13.897 -0.6067  0.8044 -0.3820
  520TMC3     H 7727   1.526   0.863  13.709  0.0723  0.0180 -0.9739
  520TMC3    H1 7728   1.721   0.775  14.065  2.8411  0.3100  0.0676
  520TMC3    H2 7729   1.822   0.543  13.725  2.3980  1.8124 -1.4580
  520TMC3    C7 7730   1.914   0.637  13.940  1.2588  1.1634 -0.1117
  520TMC3    C8 7731   1.670   0.685  13.557 -0.1073 -0.4924 -0.1336
  520TMC3    O1 7732   1.941   0.535  14.002  0.0153 -0.7569 -0.0139
  520TMC3    O2 7733   1.764   0.623  13.509 -0.2075 -0.1866 -0.3152
  521MPD2     C 7734   2.862   3.838  17.581  0.7246  0.6965  0.4357
  521MPD2    C1 7735   2.811   3.750  17.483  0.7938  0.0001 -0.5386
  521MPD2    C2 7736   2.894   3.659  17.419 -0.5103 -0.4762 -0.1341
  521MPD2    C3 7737   3.033   3.661  17.449 -0.3098 -0.6536 -0.1352
  521MPD2    C4 7738   3.078   3.742  17.546  0.0597 -0.0659  0.2173
  521MPD2    C5 7739   2.997   3.827  17.609 -0.1428 -0.4220  0.1510
  521MPD2     H 7740   2.856   3.590  17.344 -3.0566 -0.2097  0.9212
  521MPD2    H1 7741   3.183   3.747  17.572  0.7117 -0.0309 -2.3921
  521MPD2    H2 7742   2.809   3.903  17.649 -0.5713 -2.2126  2.2184
  521MPD2    H3 7743   3.038   3.892  17.686  2.1832  0.4804 -1.8543
  521MPD2     N 7744   3.121   3.583  17.377  0.0396 -0.0004 -0.0373
  521MPD2    H5 7745   3.087   3.534  17.295 -0.8767 -2.2396  1.6496
  521MPD2    N1 7746   2.673   3.751  17.450 -0.0696 -0.2296 -1.3285
  521MPD2    H7 7747   2.608   3.799  17.511  0.8431 -0.8482  0.1264
  522TMC3    C1 7748   3.330   3.467  17.314  0.8043  0.3349  0.8905
  522TMC3    C2 7749   3.444   3.403  17.362  0.0274  0.0099  0.1888
  522TMC3    C3 7750   3.507   3.315  17.280  0.7616  0.0133 -0.3181
  522TMC3    C4 7751   3.271   3.434  17.191 -0.7508 -0.5474 -0.0748
  522TMC3    C5 7752   3.336   3.344  17.113 -0.0896 -0.4099  0.0222
  522TMC3    C6 7753   3.451   3.290  17.154  0.8745  0.0002  0.8744
  522TMC3     C 7754   3.247   3.545  17.415  0.3725  0.1577  0.1632
  522TMC3     O 7755   3.316   3.582  17.509 -0.5275 -0.2459  0.3290
  522TMC3     H 7756   3.493   3.427  17.456 -0.2455 -0.3338  0.4170
  522TMC3    H1 7757   3.189   3.490  17.149 -1.8944 -0.9475  1.6363
  522TMC3    H2 7758   3.492   3.209  17.094 -0.4340  1.6357 -2.2067
  522TMC3    C7 7759   3.299   3.336  16.971  0.0116  0.1671 -0.0654
  522TMC3    C8 7760   3.651   3.301  17.300 -0.4255  0.5678  0.0514
  522TMC3    O1 7761   3.380   3.266  16.918 -0.0063 -0.0523  0.1751
  522TMC3    O2 7762   3.698   3.302  17.411 -0.5776 -0.2368  0.4069
  523MPD2     C 7763   0.638   4.217  10.186  0.5159 -0.2981  0.1758
  523MPD2    C1 7764   0.614   4.120  10.087  0.2247  0.5281 -0.2164
  523MPD2    C2 7765   0.539   4.168   9.979  0.9054  0.6045  0.3771
  523MPD2    C3 7766   0.508   4.303   9.968  0.7108  0.0917 -0.3657
  523MPD2    C4 7767   0.524   4.392  10.072 -0.3577 -0.7201  0.7810
  523MPD2    C5 7768   0.597   4.347  10.178 -0.1938  0.0520  0.4997
  523MPD2     H 7769   0.511   4.102   9.897  0.9134 -0.9968  1.6619
  523MPD2    H1 7770   0.499   4.498  10.068 -0.6222 -0.7464  1.7387
  523MPD2    H2 7771   0.698   4.185  10.271 -0.4754 -0.9293  0.6409
  523MPD2    H3 7772   0.621   4.418  10.256  0.8155  2.3797 -1.9264
  523MPD2     N 7773   0.435   4.355   9.860 -0.1646 -0.2805  0.1121
  523MPD2    H5 7774   0.406   4.452   9.873  1.0683 -0.6566  5.4813
  523MPD2    N1 7775   0.639   3.984  10.112  0.4553  1.2269 -0.4706
  523MPD2    H7 7776   0.674   3.971  10.207  0.5699  1.0235 -0.5392
  524TMC3    C1 7777   0.305   4.357   9.659  0.2565 -0.0154  0.1352
  524TMC3    C2 7778   0.295   4.326   9.524 -0.3766  0.6203 -0.1993
  524TMC3    C3 7779   0.202   4.381   9.449 -0.6329  0.1972  0.4263
  524TMC3    C4 7780   0.218   4.446   9.719  0.8086  0.7477  0.2814
  524TMC3    C5 7781   0.124   4.502   9.630 -0.0257  0.3561 -0.2805
  524TMC3    C6 7782   0.105   4.460   9.500 -0.2898 -0.1981  0.4672
  524TMC3     C 7783   0.418   4.292   9.736  0.1365  0.0477  0.5203
  524TMC3     O 7784   0.464   4.190   9.686  0.2308  0.1977  0.4112
  524TMC3     H 7785   0.383   4.271   9.492  0.7287  2.0293  0.3504
  524TMC3    H1 7786   0.223   4.474   9.823 -0.9198 -2.3263  1.1960
  524TMC3    H2 7787   0.021   4.488   9.437  0.7314 -0.2908 -0.9492
  524TMC3    C7 7788   0.003   4.555   9.697 -0.1825  0.5305  0.0375
  524TMC3    C8 7789   0.198   4.344   9.305  0.1237 -0.0449  0.0353
  524TMC3    O1 7790   4.700   4.523   9.812 -0.2508  0.3603 -0.0151
  524TMC3    O2 7791   0.149   4.431   9.232 -0.4759 -0.0907  0.5587
  525MPD2     C 7792   2.803   0.695  14.586 -0.2711  0.0253  0.3336
  525MPD2    C1 7793   2.935   0.695  14.634 -0.5059  0.0653 -0.4319
  525MPD2    C2 7794   3.018   0.799  14.606  0.0940  1.2108 -0.1509
  525MPD2    C3 7795   2.972   0.908  14.532  0.0766  0.4038 -0.2366
  525MPD2    C4 7796   2.843   0.907  14.485 -0.7008 -0.6820  0.1437
  525MPD2    C5 7797   2.766   0.798  14.501 -0.4491  0.1982 -0.0936
  525MPD2     H 7798   3.119   0.795  14.646 -0.4018 -1.2086  0.8735
  525MPD2    H1 7799   2.804   0.993  14.432  0.6842 -0.4558 -0.4890
  525MPD2    H2 7800   2.740   0.606  14.584 -0.2926  0.0453  0.0485
  525MPD2    H3 7801   2.666   0.790  14.459  0.0446  2.1658 -1.6313
  525MPD2     N 7802   3.050   1.027  14.509  0.4544  0.1640 -0.1895
  525MPD2    H5 7803   3.000   1.112  14.485  0.4270  0.0687 -0.4595
  525MPD2    N1 7804   2.984   0.603  14.724  0.9160  0.2073  0.1452
  525MPD2    H7 7805   3.083   0.612  14.744  0.6198  1.8558  0.8203
  526TMC3    C1 7806   2.984   0.398  14.852  0.1461  0.3120  0.1832
  526TMC3    C2 7807   2.932   0.274  14.863 -0.1032 -0.4031  0.1596
  526TMC3    C3 7808   2.998   0.179  14.938  0.0890 -0.0198  0.3780
  526TMC3    C4 7809   3.113   0.411  14.900 -0.4019 -0.1882  0.3521
  526TMC3    C5 7810   3.186   0.306  14.945 -0.3853 -0.2904  0.7627
  526TMC3    C6 7811   3.126   0.196  14.982  0.2400 -0.3329 -0.8162
  526TMC3     C 7812   2.913   0.493  14.765 -0.8017  0.4041  0.5889
  526TMC3     O 7813   2.798   0.462  14.736 -0.3854 -0.3736 -0.3079
  526TMC3     H 7814   2.833   0.255  14.824  0.0489  0.1854 -0.4993
  526TMC3    H1 7815   3.173   0.498  14.875 -1.1539 -0.1969 -1.4413
  526TMC3    H2 7816   3.187   0.120  15.030  1.4617  0.3793 -1.2339
  526TMC3    C7 7817   3.328   0.318  14.933  0.3619 -0.2974  0.0551
  526TMC3    C8 7818   2.920   0.093  15.023 -0.6677  0.1723  0.4005
  526TMC3    O1 7819   3.375   0.433  14.940 -0.0356 -0.7943  0.3235
  526TMC3    O2 7820   2.804   0.074  14.988  0.0229 -0.4613 -0.2942
  527MPD2     C 7821   0.742   3.199   1.119 -0.3362  0.6704  0.2247
  527MPD2    C1 7822   0.812   3.143   1.224  0.2037  0.0223 -0.1876
  527MPD2    C2 7823   0.954   3.135   1.214 -0.3794 -0.1534  0.3936
  527MPD2    C3 7824   1.018   3.185   1.095  0.4896  0.5762 -0.0377
  527MPD2    C4 7825   0.936   3.245   0.996  0.3333  0.0312  0.1037
  527MPD2    C5 7826   0.805   3.250   1.014  0.0712 -0.1280 -0.8098
  527MPD2     H 7827   1.016   3.083   1.286  2.2340  0.7612 -1.1714
  527MPD2    H1 7828   0.981   3.299   0.914  0.1787 -0.8575 -0.5638
  527MPD2    H2 7829   0.634   3.209   1.122 -0.5010 -1.0594  0.1260
  527MPD2    H3 7830   0.742   3.300   0.942 -0.9955  0.5160  0.5798
  527MPD2     N 7831   1.153   3.166   1.082 -0.6169  0.1343 -0.1855
  527MPD2    H5 7832   1.204   3.128   1.161 -0.4287  2.3804  0.7722
  527MPD2    N1 7833   0.758   3.103   1.352 -0.2297 -0.7783 -0.0928
  527MPD2    H7 7834   0.821   3.085   1.430  0.1590  2.5273  0.3537
  528TMC3    C1 7835   0.606   3.124   1.512  0.7186  0.1517  0.0170
  528TMC3    C2 7836   0.692   3.202   1.588  0.0474 -0.4442 -0.6041
  528TMC3    C3 7837   0.673   3.206   1.726  0.3656  0.0457 -0.4276
  528TMC3    C4 7838   0.504   3.062   1.571 -0.1728  0.0125  0.1514
  528TMC3    C5 7839   0.490   3.065   1.705  0.1113 -0.5178 -0.0477
  528TMC3    C6 7840   0.573   3.137   1.790  0.7630 -0.3433 -0.3621
  528TMC3     C 7841   0.619   3.117   1.376 -0.4676  0.3621 -0.1618
  528TMC3     O 7842   0.527   3.087   1.296  0.7197  0.0815 -0.2994
  528TMC3     H 7843   0.771   3.257   1.539 -0.7341  3.1139  2.1288
  528TMC3    H1 7844   0.436   3.005   1.510 -1.7133  1.0043  0.9259
  528TMC3    H2 7845   0.545   3.144   1.894  0.8257  0.9321 -0.4271
  528TMC3    C7 7846   0.447   2.942   1.762  0.6643 -0.2782  0.2087
  528TMC3    C8 7847   0.793   3.240   1.793  0.4980 -0.0089 -0.3210
  528TMC3    O1 7848   0.513   2.902   1.851 -0.2345  0.1831 -0.2360
  528TMC3    O2 7849   0.884   3.287   1.729  0.1256  0.1807 -0.7619
  529MPD2     C 7850   3.303   2.203   0.705  0.7129 -0.2162  0.3232
  529MPD2    C1 7851   3.368   2.083   0.700 -0.2745  0.3464  0.1142
  529MPD2    C2 7852   3.419   2.028   0.588  0.0053 -0.3227  0.4911
  529MPD2    C3 7853   3.401   2.098   0.466  0.1605 -0.5472  0.3952
  529MPD2    C4 7854   3.336   2.223   0.466 -0.2189 -0.6326  0.4925
  529MPD2    C5 7855   3.291   2.270   0.588  0.3227  0.0194 -0.7921
  529MPD2     H 7856   3.470   1.933   0.601 -0.7511 -0.8796 -0.6403
  529MPD2    H1 7857   3.322   2.285   0.378 -0.6978 -0.2444  0.8382
  529MPD2    H2 7858   3.258   2.238   0.796  0.0309 -1.4254  0.4510
  529MPD2    H3 7859   3.246   2.369   0.589  0.1031 -0.0948  0.6287
  529MPD2     N 7860   3.446   2.059   0.337 -0.7079  0.5040 -0.2058
  529MPD2    H5 7861   3.431   2.125   0.262 -2.6799 -0.7605 -0.9068
  529MPD2    N1 7862   3.398   2.010   0.817  0.2362 -0.5159 -0.0531
  529MPD2    H7 7863   3.453   1.927   0.797 -2.2041 -2.0092 -0.6357
  530TMC3    C1 7864   3.399   1.933   1.029 -0.3552 -0.2273  0.5378
  530TMC3    C2 7865   3.409   1.959   1.162 -0.4887 -0.1820 -0.0858
  530TMC3    C3 7866   3.427   1.862   1.250 -0.4339  0.2622  0.2326
  530TMC3    C4 7867   3.415   1.801   0.984  0.0102  0.5708  0.1823
  530TMC3    C5 7868   3.443   1.706   1.075  0.0458 -0.2704 -0.6923
  530TMC3    C6 7869   3.449   1.734   1.210 -0.1469  0.0298 -0.3269
  530TMC3     C 7870   3.361   2.037   0.945 -0.0119  0.3086  0.1589
  530TMC3     O 7871   3.298   2.127   0.993  0.1362  0.1264  0.0023
  530TMC3     H 7872   3.384   2.054   1.209 -0.1459 -1.1777  2.1296
  530TMC3    H1 7873   3.409   1.775   0.879  2.1488 -0.8437  0.3994
  530TMC3    H2 7874   3.475   1.653   1.276  0.8635 -0.1100 -0.8872
  530TMC3    C7 7875   3.436   1.570   1.021 -0.1215  0.2172 -0.5050
  530TMC3    C8 7876   3.449   1.900   1.390 -0.2849 -0.1425  0.8096
  530TMC3    O1 7877   3.429   1.557   0.899  0.3401  0.7124 -0.2669
  530TMC3    O2 7878   3.405   2.004   1.439  0.8693  0.0904 -0.3169
  531MPD2     C 7879   2.488   4.539  13.025 -0.1786  0.6817  0.6107
  531MPD2    C1 7880   2.365   4.517  13.074 -0.1873  0.4105 -0.3724
  531MPD2    C2 7881   2.284   4.434  12.992 -0.4146 -0.3577 -0.6318
  531MPD2    C3 7882   2.324   4.398  12.862 -0.4652  0.4736  1.0413
  531MPD2    C4 7883   2.446   4.439  12.814  0.5425  0.5935  0.2648
  531MPD2    C5 7884   2.535   4.503  12.902  0.4101 -0.2378  0.9845
  531MPD2     H 7885   2.191   4.396  13.034 -1.5021 -1.2284 -3.8250
  531MPD2    H1 7886   2.498   4.409  12.724  0.6350  0.6014  0.3161
  531MPD2    H2 7887   2.549   4.613  13.077 -0.6810  0.3529  1.6811
  531MPD2    H3 7888   2.637   4.511  12.866 -0.9752  1.4680 -2.5112
  531MPD2     N 7889   2.234   4.326  12.782 -0.9819  1.3428 -0.2787
  531MPD2    H5 7890   2.145   4.304  12.826 -0.4704 -1.9009 -0.8659
  531MPD2    N1 7891   2.313   4.563  13.194  0.3576  0.1150 -0.1103
  531MPD2    H7 7892   2.380   4.605  13.257 -0.3724  2.6087 -1.0269
  532TMC3    C1 7893   2.153   4.575  13.381 -0.2009  0.2710 -0.4647
  532TMC3    C2 7894   2.018   4.551  13.403 -0.3643 -0.2196 -0.2011
  532TMC3    C3 7895   1.982   4.481  13.517  0.2986 -0.2540  0.5685
  532TMC3    C4 7896   2.248   4.524  13.468  0.0339 -0.2832  0.3485
  532TMC3    C5 7897   2.208   4.456  13.579 -0.5612 -0.5027 -0.0017
  532TMC3    C6 7898   2.076   4.440  13.609 -0.6930  0.2221  0.2550
  532TMC3     C 7899   2.176   4.552  13.241 -0.0320 -0.0023 -0.0357
  532TMC3     O 7900   2.076   4.513  13.185  0.3817  0.6233  0.2632
  532TMC3     H 7901   1.937   4.594  13.345  0.4226  0.1791 -0.9972
  532TMC3    H1 7902   2.351   4.555  13.456 -0.4874  0.6835 -1.5890
  532TMC3    H2 7903   2.056   4.382  13.699 -1.1131  0.6147  0.4167
  532TMC3    C7 7904   2.303   4.372  13.652  0.0040  0.7090  0.7882
  532TMC3    C8 7905   1.875   4.388  13.481  0.5180 -0.5808 -0.4882
  532TMC3    O1 7906   2.273   4.326  13.760 -0.2697  0.4003  0.0903
  532TMC3    O2 7907   1.808   4.341  13.570 -0.1854  0.2261  0.2715
  533TMC3    C1 7908   3.223   1.168  14.555  0.1879 -0.8224  0.5030
  533TMC3    C2 7909   3.359   1.191  14.524  0.0861 -0.4247 -0.0258
  533TMC3    C3 7910   3.411   1.306  14.569 -0.3126 -0.2590  0.1515
  533TMC3    C4 7911   3.159   1.250  14.646 -0.7350 -0.1226 -0.3632
  533TMC3    C5 7912   3.231   1.353  14.702 -0.4069 -0.6833 -0.2066
  533TMC3    C6 7913   3.358   1.386  14.662 -0.1211  0.3469  0.2185
  533TMC3     C 7914   3.182   1.033  14.530 -0.5425 -0.9787  0.8857
  533TMC3     O 7915   3.268   0.948  14.546  0.0017  0.0130 -0.2111
  533TMC3     H 7916   3.410   1.123  14.457  0.1582 -0.5806  0.1915
  533TMC3    H1 7917   3.059   1.225  14.678 -0.5266 -1.5609 -0.8370
  533TMC3    H2 7918   3.416   1.457  14.719 -2.0380  0.6117  1.8652
  533TMC3    C7 7919   3.224   1.376  14.844  0.0719 -0.0414  0.0864
  533TMC3    C8 7920   3.553   1.321  14.549  0.2310  0.6199  0.2902
  533TMC3    O1 7921   3.277   1.477  14.888 -0.2191  0.4810  0.0712
  533TMC3    O2 7922   3.614   1.347  14.652 -0.3680  0.1749  0.4371
  534MPD2     C 7923   1.261   1.458   1.212  0.2075 -0.8545 -0.9084
  534MPD2    C1 7924   1.172   1.553   1.257  0.0946 -0.0772 -0.0454
  534MPD2    C2 7925   1.053   1.575   1.190  0.0398  0.1492  0.4646
  534MPD2    C3 7926   1.021   1.496   1.082  0.2545 -0.5407  0.5626
  534MPD2    C4 7927   1.109   1.398   1.044 -0.4286 -0.1018  1.0392
  534MPD2    C5 7928   1.224   1.381   1.112 -0.3325  0.4215  0.0247
  534MPD2     H 7929   0.984   1.653   1.222 -1.5645 -0.8497 -0.5261
  534MPD2    H1 7930   1.072   1.339   0.961  0.8653 -0.7722  0.9384
  534MPD2    H2 7931   1.362   1.454   1.252 -0.2225 -0.8813  0.1857
  534MPD2    H3 7932   1.301   1.314   1.076 -1.1290  0.4681 -1.7675
  534MPD2     N 7933   0.895   1.502   1.013 -0.2621 -0.0744 -0.8226
  534MPD2    H5 7934   0.887   1.436   0.936 -0.4024 -2.8481  1.5831
  534MPD2    N1 7935   1.196   1.645   1.362 -0.4275 -0.4782 -0.0947
  534MPD2    H7 7936   1.110   1.692   1.388 -1.3992 -1.0126 -2.3549
  535TMC3    C1 7937   0.698   1.585   0.924  0.1453 -0.2785 -0.3243
  535TMC3    C2 7938   0.574   1.624   0.954 -0.0049 -0.4025  0.9473
  535TMC3    C3 7939   0.506   1.713   0.871 -0.4798 -0.4096 -0.4744
  535TMC3    C4 7940   0.761   1.641   0.821 -0.1367  0.1831 -0.6486
  535TMC3    C5 7941   0.692   1.726   0.741 -0.4708 -0.0952 -0.5791
  535TMC3    C6 7942   0.568   1.777   0.771 -0.2466 -0.3211  0.0187
  535TMC3     C 7943   0.790   1.584   1.034  0.6744 -0.1196 -0.1883
  535TMC3     O 7944   0.769   1.667   1.123  0.0930 -0.0398 -0.4159
  535TMC3     H 7945   0.531   1.574   1.039  0.9853  1.5031  2.5718
  535TMC3    H1 7946   0.857   1.596   0.798 -0.2840  0.0122 -0.9360
  535TMC3    H2 7947   0.514   1.848   0.709 -0.1450 -0.0021  0.2966
  535TMC3    C7 7948   0.766   1.761   0.618  0.0427 -0.8954  0.3750
  535TMC3    C8 7949   0.396   1.763   0.935  0.2111 -0.4558  0.3918
  535TMC3    O1 7950   0.853   1.680   0.583  0.0209  0.1224  0.1849
  535TMC3    O2 7951   0.331   1.689   1.005  0.1468  0.1625 -0.1513
  536MPD2     C 7952   4.722   0.186  16.743  0.1474  1.0960  0.2434
  536MPD2    C1 7953   4.620   0.222  16.831  0.0095  0.4653 -0.0825
  536MPD2    C2 7954   4.528   0.307  16.781  0.0184 -0.3359  0.5343
  536MPD2    C3 7955   4.538   0.349  16.647  0.3556 -0.3041 -0.6782
  536MPD2    C4 7956   4.643   0.307  16.565 -0.7682  0.2911  0.0429
  536MPD2    C5 7957   0.001   0.208  16.610  0.3816  0.5996 -0.2832
  536MPD2     H 7958   4.441   0.332  16.841  0.4379  0.1150  0.9636
  536MPD2    H1 7959   4.636   0.330  16.459  0.8199  2.5918  0.4467
  536MPD2    H2 7960   0.072   0.120  16.785 -1.2800 -0.4496  0.3442
  536MPD2    H3 7961   0.076   0.165  16.545 -2.1341 -0.9675 -2.1691
  536MPD2     N 7962   4.445   0.429  16.581  0.2623  0.0624  0.2160
  536MPD2    H5 7963   4.460   0.441  16.481  0.8821  0.1013  0.3135
  536MPD2    N1 7964   4.620   0.171  16.966  0.3631 -0.4129 -0.7337
  536MPD2    H7 7965   4.675   0.086  16.970 -1.3392 -1.5149 -0.8860
  537TMC3    C1 7966   4.537   0.125  17.182 -0.1692 -0.2429  0.7782
  537TMC3    C2 7967   4.502   0.169  17.309 -0.0092  0.4599  0.0823
  537TMC3    C3 7968   4.521   0.090  17.420  0.4097 -0.2481 -1.0981
  537TMC3    C4 7969   4.561   4.718  17.153 -1.1927  0.5651  0.0335
  537TMC3    C5 7970   4.577   4.638  17.268  0.3647  0.4218 -0.3648
  537TMC3    C6 7971   4.558   4.679  17.397 -0.2154  0.2452 -0.4440
  537TMC3     C 7972   4.542   0.219  17.068  0.3668  0.4759 -0.1410
  537TMC3     O 7973   4.470   0.318  17.063  0.0304 -0.1908 -1.0804
  537TMC3     H 7974   4.475   0.273  17.325  0.0949  0.3657  0.8493
  537TMC3    H1 7975   4.562   4.680  17.052 -0.2177 -2.7825  1.2994
  537TMC3    H2 7976   4.576   4.607  17.477  0.8156 -0.2042 -1.0819
  537TMC3    C7 7977   4.573   4.498  17.254  0.1844 -0.7997  0.1417
  537TMC3    C8 7978   4.546   0.158  17.544  0.6730 -1.1000  0.0830
  537TMC3    O1 7979   4.493   4.434  17.319 -0.1257 -0.0600 -0.0679
  537TMC3    O2 7980   4.546   0.281  17.539 -0.0309 -0.1838 -0.0014
  538TMC3    C1 7981   0.890   3.703  10.741 -0.3562 -0.0537 -0.2176
  538TMC3    C2 7982   1.025   3.725  10.747  0.1727  0.2392 -0.9893
  538TMC3    C3 7983   1.066   3.858  10.746 -0.3994  0.1832  0.5292
  538TMC3    C4 7984   0.795   3.801  10.747  0.1555  0.2608 -0.3943
  538TMC3    C5 7985   0.845   3.929  10.765  0.9851  0.3332 -0.3925
  538TMC3    C6 7986   0.979   3.960  10.764 -0.2691 -0.1644 -0.1440
  538TMC3     C 7987   0.837   3.585  10.788  0.0134  0.5231 -0.2885
  538TMC3     O 7988   0.731   3.547  10.746  0.1286 -0.1853  0.8461
  538TMC3     H 7989   1.101   3.648  10.741  0.5314  0.6985 -2.3776
  538TMC3    H1 7990   0.688   3.794  10.732 -0.0043  0.1346  0.7909
  538TMC3    H2 7991   1.006   4.063  10.782 -0.1439 -0.5570  1.9890
  538TMC3    C7 7992   0.758   4.004  10.857  0.4418 -0.5025  0.2849
  538TMC3    C8 7993   1.204   3.884  10.773  0.7352  0.1339 -0.6359
  538TMC3    O1 7994   0.639   4.004  10.825  0.2817 -0.0474  0.0870
  538TMC3    O2 7995   1.218   3.966  10.863  0.1619  0.0986  0.1651
  539MPD2     C 7996   0.632   2.690  11.725 -0.0532 -0.0565 -0.4248
  539MPD2    C1 7997   0.710   2.746  11.623 -0.0094 -0.2616 -0.3062
  539MPD2    C2 7998   0.733   2.875  11.630 -0.0840 -0.4184  0.0122
  539MPD2    C3 7999   0.671   2.963  11.716 -0.3353  0.2647 -0.7075
  539MPD2    C4 8000   0.596   2.914  11.819  0.5266 -0.4605  0.0657
  539MPD2    C5 8001   0.570   2.779  11.814 -0.2644 -0.2846 -1.1075
  539MPD2     H 8002   0.788   2.921  11.549  0.0665  1.0800  0.9643
  539MPD2    H1 8003   0.543   2.981  11.885  1.5984  1.2747 -0.8301
  539MPD2    H2 8004   0.614   2.583  11.735 -2.0788  0.1159 -2.1746
  539MPD2    H3 8005   0.506   2.734  11.889 -0.3287  0.9664 -0.4020
  539MPD2     N 8006   0.662   3.101  11.693 -0.2228 -0.2531  0.4657
  539MPD2    H5 8007   0.603   3.147  11.762 -0.0011  1.6565 -0.6072
  539MPD2    N1 8008   0.775   2.669  11.521 -0.6733  0.1125 -0.4165
  539MPD2    H7 8009   0.817   2.723  11.447  0.9609 -0.6206 -0.0328
  540TMC3    C1 8010   0.653   3.316  11.598  0.2121 -0.8961  0.4238
  540TMC3    C2 8011   0.635   3.387  11.484  0.0593 -0.3543 -0.1687
  540TMC3    C3 8012   0.610   3.524  11.507 -0.3894  0.3473  0.8746
  540TMC3    C4 8013   0.646   3.366  11.723  0.3934 -0.1739 -0.3994
  540TMC3    C5 8014   0.627   3.501  11.731  0.5946  0.1215  0.5199
  540TMC3    C6 8015   0.621   3.583  11.621 -0.0301  0.1457 -0.2541
  540TMC3     C 8016   0.693   3.177  11.584  0.1017 -0.1744 -0.1234
  540TMC3     O 8017   0.761   3.149  11.481  0.0592 -0.3811 -0.2973
  540TMC3     H 8018   0.654   3.339  11.389  0.4107 -1.8258  0.6325
  540TMC3    H1 8019   0.656   3.304  11.812  0.7043 -1.1358 -1.1038
  540TMC3    H2 8020   0.587   3.686  11.615 -0.9518 -0.3067 -2.7487
  540TMC3    C7 8021   0.548   3.545  11.846  0.4283 -0.4892  0.5446
  540TMC3    C8 8022   0.571   3.604  11.391 -0.4023  0.1841 -0.3988
  540TMC3    O1 8023   0.488   3.464  11.916 -0.3417  0.7986 -0.0211
  540TMC3    O2 8024   0.620   3.716  11.378  0.3358 -0.0449  0.7301
  541MPD2     C 8025   3.646   0.331  13.043  0.0951 -0.2942  0.2243
  541MPD2    C1 8026   3.672   0.228  12.953 -0.0921  0.0355 -0.2081
  541MPD2    C2 8027   3.712   0.262  12.822 -0.3522 -0.1238 -0.0807
  541MPD2    C3 8028   3.733   0.396  12.789 -0.2177 -0.1398 -0.5750
  541MPD2    C4 8029   3.686   0.494  12.873  0.2426 -0.3162 -0.1340
  541MPD2    C5 8030   3.652   0.462  12.999  0.3439 -0.3564 -0.2184
  541MPD2     H 8031   3.711   0.180  12.752 -1.0555 -1.9432  2.0826
  541MPD2    H1 8032   3.713   0.597  12.854  1.9606 -0.7111  0.1277
  541MPD2    H2 8033   3.614   0.304  13.143  0.8155 -0.5875  0.3724
  541MPD2    H3 8034   3.645   0.538  13.076  2.1609 -1.1842  0.7832
  541MPD2     N 8035   3.781   0.440  12.669  0.3513  0.4424  0.1002
  541MPD2    H5 8036   3.803   0.539  12.660 -2.4860  1.1360  0.7151
  541MPD2    N1 8037   3.642   0.090  12.988  0.0974  0.0107  0.0386
  541MPD2    H7 8038   3.589   0.080  13.074  0.4292  1.6685  0.4280
  542TMC3    C1 8039   3.860   0.435  12.439  0.8973 -0.0869 -0.2694
  542TMC3    C2 8040   3.901   0.360  12.332 -0.0987  0.6362  0.4406
  542TMC3    C3 8041   3.861   0.385  12.202  0.1496  1.2645 -0.1615
  542TMC3    C4 8042   3.799   0.557  12.407  0.4124 -0.2425 -0.1135
  542TMC3    C5 8043   3.774   0.584  12.274 -0.7336  0.3763  0.4857
  542TMC3    C6 8044   3.806   0.503  12.169  0.3810 -0.2568  0.0692
  542TMC3     C 8045   3.818   0.367  12.561  0.0836 -0.2406 -0.4202
  542TMC3     O 8046   3.810   0.245  12.545 -0.3476  0.0599  0.4541
  542TMC3     H 8047   3.945   0.263  12.350 -1.7115  0.1271  1.5975
  542TMC3    H1 8048   3.772   0.629  12.484  1.0172 -0.4439  0.2888
  542TMC3    H2 8049   3.771   0.508  12.067  1.0308  0.7931 -0.1046
  542TMC3    C7 8050   3.689   0.700  12.240  0.5507  0.6430 -0.2324
  542TMC3    C8 8051   3.876   0.291  12.091  0.5175 -0.4612  0.6252
  542TMC3    O1 8052   3.647   0.775  12.322  0.3032 -0.5747  0.2003
  542TMC3    O2 8053   3.826   0.326  11.988  0.4433 -0.3840  0.1966
  543TMC3    C1 8054   2.905   0.276  17.668 -0.0376 -0.4723 -0.6844
  543TMC3    C2 8055   2.890   0.139  17.645 -0.3657 -1.1184 -0.1895
  543TMC3    C3 8056   2.847   0.067   0.053  0.4287 -0.4285 -0.2560
  543TMC3    C4 8057   2.888   0.328   0.103 -0.7085  0.7610  0.1119
  543TMC3    C5 8058   2.854   0.238   0.205 -0.0281  0.3921  0.4358
  543TMC3    C6 8059   2.826   0.107   0.183 -0.1556  0.6997 -0.0550
  543TMC3     C 8060   2.962   0.363  17.573 -0.4451 -0.4513 -0.5130
  543TMC3     O 8061   3.043   0.442  17.612 -0.8487 -0.0304 -0.1419
  543TMC3     H 8062   2.906   0.100  17.545  0.5672 -0.4930 -0.2811
  543TMC3    H1 8063   2.902   0.435   0.110  1.5014  0.6594 -2.5212
  543TMC3    H2 8064   2.792   0.044   0.265  0.4139  0.1221 -0.2714
  543TMC3    C7 8065   2.826   0.290   0.332  0.5833 -0.4462 -0.0967
  543TMC3    C8 8066   2.815   4.657   0.004  0.0185 -0.1519  0.1865
  543TMC3    O1 8067   2.883   0.394   0.364  0.2078 -0.1843 -0.2696
  543TMC3    O2 8068   2.795   4.641  17.581 -0.1785 -0.5804  0.3125
  544MPD2     C 8069   2.747   4.156   0.084  0.9278 -0.1025 -0.1725
  544MPD2    C1 8070   2.709   4.239  17.677  0.3743 -0.3901  0.0036
  544MPD2    C2 8071   2.730   4.373  17.688 -0.8205 -0.0347 -0.1426
  544MPD2    C3 8072   2.787   4.429   0.100 -0.1713  0.1904  0.0911
  544MPD2    C4 8073   2.812   4.347   0.210  0.5469 -0.3490  0.5169
  544MPD2    C5 8074   2.799   4.212   0.202  0.3936  0.2862  0.1163
  544MPD2     H 8075   2.710   4.438  17.604 -3.0884 -1.3658 -0.6457
  544MPD2    H1 8076   2.854   4.383   0.303  0.2892 -1.3197  1.0054
  544MPD2    H2 8077   2.732   4.048   0.083 -1.1035  0.1769 -0.4957
  544MPD2    H3 8078   2.832   4.145   0.280 -0.5978 -0.3422 -0.0109
  544MPD2     N 8079   2.816   4.564   0.111 -0.3065  0.5801  0.1571
  544MPD2    H5 8080   2.852   4.593   0.202 -0.1822 -0.3158  0.3971
  544MPD2    N1 8081   2.655   4.172  17.560 -0.1539 -0.3236 -0.7879
  544MPD2    H7 8082   2.652   4.071  17.565  2.1415 -0.3813 -0.5818
  545TMC3    C1 8083   2.545   4.144  17.354  0.5919 -0.0260  0.1902
  545TMC3    C2 8084   2.426   4.171  17.299  0.4169  0.2061  0.5517
  545TMC3    C3 8085   2.403   4.101  17.184  0.8710 -0.1590 -0.5705
  545TMC3    C4 8086   2.648   4.064  17.302  0.3574  0.1429 -0.2232
  545TMC3    C5 8087   2.612   3.992  17.193 -0.5441  0.0912 -0.7269
  545TMC3    C6 8088   2.495   4.005  17.136 -0.3425 -0.3862 -0.0076
  545TMC3     C 8089   2.588   4.238  17.456 -0.3743 -0.1142  0.1705
  545TMC3     O 8090   2.568   4.356  17.436 -0.5072 -0.0004  0.2723
  545TMC3     H 8091   2.360   4.249  17.334 -0.7989 -1.2074  1.4340
  545TMC3    H1 8092   2.732   4.029  17.360  0.5618  0.4191 -0.3512
  545TMC3    H2 8093   2.472   3.964  17.038 -0.7109  0.7754 -0.4128
  545TMC3    C7 8094   2.715   3.921  17.110 -0.9003  0.3407 -0.3041
  545TMC3    C8 8095   2.319   4.162  17.085 -0.2706  0.5317  0.3978
  545TMC3    O1 8096   2.671   3.870  17.006  1.0201  0.2618  0.3731
  545TMC3    O2 8097   2.365   4.158  16.971 -0.0375  0.0845  0.0713
  546MPD2     C 8098   4.295   0.904   0.267  0.3992 -0.0900  0.0342
  546MPD2    C1 8099   4.346   0.870   0.149  0.2940  0.4857  0.2143
  546MPD2    C2 8100   4.408   0.972   0.074 -0.1087 -0.2792  0.1303
  546MPD2    C3 8101   4.408   1.102   0.119 -0.0314 -0.8371 -0.3338
  546MPD2    C4 8102   4.365   1.124   0.250 -0.3213  0.3488  0.3220
  546MPD2    C5 8103   4.307   1.027   0.322 -0.8566 -0.2360  1.2880
  546MPD2     H 8104   4.435   0.956  17.669 -3.5477 -0.5903 -0.7163
  546MPD2    H1 8105   4.364   1.224   0.290 -2.7415  0.3629  0.2150
  546MPD2    H2 8106   4.256   0.824   0.328 -1.2657 -0.5883 -1.6858
  546MPD2    H3 8107   4.264   1.051   0.419  0.5411  1.4058  1.4902
  546MPD2     N 8108   4.466   1.211   0.053 -0.0200  0.4625  0.3906
  546MPD2    H5 8109   4.462   1.300   0.102  2.1916  1.0545 -0.4705
  546MPD2    N1 8110   4.325   0.735   0.105 -0.7700  0.2326 -0.2219
  546MPD2    H7 8111   4.260   0.679   0.158 -1.8037  0.2123 -1.5046
  547TMC3    C1 8112   4.340   0.541  17.667  0.1958 -0.4856  0.2062
  547TMC3    C2 8113   4.303   0.503  17.541  0.1740  0.0285 -1.2217
  547TMC3    C3 8114   4.229   0.388  17.530  0.6654  0.4106 -0.2853
  547TMC3    C4 8115   4.325   0.470   0.084 -0.3120 -0.1065 -0.0933
  547TMC3    C5 8116   4.272   0.343   0.065  0.0083  0.4762 -0.6356
  547TMC3    C6 8117   4.222   0.304  17.638 -0.2947  0.1419  0.4902
  547TMC3     C 8118   4.367   0.685  17.682 -0.5667 -0.3710 -0.0757
  547TMC3     O 8119   4.420   0.743  17.587 -0.4668  0.1824  0.1512
  547TMC3     H 8120   4.301   0.576  17.460  0.3391 -0.3333 -1.5488
  547TMC3    H1 8121   4.358   0.506   0.181 -0.0854 -0.6910  0.0526
  547TMC3    H2 8122   4.151   0.225  17.619  0.1137  0.1152 -0.9208
  547TMC3    C7 8123   4.236   0.266   0.177 -0.1628 -0.6123 -0.2371
  547TMC3    C8 8124   4.128   0.383  17.430 -0.1031 -0.6698  0.2972
  547TMC3    O1 8125   4.233   0.342   0.271 -0.0907 -0.2017 -0.7403
  547TMC3    O2 8126   4.019   0.340  17.464  0.3813  0.8919  0.1122
  548MPD2     C 8127   4.707   1.501  12.530 -0.0749 -0.0392 -0.6098
  548MPD2    C1 8128   4.664   1.375  12.503 -0.0088 -0.2716 -0.2329
  548MPD2    C2 8129   0.000   1.313  12.398 -0.3533 -0.1269 -0.1972
  548MPD2    C3 8130   0.104   1.372  12.322  0.0190 -0.5471 -0.2741
  548MPD2    C4 8131   0.153   1.489  12.364 -0.1633 -0.4721 -0.3028
  548MPD2    C5 8132   0.086   1.558  12.463  0.7927 -0.0708  0.0026
  548MPD2     H 8133   4.696   1.210  12.376  0.0306 -0.0384 -1.1397
  548MPD2    H1 8134   0.240   1.533  12.318  0.1657 -1.4454 -0.6204
  548MPD2    H2 8135   4.664   1.563  12.608  0.1054 -2.6807  1.5611
  548MPD2    H3 8136   0.129   1.654  12.487  0.2963  0.0794  0.2819
  548MPD2     N 8137   0.162   1.298  12.207 -0.1404 -0.5161  0.4402
  548MPD2    H5 8138   0.115   1.216  12.169  0.5960  0.7240 -3.1438
  548MPD2    N1 8139   4.558   1.334  12.586  0.3725  0.3641  0.3329
  548MPD2    H7 8140   4.528   1.391  12.664  0.7540  0.1697  0.6221
  549TMC3    C1 8141   4.370   1.213  12.653  0.6532 -0.0778  0.3793
  549TMC3    C2 8142   4.295   1.324  12.673  1.1469 -0.3413 -0.2755
  549TMC3    C3 8143   4.163   1.306  12.697  0.3496 -0.0681  0.5999
  549TMC3    C4 8144   4.324   1.083  12.679 -0.1167  0.0270  0.2090
  549TMC3    C5 8145   4.197   1.075  12.717 -0.3245 -0.3400  0.7335
  549TMC3    C6 8146   4.108   1.180  12.723  0.3796 -0.4627  0.3176
  549TMC3     C 8147   4.492   1.220  12.570 -0.1444  0.4230  0.5009
  549TMC3     O 8148   4.498   1.128  12.486 -0.0318 -0.0670 -0.1955
  549TMC3     H 8149   4.337   1.418  12.639 -0.4772  0.5720  0.2213
  549TMC3    H1 8150   4.387   0.998  12.654 -1.0055 -0.4808 -0.3348
  549TMC3    H2 8151   4.002   1.165  12.742  0.2669  0.2237  0.2309
  549TMC3    C7 8152   4.149   0.950  12.777 -0.0820  0.1425 -1.0258
  549TMC3    C8 8153   4.063   1.410  12.685 -0.2005 -0.2663  0.0739
  549TMC3    O1 8154   4.037   0.951  12.826 -0.1364  0.1386 -0.2466
  549TMC3    O2 8155   3.949   1.371  12.662  0.0483 -0.6584  0.0557
  550TMC3    C1 8156   3.094   4.393  12.169 -0.3488  0.4555  0.0181
  550TMC3    C2 8157   3.140   4.477  12.273  0.0517 -0.6513 -0.7844
  550TMC3    C3 8158   3.106   4.604  12.271  0.7451  0.4837  0.6700
  550TMC3    C4 8159   3.028   4.434  12.059 -0.3464  0.2438  0.6299
  550TMC3    C5 8160   2.983   4.561  12.064 -0.7512 -0.2837 -0.0310
  550TMC3    C6 8161   3.013   4.642  12.172  0.6903  0.5529 -0.2733
  550TMC3     C 8162   3.164   4.271  12.131  0.6144 -0.5865 -0.4705
  550TMC3     O 8163   3.182   4.182  12.213 -0.6334  0.5278  0.0094
  550TMC3     H 8164   3.199   4.444  12.357  0.0531 -0.3664 -0.6739
  550TMC3    H1 8165   3.005   4.368  11.977  1.8837  0.5852 -0.2613
  550TMC3    H2 8166   2.961   0.011  12.188  0.8074  0.4265  0.8401
  550TMC3    C7 8167   2.897   4.604  11.962  0.0157  0.4831 -0.1194
  550TMC3    C8 8168   3.117   4.670  12.395 -0.2184 -0.6595  0.1650
  550TMC3    O1 8169   2.796   4.663  11.989  0.0815  0.2060 -0.2948
  550TMC3    O2 8170   3.125   4.596  12.491 -0.3213 -0.4220 -0.7682
  551TMC3    C1 8171   0.492   2.094  13.205 -0.1060  0.1710  0.0076
  551TMC3    C2 8172   0.609   2.129  13.141  0.2161 -0.1146 -0.1390
  551TMC3    C3 8173   0.713   2.153  13.225 -0.1791 -0.3899  0.4928
  551TMC3    C4 8174   0.480   2.101  13.342 -0.3876 -0.6511  0.0829
  551TMC3    C5 8175   0.595   2.115  13.421 -0.6188  0.2747 -0.0365
  551TMC3    C6 8176   0.716   2.129  13.357  0.8510 -0.4965  0.3775
  551TMC3     C 8177   0.431   1.991  13.133 -0.0584  1.0169 -0.5615
  551TMC3     O 8178   0.447   1.993  13.011 -0.5062  0.5467  0.2885
  551TMC3     H 8179   0.622   2.142  13.034 -2.3810  0.9428 -0.3100
  551TMC3    H1 8180   0.380   2.099  13.383 -0.0068 -1.1162  0.9895
  551TMC3    H2 8181   0.807   2.154  13.411  1.3992  0.1591 -0.8630
  551TMC3    C7 8182   0.587   2.159  13.554 -0.3950 -0.6897 -0.1410
  551TMC3    C8 8183   0.838   2.171  13.155  0.6329  0.6303 -0.3105
  551TMC3    O1 8184   0.695   2.191  13.603 -0.0379  0.4978  0.5806
  551TMC3    O2 8185   0.928   2.098  13.190  0.1265 -0.8774 -0.0424
  552MPD2     C 8186   2.015   4.093  14.150  0.3779 -0.2246  0.4306
  552MPD2    C1 8187   2.117   4.033  14.075  0.1618 -0.2560  0.2193
  552MPD2    C2 8188   2.241   4.005  14.138 -0.5286 -0.1520 -0.2863
  552MPD2    C3 8189   2.259   4.034  14.271 -0.0576 -0.1837  0.7327
  552MPD2    C4 8190   2.159   4.092  14.345 -0.1223 -0.0859  0.8906
  552MPD2    C5 8191   2.042   4.124  14.280 -0.5789 -0.0899 -0.4302
  552MPD2     H 8192   2.308   3.948  14.075  1.0447  3.9838 -2.3533
  552MPD2    H1 8193   2.163   4.110  14.452  1.3435  2.1168  0.4745
  552MPD2    H2 8194   1.923   4.118  14.098  1.8234  3.0038 -0.5184
  552MPD2    H3 8195   1.968   4.171  14.343 -0.4151 -0.6030  0.1430
  552MPD2     N 8196   2.376   3.987  14.332  0.4314 -0.4053  0.6823
  552MPD2    H5 8197   2.378   4.018  14.429  1.6987 -0.9373  0.8222
  552MPD2    N1 8198   2.106   4.002  13.942 -0.1488 -0.5350 -0.9140
  552MPD2    H7 8199   2.180   3.939  13.910  1.2910  1.4599 -1.4944
  553TMC3    C1 8200   2.033   3.988  13.730 -0.0599  0.8165  0.1402
  553TMC3    C2 8201   2.047   4.067  13.617  1.1036 -0.3957  0.0037
  553TMC3    C3 8202   2.108   4.005  13.508  0.9314 -0.6201 -0.2406
  553TMC3    C4 8203   2.056   3.851  13.738  0.8030  1.0037  0.3214
  553TMC3    C5 8204   2.112   3.806  13.624 -0.2411 -0.0813 -0.7255
  553TMC3    C6 8205   2.145   3.875  13.510 -0.3077 -0.4531  0.7222
  553TMC3     C 8206   2.002   4.040  13.863  0.3490  0.3371  0.0276
  553TMC3     O 8207   1.935   4.145  13.867  0.1615  0.0401 -0.7383
  553TMC3     H 8208   2.040   4.175  13.611  2.2712 -0.3688 -0.7877
  553TMC3    H1 8209   2.032   3.802  13.832 -0.5665  1.5805  0.2708
  553TMC3    H2 8210   2.199   3.832  13.427 -1.1891  0.9698 -0.5823
  553TMC3    C7 8211   2.147   3.667  13.630 -1.1724  0.0369 -0.4292
  553TMC3    C8 8212   2.145   4.071  13.386  0.5579 -0.6458 -0.4741
  553TMC3    O1 8213   2.080   3.590  13.699  0.4264 -0.7510 -0.1520
  553TMC3    O2 8214   2.218   4.170  13.399  0.0681 -0.0363 -0.2663
  554TMC3    C1 8215   4.284   2.946  11.580  0.5229 -0.2956  0.2208
  554TMC3    C2 8216   4.200   2.947  11.472  0.3932  0.0719 -1.5660
  554TMC3    C3 8217   4.159   3.069  11.423  0.2572  0.3850 -0.1151
  554TMC3    C4 8218   4.329   3.060  11.646  0.0108  0.4301  0.6498
  554TMC3    C5 8219   4.289   3.182  11.601  0.1192 -1.2492  0.8063
  554TMC3    C6 8220   4.214   3.177  11.488 -0.7600  0.2192  0.3607
  554TMC3     C 8221   4.265   2.815  11.644 -0.3126  0.5848  0.1940
  554TMC3     O 8222   4.157   2.758  11.622  0.0034  0.2642 -0.3163
  554TMC3     H 8223   4.169   2.858  11.418 -1.3282 -0.6072  0.5335
  554TMC3    H1 8224   4.382   3.051  11.740  0.1197  2.1300  0.7543
  554TMC3    H2 8225   4.183   3.278  11.461  0.3738  0.1697 -1.1708
  554TMC3    C7 8226   4.369   3.305  11.620  0.5570 -0.7859 -0.2998
  554TMC3    C8 8227   4.111   3.089  11.287  0.3596 -0.1612  0.9492
  554TMC3    O1 8228   4.340   3.402  11.555  0.1008 -0.3166  0.1766
  554TMC3    O2 8229   4.127   3.201  11.236 -0.2834 -0.2280  0.1325
  555TMC3    C1 8230   3.742   2.252  15.410 -0.0708  0.2906  0.6026
  555TMC3    C2 8231   3.766   2.356  15.501 -0.3150  0.1419  0.5460
  555TMC3    C3 8232   3.744   2.326  15.633 -0.1345 -0.9325 -0.0590
  555TMC3    C4 8233   3.706   2.125  15.457  0.2454 -0.0724  0.4254
  555TMC3    C5 8234   3.691   2.099  15.593  0.6408  0.0239  0.1213
  555TMC3    C6 8235   3.705   2.205  15.685  0.5794  0.4183 -0.2782
  555TMC3     C 8236   3.781   2.268  15.266  0.2252  0.2072  0.3335
  555TMC3     O 8237   3.828   2.171  15.207 -0.2779 -0.3538  0.8363
  555TMC3     H 8238   3.809   2.446  15.459 -0.6306  0.4975  0.9868
  555TMC3    H1 8239   3.687   2.045  15.387 -1.1085  2.0111 -1.5869
  555TMC3    H2 8240   3.677   2.184  15.788 -0.7923 -1.6864 -1.0635
  555TMC3    C7 8241   3.651   1.969  15.633 -0.3639  0.7878 -0.2052
  555TMC3    C8 8242   3.740   2.440  15.722 -0.3730  0.1230 -0.5995
  555TMC3    O1 8243   3.615   1.891  15.544  0.6251  0.0274 -0.5310
  555TMC3    O2 8244   3.739   2.549  15.666 -0.4937  0.2149 -0.2339
  556MPD2     C 8245   2.215   4.345  10.808 -0.9668  0.2913 -0.6559
  556MPD2    C1 8246   2.081   4.342  10.787 -0.7055 -0.4211 -0.8837
  556MPD2    C2 8247   2.033   4.248  10.703  0.2261 -0.7949 -0.5739
  556MPD2    C3 8248   2.122   4.157  10.637 -0.4689 -0.3551  0.2190
  556MPD2    C4 8249   2.262   4.163  10.653 -0.9293 -0.7332  0.3795
  556MPD2    C5 8250   2.298   4.265  10.738 -0.1389 -0.6188 -0.5009
  556MPD2     H 8251   1.929   4.228  10.678  0.3470  0.3568 -1.9973
  556MPD2    H1 8252   2.339   4.099  10.612 -0.6649 -1.5045  2.0658
  556MPD2    H2 8253   2.239   4.421  10.881 -1.3560  2.4349 -2.7611
  556MPD2    H3 8254   2.402   4.281  10.765 -0.7686  0.8282  1.0524
  556MPD2     N 8255   2.065   4.058  10.560  0.7052 -0.0306 -0.2410
  556MPD2    H5 8256   1.966   4.040  10.552  0.3965  0.8460  1.6789
  556MPD2    N1 8257   2.000   4.439  10.854 -0.0785  0.1154  0.1324
  556MPD2    H7 8258   2.050   4.509  10.908  0.8855 -0.7438  0.3582
  557TMC3    C1 8259   2.055   3.885  10.405 -0.2523 -0.3106  0.3964
  557TMC3    C2 8260   2.082   3.837  10.280  0.6563 -0.7046 -0.3033
  557TMC3    C3 8261   2.000   3.746  10.221  0.1321 -0.0275 -0.2244
  557TMC3    C4 8262   1.951   3.832  10.472 -0.0658 -0.8641 -0.0504
  557TMC3    C5 8263   1.880   3.722  10.418  0.1542 -0.2674  0.3428
  557TMC3    C6 8264   1.902   3.680  10.290 -0.0693  0.2105  0.3041
  557TMC3     C 8265   2.139   3.976  10.471  0.3317 -0.0825  0.1840
  557TMC3     O 8266   2.254   3.987  10.429  0.5410  0.6462 -0.2511
  557TMC3     H 8267   2.153   3.888  10.216  0.9551  0.3130  0.8536
  557TMC3    H1 8268   1.939   3.873  10.571 -1.2936  1.0785 -1.0209
  557TMC3    H2 8269   1.835   3.617  10.234  0.3120  0.0730  0.0006
  557TMC3    C7 8270   1.758   3.688  10.481 -0.1887  0.4869  0.0848
  557TMC3    C8 8271   2.033   3.730  10.081 -0.1309  0.0513 -0.9115
  557TMC3    O1 8272   1.660   3.671  10.410  0.2305  0.1300  0.7851
  557TMC3    O2 8273   2.072   3.825  10.017 -0.4823 -0.0781  1.0431
  558TMC3    C1 8274   4.455   2.409  10.243  0.5244  0.1117 -0.3339
  558TMC3    C2 8275   4.333   2.394  10.305  0.2515 -0.3696  0.7527
  558TMC3    C3 8276   4.221   2.396  10.223 -0.3390  0.4779  0.1240
  558TMC3    C4 8277   4.467   2.440  10.113  0.1225  0.3397  0.3402
  558TMC3    C5 8278   4.347   2.453  10.035 -0.5151 -0.0812 -0.7294
  558TMC3    C6 8279   4.225   2.432  10.095 -0.3649  0.1149  0.5336
  558TMC3     C 8280   4.575   2.389  10.321  0.6718  0.9181  0.7293
  558TMC3     O 8281   4.679   2.417  10.263  0.0421  0.1191  0.0349
  558TMC3     H 8282   4.321   2.366  10.409 -1.3268  2.0732  1.2264
  558TMC3    H1 8283   4.567   2.454  10.073 -0.2732 -0.5651 -0.9609
  558TMC3    H2 8284   4.133   2.444  10.038  1.3107  3.9252 -1.3317
  558TMC3    C7 8285   4.374   2.450   9.894 -0.0883 -0.3698  0.5366
  558TMC3    C8 8286   4.090   2.358  10.276 -0.1931 -0.0764  0.2001
  558TMC3    O1 8287   4.476   2.508   9.856  0.5527 -0.0197  0.0561
  558TMC3    O2 8288   3.996   2.388  10.206  0.3972 -0.6686  0.5858
  559MPD2     C 8289   4.375   2.743  10.304 -0.6351  0.6555 -0.1452
  559MPD2    C1 8290   4.285   2.723  10.412 -0.7440 -0.1412 -0.8750
  559MPD2    C2 8291   4.335   2.686  10.537 -0.3702 -0.0349 -0.0197
  559MPD2    C3 8292   4.467   2.668  10.558  1.3495 -0.0977 -0.0647
  559MPD2    C4 8293   4.548   2.690  10.455 -0.4424 -0.5289 -0.8459
  559MPD2    C5 8294   4.505   2.722  10.333 -0.3999 -0.2448 -0.6916
  559MPD2     H 8295   4.281   2.672  10.629 -0.4234 -0.5758 -0.1348
  559MPD2    H1 8296   4.654   2.666  10.456  0.1025  1.8398 -1.5859
  559MPD2    H2 8297   4.339   2.766  10.204 -0.0209 -0.8772 -0.7312
  559MPD2    H3 8298   4.579   2.733  10.255 -0.0472 -1.4372 -0.5340
  559MPD2     N 8299   4.514   2.642  10.688  0.2006  0.1069 -0.6486
  559MPD2    H5 8300   4.439   2.619  10.753  1.0145 -0.7855 -0.0144
  559MPD2    N1 8301   4.144   2.725  10.383 -0.4967  0.2661  0.9137
  559MPD2    H7 8302   4.116   2.753  10.289 -2.2102 -1.8495  0.8017
  560TMC3    C1 8303   4.673   2.606  10.861  0.2161  0.1171 -0.7725
  560TMC3    C2 8304   4.603   2.494  10.887 -0.0944  0.5103  0.1073
  560TMC3    C3 8305   4.639   2.421  10.998 -0.7086  0.0062 -0.3807
  560TMC3    C4 8306   0.051   2.653  10.943 -0.4503 -0.1186  0.4388
  560TMC3    C5 8307   0.069   2.586  11.056  0.3293  0.4298 -0.6604
  560TMC3    C6 8308   0.008   2.465  11.091 -0.4414  1.0443 -0.3345
  560TMC3     C 8309   4.642   2.670  10.732 -0.3108 -0.0565  0.4371
  560TMC3     O 8310   0.008   2.735  10.678  0.1265 -0.1042  0.2943
  560TMC3     H 8311   4.535   2.449  10.815 -0.0590 -1.4888  1.3250
  560TMC3    H1 8312   0.096   2.750  10.922 -0.3335 -0.2125  0.2556
  560TMC3    H2 8313   0.025   2.414  11.185 -1.5056  1.9674  0.3540
  560TMC3    C7 8314   0.144   2.652  11.160  0.3928 -0.1532 -0.1475
  560TMC3    C8 8315   4.572   2.299  11.022 -0.5801 -0.6549 -0.0610
  560TMC3    O1 8316   0.123   2.630  11.278 -0.1001 -0.3603 -0.0930
  560TMC3    O2 8317   4.469   2.278  10.964 -1.3006 -0.2523 -0.4949
  561TMC3    C1 8318   2.649   1.751  11.207  0.2599  0.0299 -0.0820
  561TMC3    C2 8319   2.583   1.649  11.281 -0.2173 -0.2223  0.0787
  561TMC3    C3 8320   2.445   1.654  11.290  0.3413  0.0138 -0.6525
  561TMC3    C4 8321   2.584   1.860  11.158  0.1155 -0.8357 -0.0852
  561TMC3    C5 8322   2.448   1.867  11.180 -0.3813  0.2266 -0.2984
  561TMC3    C6 8323   2.375   1.764  11.243 -0.3876 -0.6507 -0.4411
  561TMC3     C 8324   2.789   1.725  11.185 -0.0704 -0.0377 -0.1200
  561TMC3     O 8325   2.828   1.610  11.198 -0.2060  0.1746 -0.4285
  561TMC3     H 8326   2.645   1.564  11.305  0.3126  1.2285  3.9121
  561TMC3    H1 8327   2.643   1.936  11.107 -0.8298  1.2135  1.8807
  561TMC3    H2 8328   2.267   1.763  11.238 -0.3713 -1.3871 -0.6275
  561TMC3    C7 8329   2.383   1.992  11.154  0.2852 -0.4504  0.4896
  561TMC3    C8 8330   2.382   1.544  11.368 -0.4967 -0.5402 -0.6890
  561TMC3    O1 8331   2.276   2.014  11.202  0.1640 -0.2883  0.5388
  561TMC3    O2 8332   2.453   1.451  11.408 -0.2017  0.5484 -0.0328
  562TMC3    C1 8333   3.343   2.925  16.178  0.7693 -0.0085 -0.0678
  562TMC3    C2 8334   3.249   3.009  16.115  0.5926 -0.1163  0.3987
  562TMC3    C3 8335   3.189   2.970  15.998 -0.7167 -0.1284 -1.2427
  562TMC3    C4 8336   3.389   2.804  16.118  0.5017 -0.6754  0.6219
  562TMC3    C5 8337   3.335   2.778  15.999  0.2278 -0.3639 -0.1814
  562TMC3    C6 8338   3.235   2.854  15.944 -0.2008 -0.6656  0.3312
  562TMC3     C 8339   3.356   2.941  16.323 -1.0196  0.6211 -0.3406
  562TMC3     O 8340   3.303   3.039  16.373  0.0850 -0.3173  0.4541
  562TMC3     H 8341   3.218   3.097  16.171 -2.6565 -0.4148 -0.9167
  562TMC3    H1 8342   3.467   2.745  16.163  0.4323 -1.6256 -0.4927
  562TMC3    H2 8343   3.197   2.816  15.850 -1.7770  2.2405 -0.1991
  562TMC3    C7 8344   3.376   2.666  15.919  0.6451 -0.2917 -0.0951
  562TMC3    C8 8345   3.043   2.985  16.007  0.0932 -0.0418 -0.1840
  562TMC3    O1 8346   3.372   2.690  15.795 -0.1953 -0.1440 -0.1909
  562TMC3    O2 8347   3.000   3.005  16.118 -0.2254 -0.1719 -0.0380
  563MPD2     C 8348   1.297   4.007  15.575  1.0766 -0.3990  0.0208
  563MPD2    C1 8349   1.249   4.067  15.688  0.6217 -0.2759  0.7585
  563MPD2    C2 8350   1.337   4.135  15.767  0.0378 -0.5446  0.1619
  563MPD2    C3 8351   1.471   4.151  15.726  0.1644 -0.5971  0.1898
  563MPD2    C4 8352   1.508   4.108  15.603  0.0744 -0.3735  1.1110
  563MPD2    C5 8353   1.422   4.038  15.528  0.4813  0.2148  0.4020
  563MPD2     H 8354   1.301   4.165  15.865  0.4053  1.6409 -0.3740
  563MPD2    H1 8355   1.611   4.111  15.569 -0.2804 -2.7587 -0.1821
  563MPD2    H2 8356   1.236   3.941  15.514  0.9134  0.1144 -0.3740
  563MPD2    H3 8357   1.457   4.002  15.432  0.6910  1.5556 -0.0264
  563MPD2     N 8358   1.569   4.196  15.821 -0.2439 -0.4494 -0.0213
  563MPD2    H5 8359   1.529   4.201  15.914  0.6142  2.7092  0.1747
  563MPD2    N1 8360   1.121   4.040  15.735  0.1976  0.1965 -0.0195
  563MPD2    H7 8361   1.071   3.958  15.702  2.3026 -0.0978 -2.4563
  564TMC3    C1 8362   0.961   4.040  15.904  0.1579  0.5083 -0.1308
  564TMC3    C2 8363   0.845   3.982  15.855 -0.2185  0.0523 -0.1774
  564TMC3    C3 8364   0.782   3.906  15.942 -0.2886  0.3203 -0.1258
  564TMC3    C4 8365   1.016   4.016  16.024 -0.2806 -0.1088  0.6094
  564TMC3    C5 8366   0.943   3.933  16.105  0.9571 -1.0549  0.1652
  564TMC3    C6 8367   0.816   3.893  16.073 -0.3679 -0.1494  0.3804
  564TMC3     C 8368   1.049   4.117  15.821  0.3741  0.4208  0.3035
  564TMC3     O 8369   1.071   4.224  15.871  0.2999  0.0603 -0.3106
  564TMC3     H 8370   0.799   4.006  15.760  0.5237 -2.1304 -1.0972
  564TMC3    H1 8371   1.110   4.060  16.057  0.4113 -2.1451  1.3321
  564TMC3    H2 8372   0.758   3.835  16.143  1.5203 -2.4320  0.0577
  564TMC3    C7 8373   1.028   3.836  16.175 -0.0864 -0.3933 -0.7565
  564TMC3    C8 8374   0.749   3.780  15.888 -0.4448  0.0326  0.0931
  564TMC3    O1 8375   1.133   3.886  16.214 -0.2357 -0.8721  0.0356
  564TMC3    O2 8376   0.762   3.684  15.962 -0.1054  0.0652  0.0613
  565TMC3    C1 8377   1.461   1.179  10.162  0.1838 -0.6305  0.7118
  565TMC3    C2 8378   1.441   1.051  10.192  0.0354  0.3971 -0.1353
  565TMC3    C3 8379   1.348   0.978  10.124 -0.3642 -1.2333  0.2311
  565TMC3    C4 8380   1.392   1.254  10.069 -0.0734 -0.7368 -0.0643
  565TMC3    C5 8381   1.298   1.182   9.997 -0.2823 -0.0618 -0.3640
  565TMC3    C6 8382   1.277   1.045  10.024 -0.1223 -0.0892  0.4400
  565TMC3     C 8383   1.600   1.217  10.172 -0.6556 -0.2036  0.3524
  565TMC3     O 8384   1.645   1.281  10.078 -0.5656  0.0745  0.1900
  565TMC3     H 8385   1.514   0.995  10.249  0.5693  0.4265 -0.7774
  565TMC3    H1 8386   1.412   1.360  10.059  1.9576 -1.0532  0.6315
  565TMC3    H2 8387   1.179   1.012   9.994  0.2851 -0.4079 -0.5444
  565TMC3    C7 8388   1.185   1.256   9.940  0.3985  0.7207 -1.0606
  565TMC3    C8 8389   1.339   0.838  10.150  0.7407 -0.2038 -1.0375
  565TMC3    O1 8390   1.078   1.199   9.958  0.6686 -0.2463 -0.0791
  565TMC3    O2 8391   1.358   0.803  10.266  0.4970 -0.1422 -0.4308
  566MPD2     C 8392   2.426   2.874  14.051  0.3645  0.2708 -0.0188
  566MPD2    C1 8393   2.524   2.789  14.015 -0.2551  0.6295  0.7608
  566MPD2    C2 8394   2.491   2.662  13.980 -0.1388 -0.1197 -0.9265
  566MPD2    C3 8395   2.360   2.625  13.957  0.4647 -0.2527 -0.2512
  566MPD2    C4 8396   2.261   2.715  13.991 -0.0373  0.0520  0.2293
  566MPD2    C5 8397   2.297   2.834  14.038  0.4703  0.3723 -0.4726
  566MPD2     H 8398   2.573   2.603  13.941  1.9788  1.8166  0.5741
  566MPD2    H1 8399   2.156   2.697  13.977  0.2802 -1.5980 -0.0370
  566MPD2    H2 8400   2.446   2.978  14.076  1.1514  0.5044 -1.5988
  566MPD2    H3 8401   2.219   2.902  14.070 -0.8708 -1.0212 -0.7231
  566MPD2     N 8402   2.332   2.515  13.873  1.0529  0.2436 -0.5275
  566MPD2    H5 8403   2.243   2.513  13.825 -0.2717  1.6928  1.8858
  566MPD2    N1 8404   2.659   2.823  14.039  1.1349 -0.8745  0.3876
  566MPD2    H7 8405   2.680   2.922  14.043 -0.2781 -0.6457  2.0557
  567TMC3    C1 8406   2.890   2.783  14.046  0.0027 -0.6082  0.4311
  567TMC3    C2 8407   2.916   2.852  13.939  0.5732  0.1348  0.2232
  567TMC3    C3 8408   3.044   2.861  13.892  0.7562  0.3500  0.3579
  567TMC3    C4 8409   2.993   2.722  14.111  0.1710  0.0295 -0.0549
  567TMC3    C5 8410   3.120   2.745  14.075  0.2827 -0.5086  0.1311
  567TMC3    C6 8411   3.149   2.807  13.958 -0.6270  1.0064 -0.6377
  567TMC3     C 8412   2.759   2.731  14.065 -0.3892 -0.3844  0.0494
  567TMC3     O 8413   2.749   2.611  14.091  0.0384 -0.2989  0.6327
  567TMC3     H 8414   2.830   2.890  13.885  1.0558 -0.7880 -1.1949
  567TMC3    H1 8415   2.952   2.663  14.192 -0.4033  0.2997 -0.1528
  567TMC3    H2 8416   3.254   2.825  13.937 -1.2115  4.1508 -0.8910
  567TMC3    C7 8417   3.226   2.683  14.145  0.3372 -0.4158  0.8194
  567TMC3    C8 8418   3.063   2.922  13.755  0.2915  0.9489 -0.7017
  567TMC3    O1 8419   3.338   2.677  14.095 -0.6165  0.4578 -0.1418
  567TMC3    O2 8420   2.968   2.983  13.712  0.7248 -0.5543 -0.2860
  568MPD2     C 8421   0.176   2.560  16.265  0.5336  0.1727  0.2711
  568MPD2    C1 8422   0.295   2.596  16.323  0.0120  0.7683 -0.0917
  568MPD2    C2 8423   0.395   2.659  16.243 -0.2515  0.3248 -0.3380
  568MPD2    C3 8424   0.368   2.716  16.119  0.7328 -0.3670  0.4106
  568MPD2    C4 8425   0.239   2.685  16.070  0.3872  0.3458  0.0543
  568MPD2    C5 8426   0.157   2.602  16.137  0.8066  0.1355 -0.2289
  568MPD2     H 8427   0.489   2.688  16.289 -0.9996 -0.6912  1.8233
  568MPD2    H1 8428   0.201   2.714  15.972 -1.4458 -1.9678  0.0677
  568MPD2    H2 8429   0.104   2.497  16.315  0.5103 -0.7318 -0.9037
  568MPD2    H3 8430   0.061   2.582  16.090 -0.8895  0.9761  2.7979
  568MPD2     N 8431   0.464   2.796  16.060 -0.1811  0.0238  0.4722
  568MPD2    H5 8432   0.553   2.807  16.108  0.0581  0.8631 -0.1721
  568MPD2    N1 8433   0.308   2.574  16.462  0.3935 -0.1846  0.1344
  568MPD2    H7 8434   0.227   2.528  16.503 -0.5727  1.1690 -0.2678
  569TMC3    C1 8435   0.560   2.953  15.929 -0.3095  1.4655  0.3216
  569TMC3    C2 8436   0.639   3.002  16.028 -0.2417 -0.4235 -0.3964
  569TMC3    C3 8437   0.722   3.107  15.993 -0.6368  1.0993 -0.0713
  569TMC3    C4 8438   0.566   2.996  15.804  0.4011  0.1247 -0.0949
  569TMC3    C5 8439   0.659   3.092  15.769 -0.1403  0.5217  0.4939
  569TMC3    C6 8440   0.742   3.149  15.863 -0.5409 -0.6622 -0.1291
  569TMC3     C 8441   0.448   2.862  15.947 -0.0388 -0.1826  0.4559
  569TMC3     O 8442   0.350   2.884  15.876 -0.4337 -0.0850 -0.3666
  569TMC3     H 8443   0.611   2.977  16.130 -1.6334  0.4187 -0.5701
  569TMC3    H1 8444   0.490   2.976  15.730  0.5424  0.9264 -0.4617
  569TMC3    H2 8445   0.830   3.203  15.831 -0.9295  0.3267  0.4840
  569TMC3    C7 8446   0.616   3.184  15.671  0.0623  0.1437 -0.0438
  569TMC3    C8 8447   0.707   3.231  16.072  0.2107  0.6629  0.5626
  569TMC3    O1 8448   0.553   3.154  15.569  0.2173 -0.2597 -0.3362
  569TMC3    O2 8449   0.671   3.327  16.005 -0.5080 -0.0434 -0.0993
  570TMC3    C1 8450   0.119   1.716  16.340 -0.0323 -0.0904 -0.3719
  570TMC3    C2 8451   0.228   1.744  16.260  0.0975 -0.6064 -0.0431
  570TMC3    C3 8452   0.250   1.876  16.228  0.6508 -0.0632 -0.3877
  570TMC3    C4 8453   0.036   1.820  16.383 -0.5358  0.5762 -0.0159
  570TMC3    C5 8454   0.062   1.948  16.342 -0.2918  0.4420  0.2973
  570TMC3    C6 8455   0.174   1.977  16.269  0.2997 -0.4189 -0.1510
  570TMC3     C 8456   0.092   1.579  16.375 -0.1375 -0.0886 -0.5279
  570TMC3     O 8457   0.135   1.482  16.310 -0.1258 -0.9148 -0.0954
  570TMC3     H 8458   0.292   1.660  16.239  1.5623  0.4158  0.3329
  570TMC3    H1 8459   4.663   1.799  16.425 -0.9299 -1.6219 -2.0083
  570TMC3    H2 8460   0.188   2.077  16.229  1.2717 -0.2288  0.6827
  570TMC3    C7 8461   4.693   2.046  16.380  0.1426 -0.5276 -0.1250
  570TMC3    C8 8462   0.355   1.921  16.142 -0.6286  0.1837  0.2495
  570TMC3    O1 8463   4.611   2.021  16.463  0.5134 -0.7292 -0.5964
  570TMC3    O2 8464   0.401   2.032  16.141  0.0529  0.0858 -0.9551
  571MPD2     C 8465   3.037   3.166  17.324 -1.1760 -0.4687  0.0557
  571MPD2    C1 8466   3.117   3.169  17.438  0.3076  0.6640  0.0119
  571MPD2    C2 8467   3.076   3.246  17.549 -0.1885  0.4187  1.0973
  571MPD2    C3 8468   2.946   3.304  17.551  0.3321  0.1959 -0.2309
  571MPD2    C4 8469   2.872   3.294  17.440  1.0939  0.0281  0.5023
  571MPD2    C5 8470   2.917   3.232  17.324  0.2323 -0.4291  0.7307
  571MPD2     H 8471   3.146   3.255  17.631  0.6528 -1.1788  0.5541
  571MPD2    H1 8472   2.779   3.350  17.437  1.8312  1.0236 -3.4995
  571MPD2    H2 8473   3.080   3.109  17.241 -0.2150 -0.5497  0.6079
  571MPD2    H3 8474   2.851   3.216  17.240  1.1637  1.0964 -0.2913
  571MPD2     N 8475   2.894   3.372  17.662  0.2029 -0.4526 -0.0235
  571MPD2    H5 8476   2.804   3.418  17.659  0.7365  0.4595 -1.6051
  571MPD2    N1 8477   3.239   3.099  17.431  0.4437 -0.7391 -0.2371
  571MPD2    H7 8478   3.259   3.055  17.342 -2.1991  0.0366 -1.2058
  572TMC3    C1 8479   2.876   3.463   0.180  0.1340 -0.1942 -0.4015
  572TMC3    C2 8480   2.878   3.410   0.306 -0.4519 -0.7811  0.3047
  572TMC3    C3 8481   2.765   3.429   0.381  0.6687  0.2744  0.2227
  572TMC3    C4 8482   2.784   3.553   0.132 -0.3835  0.5230  0.0238
  572TMC3    C5 8483   2.675   3.576   0.216  0.1175 -0.0412  0.3451
  572TMC3    C6 8484   2.659   3.516   0.338  0.2299  0.3196  0.5867
  572TMC3     C 8485   2.954   3.379   0.086  0.0931 -0.3295  0.0571
  572TMC3     O 8486   3.056   3.326   0.131 -0.5785 -0.2816  0.1992
  572TMC3     H 8487   2.940   3.325   0.329 -3.0847 -2.8086 -0.1278
  572TMC3    H1 8488   2.798   3.600   0.036 -0.6741  0.1625 -0.1930
  572TMC3    H2 8489   2.565   3.522   0.391 -0.4663 -0.8071 -0.5073
  572TMC3    C7 8490   2.640   3.717   0.209 -0.1796 -0.6603 -0.1598
  572TMC3    C8 8491   2.758   3.353   0.502 -0.2843  0.2745  0.4979
  572TMC3    O1 8492   2.619   3.770   0.097  0.4417 -0.0137 -1.0705
  572TMC3    O2 8493   2.852   3.280   0.534 -0.0042 -0.3837 -0.0902
  573MPD2     C 8494   3.613   3.715   0.425 -0.4885 -0.3124  0.4336
  573MPD2    C1 8495   3.546   3.811   0.350 -0.3035 -0.1272 -0.0345
  573MPD2    C2 8496   3.541   3.803   0.213  0.8221  0.3222 -0.6820
  573MPD2    C3 8497   3.619   3.706   0.139 -0.2562  0.4904  0.2111
  573MPD2    C4 8498   3.685   3.611   0.211  0.3614  1.0462  0.7097
  573MPD2    C5 8499   3.669   3.608   0.347 -0.1169 -0.3503 -0.2111
  573MPD2     H 8500   3.489   3.879   0.155 -1.5605  0.4000  1.5707
  573MPD2    H1 8501   3.745   3.530   0.171 -2.8275 -0.9396 -0.0354
  573MPD2    H2 8502   3.612   3.714   0.533 -0.8537 -0.5016  0.4320
  573MPD2    H3 8503   3.724   3.529   0.397 -0.7691 -0.8354 -0.2491
  573MPD2     N 8504   3.635   3.709  17.696  0.1731  0.5290  0.1879
  573MPD2    H5 8505   3.697   3.638  17.657  0.1451 -0.5625  2.1382
  573MPD2    N1 8506   3.473   3.906   0.429  0.7755 -0.3973 -0.7359
  573MPD2    H7 8507   3.493   3.896   0.528 -0.5185 -0.1868 -0.4465
  574TMC3    C1 8508   3.595   3.756  17.471 -0.9226  0.0751 -0.1569
  574TMC3    C2 8509   3.491   3.781  17.385 -0.4155  0.4664 -0.3535
  574TMC3    C3 8510   3.521   3.757  17.253 -0.0331  0.0560  0.1361
  574TMC3    C4 8511   3.723   3.736  17.433 -0.3171 -0.2153 -0.0051
  574TMC3    C5 8512   3.746   3.721  17.297 -0.4474 -0.0095 -0.0032
  574TMC3    C6 8513   3.642   3.711  17.210  1.0131 -0.0770  0.4059
  574TMC3     C 8514   3.566   3.787  17.608 -0.4832 -0.6826 -0.4561
  574TMC3     O 8515   3.481   3.867  17.637 -0.1735  0.5317 -0.1200
  574TMC3     H 8516   3.391   3.786  17.427 -1.0304 -1.7393 -1.5746
  574TMC3    H1 8517   3.801   3.726  17.507  1.4433  0.1525 -1.8142
  574TMC3    H2 8518   3.659   3.697  17.104 -1.3740 -0.2214  0.0438
  574TMC3    C7 8519   3.873   3.672  17.255  0.0530  0.5395  0.5413
  574TMC3    C8 8520   3.412   3.746  17.158 -0.3050  0.3938 -0.1117
  574TMC3    O1 8521   3.873   3.638  17.137 -0.1059 -0.2778  0.1224
  574TMC3    O2 8522   3.423   3.672  17.063  0.3569 -0.2567 -0.1942
  575TMC3    C1 8523   1.353   0.178  10.697  0.1102 -0.3227 -0.1476
  575TMC3    C2 8524   1.318   0.051  10.663  0.2644  0.1657 -0.4690
  575TMC3    C3 8525   1.283   0.021  10.533 -0.1677 -0.3649 -0.3054
  575TMC3    C4 8526   1.345   0.282  10.603 -0.1625  0.7900  0.0354
  575TMC3    C5 8527   1.310   0.249  10.477 -1.0457 -0.3420  0.1930
  575TMC3    C6 8528   1.283   0.119  10.441  0.3650 -0.0921  0.5961
  575TMC3     C 8529   1.436   0.189  10.813  0.0703 -0.3740  0.4204
  575TMC3     O 8530   1.492   0.093  10.858  0.0063 -0.2282 -0.0119
  575TMC3     H 8531   1.347   4.700  10.736  0.4284  0.0664 -0.6335
  575TMC3    H1 8532   1.389   0.378  10.627  2.3668  0.5138 -3.5069
  575TMC3    H2 8533   1.257   0.092  10.340  1.7132  0.8340 -0.0043
  575TMC3    C7 8534   1.282   0.368  10.391 -0.1501 -0.1840 -0.0909
  575TMC3    C8 8535   1.335   4.615  10.488 -0.1283  0.1963 -0.5672
  575TMC3    O1 8536   1.289   0.479  10.447  0.1982 -0.5068 -0.2036
  575TMC3    O2 8537   1.391   4.614  10.380  0.1491  0.7006 -0.3161
  576MPD2     C 8538   1.402   1.740  12.363  0.7774  0.7774  0.1931
  576MPD2    C1 8539   1.363   1.829  12.252  0.4160 -0.8711 -0.7076
  576MPD2    C2 8540   1.266   1.926  12.285  0.2563 -0.2006 -0.5041
  576MPD2    C3 8541   1.219   1.945  12.416  0.5204 -0.5974 -0.4918
  576MPD2    C4 8542   1.244   1.850  12.510 -0.1748  0.4596  0.3244
  576MPD2    C5 8543   1.331   1.753  12.489  0.1433 -0.5995 -0.9235
  576MPD2     H 8544   1.234   1.997  12.210 -2.8062 -1.2192 -0.1682
  576MPD2    H1 8545   1.202   1.854  12.609  1.5378 -0.3834  1.0889
  576MPD2    H2 8546   1.480   1.665  12.353  0.7267  0.4400  2.3036
  576MPD2    H3 8547   1.350   1.678  12.565 -2.4775 -1.3371 -0.9953
  576MPD2     N 8548   1.133   2.055  12.441 -0.7602  0.4855 -0.5311
  576MPD2    H5 8549   1.111   2.121  12.367 -1.3489  1.4119  0.4700
  576MPD2    N1 8550   1.399   1.811  12.115  0.5258  0.0009 -0.3722
  576MPD2    H7 8551   1.355   1.876  12.051  1.1357  1.9666  1.2300
  577TMC3    C1 8552   1.497   1.708  11.932 -0.0906  0.2990 -0.3028
  577TMC3    C2 8553   1.586   1.613  11.887  0.5443  0.1419 -0.6951
  577TMC3    C3 8554   1.649   1.627  11.767  0.6727  0.3515  0.1725
  577TMC3    C4 8555   1.462   1.812  11.846 -0.5162 -0.1597 -0.5126
  577TMC3    C5 8556   1.521   1.817  11.720 -0.0181  0.1315  0.4254
  577TMC3    C6 8557   1.621   1.725  11.683  0.2294 -0.2457  0.2445
  577TMC3     C 8558   1.478   1.701  12.073 -0.2110  0.9106  0.1846
  577TMC3     O 8559   1.535   1.613  12.136  0.0288  0.2745 -0.2156
  577TMC3     H 8560   1.622   1.527  11.942 -1.8756  0.3704  1.2327
  577TMC3    H1 8561   1.403   1.892  11.890  0.9616  1.5189 -1.5634
  577TMC3    H2 8562   1.654   1.721  11.580  0.5768 -0.6636  0.3711
  577TMC3    C7 8563   1.474   1.921  11.628  0.0169 -0.4612 -0.3979
  577TMC3    C8 8564   1.754   1.528  11.735 -0.0188  0.3072  0.4466
  577TMC3    O1 8565   1.448   2.033  11.668 -0.1425 -0.5369 -0.0155
  577TMC3    O2 8566   1.738   1.421  11.792  0.2964 -0.3279  0.2067
  578MPD2     C 8567   3.630   2.257   1.300 -0.1532 -0.3666 -0.5595
  578MPD2    C1 8568   3.704   2.234   1.186 -0.5097 -0.3961  0.7151
  578MPD2    C2 8569   3.830   2.175   1.194  0.7909 -0.9574  0.6368
  578MPD2    C3 8570   3.882   2.136   1.321 -0.1719  0.2131  0.7015
  578MPD2    C4 8571   3.799   2.147   1.431 -0.1402 -0.0355  0.0959
  578MPD2    C5 8572   3.674   2.213   1.422 -0.4091 -0.1660  0.4329
  578MPD2     H 8573   3.884   2.168   1.100  0.3521  0.7356  0.2545
  578MPD2    H1 8574   3.825   2.097   1.524  2.2921 -0.5644 -0.8505
  578MPD2    H2 8575   3.526   2.288   1.302 -0.0583  0.0189 -1.4121
  578MPD2    H3 8576   3.607   2.219   1.508 -2.5311  2.4142 -1.4061
  578MPD2     N 8577   4.012   2.079   1.343  0.0354 -0.7393  0.2460
  578MPD2    H5 8578   4.035   2.052   1.438  1.2165 -0.4954  0.0334
  578MPD2    N1 8579   3.645   2.269   1.063 -0.3198  0.3213  0.3743
  578MPD2    H7 8580   3.559   2.322   1.072 -0.2764  0.3952  0.3541
  579TMC3    C1 8581   4.240   2.041   1.288 -0.3974 -0.0725  0.0048
  579TMC3    C2 8582   4.336   2.082   1.201 -0.1874 -0.2384 -0.3577
  579TMC3    C3 8583   4.458   2.016   1.208 -0.1106  0.3397 -0.5327
  579TMC3    C4 8584   4.245   1.922   1.363  0.2810 -0.2740 -0.8729
  579TMC3    C5 8585   4.355   1.843   1.330  0.6653  0.2970  0.3448
  579TMC3    C6 8586   4.465   1.892   1.267  0.3733  0.6715 -0.1358
  579TMC3     C 8587   4.111   2.090   1.249 -0.2727  0.2563  1.1337
  579TMC3     O 8588   4.107   2.136   1.135 -0.1724  0.1681  0.0510
  579TMC3     H 8589   4.326   2.181   1.157 -0.3837 -0.0913  0.0150
  579TMC3    H1 8590   4.155   1.895   1.416  0.4197 -2.5137 -1.7580
  579TMC3    H2 8591   4.552   1.826   1.267  0.3517  0.6439 -0.4510
  579TMC3    C7 8592   4.341   1.698   1.346 -0.7747 -0.7007 -0.3963
  579TMC3    C8 8593   4.570   2.083   1.139  0.1218  0.0124  0.0464
  579TMC3    O1 8594   4.446   1.627   1.342 -0.5705 -0.0060  0.2161
  579TMC3    O2 8595   4.564   2.197   1.113  0.0649  0.6999  0.7763
  580TMC3    C1 8596   3.989   1.363  12.323  0.5783 -0.0523 -0.0204
  580TMC3    C2 8597   4.102   1.440  12.351 -0.1541  0.6992 -0.3055
  580TMC3    C3 8598   4.220   1.377  12.358  0.0277  0.3220  0.3656
  580TMC3    C4 8599   3.995   1.229  12.305 -0.7558  0.1160  0.2428
  580TMC3    C5 8600   4.116   1.168  12.315  0.0512  0.6303 -1.4519
  580TMC3    C6 8601   4.229   1.236  12.337 -0.0812  0.0279 -0.3206
  580TMC3     C 8602   3.867   1.440  12.274  0.6667  0.9652 -0.2193
  580TMC3     O 8603   3.892   1.563  12.272 -0.4610  0.0171  0.3383
  580TMC3     H 8604   4.104   1.549  12.348 -0.3902  0.7344  0.7325
  580TMC3    H1 8605   3.907   1.170  12.281 -0.3202 -0.8564  1.0288
  580TMC3    H2 8606   4.327   1.191  12.342  0.2079  0.4836 -1.7687
  580TMC3    C7 8607   4.134   1.028  12.279  0.2494 -0.2302 -0.6171
  580TMC3    C8 8608   4.328   1.452  12.294  0.2755  0.0951  0.1808
  580TMC3    O1 8609   4.223   0.972  12.344  0.0176  0.3172 -0.2004
  580TMC3    O2 8610   4.357   1.558  12.342  0.3519 -0.2964  0.2493
  581MPD2     C 8611   1.563   0.880  15.177 -0.4457 -0.4849  0.0737
  581MPD2    C1 8612   1.449   0.807  15.145  0.7279 -0.3609 -0.3306
  581MPD2    C2 8613   1.367   0.851  15.045 -1.1026 -0.4231 -0.8750
  581MPD2    C3 8614   1.398   0.976  14.983  0.4431  0.3237  0.8049
  581MPD2    C4 8615   1.508   1.053  15.028 -0.0752 -0.8491  0.2721
  581MPD2    C5 8616   1.583   1.007  15.134 -0.0241 -0.2345 -0.0721
  581MPD2     H 8617   1.278   0.805  15.005 -1.3151 -0.2371 -0.6077
  581MPD2    H1 8618   1.535   1.154  14.999 -0.9340 -0.3812  1.1139
  581MPD2    H2 8619   1.625   0.845  15.258 -0.9108  0.2782  0.7644
  581MPD2    H3 8620   1.658   1.069  15.183 -0.2920  2.1625 -2.6822
  581MPD2     N 8621   1.302   1.019  14.889  0.3334 -0.5732  0.0123
  581MPD2    H5 8622   1.227   0.956  14.861  0.9705 -1.7327  0.9117
  581MPD2    N1 8623   1.437   0.672  15.206  0.6652  0.0725  0.2176
  581MPD2    H7 8624   1.518   0.645  15.262  1.5160  0.6379 -0.7397
  582TMC3    C1 8625   1.358   0.452  15.230  0.1873  0.0614 -1.0835
  582TMC3    C2 8626   1.378   0.435  15.364 -0.3610 -0.5581 -0.2389
  582TMC3    C3 8627   1.339   0.314  15.420 -0.9441 -0.4625  0.0702
  582TMC3    C4 8628   1.311   0.355  15.146  0.6759 -0.5813 -0.1838
  582TMC3    C5 8629   1.256   0.248  15.214 -0.7139  0.2744 -0.4436
  582TMC3    C6 8630   1.268   0.222  15.349 -0.6536  0.8283  0.2615
  582TMC3     C 8631   1.330   0.586  15.188 -1.0660  0.5323 -0.2337
  582TMC3     O 8632   1.233   0.609  15.112 -0.0691  0.1742 -0.0176
  582TMC3     H 8633   1.422   0.512  15.426 -2.4561 -1.4194  2.3073
  582TMC3    H1 8634   1.299   0.370  15.039 -2.3674 -1.7888 -0.0370
  582TMC3    H2 8635   1.236   0.130  15.396  1.6105  0.1480  0.4734
  582TMC3    C7 8636   1.146   0.184  15.154 -0.1315  0.0632 -0.1444
  582TMC3    C8 8637   1.350   0.290  15.564  0.1704  0.4000 -0.1903
  582TMC3    O1 8638   1.160   0.121  15.051 -0.1040 -0.6172 -0.1502
  582TMC3    O2 8639   1.335   0.176  15.602 -0.5530 -0.2752 -0.1594
  583MPD2     C 8640   1.864   2.297  16.972 -0.5748 -0.1178  0.4324
  583MPD2    C1 8641   1.869   2.414  16.886 -0.2063 -0.2445  0.1645
  583MPD2    C2 8642   1.816   2.529  16.935  0.1912 -0.1744  1.0428
  583MPD2    C3 8643   1.761   2.543  17.066  1.0310  0.4916 -0.8016
  583MPD2    C4 8644   1.763   2.429  17.146 -0.7576  0.5426  0.8117
  583MPD2    C5 8645   1.809   2.314  17.094  0.4314 -0.0869  0.3000
  583MPD2     H 8646   1.803   2.615  16.870  1.1400 -1.5819 -1.0037
  583MPD2    H1 8647   1.718   2.426  17.245 -2.9293 -1.0689 -0.2291
  583MPD2    H2 8648   1.896   2.199  16.938  1.1204  0.6250 -0.0900
  583MPD2    H3 8649   1.797   2.220  17.146  0.2146 -0.7852 -1.0220
  583MPD2     N 8650   1.693   2.665  17.102 -0.4841 -0.4413 -0.1100
  583MPD2    H5 8651   1.671   2.725  17.023  0.9174  0.6660  0.3498
  583MPD2    N1 8652   1.935   2.414  16.758  0.9642  0.6433 -0.3279
  583MPD2    H7 8653   1.939   2.500  16.706 -0.9787 -0.4384 -2.2580
  584TMC3    C1 8654   1.569   2.822  17.247 -0.5949 -0.0457 -0.1483
  584TMC3    C2 8655   1.622   2.927  17.175  0.2826 -0.1555  0.3843
  584TMC3    C3 8656   1.606   3.051  17.225 -0.6227  0.2658  0.0784
  584TMC3    C4 8657   1.491   2.839  17.358  0.0149 -0.2618  0.3043
  584TMC3    C5 8658   1.476   2.970  17.405 -0.1249 -0.8792 -0.6181
  584TMC3    C6 8659   1.533   3.074  17.343 -0.0320  0.0017 -0.3410
  584TMC3     C 8660   1.638   2.689  17.225  0.0441 -0.3064 -0.3288
  584TMC3     O 8661   1.637   2.621  17.324  0.1534 -0.5159  0.4830
  584TMC3     H 8662   1.676   2.916  17.082 -2.0278  0.4294 -1.0199
  584TMC3    H1 8663   1.456   2.755  17.416 -1.9903 -0.0954 -0.6664
  584TMC3    H2 8664   1.504   3.174  17.373 -1.2170 -0.7957  1.1275
  584TMC3    C7 8665   1.427   2.986  17.542  0.4723 -0.2138 -0.3594
  584TMC3    C8 8666   1.650   3.161  17.142 -0.1976 -0.0754  0.0316
  584TMC3    O1 8667   1.338   2.910  17.577 -0.3424 -1.1511  0.5909
  584TMC3    O2 8668   1.659   3.144  17.018 -0.0816 -0.7225  0.1055
  585MPD2     C 8669   1.081   1.427   0.378  0.1753 -0.3701 -0.0224
  585MPD2    C1 8670   1.135   1.442   0.256 -0.1469  0.4677  0.6039
  585MPD2    C2 8671   1.087   1.357   0.154 -0.0944  0.0909 -0.5080
  585MPD2    C3 8672   1.006   1.243   0.180  0.1149 -0.6500  0.4194
  585MPD2    C4 8673   0.965   1.227   0.312 -0.1212  0.1945 -0.2532
  585MPD2    C5 8674   1.004   1.315   0.408 -0.0082  0.5385  0.3131
  585MPD2     H 8675   1.114   1.385   0.052  1.0425 -0.9925 -0.5044
  585MPD2    H1 8676   0.891   1.152   0.339  0.8628  0.1119  2.1744
  585MPD2    H2 8677   1.103   1.488   0.465  0.1983 -1.7494  0.9450
  585MPD2    H3 8678   0.963   1.298   0.507 -3.0063 -2.1567 -1.4083
  585MPD2     N 8679   0.940   1.173   0.077 -0.0377 -0.2999 -0.4408
  585MPD2    H5 8680   0.861   1.114   0.100  0.0294 -0.9497 -1.8893
  585MPD2    N1 8681   1.228   1.550   0.235  0.0082 -0.2376 -0.4166
  585MPD2    H7 8682   1.240   1.616   0.311  1.1058 -1.2856  0.3059
  586TMC3    C1 8683   0.880   1.102  17.568 -0.7541  0.1194 -0.2707
  586TMC3    C2 8684   0.911   1.044  17.453  0.1428 -0.7509 -0.4781
  586TMC3    C3 8685   0.815   0.975  17.390  0.0366 -0.2995 -0.3820
  586TMC3    C4 8686   0.754   1.122  17.609 -0.6152 -0.4648  0.6481
  586TMC3    C5 8687   0.662   1.049  17.544 -1.1716 -0.3080  0.0920
  586TMC3    C6 8688   0.686   0.974  17.435  0.0034 -0.6624  0.1055
  586TMC3     C 8689   0.986   1.166  17.650  0.3526 -0.6531 -0.5861
  586TMC3     O 8690   1.092   1.203  17.602  0.0901  0.5513  0.0514
  586TMC3     H 8691   1.013   1.033  17.418  0.0692 -1.5210 -0.4517
  586TMC3    H1 8692   0.728   1.182  17.696  0.4487 -2.0634  2.0533
  586TMC3    H2 8693   0.617   0.901  17.394  1.7117 -2.6416  0.7231
  586TMC3    C7 8694   0.532   1.040  17.606 -0.2047  0.3022 -0.6135
  586TMC3    C8 8695   0.849   0.870  17.293 -0.1049  0.7064  0.1815
  586TMC3    O1 8696   0.474   0.929  17.595 -0.1106  0.1757  0.3247
  586TMC3    O2 8697   0.782   0.767  17.298 -0.1636  0.4715  0.1084
  587TMC3    C1 8698   3.599   0.176  16.650  0.2786 -0.4281  0.1665
  587TMC3    C2 8699   3.553   0.296  16.612 -0.5715  0.2254 -0.4278
  587TMC3    C3 8700   3.634   0.387  16.551  0.6082 -0.8837 -0.4483
  587TMC3    C4 8701   3.725   0.133  16.621  0.0129 -0.2056  0.3880
  587TMC3    C5 8702   3.805   0.225  16.562  0.9136 -0.0319  0.4938
  587TMC3    C6 8703   3.764   0.352  16.525  0.1091 -0.3066 -0.0457
  587TMC3     C 8704   3.509   0.080  16.712 -0.8066 -0.7535 -0.1521
  587TMC3     O 8705   3.547   0.008  16.810 -0.2602  0.4846 -0.2816
  587TMC3     H 8706   3.448   0.321  16.628 -0.0771  1.8635  0.2545
  587TMC3    H1 8707   3.759   0.035  16.652  0.7716 -0.3859 -1.0353
  587TMC3    H2 8708   3.829   0.423  16.475 -0.4023  0.7051  0.7124
  587TMC3    C7 8709   3.938   0.192  16.522 -1.1613  0.0547  0.0073
  587TMC3    C8 8710   3.563   0.446  16.440  0.0066 -0.5511  0.6432
  587TMC3    O1 8711   3.986   0.256  16.429 -0.3137  0.0602  0.4009
  587TMC3    O2 8712   3.629   0.481  16.344  0.0779  0.3759  0.3307
  588TMC3    C1 8713   1.085   3.356   9.837 -0.1343  0.3120  0.1851
  588TMC3    C2 8714   1.013   3.238   9.820 -0.3036 -0.1479 -0.2068
  588TMC3    C3 8715   1.078   3.129   9.766  0.6653 -0.0934 -0.0156
  588TMC3    C4 8716   1.214   3.363   9.797 -0.2960  0.0745 -0.0900
  588TMC3    C5 8717   1.271   3.250   9.743 -0.0890  0.6504 -0.0702
  588TMC3    C6 8718   1.206   3.139   9.725  0.1022  0.3034 -0.1602
  588TMC3     C 8719   1.026   3.470   9.908 -0.0167  0.0177 -0.0920
  588TMC3     O 8720   0.915   3.503   9.876  0.1142 -0.0545 -0.0563
  588TMC3     H 8721   0.908   3.233   9.846 -0.4579  1.7138 -0.4820
  588TMC3    H1 8722   1.262   3.460   9.793 -1.3334  0.5386 -1.3443
  588TMC3    H2 8723   1.260   3.057   9.678  0.1677  0.4201 -0.2911
  588TMC3    C7 8724   1.405   3.257   9.683  0.2107 -0.5587  0.6666
  588TMC3    C8 8725   0.996   3.005   9.742 -0.3647 -0.5484 -0.0790
  588TMC3    O1 8726   1.420   3.203   9.576  0.0393  0.2764  0.2378
  588TMC3    O2 8727   0.879   3.015   9.709  0.7821  0.3728  0.3597
  589TMC3    C1 8728   4.240   0.074   1.052 -0.4094  0.2780 -0.5237
  589TMC3    C2 8729   4.306   0.088   1.165  0.5050 -0.0997  0.0857
  589TMC3    C3 8730   4.430   0.026   1.169  0.0926  0.3288  0.2541
  589TMC3    C4 8731   4.281   4.722   0.949  0.1182 -0.1643 -0.2531
  589TMC3    C5 8732   4.405   4.667   0.958  0.3622  0.4088  0.3413
  589TMC3    C6 8733   4.481   4.676   1.065 -0.2044  0.2087 -0.0275
  589TMC3     C 8734   4.104   0.122   1.036 -0.1589 -0.7501 -0.8350
  589TMC3     O 8735   4.056   0.123   0.924  0.6752 -0.7223 -0.1842
  589TMC3     H 8736   4.272   0.151   1.246  0.6355  0.1940 -0.0884
  589TMC3    H1 8737   4.213   4.706   0.866 -1.4505 -1.1364  1.2255
  589TMC3    H2 8738   4.574   4.623   1.083 -1.6650 -0.8554  4.2097
  589TMC3    C7 8739   4.430   4.555   0.869 -0.3651 -0.0494 -0.1740
  589TMC3    C8 8740   4.504   0.046   1.295 -0.4253 -0.6063 -0.5313
  589TMC3    O1 8741   4.521   4.479   0.899  0.3938  0.0506  0.3000
  589TMC3    O2 8742   4.436   0.081   1.388 -0.4881 -0.7325 -0.1705
  590MPD2     C 8743   4.690   3.161  16.587  0.4356 -0.7208  0.2382
  590MPD2    C1 8744   4.609   3.177  16.476  0.5001  0.7432 -0.1542
  590MPD2    C2 8745   4.657   3.253  16.369  0.2991 -0.1010  0.2093
  590MPD2    C3 8746   0.060   3.309  16.367  0.7327  0.3181 -0.1978
  590MPD2    C4 8747   0.138   3.292  16.482  0.1572 -0.0250 -0.2543
  590MPD2    C5 8748   0.089   3.227  16.588  0.4400 -0.1883  0.0884
  590MPD2     H 8749   4.597   3.265  16.279 -0.4602 -2.0607  0.4461
  590MPD2    H1 8750   0.238   3.333  16.486  0.1791 -0.1994  1.1624
  590MPD2    H2 8751   4.666   3.103  16.675 -0.0842  0.5851  0.9488
  590MPD2    H3 8752   0.160   3.209  16.668 -0.2330 -0.2722  0.6674
  590MPD2     N 8753   0.102   3.386  16.256 -0.2281  0.2197 -1.1161
  590MPD2    H5 8754   0.029   3.409  16.189  0.4074  2.3663 -1.0660
  590MPD2    N1 8755   4.483   3.119  16.484 -0.7828 -0.3453  0.6854
  590MPD2    H7 8756   4.460   3.062  16.565 -1.0060 -2.3617 -0.8189
  591TMC3    C1 8757   0.247   3.516  16.118  0.3764 -0.1773  1.0308
  591TMC3    C2 8758   0.175   3.483  16.006  0.1912  0.1230 -0.0974
  591TMC3    C3 8759   0.214   3.544  15.892 -0.6219 -0.1806  0.0914
  591TMC3    C4 8760   0.339   3.620  16.116 -0.3396 -0.1537 -0.0338
  591TMC3    C5 8761   0.366   3.686  16.004 -0.1347  0.5180 -0.0310
  591TMC3    C6 8762   0.308   3.650  15.887  0.2072 -0.1009 -0.5108
  591TMC3     C 8763   0.225   3.446  16.244 -0.3373 -0.3610  0.2131
  591TMC3     O 8764   0.326   3.428  16.307 -0.1836 -0.4131  0.2005
  591TMC3     H 8765   0.102   3.403  15.996  1.1623 -0.7432 -0.2293
  591TMC3    H1 8766   0.391   3.659  16.203  1.6501  0.4228 -1.4933
  591TMC3    H2 8767   0.351   3.686  15.794 -0.2408 -1.0660 -1.1003
  591TMC3    C7 8768   0.422   3.821  16.028 -0.4508 -0.4318 -0.5818
  591TMC3    C8 8769   0.188   3.473  15.772  0.5205 -0.4582  0.1161
  591TMC3    O1 8770   0.512   3.827  16.114  0.8023  0.0519  0.3205
  591TMC3    O2 8771   0.155   3.359  15.784 -0.0899 -0.4079 -0.1261
  592MPD2     C 8772   0.059   1.000  10.814  0.6158  0.2134  0.3138
  592MPD2    C1 8773   0.082   1.001  10.950  0.5586 -0.3903  0.5503
  592MPD2    C2 8774   4.722   0.930  11.035 -0.1887 -0.7073 -0.3147
  592MPD2    C3 8775   4.618   0.854  10.980  0.2403  0.6589  0.9945
  592MPD2    C4 8776   4.598   0.853  10.845  0.6688 -0.1450 -0.7711
  592MPD2    C5 8777   4.680   0.926  10.765 -0.5212 -0.5002 -0.9415
  592MPD2     H 8778   0.016   0.924  11.142  0.3209  0.2587 -0.3453
  592MPD2    H1 8779   4.519   0.793  10.800 -0.7649  1.8537 -0.9044
  592MPD2    H2 8780   0.122   1.058  10.748 -2.6944 -0.0567 -3.0903
  592MPD2    H3 8781   4.663   0.924  10.658  0.8007  0.0311 -1.1643
  592MPD2     N 8782   4.539   0.781  11.073 -0.5231  0.0220  0.2462
  592MPD2    H5 8783   4.553   0.806  11.170  1.7163  1.3298 -0.4055
  592MPD2    N1 8784   0.178   1.090  10.994 -0.7835 -0.2316  0.4796
  592MPD2    H7 8785   0.222   1.159  10.934 -1.4230 -0.6654 -0.4745
  593TMC3    C1 8786   0.332   1.197  11.145 -0.1505  0.1998  0.5540
  593TMC3    C2 8787   0.340   1.249  11.269  0.3895 -0.5639  0.2501
  593TMC3    C3 8788   0.438   1.344  11.293  0.2916  0.5649 -0.1728
  593TMC3    C4 8789   0.411   1.245  11.041  0.6500  0.3145 -0.2280
  593TMC3    C5 8790   0.513   1.334  11.066  0.6906 -0.1374 -0.3334
  593TMC3    C6 8791   0.523   1.383  11.193 -0.0047  0.5602  0.3365
  593TMC3     C 8792   0.225   1.097  11.126  0.5066 -0.1629 -0.4570
  593TMC3     O 8793   0.200   1.029  11.227 -0.2295 -0.1279 -0.4850
  593TMC3     H 8794   0.275   1.221  11.351 -0.4587  0.3759 -0.1040
  593TMC3    H1 8795   0.420   1.188  10.950  1.6281  1.4241 -0.8212
  593TMC3    H2 8796   0.600   1.456  11.215  1.2433 -1.0888  1.4296
  593TMC3    C7 8797   0.590   1.387  10.961  0.5357  0.0530  0.3281
  593TMC3    C8 8798   0.429   1.406  11.418 -0.7078 -0.0819  0.2360
  593TMC3    O1 8799   0.700   1.434  10.990 -0.3477 -0.1905  0.1570
  593TMC3    O2 8800   0.315   1.420  11.465  0.3155 -0.0184 -0.0894
  594MPD2     C 8801   3.012   4.233  14.014 -0.6855  0.6716  0.0362
  594MPD2    C1 8802   3.041   4.208  14.142  0.3196 -0.1728  0.2170
  594MPD2    C2 8803   3.161   4.259  14.195 -0.0869 -0.4338 -0.2787
  594MPD2    C3 8804   3.248   4.339  14.128 -0.3090 -0.2067  0.5355
  594MPD2    C4 8805   3.213   4.364  14.003  0.0221 -0.3739 -0.1885
  594MPD2    C5 8806   3.092   4.318  13.942 -0.3173  0.1628 -0.1988
  594MPD2     H 8807   3.187   4.248  14.300  0.4131  1.6083 -0.1937
  594MPD2    H1 8808   3.265   4.425  13.930  0.1322 -0.2460 -0.0040
  594MPD2    H2 8809   2.916   4.204  13.972 -1.1689  0.2814  1.4075
  594MPD2    H3 8810   3.081   4.335  13.836 -0.5262 -1.9529 -0.5288
  594MPD2     N 8811   3.360   4.396  14.188 -0.2735 -0.5738  0.3956
  594MPD2    H5 8812   3.361   4.387  14.289 -0.0719 -1.0242  0.3520
  594MPD2    N1 8813   2.936   4.148  14.214 -0.5551 -0.0103 -0.0307
  594MPD2    H7 8814   2.846   4.152  14.166  0.4027  0.0284 -1.8332
  595TMC3    C1 8815   3.780   4.543  14.256 -0.6829 -0.5808  0.6124
  595TMC3    C2 8816   3.675   4.534  14.169 -0.2587  0.5347  0.0713
  595TMC3    C3 8817   3.551   4.519  14.223 -0.5399 -0.2756 -0.3913
  595TMC3    C4 8818   3.761   4.559  14.387 -0.6891  0.3287  0.7968
  595TMC3    C5 8819   3.638   4.541  14.442 -0.1451  0.3641  0.1476
  595TMC3    C6 8820   3.527   4.525  14.358  0.2936 -0.0187 -0.8481
  595TMC3     C 8821   3.908   4.566  14.188  0.0568 -0.2888  0.4998
  595TMC3     O 8822   3.907   4.566  14.065 -0.1218 -0.1889  0.3682
  595TMC3     H 8823   3.687   4.516  14.062  1.9592  0.5245  0.3245
  595TMC3    H1 8824   3.847   4.550  14.452  0.5924 -0.4441 -0.9913
  595TMC3    H2 8825   3.425   4.528  14.396  1.1543  1.6828  1.3081
  595TMC3    C7 8826   3.608   4.605  14.567 -0.2986 -0.5302 -0.3142
  595TMC3    C8 8827   3.452   4.476  14.123  0.4781  0.4497 -0.7314
  595TMC3    O1 8828   3.491   4.580  14.607  0.1960  0.0922 -0.0881
  595TMC3    O2 8829   3.480   4.500  14.005 -0.0527 -0.2015 -0.0516
  596MPD2     C 8830   2.607   1.958  16.961 -0.1562  0.2413  0.4950
  596MPD2    C1 8831   2.598   2.078  16.898 -0.7107 -0.2205  0.7249
  596MPD2    C2 8832   2.622   2.089  16.758  0.0672 -0.6153 -0.1957
  596MPD2    C3 8833   2.640   1.970  16.685 -0.0665 -0.5147 -0.5769
  596MPD2    C4 8834   2.654   1.856  16.753 -0.7530 -0.6578  0.3256
  596MPD2    C5 8835   2.639   1.850  16.887  0.0138 -0.3483  0.1142
  596MPD2     H 8836   2.631   2.175  16.694  0.0908 -0.5439 -0.0960
  596MPD2    H1 8837   2.658   1.759  16.704  0.2408 -0.1612 -0.5848
  596MPD2    H2 8838   2.591   1.945  17.067  3.1283 -0.9457  0.8343
  596MPD2    H3 8839   2.649   1.754  16.938 -1.1224 -0.8760 -0.6495
  596MPD2     N 8840   2.631   1.974  16.543  0.3303  0.0872  0.4845
  596MPD2    H5 8841   2.659   1.893  16.489 -0.2309  0.3052 -0.1301
  596MPD2    N1 8842   2.587   2.197  16.971  0.0287  0.1260 -0.3340
  596MPD2    H7 8843   2.602   2.287  16.928  0.8240 -0.4768 -1.3257
  597TMC3    C1 8844   2.577   2.330  17.165 -0.0110 -0.1011  0.0910
  597TMC3    C2 8845   2.692   2.391  17.121 -0.0677  0.2470 -0.1043
  597TMC3    C3 8846   2.701   2.520  17.160  0.1438  0.6498 -0.4192
  597TMC3    C4 8847   2.479   2.386  17.238 -0.3638  0.1794  0.2349
  597TMC3    C5 8848   2.497   2.517  17.272 -0.0012 -0.6446 -0.6561
  597TMC3    C6 8849   2.609   2.591  17.236 -0.0337 -0.1997 -0.1647
  597TMC3     C 8850   2.549   2.204  17.101 -0.2518 -0.7479  0.2885
  597TMC3     O 8851   2.485   2.126  17.170  0.2274  0.1123  0.4524
  597TMC3     H 8852   2.758   2.347  17.047 -1.3288 -2.2169  0.2417
  597TMC3    H1 8853   2.382   2.339  17.241  0.5678 -1.6558  2.4254
  597TMC3    H2 8854   2.638   2.692  17.264 -1.7251  0.0381  0.7449
  597TMC3    C7 8855   2.383   2.584  17.332  1.0146  0.5642 -0.0034
  597TMC3    C8 8856   2.823   2.570  17.120  0.2753  0.0125  0.2511
  597TMC3    O1 8857   2.305   2.524  17.409 -0.6871 -0.3868  0.0022
  597TMC3    O2 8858   2.917   2.492  17.124 -0.1668  0.1490 -0.3252
  598TMC3    C1 8859   0.650   4.140  14.997 -0.6517  0.6114 -0.2711
  598TMC3    C2 8860   0.523   4.092  14.977  0.1180  0.0497  0.3420
  598TMC3    C3 8861   0.475   4.085  14.850 -0.3217  0.1488  0.2980
  598TMC3    C4 8862   0.722   4.184  14.890  0.0432 -1.2629  0.4546
  598TMC3    C5 8863   0.671   4.167  14.764  0.1355 -0.0650  0.0751
  598TMC3    C6 8864   0.547   4.120  14.744  0.6632 -0.6606 -0.0912
  598TMC3     C 8865   0.688   4.191  15.125  0.0342 -0.2078  0.1100
  598TMC3     O 8866   0.766   4.285  15.122  0.4663 -0.0412  0.3470
  598TMC3     H 8867   0.468   4.067  15.067 -1.6071  4.5712  0.5100
  598TMC3    H1 8868   0.826   4.213  14.900 -0.2293 -0.3473  0.6186
  598TMC3    H2 8869   0.509   4.125  14.643 -1.0097  2.5981  0.7132
  598TMC3    C7 8870   0.729   4.245  14.658  0.0586 -0.3738  0.0222
  598TMC3    C8 8871   0.345   4.023  14.833 -0.4918  0.3545 -0.8936
  598TMC3    O1 8872   0.703   4.204  14.547 -0.9242  0.2419 -0.3291
  598TMC3    O2 8873   0.275   4.032  14.930  0.5946  0.7378 -0.7872
  599MPD2     C 8874   0.961   1.628  15.847 -0.1508 -0.1686  0.6340
  599MPD2    C1 8875   0.912   1.499  15.854 -0.0294  0.3569 -0.4618
  599MPD2    C2 8876   0.805   1.476  15.940 -0.3025  1.2478 -0.1772
  599MPD2    C3 8877   0.772   1.579  16.028 -0.9762 -0.5466 -0.2073
  599MPD2    C4 8878   0.824   1.703  16.016  0.1310  0.2162  0.4852
  599MPD2    C5 8879   0.916   1.732  15.925  0.1351 -0.7638 -0.1445
  599MPD2     H 8880   0.765   1.376  15.948 -2.0300  1.8708 -0.9924
  599MPD2    H1 8881   0.792   1.785  16.080  0.1857 -0.7663  1.7774
  599MPD2    H2 8882   1.041   1.655  15.779 -2.1180 -0.1717 -1.6826
  599MPD2    H3 8883   0.952   1.834  15.924 -0.2359 -0.6359 -0.8498
  599MPD2     N 8884   0.673   1.565  16.124 -0.7779  0.3703 -0.5436
  599MPD2    H5 8885   0.668   1.649  16.181 -1.2469  0.3118 -0.5008
  599MPD2    N1 8886   0.975   1.409  15.770 -0.0233  0.7074  0.7878
  599MPD2    H7 8887   1.046   1.450  15.711 -1.0715  1.1719 -0.1582
  600TMC3    C1 8888   0.512   1.479  16.268  0.5000  0.9524  1.1509
  600TMC3    C2 8889   0.460   1.362  16.316  0.2882 -0.0890 -0.0273
  600TMC3    C3 8890   0.391   1.371  16.432  0.2062 -0.6048  0.1841
  600TMC3    C4 8891   0.518   1.596  16.335  0.5422  0.1511 -0.3020
  600TMC3    C5 8892   0.472   1.590  16.465 -0.0821  0.1231 -0.2201
  600TMC3    C6 8893   0.412   1.477  16.515  0.1105 -0.0445  0.6276
  600TMC3     C 8894   0.578   1.472  16.140 -0.0969 -0.2372  0.4309
  600TMC3     O 8895   0.536   1.385  16.062  0.4031 -0.2733 -0.0879
  600TMC3     H 8896   0.482   1.272  16.261  1.9267  0.3071 -0.0083
  600TMC3    H1 8897   0.557   1.691  16.300  0.3715  0.6953  0.9884
  600TMC3    H2 8898   0.370   1.476  16.615 -1.1112 -0.5680  0.1205
  600TMC3    C7 8899   0.420   1.715  16.529 -0.4865 -0.0090 -0.1424
  600TMC3    C8 8900   0.342   1.249  16.484  0.1104  0.0832  0.0170
  600TMC3    O1 8901   0.317   1.712  16.589 -0.1124 -0.2516 -0.0199
  600TMC3    O2 8902   0.358   1.228  16.604 -0.5079  0.3115 -0.4896
  601MPD2     C 8903   2.477   4.154   0.469  0.4914  0.5883 -0.6978
  601MPD2    C1 8904   2.485   4.120   0.335  0.2508 -0.5738  0.1455
  601MPD2    C2 8905   2.514   3.993   0.286  0.9523  0.5614 -0.3994
  601MPD2    C3 8906   2.565   3.896   0.370  0.3703  0.1109  0.5347
  601MPD2    C4 8907   2.568   3.922   0.508  0.1312  0.5293  0.6358
  601MPD2    C5 8908   2.521   4.045   0.551  0.3148  0.5852  0.0822
  601MPD2     H 8909   2.517   3.979   0.179 -2.8737  3.0440 -0.7924
  601MPD2    H1 8910   2.591   3.836   0.570  1.0639 -1.0912 -1.9509
  601MPD2    H2 8911   2.444   4.240   0.525  0.5361  0.6874 -0.8257
  601MPD2    H3 8912   2.513   4.050   0.659  0.0049  0.4823  0.0632
  601MPD2     N 8913   2.618   3.766   0.336 -0.6747 -0.0643  0.0453
  601MPD2    H5 8914   2.634   3.704   0.415 -1.1925  1.3903  1.2862
  601MPD2    N1 8915   2.450   4.221   0.243  0.1452 -0.6156  1.0235
  601MPD2    H7 8916   2.434   4.198   0.146 -0.3412  1.1091  0.6884
  602TMC3    C1 8917   2.440   4.437   0.146  0.1927 -0.5862  0.6346
  602TMC3    C2 8918   2.493   4.567   0.154 -0.1929 -0.4005  0.3296
  602TMC3    C3 8919   2.473   4.654   0.046  0.3196  0.0146 -0.5158
  602TMC3    C4 8920   2.372   4.391   0.035  0.3616  0.2362 -1.4204
  602TMC3    C5 8921   2.357   4.474  17.625 -0.1921  0.0600  0.1966
  602TMC3    C6 8922   2.415   4.602  17.629 -0.3340  0.1370 -0.4985
  602TMC3     C 8923   2.458   4.358   0.269  0.5140 -0.1326 -0.4618
  602TMC3     O 8924   2.481   4.423   0.371 -0.2671 -0.0230  0.5493
  602TMC3     H 8925   2.562   4.592   0.234  1.2824 -0.4081 -0.9251
  602TMC3    H1 8926   2.316   4.299   0.036 -0.0216  0.4813 -0.3604
  602TMC3    H2 8927   2.438   4.646  17.532 -1.1893  2.3084  0.2773
  602TMC3    C7 8928   2.235   4.448  17.552  0.2218 -0.0233 -0.0799
  602TMC3    C8 8929   2.488   0.070   0.069  0.2292  0.1369  0.1226
  602TMC3    O1 8930   2.188   4.336  17.549  0.1605 -0.0432  0.4329
  602TMC3    O2 8931   2.524   0.102   0.182 -0.2824  0.1640  0.7172
  603TMC3    C1 8932   0.931   0.215  10.362 -0.3775  0.2166  0.5920
  603TMC3    C2 8933   0.939   0.219  10.501  0.2307  0.1825 -0.0201
  603TMC3    C3 8934   0.905   0.335  10.563  0.5116 -0.4780  0.9370
  603TMC3    C4 8935   0.903   0.320  10.287  0.3241  0.3380  0.5739
  603TMC3    C5 8936   0.874   0.437  10.353  0.2013  0.0816 -0.4667
  603TMC3    C6 8937   0.883   0.451  10.493 -0.0733 -0.4304 -0.4702
  603TMC3     C 8938   0.973   0.098  10.297 -1.1484  0.0967  0.0116
  603TMC3     O 8939   1.048   0.109  10.202 -0.3335  0.0179 -0.2351
  603TMC3     H 8940   0.964   0.125  10.548 -5.9205 -0.8690  1.1238
  603TMC3    H1 8941   0.891   0.296  10.182  0.6180  0.2955  0.5513
  603TMC3    H2 8942   0.837   0.540  10.534 -0.7333 -0.4198 -1.2273
  603TMC3    C7 8943   0.873   0.562  10.276  0.4406 -0.5057 -0.0083
  603TMC3    C8 8944   0.907   0.329  10.703  0.2452  0.3117 -0.7061
  603TMC3    O1 8945   0.909   0.665  10.333  0.2307 -0.2770  0.6132
  603TMC3    O2 8946   0.906   0.216  10.751 -0.1741  0.3517 -0.4185
  604MPD2     C 8947   1.802   2.870  16.278 -0.3510  0.3799  0.2881
  604MPD2    C1 8948   1.831   2.987  16.208  0.1381  0.2990 -0.2080
  604MPD2    C2 8949   1.889   2.984  16.083  0.0749 -0.2526 -0.3172
  604MPD2    C3 8950   1.903   2.857  16.021  0.6245 -0.0827  0.3041
  604MPD2    C4 8951   1.864   2.744  16.092  0.1783  0.3791  0.2450
  604MPD2    C5 8952   1.828   2.754  16.222  0.1744  0.4334  0.4528
  604MPD2     H 8953   1.913   3.077  16.033  1.6542  0.7139  2.2375
  604MPD2    H1 8954   1.883   2.646  16.048  0.0731 -0.3584  1.8594
  604MPD2    H2 8955   1.745   2.854  16.369 -0.7561  0.0361 -0.0265
  604MPD2    H3 8956   1.794   2.668  16.279  2.0589 -0.7688 -0.2195
  604MPD2     N 8957   1.958   2.854  15.888 -0.5344 -0.4664 -0.4079
  604MPD2    H5 8958   1.983   2.943  15.848  0.3231 -0.7865 -0.5831
  604MPD2    N1 8959   1.804   3.121  16.257  0.2546  0.4165 -0.3652
  604MPD2    H7 8960   1.821   3.195  16.189  2.9258  1.4165  1.3660
  605TMC3    C1 8961   1.736   3.286  16.412  0.1155 -0.4031 -0.6804
  605TMC3    C2 8962   1.790   3.340  16.525  1.1608  0.2302  0.8662
  605TMC3    C3 8963   1.759   3.464  16.570 -0.3219  0.2899  0.6832
  605TMC3    C4 8964   1.624   3.338  16.356  0.2271 -0.5724  0.3548
  605TMC3    C5 8965   1.578   3.458  16.415 -0.3182 -0.3472 -0.2716
  605TMC3    C6 8966   1.651   3.523  16.510  0.1759 -0.0518 -0.8462
  605TMC3     C 8967   1.758   3.143  16.388 -0.3692 -0.2788  0.2732
  605TMC3     O 8968   1.766   3.066  16.482  0.3683  0.0337  0.3436
  605TMC3     H 8969   1.871   3.288  16.575  1.7996  0.4078  0.0173
  605TMC3    H1 8970   1.582   3.295  16.266  1.2911 -0.5139 -0.1714
  605TMC3    H2 8971   1.620   3.624  16.534  1.4257 -0.1340  1.1321
  605TMC3    C7 8972   1.454   3.521  16.368  0.4540 -0.2604 -0.9301
  605TMC3    C8 8973   1.876   3.542  16.606 -0.1791  0.3015 -0.0969
  605TMC3    O1 8974   1.435   3.643  16.381  0.1533  0.1191  0.2131
  605TMC3    O2 8975   1.982   3.483  16.590 -0.2718  0.1384  0.2445
  606TMC3    C1 8976   2.989   1.338  16.898 -0.5189 -0.0655  0.8034
  606TMC3    C2 8977   3.069   1.344  17.015 -0.3627  0.3416  0.6169
  606TMC3    C3 8978   3.006   1.376  17.134  0.1905 -0.5926 -0.8811
  606TMC3    C4 8979   2.857   1.375  16.900  0.7059 -1.4055 -0.1223
  606TMC3    C5 8980   2.798   1.408  17.023  0.8161 -0.2186 -0.2670
  606TMC3    C6 8981   2.873   1.421  17.138  0.5330 -0.0558  0.1893
  606TMC3     C 8982   3.035   1.256  16.782  0.7144 -0.1316 -0.8135
  606TMC3     O 8983   3.136   1.191  16.806 -1.0388 -0.2968  0.3866
  606TMC3     H 8984   3.170   1.306  17.016 -1.1867 -1.8629  1.5229
  606TMC3    H1 8985   2.793   1.371  16.813  0.0340  0.2513  0.2945
  606TMC3    H2 8986   2.829   1.467  17.226 -0.0671  0.7910 -0.5530
  606TMC3    C7 8987   2.681   1.488  17.015  0.1988  0.3233  0.4916
  606TMC3    C8 8988   3.089   1.405  17.246 -0.5892  0.5916 -0.6779
  606TMC3    O1 8989   2.636   1.515  16.904  0.2923 -0.2354  0.2251
  606TMC3    O2 8990   3.203   1.439  17.222  0.2957 -0.0686  0.0978
  607MPD2     C 8991   4.640   0.489  11.213  0.2114 -0.7619 -0.3309
  607MPD2    C1 8992   4.717   0.559  11.305 -0.3158 -0.5071  0.1361
  607MPD2    C2 8993   4.679   0.552  11.434 -1.4207  1.1688  0.5778
  607MPD2    C3 8994   4.572   0.477  11.477  0.3767  0.0437  0.1901
  607MPD2    C4 8995   4.499   0.400  11.388  0.1049  0.2296 -0.2766
  607MPD2    C5 8996   4.532   0.409  11.256  0.0260 -0.2698  0.2064
  607MPD2     H 8997   0.013   0.606  11.508 -0.8457  0.5187  0.6069
  607MPD2    H1 8998   4.420   0.333  11.421  0.5188 -0.5652 -0.9275
  607MPD2    H2 8999   4.648   0.503  11.106 -2.1199 -0.7571 -0.5111
  607MPD2    H3 9000   4.467   0.354  11.189  1.5211 -2.0506  0.2087
  607MPD2     N 9001   4.539   0.482  11.619  0.3017 -0.0623 -0.0854
  607MPD2    H5 9002   4.594   0.546  11.675 -0.7927 -0.6878  1.6820
  607MPD2    N1 9003   0.101   0.636  11.266 -0.7586 -0.2251 -0.1236
  607MPD2    H7 9004   0.145   0.676  11.349 -0.2923 -0.0392 -0.4634
  608TMC3    C1 9005   0.306   0.703  11.171 -0.5455  0.1745 -0.5339
  608TMC3    C2 9006   0.358   0.678  11.297  0.0384  0.1914  0.1665
  608TMC3    C3 9007   0.478   0.743  11.327 -0.4459  0.1066 -0.0865
  608TMC3    C4 9008   0.371   0.780  11.075  0.0666  0.6797 -0.4822
  608TMC3    C5 9009   0.487   0.838  11.109  0.2282  0.0865 -0.3284
  608TMC3    C6 9010   0.544   0.815  11.235  0.2851  0.3266  0.7640
  608TMC3     C 9011   0.171   0.643  11.145 -0.2612 -0.2822  0.1891
  608TMC3     O 9012   0.150   0.586  11.036  0.4350 -0.0914 -0.9115
  608TMC3     H 9013   0.316   0.607  11.368 -0.4515 -0.9506 -1.2692
  608TMC3    H1 9014   0.329   0.780  10.974 -1.4712  1.2715  0.1531
  608TMC3    H2 9015   0.645   0.842  11.264 -0.4075  3.5837  0.2366
  608TMC3    C7 9016   0.571   0.905  11.006  0.3798 -0.0760 -0.1344
  608TMC3    C8 9017   0.513   0.749  11.468  0.2006  0.2639  0.3417
  608TMC3    O1 9018   0.551   0.889  10.888  0.3044  0.0379  0.4653
  608TMC3    O2 9019   0.627   0.783  11.495 -1.0640  0.7223  0.4974
  609TMC3    C1 9020   4.461   4.003   8.877 -0.3658  0.2003 -0.7798
  609TMC3    C2 9021   4.495   3.984   8.744 -0.2163 -0.2481 -0.7366
  609TMC3    C3 9022   4.620   3.936   8.723 -0.0859 -0.9232  0.7309
  609TMC3    C4 9023   4.538   3.962   8.986  0.2051 -0.0431  0.0945
  609TMC3    C5 9024   4.661   3.908   8.951  0.0859 -0.9920  0.7789
  609TMC3    C6 9025   4.703   3.903   8.827 -0.0975 -0.0038 -0.7207
  609TMC3     C 9026   4.316   4.032   8.895 -0.1735  0.1671  0.2060
  609TMC3     O 9027   4.235   3.977   8.820 -0.4600  0.1516 -0.0452
  609TMC3     H 9028   4.415   4.013   8.677  1.1412  2.5234 -1.1529
  609TMC3    H1 9029   4.498   3.967   9.086  1.1057 -1.3960  0.5252
  609TMC3    H2 9030   0.077   3.865   8.804  0.6058  1.6518 -0.5007
  609TMC3    C7 9031   0.023   3.872   9.063 -0.2762  0.3251 -0.5340
  609TMC3    C8 9032   4.672   3.914   8.587 -0.4573  0.0234  1.6388
  609TMC3    O1 9033   0.001   3.938   9.162 -0.3139 -0.0649 -0.0494
  609TMC3    O2 9034   0.042   3.837   8.569  0.8076  0.1532  0.2487
  610TMC3    C1 9035   0.484   0.136  12.306  0.2034 -0.5812  0.0096
  610TMC3    C2 9036   0.541   0.172  12.190 -0.3564  0.1232 -0.4694
  610TMC3    C3 9037   0.640   0.089  12.144  0.1295  0.0221  0.1791
  610TMC3    C4 9038   0.528   0.028  12.376 -0.5489  0.7009  1.0717
  610TMC3    C5 9039   0.631   4.673  12.327 -0.1164 -0.2091  0.5143
  610TMC3    C6 9040   0.694   4.698  12.209 -0.3079  0.0636 -0.4630
  610TMC3     C 9041   0.358   0.196  12.350 -0.0395 -0.3790  0.0528
  610TMC3     O 9042   0.278   0.125  12.408 -0.1495 -0.2730 -0.5692
  610TMC3     H 9043   0.493   0.240  12.121 -0.9495  1.0520  0.8551
  610TMC3    H1 9044   0.490   0.007  12.475  0.6245 -0.4271  1.2796
  610TMC3    H2 9045   0.780   4.642  12.174  1.6119  1.2124  2.4176
  610TMC3    C7 9046   0.714   4.620  12.436  0.5395 -0.6366  0.2104
  610TMC3    C8 9047   0.709   0.109  12.021 -0.1592 -0.0652  0.1681
  610TMC3    O1 9048   0.791   4.528  12.413 -0.0407 -0.0727 -0.2125
  610TMC3    O2 9049   0.777   0.023  11.974 -0.5293  0.3976  0.1223
  611MPD2     C 9050   4.466   0.544   9.581 -0.3639  0.5251  0.1900
  611MPD2    C1 9051   4.564   0.483   9.662 -0.7372  0.6566 -0.1202
  611MPD2    C2 9052   4.701   0.478   9.623  0.1998  0.6308 -0.1612
  611MPD2    C3 9053   0.007   0.519   9.493  0.5293 -0.4759 -0.2073
  611MPD2    C4 9054   4.630   0.579   9.413  0.2450 -0.3468  0.0774
  611MPD2    C5 9055   4.500   0.588   9.462  0.0892  0.1496 -0.2717
  611MPD2     H 9056   0.050   0.450   9.698 -0.3028  0.3117  0.2105
  611MPD2    H1 9057   4.647   0.619   9.314 -0.3676 -0.4027 -0.0495
  611MPD2    H2 9058   4.363   0.554   9.615 -1.2316 -0.0384 -2.2782
  611MPD2    H3 9059   4.421   0.629   9.400  1.6286  2.2964 -0.8528
  611MPD2     N 9060   0.139   0.524   9.446 -0.0181  0.6253  0.9376
  611MPD2    H5 9061   0.161   0.586   9.369 -0.7590  0.4757  0.6088
  611MPD2    N1 9062   4.521   0.436   9.787 -0.1620  0.1112  0.4363
  611MPD2    H7 9063   4.427   0.461   9.817 -0.2257  0.2669  0.1076
  612TMC3    C1 9064   0.374   0.520   9.455  0.2902 -0.2864 -0.0579
  612TMC3    C2 9065   0.451   0.576   9.560  0.3315 -0.0151  0.8357
  612TMC3    C3 9066   0.545   0.660   9.517 -0.1871 -0.2826  0.4078
  612TMC3    C4 9067   0.376   0.563   9.326  0.1951 -0.0398 -0.0562
  612TMC3    C5 9068   0.477   0.647   9.284  0.2262 -0.2789  0.2453
  612TMC3    C6 9069   0.564   0.696   9.383  0.0281  0.5147  0.2303
  612TMC3     C 9070   0.254   0.470   9.502 -0.2414  0.7611 -0.0191
  612TMC3     O 9071   0.264   0.397   9.598 -0.7706 -0.0887 -0.1789
  612TMC3     H 9072   0.434   0.551   9.665 -3.1085 -0.2290  0.2469
  612TMC3    H1 9073   0.301   0.519   9.261 -0.1448  1.4311 -0.6698
  612TMC3    H2 9074   0.648   0.760   9.361  0.5314  0.2847  1.5128
  612TMC3    C7 9075   0.482   0.690   9.145  0.2222  0.3284  0.1513
  612TMC3    C8 9076   0.625   0.737   9.611 -0.0924 -0.1282  0.2164
  612TMC3    O1 9077   0.401   0.639   9.074  0.0655  0.0229 -0.2494
  612TMC3    O2 9078   0.637   0.857   9.585 -0.2118 -0.3922  0.7006
  613MPD2     C 9079   3.578   2.049  16.996 -0.0898  0.2423  0.7926
  613MPD2    C1 9080   3.584   2.127  16.881 -0.4076  0.3358  0.3695
  613MPD2    C2 9081   3.499   2.089  16.776  0.4108  0.8540 -0.4502
  613MPD2    C3 9082   3.429   1.973  16.776  0.4542 -0.6434  0.1581
  613MPD2    C4 9083   3.427   1.897  16.896  0.2078 -0.3933  0.9904
  613MPD2    C5 9084   3.508   1.930  17.000  0.1098  0.6077 -0.9620
  613MPD2     H 9085   3.514   2.145  16.684  2.1130 -1.6271 -1.6839
  613MPD2    H1 9086   3.371   1.806  16.884 -0.0655 -0.2178  0.9291
  613MPD2    H2 9087   3.640   2.075  17.081  0.0488 -1.6027  1.2430
  613MPD2    H3 9088   3.516   1.866  17.087  0.0970  0.4647 -1.0665
  613MPD2     N 9089   3.367   1.919  16.659 -0.0920 -0.5252  0.1958
  613MPD2    H5 9090   3.332   1.824  16.668 -1.5364  0.1065  1.2962
  613MPD2    N1 9091   3.684   2.224  16.863 -0.7688  0.5442  0.2047
  613MPD2    H7 9092   3.760   2.221  16.930  0.2090 -0.0415 -0.9208
  614TMC3    C1 9093   3.834   2.348  16.726  0.3819  0.5408 -0.3776
  614TMC3    C2 9094   3.907   2.236  16.704  0.1827 -0.6201 -0.7650
  614TMC3    C3 9095   3.973   2.236  16.586 -0.7043  1.1009 -0.3468
  614TMC3    C4 9096   3.832   2.460  16.649  0.3279 -1.2483  0.9066
  614TMC3    C5 9097   3.914   2.461  16.539  0.6296  0.7000  0.5375
  614TMC3    C6 9098   3.982   2.349  16.509 -0.2700  0.6383 -0.2605
  614TMC3     C 9099   3.695   2.318  16.762 -0.3286 -0.5917 -0.1138
  614TMC3     O 9100   3.623   2.357  16.672  0.1281  0.1315 -0.2771
  614TMC3     H 9101   3.904   2.144  16.762 -0.8065 -0.6375 -0.8546
  614TMC3    H1 9102   3.760   2.540  16.661 -0.3387 -1.2884 -2.9772
  614TMC3    H2 9103   4.044   2.338  16.421 -1.7063 -0.4295 -1.1392
  614TMC3    C7 9104   3.858   2.536  16.430  0.2738 -0.1919 -0.1106
  614TMC3    C8 9105   3.934   2.119  16.512 -0.0284 -0.8542  0.2592
  614TMC3    O1 9106   3.822   2.651  16.459 -0.2047  0.2823 -0.1840
  614TMC3    O2 9107   3.902   2.141  16.396 -0.4952  0.3181  0.0234
  615MPD2     C 9108   3.275   3.838  16.571 -0.3023  0.0074 -0.2969
  615MPD2    C1 9109   3.206   3.891  16.458  0.3395  0.1876  0.1287
  615MPD2    C2 9110   3.146   3.802  16.369 -0.3810 -0.1750 -0.5696
  615MPD2    C3 9111   3.168   3.664  16.383  0.4888 -0.1889  0.3244
  615MPD2    C4 9112   3.235   3.616  16.495 -0.4350  0.3908 -0.2829
  615MPD2    C5 9113   3.289   3.701  16.586  0.1212 -0.1789  0.1842
  615MPD2     H 9114   3.112   3.843  16.274  1.4386  4.4523  0.7895
  615MPD2    H1 9115   3.237   3.510  16.515  0.1701  0.6595  1.0491
  615MPD2    H2 9116   3.310   3.907  16.647 -0.1276  0.5193 -0.8419
  615MPD2    H3 9117   3.342   3.670  16.675  0.1044 -2.6436 -0.6806
  615MPD2     N 9118   3.127   3.571  16.280 -0.1701  0.5873 -0.5186
  615MPD2    H5 9119   3.171   3.480  16.291 -1.0115  0.0867 -1.2714
  615MPD2    N1 9120   3.193   4.031  16.443 -0.9284  0.2067 -0.6106
  615MPD2    H7 9121   3.129   4.068  16.374 -2.5777 -0.7575  0.4175
  616TMC3    C1 9122   3.243   4.262  16.461  0.3790 -0.3698  0.6953
  616TMC3    C2 9123   3.355   4.344  16.456 -0.1088 -0.1613 -0.4010
  616TMC3    C3 9124   3.330   4.473  16.417 -0.5370  1.0642  0.7792
  616TMC3    C4 9125   3.116   4.303  16.435 -0.3608 -0.7895 -0.0894
  616TMC3    C5 9126   3.105   4.433  16.390 -0.1715 -0.0046 -0.2969
  616TMC3    C6 9127   3.202   4.519  16.390  0.6373  0.3201  0.3456
  616TMC3     C 9128   3.272   4.124  16.498  0.0744 -0.0817 -0.2850
  616TMC3     O 9129   3.367   4.111  16.577  0.2511 -0.2894  0.1058
  616TMC3     H 9130   3.452   4.297  16.457  0.4646  1.0505  0.1316
  616TMC3    H1 9131   3.034   4.233  16.433 -0.3281 -0.8488  0.7876
  616TMC3    H2 9132   3.181   4.621  16.360 -1.6277 -0.0126  0.8234
  616TMC3    C7 9133   3.000   4.456  16.292 -0.4841 -0.2691  0.4524
  616TMC3    C8 9134   3.434   4.570  16.371 -1.0454 -0.0425 -0.2418
  616TMC3    O1 9135   3.032   4.528  16.198  0.2151  0.2382 -0.6299
  616TMC3    O2 9136   3.386   4.674  16.328  0.2447 -0.2339  0.0326
  617MPD2     C 9137   1.266   2.323  13.763  0.0813  0.2665  0.0265
  617MPD2    C1 9138   1.250   2.224  13.857 -0.0293  0.2992  0.1797
  617MPD2    C2 9139   1.133   2.153  13.859 -0.0487 -0.6277  0.5360
  617MPD2    C3 9140   1.032   2.161  13.768 -0.4381 -0.3276 -0.6126
  617MPD2    C4 9141   1.062   2.250  13.662 -0.6548  0.0240 -0.7723
  617MPD2    C5 9142   1.175   2.330  13.662 -0.1653  0.3934 -0.4743
  617MPD2     H 9143   1.122   2.086  13.944 -0.7781 -0.8893  0.2360
  617MPD2    H1 9144   0.985   2.261  13.587 -1.3087 -1.9002 -0.3700
  617MPD2    H2 9145   1.366   2.366  13.756 -0.3495  1.2534 -0.0934
  617MPD2    H3 9146   1.205   2.393  13.579  1.5177 -1.4937 -1.3242
  617MPD2     N 9147   0.912   2.093  13.769 -0.2734  1.0351  0.1216
  617MPD2    H5 9148   0.844   2.122  13.699 -0.9145 -1.1742 -0.1796
  617MPD2    N1 9149   1.351   2.218  13.961  0.2014 -0.3128 -0.2535
  617MPD2    H7 9150   1.417   2.296  13.967 -0.5266  0.1248  2.4173
  618TMC3    C1 9151   1.490   2.127  14.138 -0.0664  0.1066  0.9978
  618TMC3    C2 9152   1.572   2.017  14.157 -0.3898 -0.0841  0.0339
  618TMC3    C3 9153   1.696   2.028  14.213 -0.3168 -0.5400 -0.0096
  618TMC3    C4 9154   1.541   2.252  14.169  0.3035 -0.1319 -0.5427
  618TMC3    C5 9155   1.670   2.258  14.215 -0.1424 -0.7094  0.4777
  618TMC3    C6 9156   1.747   2.146  14.245 -0.0859 -0.7957 -0.0416
  618TMC3     C 9157   1.381   2.106  14.039 -0.4421 -0.0318  0.2936
  618TMC3     O 9158   1.349   1.993  14.010  1.2403 -0.4827  0.1752
  618TMC3     H 9159   1.541   1.917  14.128 -0.8408 -0.3424  1.3933
  618TMC3    H1 9160   1.484   2.340  14.141 -0.0203 -0.5057 -1.0595
  618TMC3    H2 9161   1.844   2.163  14.292 -1.2818 -0.3490  2.2704
  618TMC3    C7 9162   1.728   2.385  14.240 -0.1321  0.1784  0.4136
  618TMC3    C8 9163   1.776   1.911  14.209 -0.4100  0.3307 -0.1882
  618TMC3    O1 9164   1.673   2.456  14.325  0.4305  0.2189  0.2910
  618TMC3    O2 9165   1.719   1.803  14.222 -0.4098 -0.7008  0.0151
  619MPD2     C 9166   2.830   3.605  13.209 -0.1988  0.7914 -0.2403
  619MPD2    C1 9167   2.737   3.700  13.209  0.1346  0.1833  0.2292
  619MPD2    C2 9168   2.608   3.666  13.231  0.2219 -0.1233  0.6884
  619MPD2    C3 9169   2.567   3.537  13.248 -0.2235 -0.5990 -0.2976
  619MPD2    C4 9170   2.671   3.438  13.254  0.4015 -0.5049 -1.3118
  619MPD2    C5 9171   2.795   3.478  13.228 -0.5786 -0.3796  0.3609
  619MPD2     H 9172   2.538   3.749  13.225  1.8353  1.3097  1.5842
  619MPD2    H1 9173   2.654   3.331  13.256  2.4007 -0.7783  0.8567
  619MPD2    H2 9174   2.932   3.632  13.186 -0.3144 -0.1344 -1.8464
  619MPD2    H3 9175   2.868   3.398  13.218 -1.2136 -0.5524 -3.0269
  619MPD2     N 9176   2.432   3.495  13.264  0.1448 -0.5740  0.2328
  619MPD2    H5 9177   2.427   3.394  13.276  4.0038 -0.5931  1.6077
  619MPD2    N1 9178   2.755   3.831  13.170 -0.8631  0.3727  0.0460
  619MPD2    H7 9179   2.666   3.879  13.165 -1.7609 -1.4143 -1.1043
  620TMC3    C1 9180   2.852   4.033  13.130  0.7303  0.3925 -0.0520
  620TMC3    C2 9181   2.745   4.057  13.050 -0.0427  0.0327 -0.6924
  620TMC3    C3 9182   2.704   4.189  13.044  0.2762  0.1012  0.0761
  620TMC3    C4 9183   2.923   4.128  13.201 -0.2277 -0.0792  0.5415
  620TMC3    C5 9184   2.879   4.265  13.196  0.0678  0.1629  0.1502
  620TMC3    C6 9185   2.769   4.291  13.117 -0.0237  0.0078 -0.6225
  620TMC3     C 9186   2.876   3.900  13.164 -0.6557 -0.4197 -0.3444
  620TMC3     O 9187   2.987   3.874  13.210 -0.6269 -0.1927 -0.3897
  620TMC3     H 9188   2.689   3.977  13.003  1.0801 -1.0433 -0.1728
  620TMC3    H1 9189   3.008   4.099  13.263  0.4999 -1.3560 -1.0467
  620TMC3    H2 9190   2.722   4.389  13.125 -0.3610 -0.1772 -0.3234
  620TMC3    C7 9191   2.864   4.333  13.331 -0.0943 -0.8115 -0.1234
  620TMC3    C8 9192   2.568   4.189  13.096 -0.9912 -0.0027  1.0198
  620TMC3    O1 9193   2.797   4.435  13.330  0.5872 -0.3558  0.5866
  620TMC3    O2 9194   2.542   4.216  13.215 -0.2054  0.0911 -0.1955
  621MPD2     C 9195   3.507   2.819  10.032  0.9104 -0.5056 -0.6871
  621MPD2    C1 9196   3.405   2.851   9.942 -0.3323  0.1883 -0.6103
  621MPD2    C2 9197   3.423   2.958   9.860 -0.2247 -0.9298 -0.7176
  621MPD2    C3 9198   3.549   3.018   9.858 -0.2014 -0.3724 -0.0545
  621MPD2    C4 9199   3.659   2.971   9.929  0.3311 -0.5949  0.2574
  621MPD2    C5 9200   3.632   2.874  10.022  0.3169 -0.1585 -0.8228
  621MPD2     H 9201   3.347   2.996   9.793 -2.2096 -1.5120  1.2106
  621MPD2    H1 9202   3.755   3.020   9.921 -0.9124  1.9559  0.8815
  621MPD2    H2 9203   3.485   2.742  10.105 -1.8571 -0.7262 -1.7606
  621MPD2    H3 9204   3.713   2.846  10.089  0.3098 -0.2532 -0.8540
  621MPD2     N 9205   3.555   3.122   9.760  0.1347  0.1766 -0.6921
  621MPD2    H5 9206   3.464   3.144   9.719  0.0157 -0.1081 -0.5883
  621MPD2    N1 9207   3.281   2.788   9.943 -0.1460  0.1665 -0.4010
  621MPD2    H7 9208   3.208   2.834   9.891  0.4213 -3.1764 -4.1644
  622TMC3    C1 9209   3.106   2.636   9.982  0.2124  0.0302 -0.2894
  622TMC3    C2 9210   3.012   2.731  10.011  0.6443  0.4968 -0.0555
  622TMC3    C3 9211   2.886   2.685  10.012  0.3006 -0.2781 -0.7045
  622TMC3    C4 9212   3.071   2.526   9.912 -0.3602  0.0014 -0.4394
  622TMC3    C5 9213   2.940   2.494   9.901  0.2771  0.2091 -0.0409
  622TMC3    C6 9214   2.846   2.574   9.960 -0.1654 -0.9441 -1.1091
  622TMC3     C 9215   3.249   2.669  10.001 -0.0826  0.3256  0.8124
  622TMC3     O 9216   3.317   2.581  10.049 -0.0339 -0.3755 -0.0347
  622TMC3     H 9217   3.040   2.824  10.058 -0.0515  0.7831 -0.2068
  622TMC3    H1 9218   3.144   2.446   9.909  1.3843  1.6012 -0.3609
  622TMC3    H2 9219   2.741   2.554   9.973 -0.3771  1.4638  0.8558
  622TMC3    C7 9220   2.892   2.418   9.793  0.1891 -0.0335 -0.2765
  622TMC3    C8 9221   2.786   2.786  10.031 -0.1343 -0.3962  0.1451
  622TMC3    O1 9222   2.787   2.355   9.793 -0.1827 -0.0621  0.5107
  622TMC3    O2 9223   2.691   2.746  10.098 -0.2815 -0.2561 -0.6138
  623MPD2     C 9224   2.415   4.164  15.904 -0.0642  0.4059 -0.0257
  623MPD2    C1 9225   2.319   4.102  15.992  0.9176  0.0938 -1.1249
  623MPD2    C2 9226   2.377   4.020  16.086 -0.7216  0.3546  0.5080
  623MPD2    C3 9227   2.507   4.031  16.131 -0.6944 -0.1122  0.3360
  623MPD2    C4 9228   2.597   4.107  16.060  0.3011 -0.2843 -0.5339
  623MPD2    C5 9229   2.549   4.163  15.936 -0.4178 -0.8143  0.5251
  623MPD2     H 9230   2.315   3.944  16.132 -2.0987  0.4263 -1.2025
  623MPD2    H1 9231   2.702   4.115  16.087  0.0223 -0.6082  0.6619
  623MPD2    H2 9232   2.390   4.230  15.822  2.7215  2.4627  0.7835
  623MPD2    H3 9233   2.612   4.212  15.863 -1.9586  1.2205  0.5417
  623MPD2     N 9234   2.538   3.961  16.251 -0.1422 -0.4080  0.3140
  623MPD2    H5 9235   2.465   3.907  16.296 -0.8806  1.2398  1.0860
  623MPD2    N1 9236   2.179   4.129  15.976 -0.2592  0.0572 -0.0585
  623MPD2    H7 9237   2.147   4.193  15.905  1.0282 -0.3459 -0.9918
  624TMC3    C1 9238   2.689   3.644  16.492  0.6002 -0.1539 -1.0793
  624TMC3    C2 9239   2.574   3.633  16.559  0.0611  0.4016  0.0849
  624TMC3    C3 9240   2.500   3.750  16.558  0.3402 -0.1122  0.4796
  624TMC3    C4 9241   2.730   3.753  16.418  0.4094  0.2582  1.0749
  624TMC3    C5 9242   2.643   3.860  16.416 -0.2797  0.5281  0.5114
  624TMC3    C6 9243   2.527   3.862  16.485 -0.2930 -0.3114  0.0099
  624TMC3     C 9244   2.773   3.526  16.496 -0.0994 -0.1356  0.4672
  624TMC3     O 9245   2.798   3.471  16.395 -0.2723 -0.0565  0.2178
  624TMC3     H 9246   2.544   3.538  16.602  1.7016  0.0212  0.4211
  624TMC3    H1 9247   2.824   3.747  16.364 -0.0844  1.1795  0.1222
  624TMC3    H2 9248   2.462   3.949  16.491  1.2853  0.8494  0.0661
  624TMC3    C7 9249   2.659   3.947  16.310  0.6855  0.1979  0.2526
  624TMC3    C8 9250   2.366   3.725  16.599 -0.0253 -0.3195 -0.3070
  624TMC3    O1 9251   2.771   3.974  16.269 -0.4298  0.3754  0.0044
  624TMC3    O2 9252   2.335   3.607  16.603 -0.5726 -0.3426  0.2416
  625MPD2     C 9253   1.790   4.599   0.399 -0.4101  0.2459  0.0024
  625MPD2    C1 9254   1.847   4.705   0.470  0.1183 -0.3026  0.4388
  625MPD2    C2 9255   1.896   4.681   0.597 -0.2469 -0.3566 -0.2295
  625MPD2    C3 9256   1.900   4.559   0.650 -0.1379 -0.3523 -0.2942
  625MPD2    C4 9257   1.871   4.451   0.570  0.0192  0.1889 -0.4633
  625MPD2    C5 9258   1.816   4.471   0.446  0.3295 -0.3929  0.0056
  625MPD2     H 9259   1.922   0.044   0.656  0.3922  0.4293 -1.6557
  625MPD2    H1 9260   1.881   4.350   0.605 -0.1896  0.1570 -0.4921
  625MPD2    H2 9261   1.741   4.604   0.302 -0.7422  1.3212  0.2230
  625MPD2    H3 9262   1.775   4.385   0.394  0.1650  0.3768 -1.1331
  625MPD2     N 9263   1.934   4.554   0.792  0.8301 -0.1019  0.2581
  625MPD2    H5 9264   1.974   4.637   0.835  2.2558 -1.2954  1.2338
  625MPD2    N1 9265   1.840   0.116   0.429  0.1234 -0.0517  0.0423
  625MPD2    H7 9266   1.880   0.181   0.496  0.3033 -0.7740  0.6223
  626TMC3    C1 9267   1.761   0.303   0.314  0.3411 -0.3365 -0.4108
  626TMC3    C2 9268   1.759   0.377   0.197  1.4409 -0.4608 -0.3964
  626TMC3    C3 9269   1.707   0.503   0.201  0.2323 -0.2398 -0.4817
  626TMC3    C4 9270   1.734   0.364   0.436 -0.1161 -0.4325 -0.3369
  626TMC3    C5 9271   1.693   0.493   0.425  0.0204 -0.1575  0.4971
  626TMC3    C6 9272   1.671   0.572   0.309 -0.3902  0.0929 -0.2449
  626TMC3     C 9273   1.789   0.160   0.309 -0.3036  0.4252 -0.8944
  626TMC3     O 9274   1.766   0.099   0.206 -0.1211  0.3118  0.4739
  626TMC3     H 9275   1.786   0.325   0.106 -1.2157  0.5957 -1.7704
  626TMC3    H1 9276   1.743   0.318   0.533  3.1269  0.6908 -0.1148
  626TMC3    H2 9277   1.635   0.674   0.302 -0.8657  0.0354  1.4039
  626TMC3    C7 9278   1.703   0.565   0.547  0.7770  0.0216  0.3591
  626TMC3    C8 9279   1.708   0.574   0.077 -0.2444 -0.5288  0.1367
  626TMC3    O1 9280   1.794   0.532   0.618  0.2086  0.2403 -0.3461
  626TMC3    O2 9281   1.730   0.695   0.080  0.1513 -0.2333  0.1390
  627MPD2     C 9282   1.210   0.818  14.194  0.5491 -0.4427  1.0451
  627MPD2    C1 9283   1.105   0.844  14.282 -0.4960 -0.9556  1.5452
  627MPD2    C2 9284   0.987   0.777  14.256  0.7357 -0.6933 -0.1597
  627MPD2    C3 9285   0.974   0.687  14.153 -0.5584  0.3436  0.7598
  627MPD2    C4 9286   1.077   0.664  14.070 -0.6648 -0.5796 -0.0220
  627MPD2    C5 9287   1.194   0.732  14.089  0.7842 -0.5429  0.3802
  627MPD2     H 9288   0.911   0.777  14.333  0.7992  0.0262 -0.0967
  627MPD2    H1 9289   1.076   0.599  13.983  0.2486  0.9205 -1.1675
  627MPD2    H2 9290   1.307   0.861  14.212  0.6349 -0.0193 -0.4484
  627MPD2    H3 9291   1.278   0.711  14.024  0.6904 -0.0964  0.1169
  627MPD2     N 9292   0.858   0.611  14.137 -0.3748 -0.3534 -0.5538
  627MPD2    H5 9293   0.780   0.628  14.200  0.3729  2.5391 -0.4020
  627MPD2    N1 9294   1.129   0.945  14.376  1.0275 -0.0732 -0.2803
  627MPD2    H7 9295   1.226   0.953  14.405  0.8644  0.3318  0.1482
  628TMC3    C1 9296   1.079   1.116  14.543 -0.3573  0.1790 -0.4881
  628TMC3    C2 9297   1.168   1.071  14.641  0.0095  0.2156 -0.0699
  628TMC3    C3 9298   1.190   1.164  14.740  0.0301  0.3085  0.9861
  628TMC3    C4 9299   1.040   1.248  14.529  0.0037  0.6875 -0.4835
  628TMC3    C5 9300   1.069   1.338  14.624 -0.4244  0.8372 -0.5120
  628TMC3    C6 9301   1.153   1.298  14.729  0.1626 -0.5838  0.8567
  628TMC3     C 9302   1.037   1.025  14.436 -0.1051  0.3175 -0.5851
  628TMC3     O 9303   0.927   1.042  14.389 -0.3798 -0.4920 -0.1785
  628TMC3     H 9304   1.205   0.969  14.648  0.1771  0.3240  0.6850
  628TMC3    H1 9305   0.970   1.265  14.447 -0.6658 -0.5571 -0.1611
  628TMC3    H2 9306   1.173   1.358  14.817  0.0008  0.4130  0.2163
  628TMC3    C7 9307   1.038   1.476  14.616 -0.0327 -0.4111 -0.4043
  628TMC3    C8 9308   1.299   1.149  14.832  0.1683  0.3267 -0.4843
  628TMC3    O1 9309   1.066   1.546  14.714 -0.3353  0.6689 -0.4796
  628TMC3    O2 9310   1.376   1.240  14.856  0.2409  0.4551  0.4978
  629MPD2     C 9311   3.914   4.710  16.240 -0.4075  0.0001 -0.1525
  629MPD2    C1 9312   3.925   4.586  16.294  0.8259 -0.2454 -0.1599
  629MPD2    C2 9313   3.806   4.528  16.345  0.2972  0.2013 -0.3097
  629MPD2    C3 9314   3.683   4.589  16.337  0.0177  0.7070  0.3447
  629MPD2    C4 9315   3.678   4.710  16.274  0.5459  0.2317  0.0986
  629MPD2    C5 9316   3.794   0.050  16.228  0.6559  0.0889  0.5558
  629MPD2     H 9317   3.795   4.425  16.377 -0.6070 -0.7386 -3.5980
  629MPD2    H1 9318   3.580   0.011  16.235  1.5499  2.9001 -0.6772
  629MPD2    H2 9319   3.997   0.050  16.211 -2.2936  2.9973  1.0930
  629MPD2    H3 9320   3.799   0.141  16.170  1.0962 -0.4643 -0.2718
  629MPD2     N 9321   3.567   4.518  16.374 -0.0004 -0.1801 -0.1061
  629MPD2    H5 9322   3.584   4.428  16.419  1.6019  0.0538 -0.2721
  629MPD2    N1 9323   4.054   4.527  16.298 -0.1911 -0.2742 -0.8521
  629MPD2    H7 9324   4.136   4.571  16.257 -0.3698 -0.8265 -1.7951
  630TMC3    C1 9325   4.213   4.365  16.341  0.0137 -0.2377  0.7558
  630TMC3    C2 9326   4.320   4.448  16.327 -0.3665  0.1127  0.2628
  630TMC3    C3 9327   4.435   4.393  16.313 -0.5735 -0.4580 -0.0028
  630TMC3    C4 9328   4.214   4.227  16.340 -0.2317 -0.5695  0.2556
  630TMC3    C5 9329   4.342   4.168  16.331 -0.1681 -0.4808  0.3075
  630TMC3    C6 9330   4.447   4.257  16.325  0.1190  0.3335  0.7425
  630TMC3     C 9331   4.081   4.415  16.361 -0.8269  1.1341  0.3889
  630TMC3     O 9332   4.007   4.350  16.429  0.1004  0.3781 -0.1127
  630TMC3     H 9333   4.309   4.556  16.330 -2.3540 -0.1206  2.1488
  630TMC3    H1 9334   4.130   4.178  16.388  0.1076 -1.1634  0.2446
  630TMC3    H2 9335   4.547   4.215  16.324 -0.1964 -0.4251  1.6211
  630TMC3    C7 9336   4.352   4.039  16.401  0.0842  0.8756 -0.4986
  630TMC3    C8 9337   4.561   4.469  16.280 -0.3429  0.6166  0.5821
  630TMC3    O1 9338   4.453   4.028  16.467  1.1912 -0.7435 -0.1373
  630TMC3    O2 9339   4.674   4.424  16.299 -0.1746  0.4870  0.3524
  631MPD2     C 9340   2.367   3.476  15.568 -0.0491 -0.1396 -0.3898
  631MPD2    C1 9341   2.481   3.526  15.508 -0.5628  0.2463  0.0075
  631MPD2    C2 9342   2.597   3.515  15.576 -0.1856  1.1447  0.7905
  631MPD2    C3 9343   2.598   3.441  15.694 -0.0846 -0.1457  0.5637
  631MPD2    C4 9344   2.487   3.384  15.744  0.3579 -0.0881 -0.0903
  631MPD2    C5 9345   2.362   3.403  15.680  0.3069 -0.2730  0.0761
  631MPD2     H 9346   2.692   3.544  15.532  0.3488  0.4888  1.4963
  631MPD2    H1 9347   2.479   3.313  15.825  1.5941 -0.9540 -0.7249
  631MPD2    H2 9348   2.276   3.486  15.510  0.1659  3.6238 -0.0843
  631MPD2    H3 9349   2.269   3.358  15.713 -0.4031  0.7894 -0.4561
  631MPD2     N 9350   2.718   3.428  15.767  0.1151 -0.6841  0.7958
  631MPD2    H5 9351   2.805   3.472  15.740 -0.0932 -0.9728 -0.3281
  631MPD2    N1 9352   2.453   3.613  15.396 -0.1082 -0.6349  0.7803
  631MPD2    H7 9353   2.356   3.625  15.372 -0.4279 -1.0382  1.8492
  632TMC3    C1 9354   2.484   3.798  15.257 -0.4125 -0.7763 -0.0590
  632TMC3    C2 9355   2.361   3.850  15.306 -0.6565 -0.0576  0.3179
  632TMC3    C3 9356   2.299   3.932  15.215 -0.1139  0.5700 -0.5012
  632TMC3    C4 9357   2.563   3.841  15.153 -0.2171  0.1781  0.2476
  632TMC3    C5 9358   2.497   3.931  15.070  0.3623 -0.0321 -0.2434
  632TMC3    C6 9359   2.370   3.979  15.095  0.2465 -0.5109 -0.3756
  632TMC3     C 9360   2.551   3.692  15.337 -0.0643 -0.4327  0.2142
  632TMC3     O 9361   2.676   3.687  15.340  0.1244 -0.1758 -0.1808
  632TMC3     H 9362   2.313   3.817  15.398  1.7025 -0.7247  1.3293
  632TMC3    H1 9363   2.661   3.803  15.128 -0.6047  0.9292 -2.3715
  632TMC3    H2 9364   2.343   4.068  15.039  0.6810 -0.3742 -0.3628
  632TMC3    C7 9365   2.572   3.982  14.963 -0.0637  0.5389  0.0072
  632TMC3    C8 9366   2.193   4.017  15.264  0.2753  0.2399 -0.4256
  632TMC3    O1 9367   2.508   4.025  14.866  0.3353  0.1752 -0.5784
  632TMC3    O2 9368   2.107   3.963  15.337  0.3271  0.0642  0.0163
  633MPD2     C 9369   1.911   2.248  17.579 -0.7571 -0.0575 -0.4332
  633MPD2    C1 9370   1.985   2.163  17.499  0.7489  0.8220  0.9174
  633MPD2    C2 9371   1.991   2.031  17.530  0.8105  0.0466  0.6208
  633MPD2    C3 9372   1.942   1.988  17.655  0.0234  0.1335  0.4560
  633MPD2    C4 9373   1.881   2.079   0.040  0.3922  0.6004  0.1746
  633MPD2    C5 9374   1.859   2.206   0.002  0.5490 -0.2319  0.1681
  633MPD2     H 9375   2.036   1.958  17.464 -0.0200  0.7228 -0.6904
  633MPD2    H1 9376   1.833   2.045   0.130 -0.5849 -2.0551 -1.3431
  633MPD2    H2 9377   1.885   2.351  17.558  2.7258  1.0205  0.5905
  633MPD2    H3 9378   1.793   2.266   0.063 -0.1736 -0.6256 -0.2340
  633MPD2     N 9379   1.954   1.856   0.005 -0.0128 -0.0571 -0.2184
  633MPD2    H5 9380   1.941   1.848   0.106 -1.8251 -0.8977 -0.5107
  633MPD2    N1 9381   2.049   2.204  17.381  0.1250  0.7088  0.0650
  633MPD2    H7 9382   2.109   2.131  17.344 -2.1274 -0.1290 -1.9314
  634TMC3    C1 9383   2.119   2.335  17.197 -0.4221 -0.3415 -0.0307
  634TMC3    C2 9384   2.149   2.222  17.117  0.6416 -0.4867 -0.1623
  634TMC3    C3 9385   2.202   2.234  16.997 -0.1948  0.1692  0.6281
  634TMC3    C4 9386   2.143   2.460  17.143  0.2804 -0.2097  0.0723
  634TMC3    C5 9387   2.190   2.470  17.011  0.0041 -0.4513  0.1567
  634TMC3    C6 9388   2.217   2.354  16.940 -0.0155 -0.6626  0.1867
  634TMC3     C 9389   2.048   2.327  17.322 -0.4282  0.1425  0.6149
  634TMC3     O 9390   2.003   2.437  17.366 -0.0785 -0.2277 -0.2207
  634TMC3     H 9391   2.124   2.128  17.164  2.0502 -0.7229  0.0968
  634TMC3    H1 9392   2.125   2.551  17.199 -0.8963 -0.3130 -0.1357
  634TMC3    H2 9393   2.233   2.364  16.833 -4.7159 -3.0218 -0.7413
  634TMC3    C7 9394   2.172   2.591  16.939  0.8614 -0.2080 -0.0630
  634TMC3    C8 9395   2.208   2.100  16.930  0.3288 -0.2030  0.3127
  634TMC3    O1 9396   2.221   2.585  16.827 -0.0076 -0.5554 -0.3491
  634TMC3    O2 9397   2.158   2.001  16.980 -0.0400 -1.1818 -0.1187
  635TMC3    C1 9398   3.453   3.029  17.494 -0.9301  0.1493  0.6936
  635TMC3    C2 9399   3.474   2.990  17.366 -0.4752  0.3325  0.4555
  635TMC3    C3 9400   3.601   2.956  17.330  0.0993 -0.0449 -0.8916
  635TMC3    C4 9401   3.557   3.045  17.583 -0.4223  0.2430 -0.0293
  635TMC3    C5 9402   3.687   3.021  17.536  0.6345  0.6392  0.1325
  635TMC3    C6 9403   3.716   2.981  17.410  0.1697 -1.2898  0.0465
  635TMC3     C 9404   3.334   3.103  17.527  0.5045 -0.5731  0.0414
  635TMC3     O 9405   3.335   3.154  17.640  0.2904 -0.1249  0.0128
  635TMC3     H 9406   3.403   2.987  17.284 -0.4020  0.7504  0.3775
  635TMC3    H1 9407   3.535   3.060  17.688 -1.8422 -2.9818  0.1233
  635TMC3    H2 9408   3.820   2.958  17.392  0.1675 -1.2644  0.0009
  635TMC3    C7 9409   3.803   3.053  17.625  0.3094  0.0317  0.0229
  635TMC3    C8 9410   3.618   2.932  17.189 -0.9429  0.4188 -0.9850
  635TMC3    O1 9411   3.915   3.033  17.582  0.9383  1.1775 -0.2270
  635TMC3    O2 9412   3.542   2.970  17.106  0.1194  0.1121  0.3668
  636MPD2     C 9413   3.369   2.386  15.802  0.0289 -0.4496 -0.0901
  636MPD2    C1 9414   3.359   2.415  15.938 -0.9520 -0.0993 -0.5650
  636MPD2    C2 9415   3.353   2.320  16.035 -0.4753  0.2479 -0.0256
  636MPD2    C3 9416   3.340   2.191  15.997  0.6246 -0.0801 -0.0629
  636MPD2    C4 9417   3.360   2.159  15.864  0.6266 -0.4649  0.2398
  636MPD2    C5 9418   3.373   2.254  15.771 -0.2646 -0.1431  0.7075
  636MPD2     H 9419   3.355   2.349  16.139  1.7067 -0.3162  0.0966
  636MPD2    H1 9420   3.357   2.056  15.829 -1.5048 -0.7024  1.1292
  636MPD2    H2 9421   3.382   2.457  15.722 -0.5362 -1.4145 -1.0358
  636MPD2    H3 9422   3.389   2.234  15.666  0.8771  0.5436  0.7433
  636MPD2     N 9423   3.331   2.090  16.094 -0.1240  0.3127 -1.7491
  636MPD2    H5 9424   3.332   2.129  16.188 -1.1284 -2.2449 -0.6840
  636MPD2    N1 9425   3.362   2.548  15.993 -0.2363  0.0749  0.3451
  636MPD2    H7 9426   3.363   2.562  16.094 -1.6082  0.0083  0.3765
  637TMC3    C1 9427   3.304   1.877  16.198  0.6081 -0.3386  0.2473
  637TMC3    C2 9428   3.266   1.935  16.315 -0.5639  0.4939  0.3644
  637TMC3    C3 9429   3.303   1.879  16.440  0.3791 -0.5031 -0.0583
  637TMC3    C4 9430   3.359   1.751  16.200  0.0263  0.0558 -0.4976
  637TMC3    C5 9431   3.398   1.695  16.320 -0.5342 -0.5623  0.1138
  637TMC3    C6 9432   3.376   1.758  16.441 -0.4382 -0.0826 -0.1060
  637TMC3     C 9433   3.313   1.953  16.077 -0.9752 -0.4227  0.5025
  637TMC3     O 9434   3.311   1.883  15.974 -0.2398  0.2416  0.2506
  637TMC3     H 9435   3.206   2.025  16.313 -1.7723 -0.2940  0.8750
  637TMC3    H1 9436   3.406   1.710  16.111  0.2339 -0.2289 -0.2578
  637TMC3    H2 9437   3.405   1.716  16.537 -1.4389 -2.1428 -0.7041
  637TMC3    C7 9438   3.540   1.655  16.324 -0.2638 -0.6375  0.3222
  637TMC3    C8 9439   3.349   1.977  16.534 -0.0030 -0.1173  0.2838
  637TMC3    O1 9440   3.562   1.538  16.328 -0.2284  0.2208  0.1107
  637TMC3    O2 9441   3.372   2.091  16.491  0.2474 -0.3661  0.1988
  638MPD2     C 9442   3.190   1.327  15.139 -0.4573 -0.6358 -0.6964
  638MPD2    C1 9443   3.170   1.235  15.041 -0.2776  0.3157  0.8929
  638MPD2    C2 9444   3.130   1.105  15.081 -0.7964  0.1916 -0.4021
  638MPD2    C3 9445   3.134   1.068  15.212  0.0266  0.4807 -1.3010
  638MPD2    C4 9446   3.152   1.163  15.310  0.0725  0.0223 -0.2540
  638MPD2    C5 9447   3.170   1.294  15.268 -0.9772  0.0966  0.3301
  638MPD2     H 9448   3.111   1.035  15.000  2.4939  1.4240 -2.2412
  638MPD2    H1 9449   3.143   1.141  15.416 -1.4337 -3.3652 -1.0996
  638MPD2    H2 9450   3.220   1.425  15.105  1.4836 -1.6463 -1.8936
  638MPD2    H3 9451   3.181   1.377  15.336 -2.2525 -0.4966  1.2659
  638MPD2     N 9452   3.103   0.931  15.245 -0.2660  0.2799  0.3265
  638MPD2    H5 9453   3.072   0.872  15.170  0.5196 -0.3853  0.5191
  638MPD2    N1 9454   3.174   1.256  14.901  0.6873 -0.1599  0.3741
  638MPD2    H7 9455   3.141   1.185  14.835  3.5319 -0.8551 -0.3259
  639TMC3    C1 9456   3.058   0.742  15.381 -0.0495 -0.2279 -0.2279
  639TMC3    C2 9457   2.962   0.708  15.291  0.3126 -0.0481  0.0368
  639TMC3    C3 9458   2.906   0.582  15.302  0.0169 -0.0469  0.3268
  639TMC3    C4 9459   3.100   0.664  15.483  0.1929  0.2265  0.1344
  639TMC3    C5 9460   3.038   0.545  15.498 -0.6521  0.2106 -0.3046
  639TMC3    C6 9461   2.941   0.501  15.408  0.3885 -0.0758 -0.1367
  639TMC3     C 9462   3.123   0.874  15.369 -0.0420  0.1789  0.0856
  639TMC3     O 9463   3.188   0.919  15.466 -0.0596  1.0171  1.0510
  639TMC3     H 9464   2.928   0.768  15.207 -2.8169  1.7042  2.5788
  639TMC3    H1 9465   3.172   0.709  15.549 -0.3636  0.5132  0.5402
  639TMC3    H2 9466   2.906   0.399  15.415  1.8577 -0.5925 -0.1813
  639TMC3    C7 9467   3.120   0.443  15.551  0.0876 -0.2360 -0.1542
  639TMC3    C8 9468   2.834   0.536  15.186 -0.5104  0.3142  0.2153
  639TMC3    O1 9469   3.061   0.341  15.582  0.0177 -0.8390  0.2757
  639TMC3    O2 9470   2.869   0.583  15.079  0.2041 -0.1332  0.0189
  640MPD2     C 9471   3.887   0.070   9.672 -0.4950  0.3351 -0.2212
  640MPD2    C1 9472   3.919   0.106   9.540 -0.1391  0.2550  0.1397
  640MPD2    C2 9473   3.863   0.220   9.491  0.5861  0.2598 -0.1305
  640MPD2    C3 9474   3.792   0.311   9.563  0.3169 -0.1269 -0.5855
  640MPD2    C4 9475   3.776   0.272   9.694  0.5246  0.3138 -0.1428
  640MPD2    C5 9476   3.819   0.160   9.751  0.2230 -0.7611  0.1246
  640MPD2     H 9477   3.899   0.249   9.392 -1.0001  2.2031 -0.1326
  640MPD2    H1 9478   3.701   0.322   9.753  0.1795 -0.0900 -0.2366
  640MPD2    H2 9479   3.914   4.700   9.720  1.5612  1.3357  0.6202
  640MPD2    H3 9480   3.795   0.145   9.856 -1.7188  0.4279 -0.1534
  640MPD2     N 9481   3.725   0.418   9.502 -0.0626 -0.6059 -0.5627
  640MPD2    H5 9482   3.661   0.469   9.561  1.2763 -1.2648  1.4582
  640MPD2    N1 9483   3.995   0.008   9.475 -0.2218  0.2862  0.2494
  640MPD2    H7 9484   4.013   4.644   9.522  0.8837  0.7113  0.6319
  641TMC3    C1 9485   4.118   4.635   9.293 -0.0191  0.4419  0.2032
  641TMC3    C2 9486   4.212   4.585   9.377 -0.7757  0.6898  0.6993
  641TMC3    C3 9487   4.313   4.504   9.330 -0.3602 -0.0356 -0.0848
  641TMC3    C4 9488   4.128   4.601   9.160 -0.1095 -0.4666  0.0066
  641TMC3    C5 9489   4.240   4.536   9.111  0.9915  0.3980  0.4802
  641TMC3    C6 9490   4.331   4.481   9.196 -0.7116  0.2951 -0.4989
  641TMC3     C 9491   4.028   0.014   9.343 -0.0847 -0.0061 -0.0281
  641TMC3     O 9492   3.983   0.083   9.253  0.4500 -0.2289  0.2311
  641TMC3     H 9493   4.221   4.616   9.481  0.2058 -0.6950  1.0209
  641TMC3    H1 9494   4.055   4.645   9.094  0.5300 -0.3462 -0.6107
  641TMC3    H2 9495   4.416   4.432   9.149  1.3067  2.9783  0.3699
  641TMC3    C7 9496   4.239   4.488   8.970  0.3057  0.8617 -0.0568
  641TMC3    C8 9497   4.406   4.450   9.428 -0.1659 -0.1496  0.2713
  641TMC3    O1 9498   4.349   4.449   8.928  0.5088 -0.0150  0.1819
  641TMC3    O2 9499   4.511   4.409   9.378 -0.3335  0.0761  0.0797
  642TMC3    C1 9500   0.283   1.255  12.008  0.4667 -0.0450 -0.6270
  642TMC3    C2 9501   0.412   1.225  11.965 -0.3210  0.6066 -0.0790
  642TMC3    C3 9502   0.420   1.147  11.851 -0.3024 -0.7518 -0.2961
  642TMC3    C4 9503   0.165   1.215  11.943 -0.0879 -0.0905 -0.4992
  642TMC3    C5 9504   0.185   1.153  11.824  0.2121  0.0370 -0.1437
  642TMC3    C6 9505   0.310   1.116  11.778 -0.3049  0.1549  0.2204
  642TMC3     C 9506   0.272   1.336  12.126  0.5462  0.4471  0.0449
  642TMC3     O 9507   0.346   1.434  12.124 -0.1055  0.3505 -0.0335
  642TMC3     H 9508   0.499   1.259  12.019  0.1885  0.9293 -1.0977
  642TMC3    H1 9509   0.069   1.250  11.981 -0.0015 -0.4019 -0.0022
  642TMC3    H2 9510   0.321   1.073  11.679 -1.5826 -0.3182  0.2892
  642TMC3    C7 9511   0.071   1.091  11.759  0.1355  0.8943  0.0006
  642TMC3    C8 9512   0.552   1.121  11.798  0.0923 -0.0771  0.5617
  642TMC3    O1 9513   0.086   1.066  11.638  0.6225  0.2132  0.4791
  642TMC3    O2 9514   0.564   1.083  11.681 -0.2558  0.4048  0.2183
  643TMC3    C1 9515   3.848   0.509   0.778  0.0110 -0.3680 -0.1204
  643TMC3    C2 9516   3.723   0.515   0.729  0.2974 -0.3436  0.4886
  643TMC3    C3 9517   3.669   0.403   0.670 -0.0879 -0.0737 -0.9801
  643TMC3    C4 9518   3.924   0.394   0.772 -0.3461  0.0615  0.0975
  643TMC3    C5 9519   3.864   0.285   0.716 -0.2909  0.0527 -0.4587
  643TMC3    C6 9520   3.734   0.280   0.669  0.8440 -0.1335  0.5555
  643TMC3     C 9521   3.886   0.617   0.872  0.0475  0.3482 -0.1070
  643TMC3     O 9522   3.866   0.735   0.843  0.3604  0.0305  0.3213
  643TMC3     H 9523   3.668   0.608   0.735  1.6454  0.7144 -3.0419
  643TMC3    H1 9524   4.030   0.390   0.797 -0.1642  1.3053 -0.4797
  643TMC3    H2 9525   3.704   0.207   0.595  2.8355  1.4574 -1.8022
  643TMC3    C7 9526   3.955   0.240   0.616  1.0124 -0.3853 -0.1269
  643TMC3    C8 9527   3.580   0.413   0.566  0.3461 -0.3155  0.5879
  643TMC3    O1 9528   4.056   0.300   0.599 -0.5531 -0.3422  0.3365
  643TMC3    O2 9529   3.524   0.310   0.539 -0.5493  0.0964  0.1100
  644MPD2     C 9530   3.809   0.784   9.611  0.1998  0.4007  0.2085
  644MPD2    C1 9531   3.852   0.800   9.484 -0.2144 -0.1746 -0.0434
  644MPD2    C2 9532   3.790   0.887   9.397 -0.3686 -0.0334  0.5477
  644MPD2    C3 9533   3.675   0.955   9.437  0.3086  0.4923  0.0113
  644MPD2    C4 9534   3.630   0.938   9.568 -0.3112  0.4999  0.6918
  644MPD2    C5 9535   3.698   0.858   9.651  0.4693 -0.5226  0.6757
  644MPD2     H 9536   3.821   0.898   9.294  1.9215 -0.7604  1.1606
  644MPD2    H1 9537   3.549   0.995   9.613 -1.7367 -0.5564 -0.5301
  644MPD2    H2 9538   3.844   0.705   9.677 -0.2829  0.1603  0.1749
  644MPD2    H3 9539   3.661   0.852   9.753  0.6513  1.1588  0.8441
  644MPD2     N 9540   3.606   1.032   9.345 -0.7762  0.4730 -0.3472
  644MPD2    H5 9541   3.654   1.051   9.257 -1.1167  2.2314 -0.1644
  644MPD2    N1 9542   3.954   0.713   9.448 -0.2028 -0.5123  0.2240
  644MPD2    H7 9543   4.016   0.672   9.517 -0.2192  2.4473  1.9672
  645TMC3    C1 9544   3.424   1.129   9.237  0.2495  0.1894 -0.3830
  645TMC3    C2 9545   3.304   1.088   9.188  0.4135  0.2057  0.4457
  645TMC3    C3 9546   3.259   1.125   9.069  0.4320  0.2301  1.2513
  645TMC3    C4 9547   3.507   1.211   9.161 -0.0186  0.1571 -0.1514
  645TMC3    C5 9548   3.458   1.238   9.034  0.8891 -0.2244 -0.4750
  645TMC3    C6 9549   3.336   1.198   8.984 -0.6754 -0.5545 -0.7584
  645TMC3     C 9550   3.474   1.062   9.359  0.2676  0.2783  0.1044
  645TMC3     O 9551   3.384   1.027   9.435  0.3876  0.1644  0.2919
  645TMC3     H 9552   3.238   1.039   9.259 -0.1667  1.2441  0.6274
  645TMC3    H1 9553   3.608   1.229   9.197  0.8650 -0.1484 -2.5186
  645TMC3    H2 9554   3.314   1.197   8.878  1.8455  0.3500 -1.2723
  645TMC3    C7 9555   3.535   1.324   8.956 -0.8963 -1.0474 -0.7609
  645TMC3    C8 9556   3.145   1.046   9.021  0.3700 -0.5000 -0.9738
  645TMC3    O1 9557   3.654   1.337   8.988 -0.6537  0.2172  0.0428
  645TMC3    O2 9558   3.120   0.948   9.092 -0.2673 -0.0227 -0.1399
  646MPD2     C 9559   3.242   0.072  14.532 -0.2210  0.2964 -0.3207
  646MPD2    C1 9560   3.131   0.017  14.592  0.0958 -0.2896  0.2438
  646MPD2    C2 9561   3.002   0.066  14.575  0.0706 -0.1054  0.0319
  646MPD2    C3 9562   2.977   0.176  14.496  0.7726 -0.2120 -0.3042
  646MPD2    C4 9563   3.090   0.222  14.422 -0.2170 -0.1654 -0.1444
  646MPD2    C5 9564   3.216   0.174  14.443 -0.2080 -0.2516  0.0459
  646MPD2     H 9565   2.916   0.025  14.627  0.1984 -1.5592 -0.8661
  646MPD2    H1 9566   3.091   0.315  14.366 -1.9984  0.7265  1.2879
  646MPD2    H2 9567   3.346   0.043  14.537  0.3473  2.9028  3.2773
  646MPD2    H3 9568   3.296   0.232  14.401  0.0409  0.7603  1.9047
  646MPD2     N 9569   2.853   0.231  14.488 -0.0394  0.1396  0.2789
  646MPD2    H5 9570   2.785   0.196  14.555  0.1985  1.4710  1.2137
  646MPD2    N1 9571   3.171   4.637  14.682 -0.3383 -0.5681  0.2295
  646MPD2    H7 9572   3.272   4.630  14.676 -0.3926 -0.7473 -0.4700
  647TMC3    C1 9573   3.154   4.486  14.863 -0.1792  0.2129  0.1913
  647TMC3    C2 9574   3.094   4.452  14.982 -0.6342  0.3877 -0.6315
  647TMC3    C3 9575   3.156   4.347  15.047  0.2689 -0.5414 -0.0257
  647TMC3    C4 9576   3.262   4.425  14.817  0.0083  0.1497 -0.6396
  647TMC3    C5 9577   3.320   4.328  14.885 -0.1416 -0.0311  0.3670
  647TMC3    C6 9578   3.270   4.281  15.005 -0.4039 -0.0486  0.0170
  647TMC3     C 9579   3.088   4.578  14.777 -0.0534 -0.9897  0.4345
  647TMC3     O 9580   2.976   4.611  14.812  0.3431  0.3140 -0.8085
  647TMC3     H 9581   3.005   4.500  15.019  0.1677  1.2437  0.1830
  647TMC3    H1 9582   3.310   4.445  14.721  0.4631 -3.7624 -1.2167
  647TMC3    H2 9583   3.323   4.205  15.061 -0.5342 -0.4753 -0.4324
  647TMC3    C7 9584   3.441   4.271  14.841 -0.2419 -0.3455 -0.1576
  647TMC3    C8 9585   3.110   4.315  15.179 -1.0371 -0.2570  0.1864
  647TMC3    O1 9586   3.531   4.268  14.925 -0.0550  0.4197 -0.0810
  647TMC3    O2 9587   3.034   4.393  15.233  0.0960  0.2966  0.1176
  648TMC3    C1 9588   2.575   2.031  16.329  0.1627  0.3570  0.5188
  648TMC3    C2 9589   2.565   1.895  16.300  0.2848  0.0878 -0.4442
  648TMC3    C3 9590   2.569   1.863  16.168  0.5821  0.1986  0.0888
  648TMC3    C4 9591   2.571   2.126  16.235  0.3578  0.4646  0.5135
  648TMC3    C5 9592   2.555   2.089  16.103 -0.5453 -0.0250 -0.7382
  648TMC3    C6 9593   2.565   1.952  16.071  0.0977 -0.1862  0.1894
  648TMC3     C 9594   2.596   2.077  16.464  0.5860 -0.1261  0.5588
  648TMC3     O 9595   2.568   2.189  16.493 -0.5198 -0.3611  0.0177
  648TMC3     H 9596   2.574   1.817  16.376 -0.1774  0.4995  0.0355
  648TMC3    H1 9597   2.580   2.231  16.261  3.3147 -0.0526  1.5424
  648TMC3    H2 9598   2.575   1.927  15.966  1.6814 -0.8562  0.4826
  648TMC3    C7 9599   2.537   2.194  15.995  0.5205 -0.1928 -0.3242
  648TMC3    C8 9600   2.548   1.725  16.131  0.1322 -0.5146  0.0824
  648TMC3    O1 9601   2.560   2.148  15.883  0.3073  0.3180 -0.0509
  648TMC3    O2 9602   2.482   1.660  16.211 -0.5884 -0.3068  0.1640
  649TMC3    C1 9603   1.134   3.431  12.858 -0.3675  1.3771 -0.7360
  649TMC3    C2 9604   1.245   3.479  12.794  0.1969 -0.4521  0.7807
  649TMC3    C3 9605   1.360   3.498  12.875 -0.1477 -0.2741 -0.7994
  649TMC3    C4 9606   1.145   3.409  12.995 -0.0450 -0.2107 -0.6299
  649TMC3    C5 9607   1.255   3.427  13.072  0.6142  0.3405 -0.4804
  649TMC3    C6 9608   1.369   3.480  13.012  0.1222  1.1599  0.7866
  649TMC3     C 9609   1.005   3.459  12.798  0.6287  0.3625  0.2346
  649TMC3     O 9610   0.911   3.511  12.854 -0.1486  0.0667 -0.5407
  649TMC3     H 9611   1.246   3.496  12.687 -0.3907 -1.0014  0.6881
  649TMC3    H1 9612   1.054   3.372  13.041  0.0755  0.9272  0.5113
  649TMC3    H2 9613   1.456   3.504  13.072  2.1151 -0.1515 -1.5708
  649TMC3    C7 9614   1.250   3.375  13.211  0.3077  0.0180 -0.0439
  649TMC3    C8 9615   1.475   3.569  12.808 -0.5540  0.2635  0.1286
  649TMC3    O1 9616   1.147   3.328  13.244  0.0001  0.0162 -0.2017
  649TMC3    O2 9617   1.565   3.607  12.877  0.2261 -0.6105  0.8177
  650TMC3    C1 9618   4.475   0.175  12.356 -0.6510 -0.1121 -0.4263
  650TMC3    C2 9619   4.432   0.193  12.490 -0.2987  0.0753  0.0375
  650TMC3    C3 9620   4.317   0.265  12.510  0.1074 -0.1058 -0.0866
  650TMC3    C4 9621   4.402   0.223  12.254 -0.5061 -0.7957 -0.0841
  650TMC3    C5 9622   4.313   0.320  12.281 -0.1169 -0.3644 -0.1454
  650TMC3    C6 9623   4.263   0.336  12.409  0.1754  0.2023 -0.0773
  650TMC3     C 9624   4.563   0.060  12.319  0.0102 -0.1155 -1.1855
  650TMC3     O 9625   4.602   0.069  12.204  0.8757 -0.2392 -0.2699
  650TMC3     H 9626   4.482   0.153  12.577 -1.1117  2.4752  1.6144
  650TMC3    H1 9627   4.435   0.204  12.152 -0.0804 -2.8773  0.4492
  650TMC3    H2 9628   4.188   0.413  12.426 -0.9702 -0.9478  0.0848
  650TMC3    C7 9629   4.235   0.394  12.178  0.8079 -0.1023 -0.4507
  650TMC3    C8 9630   4.343   0.359  12.617 -0.5184  0.2008  0.3271
  650TMC3    O1 9631   4.208   0.331  12.077  0.2435  0.1182  0.1462
  650TMC3    O2 9632   4.442   0.429  12.597 -0.6570  0.6280 -0.1951
  651MPD2     C 9633   3.174   2.321  10.262 -0.0920 -0.7034 -0.4606
  651MPD2    C1 9634   3.155   2.435  10.329 -0.0304 -0.9932  0.0613
  651MPD2    C2 9635   3.266   2.508  10.356 -0.0070  0.0201  0.0503
  651MPD2    C3 9636   3.391   2.464  10.320 -0.4842 -0.4335 -0.3446
  651MPD2    C4 9637   3.407   2.338  10.264 -0.4103 -0.8127  0.2484
  651MPD2    C5 9638   3.297   2.266  10.235 -0.3678 -0.3746 -0.1363
  651MPD2     H 9639   3.255   2.609  10.392 -0.5861 -0.2447  0.5950
  651MPD2    H1 9640   3.501   2.294  10.235 -0.3179  0.4616 -1.3265
  651MPD2    H2 9641   3.089   2.266  10.223 -1.5716  0.6371  0.8844
  651MPD2    H3 9642   3.315   2.166  10.197 -0.9803 -0.0118 -1.3916
  651MPD2     N 9643   3.499   2.543  10.354  0.6130 -0.6836 -0.1137
  651MPD2    H5 9644   3.477   2.628  10.406 -2.3951 -0.3972 -1.8341
  651MPD2    N1 9645   3.030   2.495  10.354  0.6562 -0.6871 -0.1689
  651MPD2    H7 9646   3.028   2.572  10.419 -3.6947 -2.3042  1.6425
  652TMC3    C1 9647   3.922   2.698  10.395 -0.3015  0.1472  0.1408
  652TMC3    C2 9648   3.829   2.599  10.408 -0.3600 -0.8268 -0.2549
  652TMC3    C3 9649   3.700   2.629  10.377  0.1425  0.4293  0.7787
  652TMC3    C4 9650   3.890   2.828  10.353  0.8206  0.1412  0.5435
  652TMC3    C5 9651   3.752   2.854  10.349 -0.3533  0.1480  0.2206
  652TMC3    C6 9652   3.654   2.760  10.347 -0.3961  0.7130  1.6075
  652TMC3     C 9653   4.047   2.683  10.463  0.6223 -0.2676 -0.3900
  652TMC3     O 9654   4.052   2.615  10.563 -0.4965 -0.8680 -0.1398
  652TMC3     H 9655   3.863   2.496  10.408 -1.1132 -1.0692  1.7168
  652TMC3    H1 9656   3.961   2.909  10.358  1.6504 -0.4796 -1.1969
  652TMC3    H2 9657   3.554   2.788  10.315 -0.4204 -1.8355 -0.5195
  652TMC3    C7 9658   3.704   2.987  10.348 -0.0548 -0.5951  0.2120
  652TMC3    C8 9659   3.621   2.527  10.312 -0.2856  0.4871  0.1213
  652TMC3    O1 9660   3.586   3.001  10.379  0.0581  0.5060  0.1652
  652TMC3    O2 9661   3.675   2.437  10.248  0.3328 -0.1143  0.7479
  653MPD2     C 9662   1.560   2.224  17.621  0.3215 -0.0091 -0.1041
  653MPD2    C1 9663   1.550   2.336  17.546 -0.3309  0.2417 -0.0124
  653MPD2    C2 9664   1.517   2.322  17.412  0.3143 -0.3098  0.5666
  653MPD2    C3 9665   1.518   2.196  17.350  0.1656  0.0798 -0.8067
  653MPD2    C4 9666   1.535   2.086  17.431  1.1438  0.4951  0.3284
  653MPD2    C5 9667   1.562   2.103  17.565 -0.0710  0.5739  0.3703
  653MPD2     H 9668   1.501   2.410  17.351 -1.9091 -1.3413 -0.3489
  653MPD2    H1 9669   1.529   1.984  17.395  1.1892  0.2460  1.0240
  653MPD2    H2 9670   1.586   2.217   0.028  2.9835  2.7224 -0.5912
  653MPD2    H3 9671   1.580   2.011  17.620  1.4930  0.0398 -1.0177
  653MPD2     N 9672   1.484   2.183  17.211 -0.2988 -0.5210  1.0575
  653MPD2    H5 9673   1.466   2.270  17.161 -0.2479 -2.4992 -2.4004
  653MPD2    N1 9674   1.563   2.469  17.597 -0.1468 -0.2652 -0.4869
  653MPD2    H7 9675   1.544   2.549  17.538  0.1857 -0.1352 -0.4156
  654TMC3    C1 9676   1.460   2.083  17.001 -0.2834 -0.6461 -0.4454
  654TMC3    C2 9677   1.341   2.142  16.970  0.3499  0.3175 -0.7617
  654TMC3    C3 9678   1.281   2.091  16.850 -0.1755  0.1247 -0.9097
  654TMC3    C4 9679   1.509   1.992  16.914  0.0928  0.4318 -0.1930
  654TMC3    C5 9680   1.452   1.957  16.795  0.4838 -0.2064 -0.1497
  654TMC3    C6 9681   1.338   2.014  16.757 -0.2889 -0.9227 -0.1999
  654TMC3     C 9682   1.483   2.064  17.143  0.1787  0.6200 -0.1585
  654TMC3     O 9683   1.495   1.946  17.179 -0.3928 -0.0017  0.0630
  654TMC3     H 9684   1.285   2.209  17.034 -1.6625  0.1817 -2.3802
  654TMC3    H1 9685   1.598   1.933  16.931  0.5093  1.2706  0.4844
  654TMC3    H2 9686   1.289   1.988  16.664 -1.9210 -0.3285  0.4884
  654TMC3    C7 9687   1.531   1.879  16.694  0.2549 -1.0250 -0.3627
  654TMC3    C8 9688   1.143   2.129  16.824 -0.3520  0.8301  0.3949
  654TMC3    O1 9689   1.529   1.918  16.578  0.2212  0.3524 -0.0344
  654TMC3    O2 9690   1.105   2.234  16.873 -0.1021  0.2683  0.3016
  655MPD2     C 9691   3.110   2.092  15.678 -0.5599 -0.9059 -0.2271
  655MPD2    C1 9692   3.068   2.217  15.628 -0.4521 -0.5114 -0.7831
  655MPD2    C2 9693   3.071   2.247  15.496  0.4414 -0.0608 -0.2328
  655MPD2    C3 9694   3.107   2.154  15.394 -0.1527  0.0526  0.2439
  655MPD2    C4 9695   3.131   2.027  15.447 -0.1840 -0.8444  0.1402
  655MPD2    C5 9696   3.142   2.000  15.584  0.2105 -0.6667  0.3264
  655MPD2     H 9697   3.039   2.342  15.456  0.4936  1.3375  3.0633
  655MPD2    H1 9698   3.148   1.950  15.374  1.4487  1.4231 -1.8763
  655MPD2    H2 9699   3.124   2.055  15.779  1.3036 -1.4039 -0.6724
  655MPD2    H3 9700   3.168   1.901  15.619 -1.5247 -0.6959  1.5310
  655MPD2     N 9701   3.101   2.177  15.255  0.4951  0.3066  0.0447
  655MPD2    H5 9702   3.109   2.099  15.191  0.9299 -0.3285  0.8693
  655MPD2    N1 9703   3.036   2.325  15.714 -0.1851 -0.3791 -0.6518
  655MPD2    H7 9704   3.031   2.416  15.668  1.4348 -0.6950 -1.4663
  656TMC3    C1 9705   3.020   2.441  15.908  0.0870 -0.3996 -0.6387
  656TMC3    C2 9706   2.939   2.457  16.010  0.4175 -0.2184 -0.6519
  656TMC3    C3 9707   2.851   2.558  16.002 -0.3550 -0.8822  0.2018
  656TMC3    C4 9708   3.033   2.538  15.808 -0.1003  0.3163 -0.3194
  656TMC3    C5 9709   2.957   2.651  15.813  0.5686 -0.3287  0.2250
  656TMC3    C6 9710   2.853   2.659  15.910 -0.2141  0.2388  0.1867
  656TMC3     C 9711   3.030   2.315  15.845 -0.2190 -0.1505  0.3558
  656TMC3     O 9712   3.006   2.216  15.913 -0.1874 -1.0378 -0.1545
  656TMC3     H 9713   2.923   2.378  16.083 -0.8637 -0.2158 -0.9271
  656TMC3    H1 9714   3.124   2.546  15.751  0.8091  2.8677  1.4921
  656TMC3    H2 9715   2.785   2.743  15.913 -1.2707 -0.7028  2.4975
  656TMC3    C7 9716   2.920   2.681  15.676 -0.7034 -0.2193 -0.5152
  656TMC3    C8 9717   2.754   2.565  16.116 -0.5213  0.2500 -0.1912
  656TMC3    O1 9718   2.986   2.637  15.585  0.0851  0.0479 -0.5796
  656TMC3    O2 9719   2.732   2.458  16.167 -0.1431  0.0812  0.0075
  657TMC3    C1 9720   2.490   1.952  14.856 -0.1911  0.1519 -0.3725
  657TMC3    C2 9721   2.387   2.000  14.929  0.2963  0.2489 -0.1890
  657TMC3    C3 9722   2.323   2.119  14.901  0.8116  0.3414  0.2326
  657TMC3    C4 9723   2.531   2.028  14.746  0.2830 -1.0941  0.1711
  657TMC3    C5 9724   2.459   2.140  14.707  0.1996 -0.0271  0.4193
  657TMC3    C6 9725   2.355   2.185  14.782  0.0028  0.4962  0.1305
  657TMC3     C 9726   2.510   1.810  14.838  0.9295  0.1085 -0.3581
  657TMC3     O 9727   2.511   1.754  14.725  0.0283 -0.2336 -0.2082
  657TMC3     H 9728   2.353   1.937  15.010  0.2789 -0.5658 -0.8277
  657TMC3    H1 9729   2.625   2.003  14.698  1.3580 -0.2720  1.8363
  657TMC3    H2 9730   2.301   2.278  14.767 -1.7209 -0.7448 -1.3471
  657TMC3    C7 9731   2.541   2.246  14.645  0.2145  0.3281  0.1381
  657TMC3    C8 9732   2.207   2.158  14.981  0.2155 -0.7796 -0.2915
  657TMC3    O1 9733   2.656   2.261  14.690 -0.6126  0.0109  0.5162
  657TMC3    O2 9734   2.131   2.236  14.928 -0.4662  0.7677 -0.4645
  658MPD2     C 9735   3.388   2.478  14.587  0.4865 -0.7017 -0.6526
  658MPD2    C1 9736   3.256   2.500  14.597 -0.9045 -0.9431 -0.1417
  658MPD2    C2 9737   3.191   2.557  14.486  0.3823  0.2042 -0.3196
  658MPD2    C3 9738   3.255   2.584  14.366  0.0925 -0.0942 -0.3121
  658MPD2    C4 9739   3.389   2.552  14.355 -0.5930  0.5341  0.1642
  658MPD2    C5 9740   3.459   2.494  14.466  0.7740  0.1096 -0.5356
  658MPD2     H 9741   3.085   2.577  14.490  0.4506  0.3836  0.5864
  658MPD2    H1 9742   3.441   2.547  14.260  0.3551  0.2600  0.6935
  658MPD2    H2 9743   3.449   2.451  14.672 -2.0945 -0.7916  1.1679
  658MPD2    H3 9744   3.564   2.469  14.463  0.5341 -0.8802 -0.5720
  658MPD2     N 9745   3.179   2.643  14.268  1.0294 -0.0099  0.5839
  658MPD2    H5 9746   3.081   2.664  14.283  0.6131 -1.0856 -0.6021
  658MPD2    N1 9747   3.186   2.464  14.720  0.2013 -0.1677  0.1881
  658MPD2    H7 9748   3.240   2.456  14.805 -0.8373  0.3296  0.8999
  659TMC3    C1 9749   3.006   2.434  14.870  0.9323 -0.1588 -0.7716
  659TMC3    C2 9750   3.087   2.369  14.962  0.1345  0.6681 -0.3317
  659TMC3    C3 9751   3.032   2.284  15.053 -0.3870  0.3903 -0.7591
  659TMC3    C4 9752   2.869   2.415  14.882 -0.0544 -0.5378 -0.7543
  659TMC3    C5 9753   2.816   2.330  14.977 -0.6203 -0.3036  0.0017
  659TMC3    C6 9754   2.896   2.258  15.061 -0.0893  0.0399  0.1850
  659TMC3     C 9755   3.047   2.460  14.734  0.7297 -0.0640  0.5891
  659TMC3     O 9756   2.960   2.475  14.650 -0.3312  0.3908 -0.1882
  659TMC3     H 9757   3.195   2.371  14.951  0.1759 -1.8943 -0.3011
  659TMC3    H1 9758   2.808   2.473  14.813 -0.9871  1.1385  1.4794
  659TMC3    H2 9759   2.853   2.191  15.135  2.1212 -1.8979 -0.3070
  659TMC3    C7 9760   2.689   2.365  15.037  0.3925 -0.1207 -0.4080
  659TMC3    C8 9761   3.084   2.298  15.187 -0.5051 -0.2380 -0.3392
  659TMC3    O1 9762   2.697   2.365  15.157 -0.0450 -1.0470 -0.2144
  659TMC3    O2 9763   3.088   2.411  15.236 -0.2602 -0.1563  0.0521
  660MPD2     C 9764   1.465   0.930  12.301  0.9370 -0.4913 -0.0767
  660MPD2    C1 9765   1.340   0.971  12.320  0.0943 -0.0139 -0.8768
  660MPD2    C2 9766   1.262   0.934  12.427 -0.1196 -0.1105 -0.0146
  660MPD2    C3 9767   1.311   0.848  12.522  0.2128 -0.3169 -0.2956
  660MPD2    C4 9768   1.448   0.816  12.506  0.1261  0.8429  0.2340
  660MPD2    C5 9769   1.519   0.846  12.395 -0.3038  0.6192  0.4552
  660MPD2     H 9770   1.157   0.960  12.435 -0.2632 -1.3389  2.1050
  660MPD2    H1 9771   1.499   0.755  12.581  0.9718  1.2219 -0.0395
  660MPD2    H2 9772   1.530   0.968  12.223  0.4753  1.8364  0.6567
  660MPD2    H3 9773   1.623   0.817  12.382 -0.2458  0.6488  0.8617
  660MPD2     N 9774   1.222   0.799  12.621 -0.1635  0.2063 -0.5311
  660MPD2    H5 9775   1.124   0.814  12.598 -0.4682 -0.4566  0.3280
  660MPD2    N1 9776   1.304   1.068  12.221  0.8077 -0.4938  0.6497
  660MPD2    H7 9777   1.369   1.074  12.144  1.0181 -1.0187  0.7910
  661TMC3    C1 9778   1.193   1.251  12.126  0.4655 -0.2395  0.3165
  661TMC3    C2 9779   1.294   1.267  12.026  0.3625 -0.2972 -0.0334
  661TMC3    C3 9780   1.251   1.332  11.914 -0.0255 -0.4152 -0.0862
  661TMC3    C4 9781   1.060   1.300  12.118  0.2612  0.3017 -0.2414
  661TMC3    C5 9782   1.030   1.375  12.006 -0.6492  0.0610  1.1754
  661TMC3    C6 9783   1.119   1.377  11.898  0.1858 -0.1735  1.0921
  661TMC3     C 9784   1.208   1.160  12.242 -1.0954 -0.2719  0.5483
  661TMC3     O 9785   1.117   1.161  12.327  0.1590  0.1860 -0.0679
  661TMC3     H 9786   1.397   1.237  12.038  0.7809  0.9504 -0.4468
  661TMC3    H1 9787   1.000   1.301  12.208  0.4533  2.8922 -0.1431
  661TMC3    H2 9788   1.094   1.428  11.806  1.8977  2.8959  2.3307
  661TMC3    C7 9789   0.887   1.406  11.981 -0.2600  0.0186  1.2835
  661TMC3    C8 9790   1.351   1.353  11.812 -0.6755  0.5019  0.8694
  661TMC3    O1 9791   0.821   1.439  12.082  0.4252 -0.5290  1.2144
  661TMC3    O2 9792   1.458   1.288  11.818  0.4120 -0.1637  0.2899
  662MPD2     C 9793   1.218   0.609  17.042  0.0082 -0.1839 -0.3728
  662MPD2    C1 9794   1.127   0.563  17.136  0.4887  0.7975  0.1526
  662MPD2    C2 9795   1.044   0.658  17.196  1.0484  0.2418 -0.2500
  662MPD2    C3 9796   1.056   0.794  17.166  0.0503  0.3952  0.4601
  662MPD2    C4 9797   1.150   0.837  17.072 -0.2600  0.0818 -0.0248
  662MPD2    C5 9798   1.232   0.744  17.017 -0.9532  0.0806 -0.6376
  662MPD2     H 9799   0.970   0.633  17.271  0.6581 -2.5527 -1.5859
  662MPD2    H1 9800   1.166   0.943  17.056 -0.7860  0.2735  0.6865
  662MPD2    H2 9801   1.289   0.546  16.990 -0.7822  0.3015 -2.0069
  662MPD2    H3 9802   1.295   0.775  16.934 -1.1438 -3.4695 -2.1020
  662MPD2     N 9803   0.963   0.891  17.217 -0.8481  0.6422 -0.1563
  662MPD2    H5 9804   0.999   0.986  17.216 -0.0602  0.3948  3.8299
  662MPD2    N1 9805   1.131   0.430  17.183  0.2037  0.2090 -0.5308
  662MPD2    H7 9806   1.070   0.411  17.261  2.1722 -0.8230  0.7444
  663TMC3    C1 9807   1.229   0.217  17.221  0.2700  0.3143 -0.3908
  663TMC3    C2 9808   1.196   0.224  17.355 -0.4619 -1.1849 -0.2628
  663TMC3    C3 9809   1.219   0.121  17.442  0.2418  0.4280  0.5260
  663TMC3    C4 9810   1.284   0.103  17.171 -0.0025 -0.2327  0.2465
  663TMC3    C5 9811   1.304   4.721  17.261 -0.5996 -0.1809 -0.1295
  663TMC3    C6 9812   1.267   0.005  17.393 -0.7023 -0.0070 -0.6024
  663TMC3     C 9813   1.217   0.333  17.135  0.1886  0.2578 -0.2142
  663TMC3     O 9814   1.271   0.320  17.031 -0.2990 -0.4107 -0.6453
  663TMC3     H 9815   1.195   0.321  17.404  0.0743 -1.5052  0.3937
  663TMC3    H1 9816   1.317   0.093  17.069 -1.5120 -1.7566 -0.0963
  663TMC3    H2 9817   1.317   4.670  17.469 -1.7940 -2.2234 -1.6004
  663TMC3    C7 9818   1.393   4.625  17.217 -0.0421 -0.1474 -0.1753
  663TMC3    C8 9819   1.285   0.152  17.562 -0.2517  0.9614 -0.9822
  663TMC3    O1 9820   1.454   4.644  17.112 -0.3436 -0.0596  0.0913
  663TMC3    O2 9821   1.400   0.108  17.581 -0.2754 -0.5107  0.0719
  664MPD2     C 9822   3.692   4.169  17.217  0.0032 -0.2000 -0.3378
  664MPD2    C1 9823   3.802   4.135  17.289 -0.0373 -0.4125  1.0605
  664MPD2    C2 9824   3.795   4.133  17.419 -0.1131 -0.0873  0.0049
  664MPD2    C3 9825   3.681   4.168  17.479  0.1891  0.6179 -0.4362
  664MPD2    C4 9826   3.574   4.205  17.411  0.0825  0.0030  0.0094
  664MPD2    C5 9827   3.578   4.204  17.277 -0.5816 -0.7311  0.1734
  664MPD2     H 9828   3.884   4.100  17.471 -0.8492 -1.3864  0.4487
  664MPD2    H1 9829   3.480   4.213  17.463 -0.5410  0.5548 -1.1943
  664MPD2    H2 9830   3.683   4.161  17.109  0.9853 -1.2814 -0.3340
  664MPD2    H3 9831   3.487   4.231  17.223  0.0548  1.6802  0.2918
  664MPD2     N 9832   3.664   4.158  17.619 -0.2518  0.7460  0.3741
  664MPD2    H5 9833   3.580   4.197  17.661 -0.3253  0.6047  0.3577
  664MPD2    N1 9834   3.918   4.074  17.235 -0.3824 -0.3568  0.0469
  664MPD2    H7 9835   3.984   4.057  17.310  0.7161  0.2658 -0.7772
  665TMC3    C1 9836   3.735   4.122   0.149 -0.0375 -0.2568 -0.1724
  665TMC3    C2 9837   3.791   4.039   0.248 -0.6949 -0.2008 -0.1232
  665TMC3    C3 9838   3.794   4.078   0.381  0.0941 -0.0142 -0.4621
  665TMC3    C4 9839   3.675   4.239   0.192  0.3507 -0.4083  0.0257
  665TMC3    C5 9840   3.656   4.257   0.329  0.2672  0.0024  1.0729
  665TMC3    C6 9841   3.722   4.181   0.426  0.2057 -0.4069  0.0268
  665TMC3     C 9842   3.759   4.096   0.003 -0.2913 -0.4379 -0.5540
  665TMC3     O 9843   3.837   4.005  17.670 -0.3392 -0.2234 -0.1415
  665TMC3     H 9844   3.834   3.945   0.216  0.0650  0.1987 -0.2906
  665TMC3    H1 9845   3.662   4.317   0.118  0.1917  0.7386  1.2789
  665TMC3    H2 9846   3.697   4.197   0.530  0.7774 -1.6415  0.3495
  665TMC3    C7 9847   3.591   4.380   0.368 -0.6672  0.3439 -0.6705
  665TMC3    C8 9848   3.841   3.989   0.488  0.6917 -0.1886 -0.8088
  665TMC3    O1 9849   3.485   4.413   0.312 -0.0016  0.1278 -0.3755
  665TMC3    O2 9850   3.791   4.007   0.596 -0.6981  0.0509 -0.4534
  666TMC3    C1 9851   3.643   3.263   9.609 -0.5207  0.9258 -0.1249
  666TMC3    C2 9852   3.679   3.230   9.478  0.2813 -0.2506  0.0954
  666TMC3    C3 9853   3.623   3.313   9.383  0.0090  0.6301 -0.3028
  666TMC3    C4 9854   3.563   3.362   9.645 -0.1246  0.2654 -0.0339
  666TMC3    C5 9855   3.509   3.436   9.546 -0.2257 -0.6151  0.5626
  666TMC3    C6 9856   3.533   3.410   9.411 -0.9491  0.4063  0.4456
  666TMC3     C 9857   3.673   3.174   9.717 -0.6310 -0.1897 -0.2428
  666TMC3     O 9858   3.786   3.133   9.733 -0.2083  0.2020  0.4017
  666TMC3     H 9859   3.757   3.158   9.455 -1.4706 -2.1316 -0.0063
  666TMC3    H1 9860   3.552   3.385   9.750  0.1221  1.2234 -0.2249
  666TMC3    H2 9861   3.478   3.464   9.335  1.3646 -0.9552 -2.1879
  666TMC3    C7 9862   3.461   3.564   9.580  0.9567 -0.4826  0.8922
  666TMC3    C8 9863   3.636   3.288   9.244  0.2442 -0.5651  0.6975
  666TMC3    O1 9864   3.427   3.580   9.696 -0.1681 -0.1078  0.0199
  666TMC3    O2 9865   3.537   3.233   9.197  0.0520  0.3997 -0.5775
  667MPD2     C 9866   0.090   4.031  14.179 -0.0363 -0.1945 -0.4080
  667MPD2    C1 9867   4.697   4.028  14.260 -0.0510  0.2339  0.7469
  667MPD2    C2 9868   4.578   3.979  14.214 -0.9496  0.3137  0.0595
  667MPD2    C3 9869   4.579   3.914  14.092 -0.5291 -0.6805 -0.0864
  667MPD2    C4 9870   4.690   3.909  14.014 -0.2203  0.3460  1.0134
  667MPD2    C5 9871   0.076   3.976  14.056 -0.4438  0.0685 -0.2818
  667MPD2     H 9872   4.490   3.988  14.276  0.8495  0.0047  2.6247
  667MPD2    H1 9873   4.687   3.871  13.912  1.2809  1.0757  0.6955
  667MPD2    H2 9874   0.189   4.064  14.208 -0.4076  0.4611  0.1069
  667MPD2    H3 9875   0.157   3.981  13.985 -0.1341  2.9782  0.2937
  667MPD2     N 9876   4.468   3.853  14.024 -0.4632  0.9162 -0.4744
  667MPD2    H5 9877   4.479   3.811  13.933  1.0060  0.7704 -0.2284
  667MPD2    N1 9878   4.693   4.096  14.387  0.8471 -0.1612  0.0669
  667MPD2    H7 9879   4.607   4.097  14.440  0.7898  2.1040 -0.0787
  668TMC3    C1 9880   0.043   4.225  14.565  0.2439  0.1365 -0.0005
  668TMC3    C2 9881   0.111   4.338  14.596 -0.8213 -0.3183  0.5028
  668TMC3    C3 9882   0.085   4.394  14.714  0.3754 -0.0724  0.8683
  668TMC3    C4 9883   4.685   4.157  14.647  0.0438  0.8971  0.1197
  668TMC3    C5 9884   4.663   4.216  14.768  0.1820  0.1787  0.4704
  668TMC3    C6 9885   0.001   4.337  14.803  0.5632  0.1034 -0.3973
  668TMC3     C 9886   0.081   4.158  14.444  0.1586 -0.4333 -0.3982
  668TMC3     O 9887   0.196   4.180  14.408  0.5018  0.4120  0.3053
  668TMC3     H 9888   0.171   4.381  14.516  1.1028  1.2673  2.8020
  668TMC3    H1 9889   4.635   4.065  14.617  1.0617  0.4681 -0.2631
  668TMC3    H2 9890   4.708   4.382  14.900  2.2535  2.2876 -1.1180
  668TMC3    C7 9891   4.638   4.122  14.879  0.4739  0.4195  0.0036
  668TMC3    C8 9892   0.143   4.526  14.739 -0.7745 -0.3000  0.0238
  668TMC3    O1 9893   4.559   4.033  14.853 -0.4078 -0.0325  0.6545
  668TMC3    O2 9894   0.072   4.588  14.814 -0.3355  0.2528 -0.2779
  669TMC3    C1 9895   2.725   3.881  14.543  0.3637 -0.1453 -0.0033
  669TMC3    C2 9896   2.608   3.887  14.472 -0.4023  0.5505  0.7792
  669TMC3    C3 9897   2.603   3.967  14.363  0.2091  0.4177  0.0642
  669TMC3    C4 9898   2.832   3.964  14.511 -0.3996 -0.0639  0.2117
  669TMC3    C5 9899   2.817   4.039  14.397  0.5771  0.3203  0.1057
  669TMC3    C6 9900   2.709   4.039  14.317 -0.9701 -0.2545 -0.3538
  669TMC3     C 9901   2.722   3.772  14.635 -0.3905 -0.4764 -0.2708
  669TMC3     O 9902   2.613   3.730  14.674  0.2355 -0.0828  0.4355
  669TMC3     H 9903   2.527   3.817  14.487 -0.7672  1.6516  4.0156
  669TMC3    H1 9904   2.909   3.986  14.585 -0.4137  1.4620 -0.2309
  669TMC3    H2 9905   2.696   4.092  14.223  1.6665  2.7254  0.9855
  669TMC3    C7 9906   2.942   4.104  14.343 -0.7045  0.0400 -0.0187
  669TMC3    C8 9907   2.490   3.947  14.272  0.1365  0.4475 -0.7911
  669TMC3    O1 9908   3.041   4.095  14.413 -0.3489 -0.2930  0.1792
  669TMC3    O2 9909   2.524   3.931  14.155  0.3995 -0.1312  0.4538
  670MPD2     C 9910   1.158   1.838  13.432 -0.7429 -0.4628  0.2267
  670MPD2    C1 9911   1.226   1.868  13.546 -0.5732  0.6290 -0.3328
  670MPD2    C2 9912   1.184   1.801  13.662 -0.3107  0.5574 -0.8343
  670MPD2    C3 9913   1.085   1.707  13.652  0.7438  0.1005  0.5295
  670MPD2    C4 9914   1.026   1.683  13.534 -0.0948 -0.0610 -0.0856
  670MPD2    C5 9915   1.061   1.746  13.423  0.4493  0.1751 -0.5182
  670MPD2     H 9916   1.241   1.811  13.754 -2.6434  1.9762  0.4662
  670MPD2    H1 9917   0.944   1.613  13.533  0.0271 -0.2185  1.9917
  670MPD2    H2 9918   1.177   1.892  13.340 -0.6317  1.0683  1.1643
  670MPD2    H3 9919   1.015   1.717  13.329 -1.8193  0.3324  0.5528
  670MPD2     N 9920   1.050   1.636  13.770 -0.0638  0.2005 -0.2218
  670MPD2    H5 9921   1.075   1.678  13.859  2.7062 -2.3419  0.1921
  670MPD2    N1 9922   1.346   1.953  13.552  0.5558 -0.7265 -0.3141
  670MPD2    H7 9923   1.390   1.963  13.643  0.8514 -0.1536 -0.5188
  671TMC3    C1 9924   0.931   1.473  13.907 -0.8584 -0.6214  0.5307
  671TMC3    C2 9925   1.016   1.479  14.010 -1.2266  0.6520  1.0499
  671TMC3    C3 9926   1.014   1.378  14.109 -0.4738  0.3460  0.3066
  671TMC3    C4 9927   0.848   1.365  13.898  0.3135 -0.4816 -0.2567
  671TMC3    C5 9928   0.837   1.265  13.996  0.2056 -0.8198 -0.8250
  671TMC3    C6 9929   0.926   1.274  14.103  0.3389  0.4730  0.6442
  671TMC3     C 9930   0.980   1.515  13.770  0.1986  0.7779 -0.2162
  671TMC3     O 9931   0.960   1.432  13.675 -0.7474 -0.3698 -0.1780
  671TMC3     H 9932   1.095   1.554  14.009 -1.7287  1.1468 -1.1207
  671TMC3    H1 9933   0.777   1.363  13.816  0.7205  2.2332 -0.6721
  671TMC3    H2 9934   0.929   1.193  14.175  0.1948 -0.6438 -0.6123
  671TMC3    C7 9935   0.791   1.129  13.964  0.3589  0.6651 -0.3253
  671TMC3    C8 9936   1.125   1.361  14.203  0.5604  0.1977  0.5872
  671TMC3    O1 9937   0.787   1.050  14.054  0.4013  0.2218 -0.3626
  671TMC3    O2 9938   1.137   1.450  14.286  0.1060 -0.2831 -0.1102
  672MPD2     C 9939   1.120   2.042   1.225  0.6787 -0.3133  0.5629
  672MPD2    C1 9940   1.239   1.991   1.175 -0.4341 -0.3757  0.3600
  672MPD2    C2 9941   1.361   2.037   1.221 -0.5021  0.2732 -0.0993
  672MPD2    C3 9942   1.369   2.143   1.312 -0.5421 -0.5775 -0.0283
  672MPD2    C4 9943   1.252   2.204   1.350  0.0581  0.2488  0.0702
  672MPD2    C5 9944   1.126   2.158   1.304 -0.0078  0.7288  0.3368
  672MPD2     H 9945   1.455   1.994   1.186  0.6144  1.2659  1.6616
  672MPD2    H1 9946   1.243   2.287   1.418 -2.4130  0.2969 -0.3014
  672MPD2    H2 9947   1.023   2.000   1.198  0.0864  1.8569 -0.6977
  672MPD2    H3 9948   1.039   2.208   1.346  0.1182  1.9316 -0.8127
  672MPD2     N 9949   1.485   2.191   1.381  0.4452 -0.5417  0.1267
  672MPD2    H5 9950   1.467   2.280   1.426  0.3953 -0.1944 -0.5727
  672MPD2    N1 9951   1.234   1.889   1.070 -0.0602  0.0273  0.3340
  672MPD2    H7 9952   1.321   1.844   1.046 -1.0128 -0.8537 -1.4072
  673TMC3    C1 9953   1.159   1.755   0.889  0.1800  0.6066  0.5272
  673TMC3    C2 9954   1.262   1.665   0.905 -0.1351  0.1327  0.2180
  673TMC3    C3 9955   1.312   1.606   0.791 -0.6627  0.6273 -0.6316
  673TMC3    C4 9956   1.105   1.780   0.771 -0.4356  0.0283  0.2216
  673TMC3    C5 9957   1.153   1.721   0.656 -0.4625  0.0796 -0.2019
  673TMC3    C6 9958   1.257   1.636   0.665 -0.2622  0.5140  0.2158
  673TMC3     C 9959   1.125   1.849   0.993  0.1727 -0.4807  0.6316
  673TMC3     O 9960   1.008   1.893   0.991  0.1315  0.3024 -0.7772
  673TMC3     H 9961   1.302   1.643   1.003  0.3324  2.1495  0.4869
  673TMC3    H1 9962   1.018   1.846   0.769 -0.0340  0.5765  0.9564
  673TMC3    H2 9963   1.299   1.580   0.582 -2.2449 -1.1863  0.3572
  673TMC3    C7 9964   1.167   1.803   0.536  0.5713  0.3193 -0.4141
  673TMC3    C8 9965   1.381   1.480   0.797  0.1985 -0.1855  0.1551
  673TMC3    O1 9966   1.226   1.755   0.440  0.0461 -0.2106  0.3879
  673TMC3    O2 9967   1.358   1.392   0.718 -0.0391  1.2678 -0.5130
  674MPD2     C 9968   1.303   1.288  17.189  0.6568  0.4021  0.1351
  674MPD2    C1 9969   1.342   1.269  17.325  0.0725  0.1495  0.0152
  674MPD2    C2 9970   1.328   1.378  17.408  0.3844 -0.3410 -0.6689
  674MPD2    C3 9971   1.293   1.503  17.358 -0.4689 -0.3816 -0.6283
  674MPD2    C4 9972   1.281   1.526  17.227  0.2802 -0.7092  0.2835
  674MPD2    C5 9973   1.283   1.414  17.141 -0.1932 -0.1101  0.1836
  674MPD2     H 9974   1.356   1.372  17.512 -0.9665  1.6105 -0.1885
  674MPD2    H1 9975   1.263   1.623  17.183 -0.5875 -0.8583  0.3124
  674MPD2    H2 9976   1.300   1.208  17.116 -1.2421 -0.7914  1.5061
  674MPD2    H3 9977   1.261   1.432  17.037  0.7737  0.4997  0.0856
  674MPD2     N 9978   1.282   1.606  17.454 -0.0170  0.0368  0.1650
  674MPD2    H5 9979   1.295   1.571  17.548 -0.2818  0.9049  0.5213
  674MPD2    N1 9980   1.372   1.141  17.369 -0.0425  1.0392  0.0934
  674MPD2    H7 9981   1.353   1.062  17.308  4.6743  0.2719 -0.3108
  675TMC3    C1 9982   1.415   0.977  17.536  0.4006  0.2585  0.1260
  675TMC3    C2 9983   1.295   0.915  17.503 -0.5640 -0.6039 -0.7137
  675TMC3    C3 9984   1.258   0.799  17.562  0.3176 -0.0156  0.0823
  675TMC3    C4 9985   1.488   0.937  17.649  0.2703 -0.0167 -0.2989
  675TMC3    C5 9986   1.449   0.820   0.018  0.8112 -0.4025  0.1338
  675TMC3    C6 9987   1.337   0.749  17.665 -0.3243 -0.4074  0.1464
  675TMC3     C 9988   1.431   1.114  17.491 -0.4494  0.2176 -0.3697
  675TMC3     O 9989   1.512   1.185  17.550  0.1082  0.3949  0.2744
  675TMC3     H 9990   1.215   0.955  17.441 -0.5242 -1.5343 -1.3677
  675TMC3    H1 9991   1.563   1.002  17.692 -1.4397  0.9561  1.2202
  675TMC3    H2 9992   1.321   0.648   0.002 -1.0128 -0.2159  0.3846
  675TMC3    C7 9993   1.442   0.838   0.156 -0.8863  0.2077  0.3453
  675TMC3    C8 9994   1.120   0.801  17.603  0.0382  0.2443  0.2251
  675TMC3    O1 9995   1.340   0.793   0.209 -0.4625  0.2972 -0.7128
  675TMC3    O2 9996   1.038   0.745  17.529 -0.1125  0.3197 -0.2040
  676MPD2     C 9997   4.099   0.416  10.556 -0.1519  0.0512 -0.8216
  676MPD2    C1 9998   4.015   0.372  10.660  0.5438  0.5372  0.2390
  676MPD2    C2 9999   4.001   0.241  10.690 -0.1026  0.5144 -0.4748
  676MPD2    C310000   4.075   0.147  10.623 -0.1048  0.6847  0.1080
  676MPD2    C410001   4.155   0.191  10.520  0.0853 -0.3571  0.9319
  676MPD2    C510002   4.174   0.322  10.490  0.3069 -0.1366 -0.2962
  676MPD2     H10003   3.939   0.206  10.772 -0.1559 -0.2636 -0.8462
  676MPD2    H110004   4.211   0.126  10.453  0.8932 -0.7335  1.9676
  676MPD2    H210005   4.114   0.519  10.528 -1.1281  0.3447 -0.2908
  676MPD2    H310006   4.247   0.353  10.416  0.1891  0.1535 -0.2907
  676MPD2     N10007   4.076   0.009  10.649  0.4067  0.2405 -0.2383
  676MPD2    H510008   4.122   4.670  10.584  0.8787  1.4566 -1.0912
  676MPD2    N110009   3.933   0.463  10.731  0.4168 -0.4794 -0.1820
  676MPD2    H710010   3.866   0.422  10.795  0.0996 -1.7921 -1.3599
  677TMC3    C110011   3.846   0.664  10.815 -0.2954  0.0674 -0.0773
  677TMC3    C210012   3.730   0.588  10.821  0.0799 -0.2632 -0.1118
  677TMC3    C310013   3.662   0.602  10.938  0.5229 -0.2004  0.6688
  677TMC3    C410014   3.882   0.759  10.918  0.4146 -0.0760  0.1269
  677TMC3    C510015   3.810   0.769  11.036  0.1026 -0.6179 -0.1047
  677TMC3    C610016   3.695   0.694  11.039 -0.1458 -0.2550  0.0670
  677TMC3     C10017   3.954   0.596  10.739 -0.9156  0.0649 -0.1265
  677TMC3     O10018   4.039   0.672  10.689  0.1608 -0.3041  0.4917
  677TMC3     H10019   3.695   0.530  10.737 -1.7118  0.3224  0.2329
  677TMC3    H110020   3.983   0.798  10.910  0.4392 -0.2397 -0.3307
  677TMC3    H210021   3.630   0.703  11.126 -0.4705 -0.2589 -0.1730
  677TMC3    C710022   3.850   0.843  11.152 -0.2696  0.3032  0.2389
  677TMC3    C810023   3.545   0.515  10.953  0.6797  0.2869 -0.1813
  677TMC3    O110024   3.768   0.845  11.239 -0.3718 -0.1699 -0.3251
  677TMC3    O210025   3.476   0.517  10.852 -0.4674  0.5337 -0.0421
  678MPD2     C10026   0.195   0.114   1.581  0.0652  0.7757  0.1304
  678MPD2    C110027   0.237   0.086   1.451 -0.2338  0.3858  0.3623
  678MPD2    C210028   0.143   0.045   1.360  0.0687 -0.1705 -1.1358
  678MPD2    C310029   0.005   0.054   1.389 -0.0558  0.6423  0.8600
  678MPD2    C410030   4.690   0.092   1.513  0.7870  0.0440  0.4173
  678MPD2    C510031   0.063   0.119   1.610 -0.3051 -0.1982 -0.0545
  678MPD2     H10032   0.167   0.019   1.258  3.2014  0.0030 -0.4449
  678MPD2    H110033   4.585   0.101   1.534  0.3963  0.6739 -1.8057
  678MPD2    H210034   0.260   0.138   1.664 -1.5023  0.0144  1.5767
  678MPD2    H310035   0.028   0.137   1.711 -0.2007 -0.0849 -0.0389
  678MPD2     N10036   4.645   0.037   1.280 -0.0511 -0.0547  0.0054
  678MPD2    H510037   4.692   0.025   1.191 -2.5333  0.0150 -1.3221
  678MPD2    N110038   0.370   0.088   1.407 -0.2969  0.3948  0.4755
  678MPD2    H710039   0.391   0.050   1.315  0.5212  1.4773  0.2136
  679TMC3    C110040   0.759   0.010   1.317  0.5056 -1.1452 -0.0774
  679TMC3    C210041   0.628   0.024   1.364 -0.1443 -0.4045  0.1979
  679TMC3    C310042   0.601   0.147   1.418 -0.1232  0.0366 -0.5357
  679TMC3    C410043   0.845   0.122   1.320 -0.5724  0.0537 -0.3547
  679TMC3    C510044   0.799   0.250   1.357 -0.4827  0.0592  0.0905
  679TMC3    C610045   0.678   0.259   1.416 -0.0060 -0.2696  0.4009
  679TMC3     C10046   0.806   4.617   1.242 -0.3151 -0.2911  0.4069
  679TMC3     O10047   0.927   4.620   1.212 -0.5169  0.4368 -0.0935
  679TMC3     H10048   0.560   4.664   1.372 -0.4632 -0.3065 -1.5729
  679TMC3    H110049   0.931   0.114   1.255 -0.4786  0.0671 -0.2314
  679TMC3    H210050   0.636   0.350   1.457  0.8456  0.7414 -0.9554
  679TMC3    C710051   0.855   0.355   1.270 -0.4345  1.0226  0.4025
  679TMC3    C810052   0.468   0.161   1.472  0.2497 -0.0980  0.4159
  679TMC3    O110053   0.771   0.419   1.210  0.3080  0.3423  0.6913
  679TMC3    O210054   0.455   0.250   1.555 -0.3223  0.0044  0.3987
  680MPD2     C10055   0.729   3.745  13.758  0.7942 -0.0047 -0.3639
  680MPD2    C110056   0.832   3.687  13.826 -0.4290 -0.3695  0.0365
  680MPD2    C210057   0.942   3.760  13.862  0.0712 -0.0445  0.3453
  680MPD2    C310058   0.951   3.891  13.822  0.6140 -0.0281  1.1306
  680MPD2    C410059   0.846   3.941  13.748 -0.5317 -0.1291  0.3188
  680MPD2    C510060   0.734   3.870  13.715  0.3052 -0.4130 -0.3849
  680MPD2     H10061   1.032   3.724  13.910 -0.0041 -0.8635 -0.1278
  680MPD2    H110062   0.841   4.044  13.714  0.1839 -0.0097  0.5851
  680MPD2    H210063   0.638   3.690  13.737  0.9261 -0.2167 -0.3801
  680MPD2    H310064   0.646   3.912  13.666 -0.1874 -2.5130 -1.3103
  680MPD2     N10065   1.057   3.980  13.856  0.1619  0.0364  0.2955
  680MPD2    H510066   1.045   4.069  13.809 -0.8553 -0.1171  0.2704
  680MPD2    N110067   0.834   3.545  13.858 -0.7446  0.3612 -0.6976
  680MPD2    H710068   0.915   3.510  13.909 -0.2643  1.2990 -0.8164
  681TMC3    C110069   0.785   3.330  13.870  0.2684 -0.3408  0.2210
  681TMC3    C210070   0.759   3.284  13.997  0.3186  0.6627  0.2373
  681TMC3    C310071   0.861   3.256  14.080  0.3734  0.1725 -0.7361
  681TMC3    C410072   0.914   3.317  13.826  0.3044 -0.4079 -0.6052
  681TMC3    C510073   1.014   3.261  13.904  0.0802  0.4818 -0.5859
  681TMC3    C610074   0.996   3.235  14.041 -0.5240  0.1930 -0.6271
  681TMC3     C10075   0.732   3.456  13.847  0.5879  0.6565 -0.8630
  681TMC3     O10076   0.607   3.474  13.843 -0.6217  0.1377 -0.3255
  681TMC3     H10077   0.660   3.299  14.040  0.0536 -3.9183  1.1805
  681TMC3    H110078   0.930   3.340  13.722 -0.4553 -0.2385 -0.6881
  681TMC3    H210079   1.073   3.188  14.099  0.2783  1.9006 -0.3137
  681TMC3    C710080   1.155   3.269  13.854  0.1133  0.2935  0.3305
  681TMC3    C810081   0.833   3.279  14.217 -0.7962 -0.0164  0.3242
  681TMC3    O110082   1.243   3.247  13.938 -0.2595  0.4616  0.4071
  681TMC3    O210083   0.716   3.287  14.259  0.0503  0.3957  0.2409
  682MPD2     C10084   3.177   4.714  10.239  0.1117 -0.0752  0.0222
  682MPD2    C110085   3.090   4.614  10.261 -0.3108 -0.5107  0.4600
  682MPD2    C210086   3.019   4.614  10.379  0.3131  0.4182 -0.1257
  682MPD2    C310087   3.031   4.721  10.464  0.3375 -0.6639  0.3870
  682MPD2    C410088   3.128   0.094  10.439  0.9040 -0.5299 -0.8817
  682MPD2    C510089   3.204   0.097  10.323  0.4577 -0.4210 -0.8484
  682MPD2     H10090   2.959   4.528  10.408  2.1782 -0.2492  1.7408
  682MPD2    H110091   3.135   0.170  10.515 -0.4442 -0.7996 -0.4938
  682MPD2    H210092   3.239   4.722  10.151  0.3716 -0.2449  0.1889
  682MPD2    H310093   3.289   0.164  10.311 -0.3145  0.4528 -1.4790
  682MPD2     N10094   2.960   0.018  10.585 -0.8081  0.4270  0.3335
  682MPD2    H510095   2.974   0.107  10.633 -0.5577  1.5540 -1.8147
  682MPD2    N110096   3.069   4.511  10.167 -0.4200  0.0945  0.0131
  682MPD2    H710097   3.008   4.444  10.212 -2.3364  1.4780 -0.5207
  683TMC3    C110098   2.752   0.098  10.933  0.6142  0.3362 -0.9455
  683TMC3    C210099   2.636   0.036  10.967  0.5863  0.0396 -0.8243
  683TMC3    C310100   2.589   4.672  10.873 -0.0432 -0.1292  0.4875
  683TMC3    C410101   2.831   0.059  10.826  0.3168 -0.7460  0.0368
  683TMC3    C510102   2.782   4.690  10.739  0.1802  0.1179 -0.2473
  683TMC3    C610103   2.662   4.626  10.764 -0.0774 -0.6939  0.4042
  683TMC3     C10104   2.826   0.133  11.051  0.6672  0.4742 -0.6642
  683TMC3     O10105   2.931   0.185  11.019  0.6332 -0.3821  0.8036
  683TMC3     H10106   2.560   0.080  11.030 -0.2515 -0.1974 -1.6689
  683TMC3    H110107   2.933   0.093  10.812  0.2621 -0.7914 -0.4698
  683TMC3    H210108   2.627   4.538  10.711 -1.2755  0.5714 -0.9019
  683TMC3    C710109   2.852   4.662  10.623 -0.2335 -0.1818 -0.2213
  683TMC3    C810110   2.528   4.559  10.935 -0.1128  0.5432 -0.2054
  683TMC3    O110111   2.798   4.565  10.574  0.5295 -0.1552  0.5125
  683TMC3    O210112   2.422   4.577  10.991 -0.1490 -0.0209  0.3147
  684MPD2     C10113   1.439   4.300  16.414 -0.1120 -0.0383  0.6561
  684MPD2    C110114   1.495   4.400  16.343  0.3948 -0.6190 -0.7119
  684MPD2    C210115   1.438   4.528  16.338 -0.0733  0.1709  0.2096
  684MPD2    C310116   1.334   4.558  16.432 -0.0253 -0.2295 -0.1408
  684MPD2    C410117   1.292   4.457  16.523  0.1927 -0.3494 -0.6530
  684MPD2    C510118   1.338   4.330  16.500  0.5599 -0.2082 -0.1464
  684MPD2     H10119   1.483   4.607  16.279 -0.2435  0.2985  0.2485
  684MPD2    H110120   1.208   4.469  16.590  0.0032 -0.6864 -0.8322
  684MPD2    H210121   1.470   4.196  16.406 -0.8097 -0.1103 -1.0452
  684MPD2    H310122   1.306   4.252  16.568 -0.3948  0.0193 -0.3416
  684MPD2     N10123   1.265   4.678  16.419  0.0770 -0.9569 -0.0194
  684MPD2    H510124   1.204   4.699  16.497  1.4455  0.7782  0.5740
  684MPD2    N110125   1.609   4.383  16.256 -0.1428  0.4457 -0.4390
  684MPD2    H710126   1.637   4.457  16.191  3.1050 -0.5672 -0.1943
  685TMC3    C110127   1.782   4.283  16.136  0.0929 -0.2211  0.2224
  685TMC3    C210128   1.714   4.304  16.019 -0.7216  0.1782  0.5199
  685TMC3    C310129   1.781   4.254  15.914  0.1579  0.0700  0.0579
  685TMC3    C410130   1.888   4.203  16.157 -0.7603  0.0590 -0.2273
  685TMC3    C510131   1.960   4.182  16.049 -0.1703  0.3242 -0.3161
  685TMC3    C610132   1.907   4.200  15.925 -1.0673 -0.2790 -0.5562
  685TMC3     C10133   1.688   4.273  16.244  0.6972  0.4610  0.0572
  685TMC3     O10134   1.702   4.180  16.319  0.0563 -0.3094  0.1031
  685TMC3     H10135   1.623   4.361  16.007 -1.5862 -1.8800 -2.4640
  685TMC3    H110136   1.927   4.189  16.257  0.7886  0.0304 -0.8300
  685TMC3    H210137   1.946   4.141  15.842 -0.1167  2.4821 -2.0426
  685TMC3    C710138   2.081   4.100  16.072  0.4256 -0.5586 -0.0113
  685TMC3    C810139   1.700   4.228  15.798 -0.1394 -0.5469 -0.7381
  685TMC3    O110140   2.093   4.055  16.184 -0.0876 -0.0704 -0.4945
  685TMC3    O210141   1.759   4.216  15.693 -0.2708  0.2688 -0.9831
  686MPD2     C10142   2.970   3.512  15.408 -0.3172  1.1679  0.6695
  686MPD2    C110143   2.980   3.578  15.525  0.3221 -0.5995 -0.7655
  686MPD2    C210144   3.066   3.524  15.617  0.0141 -0.1188 -0.2203
  686MPD2    C310145   3.131   3.406  15.595 -0.1467  0.0941 -0.0988
  686MPD2    C410146   3.122   3.348  15.476  0.3627 -0.2205 -0.0915
  686MPD2    C510147   3.043   3.402  15.383 -0.0477 -0.0346 -0.1611
  686MPD2     H10148   3.070   3.568  15.716 -2.2901 -1.4786  0.4892
  686MPD2    H110149   3.166   3.249  15.463  0.0630 -0.2549 -0.8160
  686MPD2    H210150   2.910   3.545  15.324  0.6143 -3.1219 -1.6586
  686MPD2    H310151   3.033   3.343  15.293 -2.0187 -1.3789  0.9350
  686MPD2     N10152   3.206   3.335  15.690 -0.3952  1.1970  0.6013
  686MPD2    H510153   3.271   3.265  15.656 -0.2756  1.8108 -0.4430
  686MPD2    N110154   2.899   3.692  15.549  0.1456  0.0094 -0.2804
  686MPD2    H710155   2.842   3.736  15.477  1.6676 -1.5635 -2.4323
  687TMC3    C110156   3.090   3.405  15.901  0.1949 -0.2232 -0.1414
  687TMC3    C210157   2.967   3.369  15.862 -0.2903  0.7105 -0.3077
  687TMC3    C310158   2.865   3.396  15.948 -0.3560  0.4897 -0.8910
  687TMC3    C410159   3.119   3.444  16.031  0.3936  0.6390  0.7568
  687TMC3    C510160   3.014   3.459  16.116 -1.0243  0.3276  0.0486
  687TMC3    C610161   2.888   3.435  16.075 -0.0161 -0.4421  0.2694
  687TMC3     C10162   3.203   3.350  15.828  0.2368 -0.1825  1.1883
  687TMC3     O10163   3.285   3.305  15.906  0.3569 -0.6954  0.6258
  687TMC3     H10164   2.948   3.305  15.777  0.2156 -0.1557  0.2278
  687TMC3    H110165   3.218   3.480  16.059  0.8107  1.9596 -2.4009
  687TMC3    H210166   2.814   3.446  16.154 -1.0847  0.9237 -0.9148
  687TMC3    C710167   3.033   3.587  16.186 -0.6752 -1.0264 -0.5948
  687TMC3    C810168   2.730   3.397  15.902 -0.5615 -0.3413  0.1644
  687TMC3    O110169   2.964   3.681  16.146 -0.5307 -0.4452 -0.1539
  687TMC3    O210170   2.649   3.384  15.994 -0.4172  0.2910 -0.4266
  688MPD2     C10171   2.053   2.976  17.337  0.3161 -0.6272 -0.2866
  688MPD2    C110172   2.045   2.850  17.390 -0.2890 -0.1030 -0.5972
  688MPD2    C210173   2.147   2.758  17.375 -0.3051 -0.1392 -0.1413
  688MPD2    C310174   2.254   2.789  17.291 -0.6529  0.7804 -0.6642
  688MPD2    C410175   2.258   2.913  17.230 -0.3470  0.0397 -0.4091
  688MPD2    C510176   2.158   3.000  17.254  0.1161 -0.0079 -0.3030
  688MPD2     H10177   2.141   2.665  17.431  2.3993 -0.7430 -0.8616
  688MPD2    H110178   2.333   2.933  17.155  1.5274 -2.3540  0.8317
  688MPD2    H210179   1.968   3.043  17.337  1.2603  0.5897 -4.5476
  688MPD2    H310180   2.162   3.090  17.193 -0.7262 -0.8624 -1.6459
  688MPD2     N10181   2.361   2.705  17.268  0.0803 -0.0622  0.1874
  688MPD2    H510182   2.435   2.730  17.204 -1.1113 -2.3455 -2.0610
  688MPD2    N110183   1.945   2.807  17.474  0.3457 -0.2182  0.6128
  688MPD2    H710184   1.960   2.716  17.518 -0.9505 -0.4501  0.6052
  689TMC3    C110185   1.753   2.823  17.629  0.1462 -0.2230 -0.2230
  689TMC3    C210186   1.708   2.908   0.031 -0.3428 -0.6588  0.6367
  689TMC3    C310187   1.642   2.856   0.136 -0.4320  1.3057  0.2093
  689TMC3    C410188   1.693   2.700  17.613 -0.1622 -0.1267 -0.1329
  689TMC3    C510189   1.613   2.657   0.024  0.1563  0.1730  0.3709
  689TMC3    C610190   1.600   2.726   0.142 -0.3689 -0.2669 -0.4486
  689TMC3     C10191   1.834   2.884  17.514 -0.6113  0.1585  0.2353
  689TMC3     O10192   1.806   2.995  17.479  0.4683  0.0712  0.0086
  689TMC3     H10193   1.722   3.016   0.025  0.6757 -0.9463 -1.9571
  689TMC3    H110194   1.737   2.645  17.531  1.6073 -0.1499  0.8396
  689TMC3    H210195   1.547   2.675   0.221 -0.0122 -2.7626 -1.8261
  689TMC3    C710196   1.602   2.511   0.021 -0.2009 -0.6330 -0.1165
  689TMC3    C810197   1.660   2.921   0.269 -0.6440  0.4285 -0.2475
  689TMC3    O110198   1.642   2.449   0.120  0.2990 -0.0967  0.2629
  689TMC3    O210199   1.609   2.859   0.360  0.5708  0.6280 -0.0802
  690MPD2     C10200   4.594   4.483  15.913  1.0209  0.1197  0.3925
  690MPD2    C110201   4.498   4.548  15.840 -0.2897  0.8667  0.4189
  690MPD2    C210202   4.522   4.673  15.783  0.3889  0.1871  0.2850
  690MPD2    C310203   4.648   0.012  15.796  0.1472 -0.4489  0.6795
  690MPD2    C410204   0.011   4.676  15.880  0.2603  0.5635  0.1075
  690MPD2    C510205   4.713   4.550  15.923  0.3331 -0.1489 -0.0378
  690MPD2     H10206   4.445   4.723  15.725 -0.1431 -1.6682 -0.6055
  690MPD2    H110207   0.104   4.719  15.915 -0.4077  1.3488  0.9333
  690MPD2    H210208   4.563   4.397  15.971  1.1448 -1.7216 -2.2564
  690MPD2    H310209   0.053   4.513  16.002  1.0135 -0.9568 -0.9670
  690MPD2     N10210   4.668   0.138  15.739 -0.1601 -0.2124  0.1485
  690MPD2    H510211   4.590   0.180  15.690 -0.9955 -0.6572  1.0879
  690MPD2    N110212   4.370   4.492  15.814  0.2353  0.1394  0.3614
  690MPD2    H710213   4.308   4.530  15.743 -1.6032 -0.3069  1.7108
  691TMC3    C110214   4.164   4.379  15.857 -0.3071  0.1698  0.5940
  691TMC3    C210215   4.068   4.349  15.952  0.1582  0.1179 -0.3698
  691TMC3    C310216   3.941   4.365  15.909  0.8421  0.7798 -0.7761
  691TMC3    C410217   4.135   4.401  15.726 -0.8928 -0.1183  0.8839
  691TMC3    C510218   4.001   4.403  15.681 -0.5597  0.2002 -0.0123
  691TMC3    C610219   3.901   4.394  15.782 -0.1084 -0.0279 -0.5901
  691TMC3     C10220   4.307   4.398  15.890 -0.6474  0.1145 -0.4480
  691TMC3     O10221   4.342   4.345  15.991 -0.5214 -0.5589 -0.0521
  691TMC3     H10222   4.092   4.312  16.050  1.9433 -0.2781 -0.9660
  691TMC3    H110223   4.217   4.390  15.656 -0.0223  0.2159  1.8439
  691TMC3    H210224   3.795   4.391  15.764 -0.1279  1.3418 -0.7022
  691TMC3    C710225   3.983   4.319  15.562  0.1100  0.0844  0.9029
  691TMC3    C810226   3.837   4.337  16.007 -0.5589  1.0644 -0.4215
  691TMC3    O110227   4.072   4.318  15.480 -0.1851  0.3846 -0.1645
  691TMC3    O210228   3.847   4.248  16.092 -0.7165 -0.1596  0.1476
  692TMC3    C110229   1.045   1.197  15.684 -0.3502  0.7776 -0.4586
  692TMC3    C210230   1.173   1.251  15.664  0.1663  0.1847  0.4328
  692TMC3    C310231   1.278   1.186  15.709 -0.5257 -0.3144 -0.1707
  692TMC3    C410232   1.025   1.059  15.713  0.4414  0.1898  0.2178
  692TMC3    C510233   1.145   0.992  15.741  0.1011 -0.8390  0.0793
  692TMC3    C610234   1.264   1.055  15.753  0.1433 -0.0037  0.2425
  692TMC3     C10235   0.957   1.277  15.771  0.4305  0.1768  0.2530
  692TMC3     O10236   0.877   1.204  15.830  0.5473  0.6073 -0.3264
  692TMC3     H10237   1.177   1.359  15.654  1.7096  0.0466 -0.5384
  692TMC3    H110238   0.930   1.007  15.715  0.3589  0.3057 -0.4970
  692TMC3    H210239   1.355   1.000  15.776  0.1732  0.2870  0.7962
  692TMC3    C710240   1.142   0.868  15.818 -0.0492 -0.3398  0.7033
  692TMC3    C810241   1.340   1.265  15.809 -0.2188  0.5760 -0.6649
  692TMC3    O110242   1.243   0.840  15.881 -0.2446  0.0049 -0.2217
  692TMC3    O210243   1.375   1.384  15.788 -0.0825  0.0038 -0.2969
  693MPD2     C10244   0.683   4.082  11.357  0.1373  0.2513 -0.2010
  693MPD2    C110245   0.592   4.037  11.261  0.0621 -0.8897  0.2889
  693MPD2    C210246   0.640   4.035  11.127 -0.0934 -0.5406  0.2526
  693MPD2    C310247   0.770   4.068  11.100  0.6667  0.7646  0.2445
  693MPD2    C410248   0.853   4.117  11.198  0.2521 -0.5277 -0.5042
  693MPD2    C510249   0.802   4.135  11.327 -0.6543 -0.0806  0.0908
  693MPD2     H10250   0.583   3.980  11.053 -1.8132  0.4213  0.8551
  693MPD2    H110251   0.955   4.147  11.179 -0.9431  0.8198 -4.6756
  693MPD2    H210252   0.644   4.100  11.457  0.6249  0.2417 -0.0065
  693MPD2    H310253   0.868   4.156  11.411  1.1683 -1.6991 -0.9697
  693MPD2     N10254   0.827   4.046  10.970  0.3354 -0.8430  0.1964
  693MPD2    H510255   0.927   4.057  10.962 -0.0423  1.5442 -1.2800
  693MPD2    N110256   0.465   4.002  11.299 -0.4292  0.3542  0.3092
  693MPD2    H710257   0.448   3.988  11.398 -1.1536 -0.0237  0.1358
  694TMC3    C110258   0.251   3.909  11.243 -0.1330 -0.1072 -0.4263
  694TMC3    C210259   0.157   3.887  11.141 -0.1011 -0.0870 -0.0096
  694TMC3    C310260   0.092   3.771  11.143 -0.3904 -0.3051  0.5410
  694TMC3    C410261   0.269   3.823  11.344 -0.4384 -0.3813  0.1757
  694TMC3    C510262   0.177   3.720  11.355 -0.3901 -0.5366 -0.0186
  694TMC3    C610263   0.092   3.692  11.253  0.3491 -0.0087 -0.4720
  694TMC3     C10264   0.367   3.992  11.204  0.0653  0.1982 -0.1993
  694TMC3     O10265   0.372   4.037  11.090  0.3902 -0.0029 -0.2369
  694TMC3     H10266   0.149   3.963  11.064 -2.7040 -1.5017 -1.1217
  694TMC3    H110267   0.341   3.840  11.423 -2.3130  0.9120  1.5925
  694TMC3    H210268   0.026   3.607  11.267  2.2566 -1.0135  2.6002
  694TMC3    C710269   0.177   3.643  11.480 -0.2728  0.1281  0.4893
  694TMC3    C810270   0.031   3.716  11.022 -0.1321 -0.1863 -0.5021
  694TMC3    O110271   0.287   3.620  11.529  0.7452 -0.4432  0.7195
  694TMC3    O210272   4.684   3.619  11.029  0.9662  0.3855 -0.2990
  695MPD2     C10273   1.594   0.715  13.276 -0.3193  1.1391 -0.1631
  695MPD2    C110274   1.515   0.748  13.378  0.8652 -0.7707  0.2796
  695MPD2    C210275   1.389   0.799  13.349  0.7670  0.5847  0.3766
  695MPD2    C310276   1.345   0.821  13.221 -0.3578  0.3770  0.0826
  695MPD2    C410277   1.420   0.775  13.116  0.5686  0.0984  1.0126
  695MPD2    C510278   1.548   0.728  13.145  0.1217 -0.1052  0.0440
  695MPD2     H10279   1.320   0.829  13.427 -1.4997  1.4880 -1.9684
  695MPD2    H110280   1.398   0.781  13.010  1.2551 -0.1897  0.8533
  695MPD2    H210281   1.695   0.679  13.292  0.5111  2.9855 -1.2053
  695MPD2    H310282   1.613   0.709  13.060 -0.1478 -0.0853 -0.1673
  695MPD2     N10283   1.218   0.881  13.209 -0.1767 -0.0678  0.1546
  695MPD2    H510284   1.161   0.897  13.291 -1.2831  1.8700 -0.9893
  695MPD2    N110285   1.549   0.726  13.508 -0.3810 -0.1489 -0.2740
  695MPD2    H710286   1.467   0.728  13.568  0.1656  1.4794  0.4125
  696TMC3    C110287   1.047   1.001  13.110  0.1752 -0.1488  0.7033
  696TMC3    C210288   0.965   0.939  13.198 -0.0935  0.9025  0.3197
  696TMC3    C310289   0.849   1.008  13.239  0.1119 -0.4397 -0.5370
  696TMC3    C410290   1.027   1.132  13.051 -0.2748  0.3986  0.1499
  696TMC3    C510291   0.912   1.199  13.097  0.2070 -0.4817 -0.5069
  696TMC3    C610292   0.820   1.134  13.182  0.0237  0.1229  0.6780
  696TMC3     C10293   1.179   0.945  13.096  0.9986  0.1951 -0.0260
  696TMC3     O10294   1.249   0.972  13.001  0.3981  0.6650 -0.2058
  696TMC3     H10295   0.990   0.840  13.236  2.7115  1.9555  1.2690
  696TMC3    H110296   1.101   1.186  12.993 -0.2759 -0.4357 -0.6308
  696TMC3    H210297   0.730   1.181  13.221 -0.9709 -1.1064 -0.1473
  696TMC3    C710298   0.910   1.343  13.089 -0.2332 -0.0951  0.5735
  696TMC3    C810299   0.757   0.968  13.340 -0.4186  0.7908 -0.1300
  696TMC3    O110300   0.970   1.405  13.004  0.0242  0.0057  0.3171
  696TMC3    O210301   0.652   1.032  13.358 -0.5137  0.5351 -0.4439
  697MPD2     C10302   1.016   2.810  15.770  0.1437  0.5189 -0.6112
  697MPD2    C110303   0.931   2.788  15.664 -0.3202  0.0481 -1.0812
  697MPD2    C210304   0.920   2.888  15.573 -0.4482  0.2637 -0.0675
  697MPD2    C310305   0.965   3.020  15.589  0.2732 -0.1639  1.4196
  697MPD2    C410306   1.037   3.049  15.709 -0.4625  0.5363 -0.2997
  697MPD2    C510307   1.056   2.944  15.795  0.2876 -0.2940  0.5637
  697MPD2     H10308   0.844   2.877  15.497  0.0982 -0.1244 -0.5500
  697MPD2    H110309   1.061   3.148  15.745 -1.5626  1.4057 -1.9657
  697MPD2    H210310   1.045   2.734  15.842 -0.6932 -0.1748 -1.0055
  697MPD2    H310311   1.128   2.955  15.876 -0.6238  3.7860  0.8344
  697MPD2     N10312   0.926   3.124  15.494 -0.1014 -0.4486 -0.0347
  697MPD2    H510313   0.890   3.089  15.406  0.9457 -1.0277 -0.2454
  697MPD2    N110314   0.877   2.663  15.638  0.3702 -0.0345  0.2700
  697MPD2    H710315   0.839   2.655  15.544  0.8871 -1.8927  0.2158
  698TMC3    C110316   0.911   3.343  15.400  0.0889  0.5754 -0.0631
  698TMC3    C210317   0.877   3.475  15.420  0.1585 -0.5094  0.2429
  698TMC3    C310318   0.868   3.561  15.312 -0.2786 -0.0967 -0.6059
  698TMC3    C410319   0.931   3.283  15.273  0.0712 -0.1677 -0.3170
  698TMC3    C510320   0.925   3.377  15.172 -0.1377 -0.3887 -0.0999
  698TMC3    C610321   0.896   3.514  15.188  0.5092 -0.1024  0.3203
  698TMC3     C10322   0.926   3.261  15.517  0.1968  0.1142  0.0776
  698TMC3     O10323   0.939   3.316  15.626 -0.3858 -0.2147 -0.0034
  698TMC3     H10324   0.872   3.523  15.518 -1.6915  1.5012 -0.8349
  698TMC3    H110325   0.959   3.180  15.253 -1.0661 -0.7900  1.2349
  698TMC3    H210326   0.891   3.571  15.096  1.1088 -0.8077 -0.1464
  698TMC3    C710327   0.916   3.320  15.043  0.2716  0.8389  0.1137
  698TMC3    C810328   0.888   3.704  15.344 -0.5669 -0.5305  0.3198
  698TMC3    O110329   0.799   3.316  15.005 -0.4876  0.3641  0.1173
  698TMC3    O210330   0.846   3.745  15.449  0.1466  1.0129  0.0001
  699TMC3    C110331   1.139   0.686  12.808 -0.3917  0.4319  0.0161
  699TMC3    C210332   1.143   0.586  12.900  0.2014 -0.1466 -0.2382
  699TMC3    C310333   1.040   0.570  12.991 -0.2453 -0.0117 -0.0129
  699TMC3    C410334   1.027   0.764  12.789  1.0251  0.1147 -0.1277
  699TMC3    C510335   0.932   0.753  12.887 -0.3450 -0.3186  0.9684
  699TMC3    C610336   0.932   0.649  12.983  0.3571  0.5804  0.6509
  699TMC3     C10337   1.250   0.714  12.723  0.2409 -0.1191 -0.5574
  699TMC3     O10338   1.356   0.659  12.742  0.4493  0.6485  0.3881
  699TMC3     H10339   1.231   0.524  12.907  0.5981  0.6660  2.0675
  699TMC3    H110340   1.018   0.851  12.726 -0.2037  0.1651  0.1201
  699TMC3    H210341   0.853   0.636  13.055  0.2406 -0.3560  0.3545
  699TMC3    C710342   0.810   0.836  12.890 -0.3765 -0.1907 -0.5134
  699TMC3    C810343   1.012   0.440  13.062 -0.5472 -0.0970 -0.8247
  699TMC3    O110344   0.734   0.821  12.987  0.2514  0.2405  0.3519
  699TMC3    O210345   0.924   0.444  13.142  0.7792 -0.4726 -0.2893
  700TMC3    C110346   4.433   3.438  16.748 -0.1819  0.4981 -0.0280
  700TMC3    C210347   4.445   3.311  16.796 -0.3216 -0.2858 -0.2897
  700TMC3    C310348   4.509   3.283  16.910 -0.1318  1.2286  0.0293
  700TMC3    C410349   4.477   3.549  16.818 -0.6232 -0.2637 -0.8049
  700TMC3    C510350   4.531   3.521  16.938  0.9922 -0.3298  0.6311
  700TMC3    C610351   4.555   3.392  16.987  0.2139  0.0843 -0.2868
  700TMC3     C10352   4.464   3.462  16.604 -1.2176 -0.4994  0.2524
  700TMC3     O10353   4.391   3.430  16.516  0.3485  0.7437 -0.2233
  700TMC3     H10354   4.426   3.228  16.729  0.1591  0.6250 -1.5580
  700TMC3    H110355   4.440   3.649  16.801  0.2196  0.2298  0.2890
  700TMC3    H210356   4.601   3.390  17.085 -0.5615  1.7489  0.1024
  700TMC3    C710357   4.630   3.621  16.988  0.1244  0.7820 -0.5611
  700TMC3    C810358   4.572   3.157  16.923  1.0609 -0.3761 -0.0531
  700TMC3    O110359   4.642   3.611  17.107 -0.4886  0.0882  0.1808
  700TMC3    O210360   4.683   3.150  16.971 -0.6097  0.0882 -0.3057
  701TMC3    C110361   0.180   1.837  15.504 -0.4557  0.0784  0.5720
  701TMC3    C210362   0.175   1.796  15.371 -0.4939 -0.1555  0.2555
  701TMC3    C310363   0.278   1.829  15.293  0.4695 -0.7506 -0.0027
  701TMC3    C410364   0.277   1.927  15.547 -0.0961  0.0066 -0.0103
  701TMC3    C510365   0.382   1.957  15.458 -0.0215 -0.0674  0.2511
  701TMC3    C610366   0.380   1.906  15.336 -0.8336  0.3865  0.2831
  701TMC3     C10367   0.074   1.810  15.600  0.2969  0.4496  0.0674
  701TMC3     O10368   0.062   1.888  15.696  0.2000 -0.0905  0.2607
  701TMC3     H10369   0.087   1.746  15.333  0.4833 -1.1512 -0.6831
  701TMC3    H110370   0.278   1.956  15.652 -0.7864  1.5586 -0.4214
  701TMC3    H210371   0.463   1.931  15.272 -1.0810  1.1858  0.2723
  701TMC3    C710372   0.429   2.090  15.473 -0.4723  0.0494 -0.8523
  701TMC3    C810373   0.249   1.844  15.145  0.5056  0.4621  1.1546
  701TMC3    O110374   0.485   2.141  15.374  0.3136 -0.0826 -0.1008
  701TMC3    O210375   0.307   1.935  15.086  0.4385 -0.1412 -0.2183
  702MPD2     C10376   4.407   4.293  10.322  0.0593  0.0981 -0.2684
  702MPD2    C110377   4.298   4.384  10.320 -0.0689  0.4249 -0.5828
  702MPD2    C210378   4.302   4.494  10.235  0.2788  0.1227  0.3788
  702MPD2    C310379   4.425   4.533  10.190 -0.4870  0.0711 -0.0418
  702MPD2    C410380   4.531   4.447  10.187 -0.0015 -0.2560 -0.3984
  702MPD2    C510381   4.520   4.323  10.247  0.7549 -0.2793  0.0602
  702MPD2     H10382   4.214   4.557  10.225  0.0958 -0.1036  0.5732
  702MPD2    H110383   4.624   4.494  10.156 -0.2166  0.8486  0.6594
  702MPD2    H210384   4.408   4.209  10.390 -0.6756  0.5101  0.2490
  702MPD2    H310385   4.606   4.257  10.240  1.1952  0.1662  1.1720
  702MPD2     N10386   4.444   4.660  10.133  0.1902  0.1473  0.3625
  702MPD2    H510387   4.530   4.681  10.083  0.5427  1.3282  1.4455
  702MPD2    N110388   4.185   4.381  10.401 -0.1816 -0.1622  0.1714
  702MPD2    H710389   4.118   4.457  10.392  0.6999  0.3756 -1.9263
  703TMC3    C110390   4.401   0.180  10.128 -0.7279  0.6532  0.7790
  703TMC3    C210391   4.326   0.287  10.180  0.3329 -0.3923  0.4155
  703TMC3    C310392   4.349   0.412  10.138  0.2284 -0.2252  0.3716
  703TMC3    C410393   4.501   0.205  10.041 -0.5121  0.4169  0.4499
  703TMC3    C510394   4.520   0.330   9.999  0.3370  0.2177 -0.2032
  703TMC3    C610395   4.437   0.433  10.041 -0.1943 -0.8624 -0.3959
  703TMC3     C10396   4.365   0.040  10.172 -0.2398  0.2898 -0.6534
  703TMC3     O10397   4.262   0.042  10.239 -0.8306  0.3444 -0.5277
  703TMC3     H10398   4.248   0.257  10.249  1.2384  0.1791  1.6970
  703TMC3    H110399   4.544   0.125   9.982  1.2012  2.0839 -0.5490
  703TMC3    H210400   4.458   0.535  10.009 -1.6637 -0.3588  0.2844
  703TMC3    C710401   4.587   0.353   9.874 -0.0501 -0.7018 -0.4459
  703TMC3    C810402   4.253   0.514  10.170  0.6463 -0.6487 -0.1444
  703TMC3    O110403   4.679   0.278   9.851 -0.3376  0.1220 -0.0636
  703TMC3    O210404   4.289   0.626  10.149  0.2021 -0.0131 -0.3018
  704TMC3    C110405   2.181   3.086  12.323  0.1672  0.1087  0.1615
  704TMC3    C210406   2.244   3.128  12.212 -0.8369  0.3149  0.3076
  704TMC3    C310407   2.379   3.104  12.198  0.2814 -0.3213  0.0817
  704TMC3    C410408   2.250   3.026  12.424  0.5087  0.2241  1.4036
  704TMC3    C510409   2.386   3.002  12.405  0.3869  0.2201  0.4972
  704TMC3    C610410   2.454   3.039  12.289 -0.3446 -0.1908  0.4854
  704TMC3     C10411   2.050   3.030  12.299 -0.0441 -0.3220 -0.0987
  704TMC3     O10412   1.986   2.993  12.398  0.0850 -0.0485  0.3085
  704TMC3     H10413   2.184   3.180  12.138 -2.9326 -2.6920 -0.0972
  704TMC3    H110414   2.194   3.000  12.513 -1.1069 -1.1129 -0.0118
  704TMC3    H210415   2.558   3.016  12.267  0.3469  1.7174  1.6855
  704TMC3    C710416   2.423   2.883  12.462 -0.5806  0.4637  0.1959
  704TMC3    C810417   2.418   3.104  12.066  0.3947 -0.3181  0.1213
  704TMC3    O110418   2.329   2.810  12.479 -0.5970 -0.0529 -0.1712
  704TMC3    O210419   2.325   3.104  11.983  0.2581 -0.2043 -0.4689
  705MPD2     C10420   1.377   1.203  16.662  0.1566  0.2705 -0.9333
  705MPD2    C110421   1.331   1.085  16.603  0.3376  0.3989 -0.0688
  705MPD2    C210422   1.220   1.018  16.663  0.4485  0.5193 -0.3770
  705MPD2    C310423   1.148   1.082  16.763 -0.1572  1.2033 -0.0028
  705MPD2    C410424   1.191   1.205  16.808  0.5421  0.8349  0.2947
  705MPD2    C510425   1.307   1.262  16.764 -0.5012  0.0637 -0.1957
  705MPD2     H10426   1.197   0.914  16.641  0.1261  0.5579 -0.2284
  705MPD2    H110427   1.143   1.259  16.888 -0.5291 -1.3462  1.1126
  705MPD2    H210428   1.441   1.272  16.608  1.8004 -1.4247 -1.1281
  705MPD2    H310429   1.326   1.361  16.805  1.0134 -0.4670  0.3813
  705MPD2     N10430   1.042   1.032  16.830  0.2063  0.3036 -0.4520
  705MPD2    H510431   1.015   1.084  16.913  1.7059 -1.1647  0.9475
  705MPD2    N110432   1.393   1.025  16.493  0.1071  0.3633  0.0741
  705MPD2    H710433   1.341   0.949  16.450 -0.3547  0.4188  0.5307
  706TMC3    C110434   1.492   0.838  16.160  0.6533  0.4716  0.6558
  706TMC3    C210435   1.534   0.915  16.054  0.1575 -0.7096 -0.3896
  706TMC3    C310436   1.597   1.029  16.088  0.0291  0.5623  0.0009
  706TMC3    C410437   1.494   0.879  16.285  0.3120  0.3792  0.1405
  706TMC3    C510438   1.548   0.999  16.311 -0.8099  0.1466  0.4733
  706TMC3    C610439   1.604   1.079  16.215 -0.7083  0.1446  0.1418
  706TMC3     C10440   1.498   0.695  16.145  0.2655  0.0560  0.6679
  706TMC3     O10441   1.558   0.622  16.223 -0.3855 -0.2827 -0.1630
  706TMC3     H10442   1.546   0.879  15.953  0.5743 -1.1284 -0.1903
  706TMC3    H110443   1.471   0.808  16.363 -1.8082 -0.9213 -1.6381
  706TMC3    H210444   1.648   1.174  16.242 -1.9556  1.0733 -1.0960
  706TMC3    C710445   1.515   1.060  16.435  0.6970  0.6041 -0.4856
  706TMC3    C810446   1.651   1.106  15.978  0.0283 -0.7704 -0.0548
  706TMC3    O110447   1.584   1.157  16.460  0.1589  0.7099 -0.1776
  706TMC3    O210448   1.602   1.083  15.870 -0.0209 -0.2750  0.4012
  707TMC3    C110449   2.670   3.811   0.943 -0.0332 -0.5844  0.2936
  707TMC3    C210450   2.736   3.695   0.975  0.3252  0.0884  0.5306
  707TMC3    C310451   2.668   3.592   1.029  0.2914 -0.0977 -0.1949
  707TMC3    C410452   2.532   3.817   0.957 -0.0583 -0.5036 -0.2271
  707TMC3    C510453   2.463   3.707   0.992  0.2506  0.7693 -0.0544
  707TMC3    C610454   2.530   3.595   1.037  0.2729 -0.1191  0.1890
  707TMC3     C10455   2.744   3.898   0.856  0.9335 -1.0084 -0.7271
  707TMC3     O10456   2.834   3.845   0.787 -1.1675 -0.1928  0.1142
  707TMC3     H10457   2.844   3.701   0.963  0.4400  1.4856  2.2186
  707TMC3    H110458   2.480   3.898   0.908  0.7050 -1.2478 -2.2693
  707TMC3    H210459   2.476   3.505   1.064 -2.3117  1.4452  0.2655
  707TMC3    C710460   2.341   3.741   1.066 -0.4880 -0.3959  0.5305
  707TMC3    C810461   2.730   3.499   1.120  1.2244  0.4647  0.4795
  707TMC3    O110462   2.328   3.690   1.180 -0.3662  0.2012 -0.0491
  707TMC3    O210463   2.680   3.498   1.232  0.2730 -0.1985  0.0038
  708MPD2     C10464   4.241   4.499  13.315  1.5804  0.2147 -0.2353
  708MPD2    C110465   4.162   4.472  13.424 -0.0658  0.3450 -0.5820
  708MPD2    C210466   4.223   4.437  13.540 -0.4213 -0.3655  0.5427
  708MPD2    C310467   4.363   4.425  13.551  0.1732 -0.0355 -0.0712
  708MPD2    C410468   4.440   4.454  13.436  0.0786  0.2031 -0.3325
  708MPD2    C510469   4.378   4.482  13.325 -1.0738 -0.6645  0.2457
  708MPD2     H10470   4.160   4.403  13.622 -0.9737 -1.3032 -0.2599
  708MPD2    H110471   4.548   4.459  13.440  0.1379 -0.4729 -1.0201
  708MPD2    H210472   4.195   4.511  13.218  1.6715  3.1509  0.0933
  708MPD2    H310473   4.435   4.506  13.236 -1.6228 -1.3297 -0.2861
  708MPD2     N10474   4.406   4.366  13.665 -0.2116 -0.3596 -0.4207
  708MPD2    H510475   4.340   4.323  13.729  1.3887 -1.8264  0.2691
  708MPD2    N110476   4.019   4.472  13.421  0.6544  0.8350  0.4589
  708MPD2    H710477   3.974   4.469  13.512  1.6311 -0.9808  0.8720
  709TMC3    C110478   3.801   4.479  13.337 -0.2452 -0.3052 -0.1177
  709TMC3    C210479   3.753   4.364  13.288 -0.3518  0.2910  0.2628
  709TMC3    C310480   3.692   4.277  13.369  0.1086  0.0834  0.1092
  709TMC3    C410481   3.775   4.502  13.471 -0.1700  0.5029 -0.2813
  709TMC3    C510482   3.709   4.415  13.558  0.0372  0.2188  0.7584
  709TMC3    C610483   3.665   4.296  13.505  0.9032  0.1151 -0.2970
  709TMC3     C10484   3.939   4.499  13.305 -0.3094 -0.4652  0.8090
  709TMC3     O10485   3.975   4.496  13.184  0.2027  0.0128 -0.2471
  709TMC3     H10486   3.785   4.332  13.190 -1.7499 -0.7960  0.1788
  709TMC3    H110487   3.802   4.600  13.509  0.6768 -0.5105  1.7503
  709TMC3    H210488   3.644   4.211  13.569  1.9630  0.6748  0.8069
  709TMC3    C710489   3.778   4.392  13.682  0.6268 -0.1604 -0.2344
  709TMC3    C810490   3.720   4.135  13.346  0.2684  0.0522  0.6470
  709TMC3    O110491   3.888   4.445  13.680 -0.0806  0.5555  0.7096
  709TMC3    O210492   3.651   4.049  13.402  0.0249  0.3556 -0.2546
  710TMC3    C110493   0.671   0.607   0.522  0.9737  0.6802 -0.5888
  710TMC3    C210494   0.749   0.579   0.413 -0.3215 -0.7250  0.9098
  710TMC3    C310495   0.880   0.550   0.439  0.7811 -0.6780 -0.2945
  710TMC3    C410496   0.723   0.613   0.656 -0.1598 -0.1821 -0.0011
  710TMC3    C510497   0.853   0.595   0.672 -0.9790  0.2888 -0.1086
  710TMC3    C610498   0.936   0.554   0.567  0.3440 -0.1189 -0.0631
  710TMC3     C10499   0.559   0.693   0.488 -0.2664 -0.0105  0.7673
  710TMC3     O10500   0.554   0.732   0.371  0.3794  0.2553  0.0277
  710TMC3     H10501   0.715   0.580   0.310  1.9056  0.9959  0.1850
  710TMC3    H110502   0.658   0.650   0.735 -1.4946 -0.9152 -0.7400
  710TMC3    H210503   1.042   0.566   0.584 -0.3119  0.6397  3.5201
  710TMC3    C710504   0.898   0.605   0.808 -0.1574  0.4179  0.5439
  710TMC3    C810505   0.964   0.521   0.320  0.0716  0.4609  0.8609
  710TMC3    O110506   0.816   0.638   0.891 -0.4886  0.3605  0.2746
  710TMC3    O210507   0.901   0.515   0.217  0.2469 -0.3082 -0.7242
  711TMC3    C110508   0.357   1.498  14.802  0.3868 -0.2116 -0.2496
  711TMC3    C210509   0.371   1.530  14.931 -0.9550  1.0850  0.1644
  711TMC3    C310510   0.475   1.610  14.954  0.0387 -0.7481  0.3715
  711TMC3    C410511   0.459   1.507  14.708  0.0113 -0.1111  0.0813
  711TMC3    C510512   0.574   1.569  14.744 -1.1761 -0.3739  0.3193
  711TMC3    C610513   0.578   1.635  14.866 -0.1470 -0.0016  0.3813
  711TMC3     C10514   0.238   1.423  14.760 -0.8473 -0.4091 -0.3516
  711TMC3     O10515   0.202   1.344  14.841  0.0771 -0.2374  0.0793
  711TMC3     H10516   0.292   1.507  15.002 -0.1520  0.3353  0.8099
  711TMC3    H110517   0.451   1.452  14.615 -0.5493 -0.2487  0.2078
  711TMC3    H210518   0.666   1.694  14.887 -0.7983  1.3061 -0.5182
  711TMC3    C710519   0.694   1.488  14.748 -0.3623  0.4231  0.1192
  711TMC3    C810520   0.511   1.622  15.096  0.1261  0.6205  0.2086
  711TMC3    O110521   0.761   1.497  14.848 -0.0680  0.2854 -0.2846
  711TMC3    O210522   0.416   1.611  15.173  0.0989 -0.0853  0.1840
  712MPD2     C10523   2.230   2.800  13.649  0.2224 -0.3955 -0.0336
  712MPD2    C110524   2.100   2.831  13.620  0.2192 -0.3439  0.1156
  712MPD2    C210525   2.079   2.961  13.571  0.2579 -0.1457 -0.7086
  712MPD2    C310526   2.185   3.049  13.555 -0.3229 -0.0417 -0.0006
  712MPD2    C410527   2.312   3.012  13.585  0.1558  0.6712 -0.6287
  712MPD2    C510528   2.334   2.885  13.630  0.2063  0.2904 -0.7243
  712MPD2     H10529   1.978   2.990  13.544  0.2488 -0.4134 -0.9548
  712MPD2    H110530   2.388   3.083  13.556  0.7010  0.1213 -0.5398
  712MPD2    H210531   2.260   2.704  13.690  0.3797  0.6563  2.2918
  712MPD2    H310532   2.437   2.855  13.651 -0.6803 -2.8487 -0.9169
  712MPD2     N10533   2.169   3.176  13.497  1.1065  0.3380  0.0966
  712MPD2    H510534   2.257   3.224  13.479  0.4623  0.9294 -1.5299
  712MPD2    N110535   1.997   2.744  13.634 -0.0376  0.3005  0.1468
  712MPD2    H710536   1.910   2.777  13.595  2.3431  1.6959 -3.9765
  713TMC3    C110537   2.063   3.361  13.371 -0.2632 -0.6676 -0.5059
  713TMC3    C210538   2.192   3.397  13.330 -0.5518 -0.0108  0.5218
  713TMC3    C310539   2.199   3.515  13.273 -0.0201 -0.4402  0.1853
  713TMC3    C410540   1.945   3.433  13.347 -0.2282  0.3525  0.9637
  713TMC3    C510541   1.965   3.546  13.272 -0.2580  0.1887  0.1382
  713TMC3    C610542   2.092   3.585  13.231  0.0616  0.4636 -0.4376
  713TMC3     C10543   2.050   3.243  13.456  0.1451 -0.1226 -0.3080
  713TMC3     O10544   1.936   3.208  13.481  0.0805 -0.3815 -0.1480
  713TMC3     H10545   2.273   3.340  13.372 -1.1138 -2.6094 -1.9201
  713TMC3    H110546   1.855   3.410  13.401 -1.5270 -2.5732 -2.4573
  713TMC3    H210547   2.095   3.681  13.180 -0.6014  2.0315  2.4588
  713TMC3    C710548   1.894   3.663  13.319  0.8624 -0.0033  0.1046
  713TMC3    C810549   2.324   3.581  13.248 -0.7350 -0.4613  0.1180
  713TMC3    O110550   1.954   3.770  13.311 -0.5786 -0.7014 -0.4165
  713TMC3    O210551   2.324   3.702  13.239 -0.5250 -0.0479 -0.5640
  714MPD2     C10552   3.787   1.899   1.780 -0.8284 -0.4690  0.1181
  714MPD2    C110553   3.821   1.799   1.693  0.1255  0.1953 -0.0749
  714MPD2    C210554   3.733   1.764   1.592 -0.3127  0.5352  0.7608
  714MPD2    C310555   3.624   1.845   1.567 -0.3404  0.9602  1.1284
  714MPD2    C410556   3.591   1.937   1.660 -0.4169 -0.5449  0.0229
  714MPD2    C510557   3.670   1.962   1.772 -0.9427 -0.8459  0.4698
  714MPD2     H10558   3.755   1.678   1.529  0.6179  1.1189  0.2794
  714MPD2    H110559   3.517   2.015   1.652 -0.5839 -0.7680 -0.5753
  714MPD2    H210560   3.844   1.928   1.867  0.7282  2.2405 -1.7675
  714MPD2    H310561   3.645   2.035   1.848  0.0518 -0.3393  0.3112
  714MPD2     N10562   3.555   1.826   1.446 -0.5205  0.1035 -0.0668
  714MPD2    H510563   3.599   1.766   1.376  1.1235  1.3770 -0.1171
  714MPD2    N110564   3.950   1.734   1.715  0.5855  0.4185 -0.1142
  714MPD2    H710565   4.015   1.781   1.778  1.3031 -0.4103 -0.2398
  715TMC3    C110566   4.129   1.598   1.695  0.1931 -0.1300  0.6633
  715TMC3    C210567   4.168   1.465   1.712  0.3472  0.2797  0.2822
  715TMC3    C310568   4.304   1.435   1.713 -0.0990 -0.0338  0.5818
  715TMC3    C410569   4.219   1.704   1.712  0.1462  0.0388  0.1567
  715TMC3    C510570   4.352   1.666   1.709  0.7208  0.2371  0.0524
  715TMC3    C610571   4.393   1.534   1.710 -0.5199  0.0218  0.2845
  715TMC3     C10572   3.990   1.620   1.658  0.2606  0.1384  0.5686
  715TMC3     O10573   3.924   1.531   1.604 -0.1554 -0.1298  0.2747
  715TMC3     H10574   4.088   1.393   1.701 -1.3679  1.8780  2.4195
  715TMC3    H110575   4.188   1.799   1.672 -1.8701 -0.8355 -0.3495
  715TMC3    H210576   4.498   1.507   1.697 -0.4705  1.1834 -1.5647
  715TMC3    C710577   4.460   1.763   1.663  0.0689 -0.0704 -0.0434
  715TMC3    C810578   4.337   1.289   1.728  0.5661 -0.4015 -0.6436
  715TMC3    O110579   4.569   1.718   1.627  0.6368  0.5261 -0.5335
  715TMC3    O210580   4.239   1.212   1.718 -0.1692  0.3347  0.3217
  716MPD2     C10581   4.324   4.344   9.780 -0.3385 -0.0552  0.0949
  716MPD2    C110582   4.399   4.356   9.670 -0.2211 -0.4247  0.2826
  716MPD2    C210583   4.527   4.297   9.674 -0.0859  0.1730 -0.2048
  716MPD2    C310584   4.571   4.240   9.796 -0.7211  0.2778 -0.3428
  716MPD2    C410585   4.496   4.241   9.913 -0.3654 -0.0332 -0.2830
  716MPD2    C510586   4.371   4.291   9.901 -0.0494  0.8847  0.5045
  716MPD2     H10587   4.584   4.292   9.582  1.9010 -2.3428  1.1592
  716MPD2    H110588   4.532   4.198  10.005  0.2618  1.3483  0.1003
  716MPD2    H210589   4.226   4.389   9.779 -0.4515 -0.2833  1.4370
  716MPD2    H310590   4.304   4.285   9.986 -0.1523  1.3434  0.4546
  716MPD2     N10591   4.696   4.171   9.791 -0.3132 -0.4814 -0.1044
  716MPD2    H510592   0.005   4.154   9.696  1.4541 -0.1447  0.4608
  716MPD2    N110593   4.343   4.416   9.551 -0.1501  0.5180 -0.2550
  716MPD2    H710594   4.250   4.452   9.566 -1.0986 -0.9809 -2.6122
  717TMC3    C110595   0.151   4.035   9.852 -0.1091 -0.0604 -0.5770
  717TMC3    C210596   0.201   4.041   9.724  0.0039  0.7189  0.6421
  717TMC3    C310597   0.281   3.938   9.679  0.3510  0.0644 -0.0553
  717TMC3    C410598   0.188   3.935   9.943  0.1304  0.6043  0.3210
  717TMC3    C510599   0.256   3.837   9.888 -0.2185 -0.1491  0.0476
  717TMC3    C610600   0.301   3.833   9.757  0.4349 -0.3286 -0.9488
  717TMC3     C10601   0.034   4.112   9.895 -0.2783 -0.3066  0.6545
  717TMC3     O10602   0.001   4.111  10.012  0.4764  0.2657 -0.3676
  717TMC3     H10603   0.178   4.118   9.651  0.3628  1.7997  1.6582
  717TMC3    H110604   0.134   3.921  10.035  1.8031  0.1103  1.2214
  717TMC3    H210605   0.348   3.739   9.730 -0.2380 -1.3119  1.2509
  717TMC3    C710606   0.276   3.718   9.966  0.2989  0.9277  0.0199
  717TMC3    C810607   0.275   3.909   9.533 -0.0530 -0.2447  0.3557
  717TMC3    O110608   0.288   3.611   9.908  0.3899 -0.1213 -0.7871
  717TMC3    O210609   0.217   3.987   9.457 -0.2191  0.0304 -0.0053
  718MPD2     C10610   3.721   2.827  13.144 -0.8763 -0.0421  0.5759
  718MPD2    C110611   3.668   2.895  13.041  0.3937 -0.1930 -0.1319
  718MPD2    C210612   3.546   2.861  12.989  0.2762  0.1349 -0.0697
  718MPD2    C310613   3.475   2.743  13.040  0.4792 -0.4914 -0.0093
  718MPD2    C410614   3.534   2.678  13.149 -0.1647  0.1592 -0.3666
  718MPD2    C510615   3.647   2.729  13.202 -0.8444  0.4083 -0.0673
  718MPD2     H10616   3.494   2.899  12.902 -2.9493  1.3974  2.3840
  718MPD2    H110617   3.491   2.587  13.191 -1.1240 -0.1165 -1.9444
  718MPD2    H210618   3.813   2.854  13.195 -0.9239  1.2416 -0.0187
  718MPD2    H310619   3.696   2.674  13.281 -1.5760  0.5581  0.4883
  718MPD2     N10620   3.357   2.694  12.971 -0.0008 -0.4250  0.1832
  718MPD2    H510621   3.345   2.741  12.883  0.8282 -0.7027 -0.0876
  718MPD2    N110622   3.740   3.005  12.990 -0.4607 -0.0733  0.1233
  718MPD2    H710623   3.823   3.035  13.041 -0.1683  0.3537 -0.6062
  719TMC3    C110624   3.793   3.186  12.855  0.7889 -0.2589  0.5437
  719TMC3    C210625   3.709   3.290  12.820  0.0307  0.2466  0.1267
  719TMC3    C310626   3.719   3.325  12.687 -0.3503 -0.3088  0.0374
  719TMC3    C410627   3.906   3.151  12.781 -0.4680 -0.3059  0.7922
  719TMC3    C510628   3.910   3.195  12.660 -0.6004 -0.2708  0.2609
  719TMC3    C610629   3.822   3.276  12.610  0.2794 -0.0506  0.1303
  719TMC3     C10630   3.699   3.082  12.887  0.1385 -0.5163 -0.5492
  719TMC3     O10631   3.600   3.073  12.813  0.7549  0.0054 -0.1272
  719TMC3     H10632   3.619   3.315  12.875 -0.6730  0.0892 -0.9589
  719TMC3    H110633   3.958   3.065  12.821  2.6707  1.5820  0.7181
  719TMC3    H210634   3.825   3.306  12.506  1.1327  0.0459  0.1859
  719TMC3    C710635   4.028   3.169  12.579  0.4638  0.2820 -0.1245
  719TMC3    C810636   3.593   3.346  12.617  0.0451  0.3554 -0.0578
  719TMC3    O110637   4.020   3.211  12.462 -0.3759 -0.6476  0.5229
  719TMC3    O210638   3.592   3.416  12.518  0.0046 -0.6522  0.1626
  720MPD2     C10639   2.055   4.555  13.980 -1.0181 -0.2601 -0.0868
  720MPD2    C110640   2.121   4.675  13.976 -0.2005  0.2964 -0.3826
  720MPD2    C210641   2.236   4.683  14.048  1.3638 -0.7725 -0.4313
  720MPD2    C310642   2.276   4.573  14.125  0.5206 -0.5154 -0.8765
  720MPD2    C410643   2.208   4.457  14.127  0.9688 -0.1087 -0.2302
  720MPD2    C510644   2.092   4.444  14.053  0.4876 -0.0665 -0.2023
  720MPD2     H10645   2.306   0.039  14.025 -0.0146  1.2010  2.1117
  720MPD2    H110646   2.237   4.367  14.181  2.3292 -1.1515 -2.6704
  720MPD2    H210647   1.966   4.552  13.917  0.5067  0.1106 -2.2398
  720MPD2    H310648   2.028   4.356  14.052  0.2234  0.1081  1.1691
  720MPD2     N10649   2.399   4.583  14.196 -0.0313 -0.0167 -0.4413
  720MPD2    H510650   2.458   4.666  14.190  1.0778 -0.8120 -0.6523
  720MPD2    N110651   2.080   0.056  13.883 -0.6400 -1.2121  0.0553
  720MPD2    H710652   2.006   0.040  13.816  1.0215 -2.1764 -1.5577
  721TMC3    C110653   2.598   4.494  14.302 -0.2246  0.1038 -0.9361
  721TMC3    C210654   2.658   4.432  14.408 -0.0949 -0.0929 -0.6711
  721TMC3    C310655   2.790   4.465  14.434  0.1210  0.0938  0.0560
  721TMC3    C410656   2.668   4.567  14.211 -0.1194 -0.0813 -0.6717
  721TMC3    C510657   2.801   4.593  14.233  0.3849  0.5281 -0.5057
  721TMC3    C610658   2.863   4.538  14.345  0.2909 -0.3712  0.1722
  721TMC3     C10659   2.447   4.495  14.292 -0.3148 -0.1990  0.8181
  721TMC3     O10660   2.392   4.403  14.348 -0.0824 -0.3108  0.0957
  721TMC3     H10661   2.599   4.363  14.468  1.6716 -1.3120 -0.3134
  721TMC3    H110662   2.620   4.599  14.119 -2.2104  3.1151  1.5449
  721TMC3    H210663   2.966   4.567  14.363 -0.3495  0.5364  2.3150
  721TMC3    C710664   2.881   4.645  14.120  0.4951 -0.7079  0.0702
  721TMC3    C810665   2.868   4.386  14.528 -0.5347 -0.0401 -0.4169
  721TMC3    O110666   2.982   4.710  14.146  0.0031  0.3674 -0.6777
  721TMC3    O210667   2.988   4.393  14.510 -0.0801  0.1263  0.0558
  722MPD2     C10668   0.805   3.300  13.336  0.3001 -0.8528  0.1712
  722MPD2    C110669   0.811   3.405  13.252 -0.5831  0.2812 -0.3671
  722MPD2    C210670   0.777   3.398  13.119 -0.4616  0.2140  0.6119
  722MPD2    C310671   0.739   3.284  13.067  0.5799 -0.7257 -0.1699
  722MPD2    C410672   0.729   3.170  13.147 -1.1535  0.5995  0.4947
  722MPD2    C510673   0.770   3.179  13.279 -0.0875  0.1738  0.1305
  722MPD2     H10674   0.767   3.490  13.063  2.5135 -0.5568 -1.1942
  722MPD2    H110675   0.706   3.068  13.117  0.0454  0.9079 -1.4709
  722MPD2    H210676   0.825   3.306  13.443  0.2937 -0.2818  0.1438
  722MPD2    H310677   0.755   3.094  13.345 -1.1777 -2.2781 -3.3096
  722MPD2     N10678   0.701   3.291  12.934  0.2588 -0.1586  0.3505
  722MPD2    H510679   0.720   3.377  12.883  2.3121  0.0548  1.4504
  722MPD2    N110680   0.863   3.531  13.287  0.9885  0.5152 -0.5097
  722MPD2    H710681   0.883   3.588  13.206  0.5260 -0.0095 -0.9894
  723TMC3    C110682   0.602   3.224  12.733 -0.6585  0.0017  0.6563
  723TMC3    C210683   0.514   3.142  12.676 -0.6142 -0.2656 -0.1891
  723TMC3    C310684   0.446   3.189  12.560 -0.5151 -0.2717 -0.2683
  723TMC3    C410685   0.630   3.353  12.686  0.6527 -0.0608  0.4451
  723TMC3    C510686   0.566   3.396  12.575 -0.1613 -0.7743  0.5043
  723TMC3    C610687   0.474   3.312  12.506 -0.0800  0.4278 -0.8408
  723TMC3     C10688   0.641   3.189  12.871  0.1730  0.0389 -0.5852
  723TMC3     O10689   0.622   3.075  12.907 -0.3072 -0.7452 -0.5455
  723TMC3     H10690   0.487   3.048  12.722  0.0166 -0.1328  0.4674
  723TMC3    H110691   0.703   3.423  12.726 -0.0128  1.1905 -0.5209
  723TMC3    H210692   0.416   3.344  12.420  1.4563  2.4623 -1.1234
  723TMC3    C710693   0.533   3.538  12.567  0.1799  0.3822 -0.4800
  723TMC3    C810694   0.345   3.106  12.515 -0.4038  0.4450 -0.0469
  723TMC3    O110695   0.586   3.611  12.649  0.3107  0.3964 -0.1945
  723TMC3    O210696   0.249   3.155  12.456 -0.0762 -0.9384 -0.4297
  724TMC3    C110697   1.330   1.595   9.518 -0.2832  0.1597 -0.0045
  724TMC3    C210698   1.253   1.700   9.486  1.0722  0.0875  0.1241
  724TMC3    C310699   1.316   1.807   9.444 -0.3395  0.3224  0.5274
  724TMC3    C410700   1.463   1.587   9.489  0.2526 -0.2989 -0.0632
  724TMC3    C510701   1.518   1.699   9.432 -0.6126 -0.1050 -0.0134
  724TMC3    C610702   1.450   1.813   9.411 -0.1659  0.4316 -0.0029
  724TMC3     C10703   1.260   1.474   9.542  0.7986 -0.5499 -0.2808
  724TMC3     O10704   1.333   1.383   9.578  0.0522 -0.2638  0.0748
  724TMC3     H10705   1.155   1.718   9.528 -0.1347  0.7579 -2.9354
  724TMC3    H110706   1.522   1.501   9.519 -1.0846 -1.4792 -0.7956
  724TMC3    H210707   1.505   1.901   9.381  1.0730 -0.9058 -1.6969
  724TMC3    C710708   1.625   1.674   9.342  0.1254 -0.0356  0.8159
  724TMC3    C810709   1.256   1.926   9.459  0.9888 -1.2756 -0.2752
  724TMC3    O110710   1.708   1.586   9.375 -0.0602 -0.0811 -0.3799
  724TMC3    O210711   1.140   1.935   9.415 -0.1244 -0.4298 -0.2991
  725TMC3    C110712   2.711   0.187  13.143 -0.6288 -1.0129 -0.5042
  725TMC3    C210713   2.579   0.200  13.117 -0.1990 -0.0293  0.1530
  725TMC3    C310714   2.536   0.180  12.988 -0.7220 -0.6017 -0.5774
  725TMC3    C410715   2.783   0.125  13.047  0.0528 -0.4805  0.2538
  725TMC3    C510716   2.739   0.080  12.927  0.6517 -0.2960 -0.1255
  725TMC3    C610717   2.607   0.106  12.892  0.5198 -0.5193 -0.2905
  725TMC3     C10718   2.773   0.315  13.180  0.1894  0.0259  0.2785
  725TMC3     O10719   2.808   0.378  13.078  1.0476  0.7030 -0.6107
  725TMC3     H10720   2.514   0.256  13.183 -0.6064  2.3153 -2.2485
  725TMC3    H110721   2.888   0.117  13.072  0.3477 -0.7036 -1.0803
  725TMC3    H210722   2.553   0.080  12.802  1.4235  0.8750 -1.2296
  725TMC3    C710723   2.834   0.075  12.820 -0.1102 -0.5423 -0.3051
  725TMC3    C810724   2.414   0.243  12.952 -0.0958  0.1449 -0.4318
  725TMC3    O110725   2.803   0.006  12.721  0.8061  0.6743 -0.2987
  725TMC3    O210726   2.344   0.271  13.050  1.1956  0.0627 -0.1069
  726MPD2     C10727   0.760   2.157  10.370  0.4083 -0.1211  0.5345
  726MPD2    C110728   0.662   2.207  10.290  0.6815  0.6150  0.7154
  726MPD2    C210729   0.535   2.147  10.305 -0.0635 -0.0758 -0.8185
  726MPD2    C310730   0.512   2.053  10.404  0.9192  0.2082 -0.5041
  726MPD2    C410731   0.617   2.008  10.483 -0.3135 -0.5752 -0.4246
  726MPD2    C510732   0.739   2.063  10.467 -0.0172 -0.4710  0.1110
  726MPD2     H10733   0.454   2.186  10.244 -0.9405  0.7545  0.8670
  726MPD2    H110734   0.600   1.925  10.550 -1.2511 -0.3121 -0.3333
  726MPD2    H210735   0.863   2.192  10.361  0.4139 -0.8804 -2.1451
  726MPD2    H310736   0.812   2.005  10.521  0.0207 -0.8274 -0.3242
  726MPD2     N10737   0.387   1.991  10.433 -0.3014 -0.1883  0.2460
  726MPD2    H510738   0.379   1.953  10.526  0.2104 -0.1054  0.3250
  726MPD2    N110739   0.676   2.320  10.201 -0.0937  0.9435  0.0043
  726MPD2    H710740   0.593   2.355  10.155 -1.0629  0.4353  1.3407
  727TMC3    C110741   0.802   2.495  10.077 -0.4809 -0.1057  0.1306
  727TMC3    C210742   0.900   2.587  10.114  0.1803  0.1814  0.3017
  727TMC3    C310743   0.892   2.716  10.073 -0.2427 -0.1084  0.1964
  727TMC3    C410744   0.696   2.531   9.999  0.5724 -0.1917  0.3466
  727TMC3    C510745   0.701   2.656   9.951  0.0482  0.0352 -0.1842
  727TMC3    C610746   0.793   2.753   9.989 -0.0001  0.0994  0.5489
  727TMC3     C10747   0.803   2.375  10.165 -0.2221 -0.4015  0.2040
  727TMC3     O10748   0.916   2.342  10.199  0.1967  0.2092 -0.0943
  727TMC3     H10749   0.989   2.559  10.168  1.0900  1.2625 -0.6435
  727TMC3    H110750   0.625   2.463   9.955 -1.2576  2.3151 -0.5591
  727TMC3    H210751   0.790   2.852   9.943 -0.8674  0.5537  1.5648
  727TMC3    C710752   0.581   2.696   9.872  0.1040 -0.0232 -0.4375
  727TMC3    C810753   1.008   2.800  10.111  0.8806  0.1115 -0.2213
  727TMC3    O110754   0.524   2.600   9.820 -0.4333 -0.8178 -0.4360
  727TMC3    O210755   1.107   2.742  10.159  1.1716 -0.4270 -0.4395
  728TMC3    C110756   0.065   0.301  15.630 -0.7896  0.5989  0.6771
  728TMC3    C210757   0.122   0.424  15.661  0.1049  0.6850 -0.4416
  728TMC3    C310758   0.092   0.527  15.571  0.2518 -0.2140 -0.8873
  728TMC3    C410759   4.695   0.280  15.533 -0.3590  0.1711 -0.4603
  728TMC3    C510760   4.668   0.390  15.452  0.1184  0.3279 -0.3712
  728TMC3    C610761   4.722   0.513  15.471  0.3897 -0.2041 -0.2059
  728TMC3     C10762   0.062   0.203  15.737  0.3420 -0.6353 -0.4648
  728TMC3     O10763   0.156   0.186  15.816 -0.0306 -0.0924  0.8634
  728TMC3     H10764   0.207   0.419  15.729  0.6874 -2.5995 -1.3995
  728TMC3    H110765   4.648   0.183  15.522 -0.6288 -0.2947  4.7490
  728TMC3    H210766   4.692   0.592  15.405  2.2828  1.2327  0.6568
  728TMC3    C710767   4.569   0.358  15.354  0.6117  0.0690 -0.2811
  728TMC3    C810768   0.152   0.658  15.573  0.4148 -0.2198  0.2761
  728TMC3    O110769   4.527   0.244  15.350 -0.3859 -0.4090 -0.5925
  728TMC3    O210770   0.169   0.708  15.462 -0.2223 -0.2171 -0.0002
  729MPD2     C10771   1.836   1.402  17.118  0.7650  0.0406 -0.1764
  729MPD2    C110772   1.962   1.368  17.165 -0.2066 -0.3317 -0.2208
  729MPD2    C210773   1.971   1.383  17.301 -0.2664  0.7307 -0.3375
  729MPD2    C310774   1.869   1.426  17.391 -0.4023  0.0059 -0.4698
  729MPD2    C410775   1.746   1.455  17.337  0.2307  0.0986 -0.1343
  729MPD2    C510776   1.725   1.438  17.201 -0.4225 -0.2758 -0.1860
  729MPD2     H10777   2.066   1.350  17.341 -0.5289 -0.5537 -0.7776
  729MPD2    H110778   1.664   1.498  17.392 -1.1866 -2.8531  0.0545
  729MPD2    H210779   1.813   1.399  17.012 -0.0492 -2.1528  0.0738
  729MPD2    H310780   1.632   1.478  17.163 -0.6426 -1.0587 -0.4675
  729MPD2     N10781   1.889   1.430  17.533 -0.0023  0.0666 -0.4765
  729MPD2    H510782   1.824   1.483  17.591  0.1866 -1.2457  0.9452
  729MPD2    N110783   2.070   1.335  17.072 -0.3086  0.3926 -0.1948
  729MPD2    H710784   2.047   1.343  16.973  1.3914  2.6240 -0.3942
  730TMC3    C110785   2.049   1.437   0.005 -0.6807  0.2362  0.0490
  730TMC3    C210786   2.183   1.424   0.010 -0.2808  0.1659 -0.5491
  730TMC3    C310787   2.264   1.534   0.005 -0.6924 -0.1482 -0.2452
  730TMC3    C410788   1.995   1.560   0.018  0.3150  0.3697 -0.8391
  730TMC3    C510789   2.077   1.666   0.029 -0.9954  0.5088  0.9561
  730TMC3    C610790   2.214   1.660   0.019  0.5177  0.6592 -0.1444
  730TMC3     C10791   2.001   1.373  17.589 -0.6176 -0.2716  0.4572
  730TMC3     O10792   2.062   1.272  17.555 -0.2617 -0.1604  0.1667
  730TMC3     H10793   2.242   1.334  17.693 -2.3781 -1.5206  1.1890
  730TMC3    H110794   1.888   1.576   0.023  0.2071 -0.0340 -1.8143
  730TMC3    H210795   2.279   1.746   0.005 -1.0508  1.5516 -1.9811
  730TMC3    C710796   2.022   1.760  17.641  0.0504 -0.2165 -0.3166
  730TMC3    C810797   2.350   1.542  17.586  0.3769 -0.6475 -0.6593
  730TMC3    O110798   2.060   1.747  17.524  0.3357 -0.3428  0.0168
  730TMC3    O210799   2.422   1.446  17.575  0.0757 -0.3017  0.0924
  731MPD2     C10800   1.757   4.653  12.051  0.0400  0.0761 -0.4898
  731MPD2    C110801   1.881   4.591  12.046 -0.1102  0.2800  0.1900
  731MPD2    C210802   1.924   4.503  12.141 -0.0962 -0.0995 -0.6180
  731MPD2    C310803   1.834   4.469  12.241  0.5738  0.2476  1.1955
  731MPD2    C410804   1.713   4.529  12.249  0.6869 -0.4465  0.1410
  731MPD2    C510805   1.675   4.622  12.160 -0.6016  0.0630  0.6519
  731MPD2     H10806   2.018   4.450  12.135  0.4405  0.8227 -0.4569
  731MPD2    H110807   1.653   4.511  12.338 -2.5056 -3.0818 -2.5390
  731MPD2    H210808   1.725   0.004  11.979  0.6584  2.1346  1.3839
  731MPD2    H310809   1.576   4.665  12.172 -0.7933 -0.7608  2.0335
  731MPD2     N10810   1.884   4.372  12.328  0.0320 -0.6506  0.0956
  731MPD2    H510811   1.975   4.332  12.310  1.1241  0.4646  3.2731
  731MPD2    N110812   1.961   4.608  11.930 -0.1071  0.0313 -0.1838
  731MPD2    H710813   1.912   4.660  11.858 -1.1775 -1.5590 -0.6068
  732TMC3    C110814   2.119   4.556  11.777  0.0131 -0.3570  0.6386
  732TMC3    C210815   2.019   4.535  11.693 -0.2614 -0.3738 -0.1007
  732TMC3    C310816   2.053   4.479  11.567 -0.1113 -0.3691 -0.3338
  732TMC3    C410817   2.253   4.530  11.745 -0.7107  0.0500 -0.4845
  732TMC3    C510818   2.271   4.491  11.614 -0.1203 -0.8108 -0.3075
  732TMC3    C610819   2.176   4.464  11.527  0.3349 -0.0672  0.0156
  732TMC3     C10820   2.087   4.556  11.915  0.3722  0.3939  0.7254
  732TMC3     O10821   2.174   4.520  11.992  0.1352 -0.7180 -0.0839
  732TMC3     H10822   1.914   4.542  11.717 -0.5656 -0.9947 -1.2629
  732TMC3    H110823   2.334   4.553  11.815 -1.4164 -1.1502  0.7321
  732TMC3    H210824   2.193   4.434  11.424 -0.6010  2.7624 -0.9667
  732TMC3    C710825   2.402   4.500  11.554 -0.1128 -0.8247  0.1646
  732TMC3    C810826   1.938   4.430  11.491  0.6608  0.2520 -0.3468
  732TMC3    O110827   2.420   4.465  11.438 -0.0303  0.4974 -0.0292
  732TMC3    O210828   1.947   4.421  11.368 -0.0413  0.1394 -0.0866
  733TMC3    C110829   2.974   2.683  12.903 -0.1871  0.0439 -0.2533
  733TMC3    C210830   3.059   2.595  12.962 -0.0606  0.0798  0.4766
  733TMC3    C310831   3.176   2.567  12.907  0.1070  0.6335 -0.2407
  733TMC3    C410832   3.011   2.753  12.789 -0.2699  0.2459  0.4848
  733TMC3    C510833   3.128   2.722  12.728 -0.5242 -0.2746 -0.4314
  733TMC3    C610834   3.207   2.626  12.787 -0.6152  0.3017  0.8758
  733TMC3     C10835   2.837   2.693  12.938  0.1778  0.9470 -1.0939
  733TMC3     O10836   2.794   2.809  12.916 -0.4812  0.0634 -0.0208
  733TMC3     H10837   3.020   2.555  13.055  1.0081 -2.4024 -0.1267
  733TMC3    H110838   2.948   2.824  12.738  0.6409 -0.1705 -1.2170
  733TMC3    H210839   3.310   2.609  12.756 -1.8909 -2.9814 -1.5234
  733TMC3    C710840   3.207   2.842  12.701 -0.2754  0.3790  0.8458
  733TMC3    C810841   3.270   2.590  13.014 -0.7411 -0.4733  0.1839
  733TMC3    O110842   3.321   2.840  12.745  0.0851 -0.4380  0.1518
  733TMC3    O210843   3.253   2.552  13.129  0.3760  0.4810 -0.0476
  734MPD2     C10844   0.360   0.745  11.960  0.0362  0.1363  0.4345
  734MPD2    C110845   0.250   0.704  11.882 -0.5198  0.5144  0.1471
  734MPD2    C210846   0.269   0.705  11.743  0.6630 -0.2788 -0.3939
  734MPD2    C310847   0.389   0.750  11.682  0.5564 -0.2527 -0.0222
  734MPD2    C410848   0.496   0.779  11.764 -0.3684  0.5129  0.0586
  734MPD2    C510849   0.484   0.771  11.901  0.4116  0.0586  0.3876
  734MPD2     H10850   0.200   0.664  11.669  0.0603  2.1726 -1.1798
  734MPD2    H110851   0.592   0.815  11.728 -0.8891  0.2989 -1.5630
  734MPD2    H210852   0.351   0.749  12.068 -0.5864 -0.2810  0.3982
  734MPD2    H310853   0.565   0.789  11.970  0.4933  1.8980 -0.1689
  734MPD2     N10854   0.406   0.734  11.548 -0.2946 -0.0441  0.4622
  734MPD2    H510855   0.319   0.718  11.498 -0.0432 -0.0979  0.0392
  734MPD2    N110856   0.128   0.677  11.938 -0.2383 -0.4854 -0.0183
  734MPD2    H710857   0.115   0.695  12.037  0.8983  0.3188 -0.0134
  735TMC3    C110858   4.639   0.567  11.933  0.2354 -0.3275 -0.5052
  735TMC3    C210859   4.528   0.545  11.857  0.4872 -0.0953  0.2769
  735TMC3    C310860   4.474   0.424  11.841 -0.2144 -0.8957  0.5970
  735TMC3    C410861   4.695   0.458  11.998  0.2150 -0.3610  0.1660
  735TMC3    C510862   4.640   0.335  11.976  0.8461  0.1720  1.0051
  735TMC3    C610863   4.528   0.312  11.901  0.4593 -0.0385 -0.2573
  735TMC3     C10864   0.011   0.643  11.868 -1.5752  0.2454  0.5895
  735TMC3     O10865   4.714   0.667  11.748  0.5034  0.1602  0.7274
  735TMC3     H10866   4.480   0.633  11.815  1.8266  0.9769  0.9888
  735TMC3    H110867   0.058   0.465  12.062  0.7885 -0.9722 -0.5537
  735TMC3    H210868   4.486   0.214  11.878  1.2141 -0.2775 -0.5922
  735TMC3    C710869   0.023   0.256  11.920 -0.2032  0.3676  0.6326
  735TMC3    C810870   4.452   0.405  11.699  0.4619 -0.0555 -0.0877
  735TMC3    O110871   0.074   0.298  11.816 -0.1722 -0.1608  0.2767
  735TMC3    O210872   4.368   0.324  11.664  0.3498  0.0105  1.0055
  736MPD2     C10873   0.202   4.685  12.078  0.6418 -0.6499  1.1108
  736MPD2    C110874   0.175   0.067  11.986 -0.6292  0.2321 -0.1524
  736MPD2    C210875   0.268   0.090  11.885 -0.4093 -0.9031  0.3265
  736MPD2    C310876   0.390   0.016  11.871 -0.2710  0.7303 -0.5653
  736MPD2    C410877   0.407   4.640  11.961 -0.8078 -0.1186 -0.0078
  736MPD2    C510878   0.313   4.611  12.058 -0.6049  0.3331 -0.1351
  736MPD2     H10879   0.265   0.179  11.823 -1.7219 -2.0912 -1.3079
  736MPD2    H110880   0.495   4.578  11.952 -0.2937  0.4584  1.0969
  736MPD2    H210881   0.134   4.656  12.157 -0.6836 -2.3248 -0.6701
  736MPD2    H310882   0.325   4.529  12.128  2.8841  0.4621 -0.5729
  736MPD2     N10883   0.487   0.040  11.769 -0.5584  0.0278  0.6869
  736MPD2    H510884   0.564   4.698  11.767 -0.8382 -0.2785  0.1818
  736MPD2    N110885   0.060   0.153  12.004 -0.0832  0.2248  0.4342
  736MPD2    H710886   0.004   0.125  12.083  0.8597 -1.4459  0.5105
  737TMC3    C110887   0.608   0.154  11.598 -0.5553  0.2453 -0.0483
  737TMC3    C210888   0.619   0.256  11.511 -0.6308 -1.0033 -0.6255
  737TMC3    C310889   0.722   0.251  11.423  0.0790  0.0755  0.0887
  737TMC3    C410890   0.694   0.043  11.599 -0.1177  0.4130  0.2141
  737TMC3    C510891   0.792   0.046  11.507 -0.2304  0.1604 -0.2416
  737TMC3    C610892   0.808   0.146  11.418 -0.2797  0.2561 -0.2708
  737TMC3     C10893   0.504   0.158  11.696 -0.2090  0.1341 -0.8267
  737TMC3     O10894   0.443   0.264  11.706  0.4889  0.0480 -0.0942
  737TMC3     H10895   0.555   0.343  11.522  1.8649  1.0832 -2.9119
  737TMC3    H110896   0.689   4.677  11.660  3.4933  0.7272  0.9303
  737TMC3    H210897   0.889   0.150  11.346 -0.0726 -0.2944 -0.0668
  737TMC3    C710898   0.877   4.656  11.492  0.3871 -0.5243 -0.3099
  737TMC3    C810899   0.758   0.366  11.351 -0.4279 -0.0230 -0.4266
  737TMC3    O110900   0.832   4.553  11.537  0.5502  0.4395  1.0534
  737TMC3    O210901   0.720   0.471  11.401  0.2655 -1.0506  0.8140
  738MPD2     C10902   0.945   3.988  15.359 -0.5066 -0.0787  0.0775
  738MPD2    C110903   1.020   3.900  15.287 -0.8387 -0.0295 -0.0494
  738MPD2    C210904   1.138   3.947  15.234  0.3878 -0.3933  0.1067
  738MPD2    C310905   1.182   4.076  15.256 -0.0804  0.1168 -0.1217
  738MPD2    C410906   1.114   4.162  15.349  0.9196  0.1955  0.3587
  738MPD2    C510907   0.993   4.110  15.396 -0.4407  0.2079 -0.2370
  738MPD2     H10908   1.200   3.884  15.172  1.3804  0.0209  0.6917
  738MPD2    H110909   1.142   4.263  15.375  0.6377  0.8258 -1.7219
  738MPD2    H210910   0.847   3.964  15.400  1.3125 -0.3539  4.3227
  738MPD2    H310911   0.933   4.174  15.459 -0.5399 -1.8604  1.7993
  738MPD2     N10912   1.301   4.124  15.198 -0.4659  0.1213 -0.5911
  738MPD2    H510913   1.336   4.213  15.233 -1.0383 -1.3705  3.7818
  738MPD2    N110914   0.977   3.765  15.265 -0.1900  0.2924  0.1558
  738MPD2    H710915   1.024   3.717  15.190  0.2053 -0.4793  0.9060
  739TMC3    C110916   1.490   4.140  15.069 -0.2933 -0.0763  0.0763
  739TMC3    C210917   1.504   4.150  14.935  0.5057 -0.0227 -0.6533
  739TMC3    C310918   1.562   4.258  14.878  0.1589 -0.8649 -0.3275
  739TMC3    C410919   1.508   4.252  15.151  0.0268 -0.6905  0.4285
  739TMC3    C510920   1.576   4.353  15.095 -0.0020 -0.3556  0.5346
  739TMC3    C610921   1.602   4.365  14.959 -0.4714 -0.3174  0.3712
  739TMC3     C10922   1.379   4.058  15.108 -0.0661 -0.8937 -0.6228
  739TMC3     O10923   1.347   3.963  15.039  0.3292  0.5753  0.1754
  739TMC3     H10924   1.468   4.063  14.881 -0.2777  0.6415 -1.2079
  739TMC3    H110925   1.508   4.245  15.259 -0.3372  2.8037  0.6544
  739TMC3    H210926   1.643   4.447  14.900 -1.0648 -0.2177  0.0929
  739TMC3    C710927   1.594   4.467  15.185  0.0755  0.0646  0.5683
  739TMC3    C810928   1.568   4.261  14.733  0.0897  0.1975 -0.5442
  739TMC3    O110929   1.536   4.462  15.291 -0.0527 -0.4660  0.2424
  739TMC3    O210930   1.515   4.167  14.671  0.3025 -0.1367  0.0990
  740TMC3    C110931   2.147   0.326  14.413 -0.1913 -0.5296 -0.0894
  740TMC3    C210932   2.147   0.242  14.522 -0.4925 -0.6884 -0.1420
  740TMC3    C310933   2.253   0.158  14.535  0.2855 -0.5812  0.1805
  740TMC3    C410934   2.238   0.323  14.312 -0.4143 -0.6079  0.0615
  740TMC3    C510935   2.332   0.224  14.320  0.4458  0.2464 -0.9189
  740TMC3    C610936   2.339   0.140  14.430 -0.2152  0.3743 -0.4669
  740TMC3     C10937   2.067   0.444  14.423 -0.0398  0.2222  0.1266
  740TMC3     O10938   2.111   0.553  14.399 -0.0625  1.0061 -0.2872
  740TMC3     H10939   2.083   0.267  14.605 -0.3063 -0.1563 -0.1584
  740TMC3    H110940   2.217   0.398  14.236 -2.7627  0.5745  1.8764
  740TMC3    H210941   2.414   0.063  14.442 -0.4578  0.1886 -0.1396
  740TMC3    C710942   2.442   0.211  14.222 -0.2186 -0.5126 -0.5812
  740TMC3    C810943   2.303   0.144  14.671  0.3023 -0.8677 -0.4090
  740TMC3    O110944   2.531   0.127  14.244  0.3914  0.2192 -0.1375
  740TMC3    O210945   2.417   0.106  14.678 -0.3601 -0.0448 -0.1062
  741TMC3    C110946   1.482   4.627  14.123 -0.9405  0.1074  0.2711
  741TMC3    C210947   1.368   4.556  14.118 -0.2834 -0.4329  0.0643
  741TMC3    C310948   1.317   4.507  14.236 -0.0923 -0.7087 -0.1462
  741TMC3    C410949   1.532   4.670  14.247  0.2831  0.5264 -0.1715
  741TMC3    C510950   1.476   4.622  14.360 -0.4071 -0.1470 -0.5849
  741TMC3    C610951   1.363   4.540  14.359 -0.3431 -0.2511 -0.7117
  741TMC3     C10952   1.518   4.716  14.012  0.3036  0.5780  0.1620
  741TMC3     O10953   1.603   0.075  14.037 -0.4914  0.1080  0.1610
  741TMC3     H10954   1.329   4.526  14.021  0.2008 -0.0008 -0.2644
  741TMC3    H110955   1.626   4.724  14.250 -0.1102  1.1465  0.9624
  741TMC3    H210956   1.295   4.530  14.442  0.2366 -1.4766 -0.3789
  741TMC3    C710957   1.516   4.697  14.485 -0.1070 -0.7832 -0.3038
  741TMC3    C810958   1.233   4.393  14.218 -0.6560 -0.4052  0.2719
  741TMC3    O110959   1.586   0.066  14.467  0.2563  0.3429  0.3087
  741TMC3    O210960   1.187   4.366  14.110  0.5028  0.3372  0.3953
  742TMC3    C110961   1.274   2.994  15.217 -0.7640  0.3268  0.9809
  742TMC3    C210962   1.184   2.949  15.121  0.0269  0.1840 -0.6674
  742TMC3    C310963   1.191   2.817  15.089  1.0280 -0.0991 -0.6424
  742TMC3    C410964   1.363   2.909  15.281 -0.0358  0.4650  0.9637
  742TMC3    C510965   1.360   2.777  15.252 -0.0050  0.0455 -0.2889
  742TMC3    C610966   1.276   2.728  15.152  0.5279 -0.3838  0.1993
  742TMC3     C10967   1.285   3.137  15.247  0.6579  0.0640  0.5085
  742TMC3     O10968   1.230   3.218  15.173 -0.1391  0.1601 -0.0790
  742TMC3     H10969   1.125   3.024  15.070 -1.4069 -0.3715  0.1554
  742TMC3    H110970   1.440   2.942  15.349  0.7662 -1.0922  0.7913
  742TMC3    H210971   1.283   2.631  15.105 -0.7286 -1.4444  2.2272
  742TMC3    C710972   1.442   2.681  15.327  0.3825  0.3445 -0.1735
  742TMC3    C810973   1.097   2.767  14.990  0.1440 -0.2967  0.3947
  742TMC3    O110974   1.537   2.728  15.387  0.1118 -0.4603 -0.0531
  742TMC3    O210975   1.133   2.660  14.940 -0.1139  0.4195 -0.6785
  743MPD2     C10976   3.868   2.977   1.315  0.3470 -0.3434  0.1695
  743MPD2    C110977   3.888   3.114   1.314  0.5436  0.2227  0.1449
  743MPD2    C210978   3.994   3.157   1.387  0.1710 -0.2652 -0.0038
  743MPD2    C310979   4.094   3.078   1.440 -0.0314 -0.5812  0.0863
  743MPD2    C410980   4.077   2.940   1.433 -0.1779  0.5256  0.3785
  743MPD2    C510981   3.963   2.894   1.369  0.4564  0.3050  0.2174
  743MPD2     H10982   4.015   3.263   1.392 -1.8607  0.1481 -0.1375
  743MPD2    H110983   4.155   2.874   1.470 -0.0990  0.0504 -0.6361
  743MPD2    H210984   3.780   2.933   1.270  0.7489 -1.6719  0.6749
  743MPD2    H310985   3.947   2.788   1.353  1.8783 -0.2224  2.4045
  743MPD2     N10986   4.213   3.143   1.484  1.1201  0.1469 -0.0373
  743MPD2    H510987   4.208   3.243   1.468  0.0946  0.3783  1.7062
  743MPD2    N110988   3.801   3.195   1.232 -0.5014  0.6455 -0.5541
  743MPD2    H710989   3.717   3.151   1.196 -0.2882 -0.4637  0.2902
  744TMC3    C110990   3.718   3.397   1.133  0.9356  0.0582 -0.1882
  744TMC3    C210991   3.591   3.354   1.125 -0.3308  0.6914  0.1118
  744TMC3    C310992   3.509   3.407   1.027 -0.8664  0.1740 -0.2003
  744TMC3    C410993   3.763   3.486   1.045  0.1145 -0.1530  0.7781
  744TMC3    C510994   3.679   3.533   0.946 -0.1444 -0.1209 -0.1353
  744TMC3    C610995   3.553   3.493   0.937 -0.1298  0.2889  0.1061
  744TMC3     C10996   3.817   3.328   1.217 -0.2286 -0.7447  0.3373
  744TMC3     O10997   3.912   3.401   1.235  0.0703  0.2267 -0.2156
  744TMC3     H10998   3.557   3.285   1.201 -1.6664 -0.1431 -1.2446
  744TMC3    H110999   3.863   3.527   1.055  0.5408 -1.5016  1.9791
  744TMC3    H211000   3.492   3.536   0.858 -1.5656  1.5018  1.8698
  744TMC3    C711001   3.738   3.616   0.846 -0.1120 -0.1431  0.2377
  744TMC3    C811002   3.366   3.378   1.026 -0.8964 -0.0933  0.2092
  744TMC3    O111003   3.657   3.695   0.796  0.0242 -0.0767 -0.6195
  744TMC3    O211004   3.307   3.416   0.929  0.3496  0.4443  0.4671
  745TMC3    C111005   1.869   2.559  13.690 -0.4744  0.2143 -0.2127
  745TMC3    C211006   1.810   2.545  13.808  0.2928  0.1070 -0.1449
  745TMC3    C311007   1.669   2.546  13.823 -0.1986  0.0358 -0.4396
  745TMC3    C411008   1.796   2.597  13.582  0.3624  0.4156  0.1605
  745TMC3    C511009   1.656   2.586  13.594  1.0139 -0.1547 -0.7703
  745TMC3    C611010   1.593   2.566  13.713  0.5552  0.6119 -0.5228
  745TMC3     C11011   2.000   2.622  13.696  0.5207  0.4589 -0.4834
  745TMC3     O11012   2.086   2.568  13.767  0.5677  0.0288  0.0288
  745TMC3     H11013   1.878   2.518  13.888  0.6759  1.0252 -0.1537
  745TMC3    H111014   1.850   2.599  13.488 -0.8558 -0.5161 -0.5602
  745TMC3    H211015   1.484   2.564  13.721  0.8109 -2.6626  2.1937
  745TMC3    C711016   1.577   2.596  13.473  0.2457  0.3047  0.0470
  745TMC3    C811017   1.611   2.587  13.944 -0.6456 -0.7142  0.5490
  745TMC3    O111018   1.465   2.549  13.478  0.0815 -0.0832  0.3158
  745TMC3    O211019   1.490   2.596  13.961 -0.2027  0.6451 -0.1962
  746TMC3    C111020   4.009   4.520  10.735 -0.1425  0.5191  0.1926
  746TMC3    C211021   4.084   4.471  10.632  0.8776 -0.1024 -0.7818
  746TMC3    C311022   4.069   4.342  10.596 -0.0610  0.8160 -0.5413
  746TMC3    C411023   3.925   4.447  10.806 -0.4246  0.1817  0.0057
  746TMC3    C511024   3.902   4.321  10.760  0.5681 -0.2325 -0.0290
  746TMC3    C611025   3.979   4.265  10.662 -0.4597 -0.1843  0.5721
  746TMC3     C11026   4.011   4.665  10.754  0.1566 -0.7259  0.4217
  746TMC3     O11027   3.953   4.715  10.850  0.3634 -0.0255  0.1581
  746TMC3     H11028   4.176   4.527  10.614  0.2906  0.7338 -1.2149
  746TMC3    H111029   3.884   4.482  10.900 -2.4846 -1.1461 -0.4044
  746TMC3    H211030   3.985   4.159  10.643  2.5298  0.1891 -0.5727
  746TMC3    C711031   3.756   4.289  10.764  0.0424 -0.1196  0.6920
  746TMC3    C811032   4.149   4.285  10.489  0.3865  0.2383  0.5858
  746TMC3    O111033   3.722   4.182  10.719 -0.8178  0.4003  0.1042
  746TMC3    O211034   4.168   4.165  10.488  0.5073 -0.4366 -0.1707
  747TMC3    C111035   1.802   4.535  10.946  0.1879  0.3668 -1.0378
  747TMC3    C211036   1.661   4.537  10.938 -0.0174 -0.3186  0.1239
  747TMC3    C311037   1.600   4.591  11.043  0.1481  0.2163  0.3674
  747TMC3    C411038   1.868   4.579  11.058 -0.2322  0.6659  0.4683
  747TMC3    C511039   1.796   4.632  11.157 -0.5896 -0.2387 -0.4901
  747TMC3    C611040   1.661   4.645  11.151 -0.4012 -0.4783  0.3402
  747TMC3     C11041   1.862   4.444  10.848  0.0999 -0.0235  0.2683
  747TMC3     O11042   1.780   4.371  10.790  0.0733  0.0601 -0.0535
  747TMC3     H11043   1.608   4.497  10.853 -0.0344  0.0799 -0.0515
  747TMC3    H111044   1.975   4.569  11.065 -0.3198 -1.4975 -1.0615
  747TMC3    H211045   1.602   4.698  11.225  0.6532  0.1608  0.7300
  747TMC3    C711046   1.858   4.706  11.267  0.0368  0.3313 -0.7299
  747TMC3    C811047   1.461   4.541  11.063  0.2780 -0.0818  0.7578
  747TMC3    O111048   1.782   4.722  11.362  0.1257  0.2004  0.1152
  747TMC3    O211049   1.435   4.445  10.991 -0.2935  0.2198 -0.1390
  748MPD2     C11050   2.531   0.406   1.591 -0.9349  0.4713 -0.2980
  748MPD2    C111051   2.626   0.327   1.656  0.2391 -0.1677  0.1387
  748MPD2    C211052   2.762   0.360   1.662  0.0673  0.3272 -0.0566
  748MPD2    C311053   2.803   0.468   1.593 -0.1062 -0.2014  0.2936
  748MPD2    C411054   2.704   0.557   1.555 -0.1161 -0.5417  0.6155
  748MPD2    C511055   2.571   0.531   1.550 -0.4994  0.3124 -0.7763
  748MPD2     H11056   2.831   0.295   1.715 -0.8828 -0.2599  0.4583
  748MPD2    H111057   2.726   0.654   1.512  0.1893 -0.3621  1.1701
  748MPD2    H211058   2.430   0.373   1.571 -1.0886 -0.4715  2.0662
  748MPD2    H311059   2.500   0.601   1.508 -0.4720  1.1976  0.6709
  748MPD2     N11060   2.940   0.495   1.582 -0.2912 -0.1349 -0.0279
  748MPD2    H511061   2.996   0.431   1.637  2.5559  1.4507 -1.1126
  748MPD2    N111062   2.573   0.202   1.702 -0.5295  0.5740  0.7095
  748MPD2    H711063   2.473   0.189   1.712 -0.1385 -3.4992 -0.5969
  749TMC3    C111064   3.136   0.588   1.522 -0.6469  0.7884  0.9089
  749TMC3    C211065   3.191   0.580   1.644 -0.3298 -0.2477  0.3467
  749TMC3    C311066   3.329   0.585   1.648 -0.4944  0.6105  0.0584
  749TMC3    C411067   3.213   0.598   1.402 -0.1086  0.0967  0.3504
  749TMC3    C511068   3.347   0.608   1.415  0.5328 -0.7380  0.4356
  749TMC3    C611069   3.404   0.602   1.536 -0.4006 -0.6090 -0.2216
  749TMC3     C11070   2.998   0.584   1.505 -0.0426  0.4486  0.0575
  749TMC3     O11071   2.950   0.655   1.418  0.8145 -0.3475 -0.2414
  749TMC3     H11072   3.133   0.569   1.735 -1.8796  0.1718 -0.5823
  749TMC3    H111073   3.166   0.613   1.306 -0.0764  0.5049  0.3975
  749TMC3    H211074   3.507   0.636   1.544 -0.1151 -1.5637  0.1047
  749TMC3    C711075   3.437   0.653   1.309 -0.2576  0.0898 -0.0926
  749TMC3    C811076   3.383   0.484   1.737 -0.1227 -0.2588  0.4269
  749TMC3    O111077   3.546   0.699   1.335  0.3017 -0.2172  0.0829
  749TMC3    O211078   3.354   0.472   1.854 -0.7218 -0.0358 -0.2014
  750MPD2     C11079   4.272   1.568  11.285 -0.1679  0.3297 -0.0158
  750MPD2    C111080   4.143   1.575  11.252 -0.1951 -0.0652 -0.7737
  750MPD2    C211081   4.092   1.501  11.149  0.1249 -0.0880  0.3640
  750MPD2    C311082   4.178   1.407  11.088  0.1811 -0.6297 -0.0992
  750MPD2    C411083   4.308   1.392  11.139  0.3598 -0.5306  0.0160
  750MPD2    C511084   4.357   1.477  11.231 -0.3752 -0.8882  0.2951
  750MPD2     H11085   3.986   1.510  11.131  0.1225 -1.8844 -0.5387
  750MPD2    H111086   4.382   1.321  11.102  0.0959  1.3286 -4.1512
  750MPD2    H211087   4.314   1.620  11.370  2.2618  0.3639 -1.2462
  750MPD2    H311088   4.457   1.468  11.272 -0.3326  2.8543  0.9331
  750MPD2     N11089   4.137   1.316  10.989  0.0214  0.3873  0.0868
  750MPD2    H511090   4.208   1.250  10.959  0.1703  0.0114  1.2515
  750MPD2    N111091   4.057   1.659  11.331 -0.7002  0.3825 -0.1021
  750MPD2    H711092   4.104   1.706  11.408 -2.0488 -1.6720  1.9762
  751TMC3    C111093   3.989   1.199  10.858 -0.0186 -0.0747  0.1028
  751TMC3    C211094   3.868   1.129  10.860 -0.2307  0.1663 -0.6022
  751TMC3    C311095   3.862   1.029  10.771  0.4072 -0.6699  0.0818
  751TMC3    C411096   4.094   1.171  10.772  0.1919  0.0543  0.6154
  751TMC3    C511097   4.073   1.066  10.690 -0.0388 -0.7531  0.5205
  751TMC3    C611098   3.959   0.990  10.685  0.3497  0.3305  0.0011
  751TMC3     C11099   4.009   1.310  10.938  0.1517  0.4618 -0.7063
  751TMC3     O11100   3.911   1.384  10.947 -0.6443  0.5596 -0.4008
  751TMC3     H11101   3.787   1.163  10.925  0.6321 -0.0561  0.5956
  751TMC3    H111102   4.189   1.222  10.771  1.1363 -1.7006  0.0554
  751TMC3    H211103   3.959   0.897  10.630 -0.7671  0.9785 -1.0865
  751TMC3    C711104   4.191   1.032  10.624  0.8225 -0.6478  0.1219
  751TMC3    C811105   3.730   0.990  10.720 -0.7221 -0.4437 -0.3099
  751TMC3    O111106   4.272   1.119  10.597 -0.1764  0.2413  0.0538
  751TMC3    O211107   3.736   0.933  10.609  0.5125 -0.6057 -0.7206
  752TMC3    C111108   3.132   1.016  17.356 -0.1223  0.3480 -1.0184
  752TMC3    C211109   3.043   0.987  17.455 -0.6448 -0.7328  0.4716
  752TMC3    C311110   3.076   1.030  17.584 -0.3656 -0.5543 -0.0109
  752TMC3    C411111   3.251   1.077  17.374 -0.0352 -0.0024 -0.0264
  752TMC3    C511112   3.275   1.117  17.502  0.0503  0.0110 -0.4722
  752TMC3    C611113   3.186   1.103  17.608  0.2856  0.0214 -0.0713
  752TMC3     C11114   3.096   0.989  17.216 -0.1723 -0.8728  0.2019
  752TMC3     O11115   3.183   0.996  17.133  0.1704  0.2934 -1.2311
  752TMC3     H11116   2.953   0.929  17.440 -1.5109  1.1484 -1.5383
  752TMC3    H111117   3.328   1.083  17.298 -1.4872  0.6235 -1.4511
  752TMC3    H211118   3.203   1.153   0.004  0.3037 -1.6409  0.8125
  752TMC3    C711119   3.368   1.231  17.519  0.1909 -0.2708  0.6170
  752TMC3    C811120   2.975   1.015  17.695 -0.1929 -0.1675 -0.6573
  752TMC3    O111121   3.429   1.246  17.411  0.1348 -0.1136 -0.1088
  752TMC3    O211122   2.876   0.964  17.651  0.0109  0.1796 -0.5652
  753TMC3    C111123   0.315   2.624  13.478  0.0089  0.2802 -0.3691
  753TMC3    C211124   0.285   2.613  13.610 -0.1201 -0.0905 -0.5162
  753TMC3    C311125   0.246   2.488  13.652  0.2523 -0.3658  0.0309
  753TMC3    C411126   0.292   2.524  13.390  0.3777  0.2094  0.6195
  753TMC3    C511127   0.244   2.403  13.432 -0.5272 -0.2067 -0.0598
  753TMC3    C611128   0.203   2.392  13.559  0.1235  0.4139  0.2570
  753TMC3     C11129   0.335   2.757  13.417  0.3728  0.5776 -0.3872
  753TMC3     O11130   0.311   2.772  13.294  1.0554  0.1052 -0.2945
  753TMC3     H11131   0.284   2.696  13.680  2.2035 -2.5503  2.4176
  753TMC3    H111132   0.326   2.533  13.288 -1.0839  0.6435  0.1781
  753TMC3    H211133   0.160   2.302  13.601  0.7574  0.2292  0.5088
  753TMC3    C711134   0.188   2.316  13.327 -0.0694  0.7006  0.1340
  753TMC3    C811135   0.191   2.477  13.780 -0.5396  0.5071 -0.1137
  753TMC3    O111136   0.257   2.300  13.230  0.0078  0.6887 -0.7084
  753TMC3    O211137   0.090   2.406  13.793  0.4224  0.7899 -0.2693
  754MPD2     C11138   3.291   1.287  12.490 -0.4636  0.1601  0.0322
  754MPD2    C111139   3.295   1.171  12.565 -0.1313 -0.3035 -0.4778
  754MPD2    C211140   3.183   1.130  12.638 -0.1916 -0.0310 -0.4554
  754MPD2    C311141   3.075   1.216  12.652 -0.2027 -0.2879 -0.2386
  754MPD2    C411142   3.074   1.337  12.588 -0.1763  0.5681  0.2789
  754MPD2    C511143   3.181   1.364  12.506 -0.8098  0.1081 -0.3594
  754MPD2     H11144   3.184   1.037  12.693 -0.8147 -0.8069 -1.7437
  754MPD2    H111145   2.996   1.411  12.597 -0.7413  0.2290 -1.9390
  754MPD2    H211146   3.368   1.327  12.425  2.9473 -1.8167  2.8845
  754MPD2    H311147   3.182   1.458  12.452 -0.1468 -0.2709 -1.0060
  754MPD2     N11148   2.972   1.184  12.743 -0.3858  0.1836 -0.5244
  754MPD2    H511149   2.893   1.247  12.752 -0.5723 -0.3257  1.3701
  754MPD2    N111150   3.411   1.091  12.572 -0.0754  0.1769 -0.2198
  754MPD2    H711151   3.406   1.015  12.639 -2.3441 -0.3002 -0.9111
  755MPD2     C11152   2.595   1.779  13.235 -0.0807 -0.2949  0.6054
  755MPD2    C111153   2.662   1.708  13.331 -0.0532  0.2491 -0.0831
  755MPD2    C211154   2.715   1.585  13.291  0.5401 -0.1800  0.6517
  755MPD2    C311155   2.707   1.538  13.158  0.1796  0.2934 -0.2063
  755MPD2    C411156   2.656   1.625  13.067  0.9255 -0.1373  0.0790
  755MPD2    C511157   2.605   1.747  13.107 -0.2367  0.5660 -0.6642
  755MPD2     H11158   2.747   1.510  13.363  0.5975  0.1460  0.9631
  755MPD2    H111159   2.663   1.588  12.965 -0.2712 -0.6007  0.1585
  755MPD2    H211160   2.539   1.871  13.254  2.1375  0.8719  1.4645
  755MPD2    H311161   2.563   1.807  13.028 -1.2899  0.6445 -0.0504
  755MPD2     N11162   2.740   1.405  13.118  0.4243 -0.4537  0.0644
  755MPD2    H511163   2.721   1.364  13.027 -2.3323  0.8790  0.0424
  755MPD2    N111164   2.669   1.747  13.466 -0.1552 -0.2381  0.2952
  755MPD2    H711165   2.711   1.678  13.526 -1.1300 -3.0306 -2.2459
  756MPD2     C11166   4.365   2.430   9.605  0.8557  0.4347  0.1455
  756MPD2    C111167   4.272   2.374   9.687  0.0008  0.1566 -0.5830
  756MPD2    C211168   4.192   2.280   9.632  0.2939 -0.5042  0.0156
  756MPD2    C311169   4.176   2.264   9.494 -0.2224  0.3590  0.3218
  756MPD2    C411170   4.261   2.333   9.407  0.6472  0.6825  0.1477
  756MPD2    C511171   4.358   2.416   9.460  0.7776  0.1375 -0.0188
  756MPD2     H11172   4.119   2.239   9.700  1.2818 -0.6520  1.0012
  756MPD2    H111173   4.262   2.318   9.300 -0.5500  2.1824 -0.0622
  756MPD2    H211174   4.447   2.493   9.639  1.8364 -0.5095 -0.4622
  756MPD2    H311175   4.413   2.493   9.408  1.6535 -1.0668 -0.8730
  756MPD2     N11176   4.086   2.169   9.434  0.0512  0.1945 -0.1908
  756MPD2    H511177   4.024   2.116   9.495  0.7473 -1.3725 -0.8342
  756MPD2    N111178   4.275   2.392   9.827  0.1427 -0.6035 -0.5439
  756MPD2    H711179   4.215   2.332   9.882 -1.2321  1.8055  0.6053
  757MPD2     C11180   3.262   1.696   8.938 -0.5343 -0.0398  0.4227
  757MPD2    C111181   3.289   1.642   9.066  0.2495  0.0557  0.3150
  757MPD2    C211182   3.400   1.684   9.129 -0.9258 -0.3515  0.4460
  757MPD2    C311183   3.487   1.770   9.075 -0.5546 -0.2335  0.2071
  757MPD2    C411184   3.467   1.820   8.949 -0.3601 -0.0522 -0.9910
  757MPD2    C511185   3.353   1.782   8.880  0.0243  0.4987 -0.1003
  757MPD2     H11186   3.431   1.651   9.228 -0.7999 -0.8150  0.2509
  757MPD2    H111187   3.526   1.895   8.897  0.2150 -0.8639 -1.5021
  757MPD2    H211188   3.172   1.674   8.881 -1.0676 -0.1064  1.2822
  757MPD2    H311189   3.334   1.822   8.781 -1.7863  0.9000  0.3983
  757MPD2     N11190   3.601   1.810   9.153 -0.5166 -0.2143  0.2948
  757MPD2    H511191   3.590   1.779   9.249  1.7528 -2.7724 -0.2549
  757MPD2    N111192   3.207   1.549   9.129 -0.3446 -0.3855 -0.1876
  757MPD2    H711193   3.109   1.545   9.103 -0.7164  1.1071  0.9715
  758MPD2     C11194   3.600   0.805  16.461 -0.2010  0.0663  0.7936
  758MPD2    C111195   3.704   0.816  16.552  0.2519 -0.2826 -0.0281
  758MPD2    C211196   3.692   0.866  16.673 -0.1819 -0.6807 -0.5080
  758MPD2    C311197   3.568   0.900  16.713 -0.0447  0.6188  0.0368
  758MPD2    C411198   3.459   0.889  16.632  0.1378 -0.0648  0.6983
  758MPD2    C511199   3.474   0.832  16.504 -0.1902  0.8249 -0.0316
  758MPD2     H11200   3.773   0.879  16.745 -2.0296 -0.3490  1.5009
  758MPD2    H111201   3.359   0.913  16.668 -0.0410 -0.2219  0.3154
  758MPD2    H211202   3.622   0.759  16.365 -0.6075  1.6840 -0.0768
  758MPD2    H311203   3.393   0.816  16.434 -1.3299  0.7718  1.3190
  758MPD2     N11204   3.536   0.947  16.845 -0.0151 -0.3666 -0.3806
  758MPD2    H511205   3.438   0.971  16.855  0.4841  1.6353 -0.2806
  758MPD2    N111206   3.830   0.766  16.502  0.7360  0.5726 -0.3673
  758MPD2    H711207   3.825   0.705  16.421  3.3552 -1.1738  0.7847
  759MPD2     C11208   3.130   3.602   9.237 -0.0447  0.2507  1.0070
  759MPD2    C111209   3.137   3.720   9.301 -0.0929  0.2518 -0.0878
  759MPD2    C211210   3.165   3.831   9.230 -0.2425  0.0075 -0.2395
  759MPD2    C311211   3.201   3.825   9.102 -0.2204  0.2048 -0.0440
  759MPD2    C411212   3.195   3.702   9.039 -0.4700  0.2506 -0.5767
  759MPD2    C511213   3.163   3.587   9.108 -0.0802  0.4412 -0.0014
  759MPD2     H11214   3.176   3.926   9.280 -3.2797  0.8278 -1.0668
  759MPD2    H111215   3.203   3.695   8.931  0.5994 -3.1446 -0.2667
  759MPD2    H211216   3.105   3.505   9.276 -1.5616  0.1310 -0.2864
  759MPD2    H311217   3.155   3.495   9.052  2.2686  0.0614  0.3152
  759MPD2     N11218   3.249   3.942   9.038 -0.0601 -0.0218 -0.0467
  759MPD2    H511219   3.255   4.028   9.092  0.7007  0.5831 -1.0795
  759MPD2    N111220   3.106   3.732   9.438 -0.7989  0.4333 -0.2815
  759MPD2    H711221   3.083   3.828   9.464 -0.6353  0.6166 -0.8038
  760MPD2     C11222   2.137   1.485  11.966  0.2215 -0.0344 -0.8215
  760MPD2    C111223   2.257   1.433  11.930  0.4656 -0.1150  0.2181
  760MPD2    C211224   2.289   1.303  11.973  0.1499 -0.1897 -0.7344
  760MPD2    C311225   2.205   1.225  12.047 -0.0852  0.1000  0.1534
  760MPD2    C411226   2.100   1.289  12.099 -0.2353  0.1304 -0.2805
  760MPD2    C511227   2.059   1.412  12.055 -0.8080 -0.9097  0.3734
  760MPD2     H11228   2.376   1.255  11.930  0.9259  0.3282  0.2620
  760MPD2    H111229   2.043   1.243  12.179 -2.9768  0.2794 -2.1467
  760MPD2    H211230   2.116   1.589  11.945 -1.1224  0.2577  2.0772
  760MPD2    H311231   1.966   1.446  12.100  0.4660  2.2561  0.6636
  760MPD2     N11232   2.229   1.094  12.088 -0.1743 -0.1817  0.4088
  760MPD2    H511233   2.164   1.053  12.154 -0.7874 -1.6211 -1.0886
  760MPD2    N111234   2.363   1.502  11.863  0.0186  1.0436  0.3730
  760MPD2    H711235   2.456   1.460  11.863  0.6541  2.4696 -1.6235
  761MPD2     C11236   3.222   0.913  10.746  0.4527 -0.1190  0.1048
  761MPD2    C111237   3.324   0.850  10.676 -0.1224 -0.2157 -0.2863
  761MPD2    C211238   3.456   0.876  10.705  0.0232  0.2028 -0.2412
  761MPD2    C311239   3.484   0.984  10.779  0.0879  0.4552  0.5977
  761MPD2    C411240   3.384   1.054  10.847 -0.1284 -0.2135 -0.5522
  761MPD2    C511241   3.255   1.010  10.836 -0.3695 -0.1009  0.1404
  761MPD2     H11242   3.536   0.813  10.668  0.2537  0.7169 -0.6122
  761MPD2    H111243   3.404   1.139  10.913 -2.4150 -0.4115  0.3811
  761MPD2    H211244   3.116   0.907  10.725  0.4028 -1.4709  0.7408
  761MPD2    H311245   3.177   1.067  10.886 -0.1876  0.0807  0.2150
  761MPD2     N11246   3.620   1.025  10.801 -0.5202  0.1283 -0.0082
  761MPD2    H511247   3.645   1.089  10.876 -1.4162  0.1431  0.2754
  761MPD2    N111248   3.295   0.735  10.597 -0.4805  0.3312 -0.0520
  761MPD2    H711249   3.197   0.707  10.597 -0.2329 -0.5291 -2.3231
  762MPD2     C11250   3.815   0.694  10.380  0.7357  0.2657 -0.4104
  762MPD2    C111251   3.805   0.562  10.365  0.7648  0.6183 -0.0488
  762MPD2    C211252   3.906   0.490  10.304  0.3864  0.0797  0.0325
  762MPD2    C311253   4.022   0.549  10.268  0.4594  0.1154 -0.4330
  762MPD2    C411254   4.039   0.688  10.282 -0.8989  0.0247 -0.5316
  762MPD2    C511255   3.934   0.755  10.342  0.5005 -0.7302 -0.6523
  762MPD2     H11256   3.887   0.384  10.292  0.3316 -0.1532  2.2276
  762MPD2    H111257   4.130   0.742  10.261  0.6973 -1.1235  3.3286
  762MPD2    H211258   3.738   0.757  10.422 -0.0218  0.9439 -2.8181
  762MPD2    H311259   3.947   0.859  10.367  0.8519 -1.1771  1.0540
  762MPD2     N11260   4.130   0.469  10.217 -0.2238 -0.1044  0.4547
  762MPD2    H511261   4.102   0.371  10.213  1.8370 -0.7092  0.4143
  762MPD2    N111262   3.682   0.509  10.403  0.0835 -0.4648 -0.2933
  762MPD2    H711263   3.607   0.574  10.421  1.8281  1.2697  0.7977
  763MPD2     C11264   0.406   0.654  16.145 -0.7741  0.5225  0.0100
  763MPD2    C111265   0.483   0.759  16.091  0.3798  0.4298  0.8948
  763MPD2    C211266   0.529   0.867  16.171 -0.4688  0.0034 -0.0801
  763MPD2    C311267   0.493   0.860  16.310  0.1671 -0.2294 -0.3678
  763MPD2    C411268   0.408   0.757  16.358 -0.1321  0.0316  0.4258
  763MPD2    C511269   0.373   0.659  16.273 -0.1049  0.7354  1.0272
  763MPD2     H11270   0.601   0.932  16.122 -2.2486  3.2016  1.5222
  763MPD2    H111271   0.374   0.752  16.461 -0.8712  0.6458  0.2089
  763MPD2    H211272   0.370   0.563  16.098  0.0716 -0.8168  1.9522
  763MPD2    H311273   0.329   0.569  16.314  0.0329  0.9470  1.6419
  763MPD2     N11274   0.556   0.937  16.408  0.4846  0.8352  0.2136
  763MPD2    H511275   0.550   0.900  16.502 -1.6744  1.8318  0.4816
  763MPD2    N111276   0.511   0.765  15.954  0.0475  0.5444 -0.3478
  763MPD2    H711277   0.564   0.843  15.918  2.5084 -0.0172  2.0956
  764MPD2     C11278   3.472   2.440  17.174 -0.8067  0.7027 -0.0058
  764MPD2    C111279   3.405   2.317  17.164  0.9281 -0.7316 -0.0019
  764MPD2    C211280   3.443   2.215  17.252  0.5191  0.1833 -0.5127
  764MPD2    C311281   3.520   2.229  17.356  0.7122 -0.1510  0.2453
  764MPD2    C411282   3.583   2.353  17.372 -0.9656  0.1932 -0.9743
  764MPD2    C511283   3.563   2.447  17.281  0.1901 -1.0166  0.2265
  764MPD2     H11284   3.404   2.114  17.243  1.9141 -0.5706  2.0544
  764MPD2    H111285   3.654   2.376  17.451 -0.2016  1.0867 -1.9135
  764MPD2    H211286   3.462   2.516  17.098  0.2885 -0.7411 -1.5901
  764MPD2    H311287   3.610   2.543  17.296 -0.0711 -1.2518  2.4502
  764MPD2     N11288   3.524   2.119  17.446 -0.9111 -0.0671 -0.3452
  764MPD2    H511289   3.461   2.042  17.424 -0.0412 -0.2376 -2.2115
  764MPD2    N111290   3.312   2.286  17.060 -0.4395  0.2418  0.2264
  764MPD2    H711291   3.272   2.192  17.064  0.3063 -0.0624  0.5990
  765MPD2     C11292   3.330   4.357  16.103 -0.0554  0.6143  0.6767
  765MPD2    C111293   3.371   4.474  16.037  0.0824 -0.3971 -0.0236
  765MPD2    C211294   3.506   4.490  16.013  0.2385 -0.4033 -0.6448
  765MPD2    C311295   3.608   4.400  16.047 -0.4655 -0.2569 -0.0170
  765MPD2    C411296   3.564   4.291  16.116  0.3169  0.7447 -0.3182
  765MPD2    C511297   3.427   4.269  16.144 -0.1104 -0.3670  0.3229
  765MPD2     H11298   3.541   4.583  15.971  0.2522  0.3672  1.0558
  765MPD2    H111299   3.629   4.206  16.134 -3.3112 -1.7494  1.0076
  765MPD2    H211300   3.226   4.331  16.123  0.2290 -2.6026 -1.9836
  765MPD2    H311301   3.395   4.172  16.181 -2.2631 -0.8326 -2.7052
  765MPD2     N11302   3.732   4.425  15.996  0.0635  0.3370 -0.4191
  765MPD2    H511303   3.749   4.513  15.948 -1.2599  1.1563  0.5968
  765MPD2    N111304   3.272   4.572  16.010  0.3603 -0.3651 -0.2753
  765MPD2    H711305   3.180   4.553  16.048 -0.2372 -1.0244 -2.0788
  766MPD2     C11306   2.768   4.684  15.504  0.0519  0.5576  0.1550
  766MPD2    C111307   2.859   0.061  15.509 -0.0620 -0.0881 -0.2125
  766MPD2    C211308   2.916   0.109  15.393  0.5326 -0.4597 -0.1407
  766MPD2    C311309   2.891   0.044  15.273 -0.7436  0.0513 -0.4464
  766MPD2    C411310   2.802   4.659  15.263  0.3298 -1.3180 -0.5030
  766MPD2    C511311   2.736   4.624  15.377 -0.0324  0.2679  0.3065
  766MPD2     H11312   2.997   0.181  15.401 -0.8086  0.7779  2.0690
  766MPD2    H111313   2.774   4.614  15.168 -0.1266 -1.9205 -0.0823
  766MPD2    H211314   2.715   4.656  15.594 -0.0870  0.2431 -0.0280
  766MPD2    H311315   2.661   4.548  15.367  1.8366 -1.4360 -0.7830
  766MPD2     N11316   2.964   0.098  15.157  0.4803  0.3626  0.3157
  766MPD2    H511317   3.038   0.164  15.178  0.2875  1.0435 -1.2088
  766MPD2    N111318   2.913   0.107  15.631  0.4642 -0.5868  0.3744
  766MPD2    H711319   2.974   0.188  15.621  0.7430 -1.2598 -3.1023
  767MPD2     C11320   2.470   0.492  15.190  0.2374  0.1472  0.3802
  767MPD2    C111321   2.600   0.490  15.137  0.0553 -0.1753 -0.2785
  767MPD2    C211322   2.619   0.474  15.001  0.2683 -0.0524 -0.4290
  767MPD2    C311323   2.510   0.467  14.913  0.3455  0.6189  0.5107
  767MPD2    C411324   2.384   0.484  14.973 -0.0471 -0.1507  0.2225
  767MPD2    C511325   2.366   0.508  15.105  0.2954  0.5021  0.2807
  767MPD2     H11326   2.718   0.464  14.959 -1.0835 -2.3042 -3.0956
  767MPD2    H111327   2.292   0.477  14.916 -0.5356  2.8463  0.6389
  767MPD2    H211328   2.455   0.499  15.297  0.9848  0.5391  0.4557
  767MPD2    H311329   2.265   0.505  15.143  0.3192 -2.2117  0.1759
  767MPD2     N11330   2.532   0.457  14.779  0.2473 -0.1746  0.0095
  767MPD2    H511331   2.630   0.451  14.752  0.5376 -0.8880  1.2433
  767MPD2    N111332   2.711   0.492  15.228  0.3429 -0.3069  0.0141
  767MPD2    H711333   2.686   0.475  15.325  0.5430  2.5284  0.5574
  768MPD2     C11334   3.364   3.432  10.817 -0.0200  0.1960  0.3080
  768MPD2    C111335   3.380   3.550  10.889  0.4205  0.0663 -0.0954
  768MPD2    C211336   3.488   3.576  10.964  0.3564 -0.0903 -0.1983
  768MPD2    C311337   3.586   3.488  10.983  0.0120  0.2736  0.1201
  768MPD2    C411338   3.567   3.363  10.925  0.2055  0.0296 -0.7410
  768MPD2    C511339   3.454   3.336  10.848 -0.5458  0.0430 -0.2386
  768MPD2     H11340   3.497   3.669  11.019 -0.0578  0.0902 -0.4388
  768MPD2    H111341   3.634   3.280  10.943 -0.0840 -0.3967 -1.6137
  768MPD2    H211342   3.286   3.413  10.745 -0.1604  1.9052  0.0084
  768MPD2    H311343   3.449   3.237  10.802  0.6017 -0.5647  0.9745
  768MPD2     N11344   3.707   3.518  11.055 -0.8141  0.2943  0.0283
  768MPD2    H511345   3.768   3.439  11.075 -2.3199 -1.0039 -0.5040
  768MPD2    N111346   3.287   3.661  10.876  0.2159 -0.6825  0.4590
  768MPD2    H711347   3.295   3.751  10.922  1.5013 -0.2550 -0.6097
  769MPD2     C11348   4.695   1.755  14.708 -0.3091 -0.2850 -0.6648
  769MPD2    C111349   4.640   1.683  14.811 -0.0197  1.0134  0.1028
  769MPD2    C211350   4.701   1.681  14.939  0.0993 -0.1146  0.2521
  769MPD2    C311351   0.091   1.763  14.967 -0.5452 -0.2765 -0.0201
  769MPD2    C411352   0.138   1.844  14.866 -0.5424  0.2644 -0.2715
  769MPD2    C511353   0.076   1.837  14.736 -0.0664 -0.5249  0.0117
  769MPD2     H11354   4.668   1.611  15.015 -0.5717 -0.3426 -0.2515
  769MPD2    H111355   0.238   1.886  14.871 -0.7820  0.7743  0.2438
  769MPD2    H211356   4.653   1.760  14.608  2.3222 -0.2256 -1.7721
  769MPD2    H311357   0.127   1.894  14.660 -0.9233  1.4887  0.9436
  769MPD2     N11358   0.141   1.767  15.100 -0.2495 -0.4212  0.1485
  769MPD2    H511359   0.102   1.695  15.160 -1.7723  0.6476  0.4419
  769MPD2    N111360   4.542   1.594  14.781  1.1459 -0.0807  0.1042
  769MPD2    H711361   4.510   1.587  14.685 -0.9542  0.6274  0.7482
  770MPD2     C11362   4.059   0.607  14.845 -0.0953 -0.1280  0.0214
  770MPD2    C111363   4.095   0.681  14.953 -0.2987  0.0465  0.0928
  770MPD2    C211364   4.153   0.809  14.938  0.4412  0.0111 -0.5314
  770MPD2    C311365   4.179   0.859  14.816 -0.5516  0.2572 -0.7063
  770MPD2    C411366   4.152   0.777  14.711  0.2466 -0.3616 -0.2688
  770MPD2    C511367   4.093   0.657  14.726  0.4422  0.3548 -0.1520
  770MPD2     H11368   4.171   0.874  15.023 -0.8460  0.0114 -0.2596
  770MPD2    H111369   4.165   0.823  14.614  1.8947 -1.8718 -0.7717
  770MPD2    H211370   4.009   0.511  14.852 -0.8676  0.2734 -0.0172
  770MPD2    H311371   4.061   0.603  14.638  0.6076 -0.6502  0.4022
  770MPD2     N11372   4.210   0.987  14.783  0.0926 -0.3316 -0.0588
  770MPD2    H511373   4.206   1.009  14.684  0.9801 -1.6270 -0.3742
  770MPD2    N111374   4.075   0.638  15.085 -0.3795  0.4054 -0.5114
  770MPD2    H711375   4.121   0.696  15.154  0.1363 -0.5481 -0.0550
  771MPD2     C11376   0.483   4.148  13.512 -0.0355  0.2379 -0.8730
  771MPD2    C111377   0.482   4.278  13.464  0.5427  0.0391 -0.3983
  771MPD2    C211378   0.400   4.314  13.354 -0.2037  0.2880 -0.3873
  771MPD2    C311379   0.335   4.214  13.276 -1.6590 -0.0532  0.9370
  771MPD2    C411380   0.349   4.079  13.322  0.5635  0.2997  0.6498
  771MPD2    C511381   0.421   4.054  13.433  1.0043  0.0802  0.6576
  771MPD2     H11382   0.395   4.417  13.321 -0.1144 -0.4010 -2.5517
  771MPD2    H111383   0.303   4.004  13.259  1.6737  1.8436 -2.0156
  771MPD2    H211384   0.539   4.119  13.600  0.0101  1.0031 -0.6541
  771MPD2    H311385   0.423   3.952  13.469 -0.3377 -0.6771 -1.3757
  771MPD2     N11386   0.265   4.249  13.158  0.1864 -0.3537 -0.6301
  771MPD2    H511387   0.261   4.349  13.138  0.7688 -0.9663 -3.7514
  771MPD2    N111388   0.555   4.383  13.532 -0.1904 -0.1394 -0.6118
  771MPD2    H711389   0.538   4.475  13.494  0.3679  0.7561  1.3380
  772MPD2     C11390   0.386   0.328  13.705  0.2887 -0.5428 -0.1308
  772MPD2    C111391   0.355   0.198  13.672  0.0832 -0.0293  0.0036
  772MPD2    C211392   0.224   0.157  13.679 -0.4123 -0.0669  1.0467
  772MPD2    C311393   0.122   0.240  13.729  0.4377  1.1286 -0.5621
  772MPD2    C411394   0.159   0.359  13.790  0.1548  1.0120  0.1567
  772MPD2    C511395   0.291   0.405  13.768 -0.5857  0.5359 -0.4481
  772MPD2     H11396   0.195   0.055  13.655  0.1911  0.2522 -1.0093
  772MPD2    H111397   0.086   0.423  13.838  1.8199  2.3449  0.9145
  772MPD2    H211398   0.477   0.378  13.672  0.9008 -1.1971  0.5789
  772MPD2    H311399   0.327   0.506  13.788  2.4998 -0.2085 -2.1602
  772MPD2     N11400   4.712   0.201  13.746 -0.4307 -0.0018  0.7874
  772MPD2    H511401   4.653   0.261  13.804  1.0032  1.3370  0.8711
  772MPD2    N111402   0.457   0.107  13.635  0.5912  0.5380 -0.4338
  772MPD2    H711403   0.423   0.013  13.614 -0.4657  0.5326  1.2749
  773MPD2     C11404   3.934   1.330   0.518  0.1391  0.4330 -0.2761
  773MPD2    C111405   3.931   1.200   0.476  0.5894 -0.2232 -0.1467
  773MPD2    C211406   3.985   1.103   0.562 -0.2216  0.0418 -0.4796
  773MPD2    C311407   4.045   1.142   0.681  0.1277  0.7064 -0.6028
  773MPD2    C411408   4.045   1.275   0.718  0.1208 -0.1702 -0.2750
  773MPD2    C511409   3.997   1.366   0.631  0.1453 -0.5867  0.0184
  773MPD2     H11410   3.984   1.003   0.520 -3.1265  0.2946 -1.0475
  773MPD2    H111411   4.098   1.310   0.805  0.8721 -0.3386 -0.6589
  773MPD2    H211412   3.879   1.408   0.467  0.5915 -0.6521 -2.3983
  773MPD2    H311413   4.015   1.465   0.672 -0.4184 -0.9459  1.1162
  773MPD2     N11414   4.120   1.041   0.747 -0.1352  0.5068  0.1876
  773MPD2    H511415   4.113   0.949   0.704  1.0650 -0.5396  2.2868
  773MPD2    N111416   3.871   1.162   0.358 -0.4412 -0.5619 -0.5003
  773MPD2    H711417   3.869   1.065   0.329 -0.0945 -0.2477 -1.5836
  774MPD2     C11418   3.104   0.566  13.076 -0.8132  0.0214  0.4974
  774MPD2    C111419   3.233   0.567  13.129 -0.8636 -0.4534  0.4878
  774MPD2    C211420   3.343   0.614  13.060  0.3176 -0.3458  0.1488
  774MPD2    C311421   3.319   0.661  12.931  0.7590  0.7870  0.0696
  774MPD2    C411422   3.197   0.645  12.872 -0.2439 -0.1080  0.3738
  774MPD2    C511423   3.091   0.587  12.936 -0.5553 -0.5865 -0.1536
  774MPD2     H11424   3.440   0.637  13.102 -0.1398  0.6406  0.6754
  774MPD2    H111425   3.185   0.677  12.769  3.0608 -1.2670 -0.3577
  774MPD2    H211426   3.016   0.538  13.133 -0.9738  2.8455  1.6206
  774MPD2    H311427   2.996   0.567  12.888  0.8942 -2.3088 -2.3271
  774MPD2     N11428   3.436   0.712  12.871 -0.1531  0.1953 -0.2182
  774MPD2    H511429   3.511   0.739  12.933 -0.7099  0.5302  0.3103
  774MPD2    N111430   3.253   0.526  13.264  0.0238 -0.1783 -0.1089
  774MPD2    H711431   3.176   0.467  13.294  0.6228  0.2116  2.1877
  775MPD2     C11432   0.459   1.694  15.870 -0.4581 -0.2175  0.4756
  775MPD2    C111433   0.469   1.805  15.948  0.4402 -0.5226  0.6448
  775MPD2    C211434   0.561   1.900  15.911  0.2836  0.7429  0.0773
  775MPD2    C311435   0.630   1.888  15.790 -0.3178  0.5970  0.3373
  775MPD2    C411436   0.625   1.772  15.717  0.3331 -0.3687  0.1091
  775MPD2    C511437   0.536   1.673  15.757  0.3364 -0.3981  0.1887
  775MPD2     H11438   0.563   1.993  15.966  0.9742  1.3983 -1.0493
  775MPD2    H111439   0.685   1.762  15.628  1.9890  0.7274  1.1139
  775MPD2    H211440   0.390   1.614  15.895  0.9139 -1.1022  1.3881
  775MPD2    H311441   0.535   1.583  15.696  0.0429 -2.0077  2.5196
  775MPD2     N11442   0.707   1.991  15.739  0.1903 -0.4866 -0.1362
  775MPD2    H511443   0.733   1.976  15.642 -2.0420  3.1431 -1.2905
  775MPD2    N111444   0.379   1.818  16.058 -0.7006 -0.7126 -0.0905
  775MPD2    H711445   0.319   1.737  16.069 -0.5355 -0.5588  1.9029
  776MPD2     C11446   4.243   2.112  11.752 -0.2111  0.3386  0.3581
  776MPD2    C111447   4.166   2.139  11.641 -0.3592  0.5087 -0.1460
  776MPD2    C211448   4.204   2.239  11.550  0.2505 -0.2796 -0.6174
  776MPD2    C311449   4.312   2.323  11.575 -0.2238 -0.0945 -0.7796
  776MPD2    C411450   4.395   2.278  11.682  0.3291 -0.3331  0.3384
  776MPD2    C511451   4.357   2.179  11.769 -0.2958 -0.4386  0.1961
  776MPD2     H11452   4.137   2.257  11.466  0.3513 -0.6400 -0.7739
  776MPD2    H111453   4.489   2.330  11.695 -0.6478  0.9993  2.0617
  776MPD2    H211454   4.213   2.040  11.827 -2.1856  1.6624  0.8309
  776MPD2    H311455   4.420   2.165  11.856  1.5238 -1.2167 -1.2357
  776MPD2     N11456   4.366   2.420  11.484  0.3577 -0.0481 -0.0848
  776MPD2    H511457   4.458   2.461  11.501  0.2324  0.8178 -1.5102
  776MPD2    N111458   4.054   2.064  11.610 -0.0349  0.0328 -0.2617
  776MPD2    H711459   4.006   2.080  11.522  0.2703 -1.2148 -0.6528
  777MPD2     C11460   3.532   0.009   0.743  0.1856 -0.3193 -0.8746
  777MPD2    C111461   3.632   4.645   0.780  0.1292 -0.6256 -0.3538
  777MPD2    C211462   3.653   4.548   0.695  0.0659 -0.3394 -0.1567
  777MPD2    C311463   3.603   4.536   0.559 -0.1778 -0.2201  0.2294
  777MPD2    C411464   3.511   4.636   0.514  0.0178  0.2002  0.3934
  777MPD2    C511465   3.477   0.004   0.614 -0.5814 -0.6574 -0.5546
  777MPD2     H11466   3.729   4.476   0.724  0.0947 -0.5419 -0.7314
  777MPD2    H111467   3.455   4.628   0.422 -0.6005  0.7315  0.7271
  777MPD2    H211468   3.496   0.080   0.815 -2.2372 -2.4854  0.0528
  777MPD2    H311469   3.407   0.085   0.592  3.6527  2.8920 -0.9103
  777MPD2     N11470   3.647   4.429   0.488 -0.3956 -0.1480  0.0832
  777MPD2    H511471   3.738   4.394   0.515 -0.3644 -1.5613 -1.8831
  777MPD2    N111472   3.679   4.647   0.914 -0.0940  0.8127  0.6293
  777MPD2    H711473   3.620   4.702   0.976 -1.0501 -0.6678  1.0319
  778MPD2     C11474   0.317   0.038  14.800  0.4618 -0.1582 -0.1006
  778MPD2    C111475   0.347   4.670  14.697  0.1471  0.3456  0.1500
  778MPD2    C211476   0.463   4.688  14.619  0.6836  0.0260  0.3221
  778MPD2    C311477   0.530   0.085  14.629  0.4056 -0.0369  0.2632
  778MPD2    C411478   0.495   0.177  14.729 -0.4294 -0.1007 -0.6239
  778MPD2    C511479   0.395   0.147  14.815  0.6367  0.7904  0.5116
  778MPD2     H11480   0.497   4.621  14.540  1.8081  0.4225  0.4711
  778MPD2    H111481   0.555   0.266  14.746 -1.0366 -0.0474  1.2234
  778MPD2    H211482   0.234   0.021  14.869  0.3294 -0.8676 -0.4396
  778MPD2    H311483   0.380   0.209  14.902 -2.0422 -0.5607  0.9944
  778MPD2     N11484   0.626   0.115  14.524  0.3309 -0.8259  0.6084
  778MPD2    H511485   0.631   0.046  14.449  0.8173  0.3099 -0.3970
  778MPD2    N111486   0.271   4.549  14.683  0.0061  0.0833  0.0368
  778MPD2    H711487   0.304   4.476  14.621 -2.0636 -1.9520  1.3405
  779MPD2     C11488   0.274   3.435  14.337 -0.0145 -0.2251 -0.2389
  779MPD2    C111489   0.404   3.407  14.308  0.0259 -0.0377 -0.1304
  779MPD2    C211490   0.477   3.498  14.234 -0.0901 -0.1662  0.3372
  779MPD2    C311491   0.414   3.600  14.161 -0.0244  0.3456  0.0777
  779MPD2    C411492   0.277   3.615  14.184 -0.5104  0.4017 -0.1620
  779MPD2    C511493   0.214   3.538  14.276  0.3481  0.0596  0.0334
  779MPD2     H11494   0.578   3.463  14.214  0.6637  1.9448  0.4305
  779MPD2    H111495   0.210   3.678  14.126 -1.7351 -0.4482  0.3338
  779MPD2    H211496   0.212   3.375  14.403 -0.4594  1.0769  0.5165
  779MPD2    H311497   0.106   3.545  14.284  0.3203  1.5399 -1.4885
  779MPD2     N11498   0.489   3.680  14.069  0.5142  0.4218  0.9205
  779MPD2    H511499   0.590   3.684  14.082  0.5430  1.4401  0.4036
  779MPD2    N111500   0.470   3.302  14.364  0.2406  0.0117 -0.0754
  779MPD2    H711501   0.568   3.294  14.339  1.0473 -0.2719  3.2761
  780MPD2     C11502   0.100   3.233   0.916 -0.1341  0.1282 -0.6062
  780MPD2    C111503   4.708   3.287   0.867  0.3479  0.9787 -0.1453
  780MPD2    C211504   4.701   3.318   0.736 -0.3636  0.2984  0.0217
  780MPD2    C311505   0.085   3.306   0.658  0.7113 -0.2754  0.2689
  780MPD2    C411506   0.203   3.265   0.704 -0.2304 -0.2184 -0.1947
  780MPD2    C511507   0.206   3.221   0.830  0.2223  0.4488  0.5810
  780MPD2     H11508   4.607   3.349   0.693 -0.8981  0.0656  1.0126
  780MPD2    H111509   0.297   3.275   0.651 -0.0815 -2.4988 -0.3308
  780MPD2    H211510   0.112   3.203   1.020 -2.1706  0.7766 -0.1853
  780MPD2    H311511   0.300   3.178   0.863  1.4722  2.5072 -0.2829
  780MPD2     N11512   0.070   3.352   0.519 -0.7254  0.7268  0.2695
  780MPD2    H511513   4.704   3.389   0.494 -0.7138  0.2540 -0.4848
  780MPD2    N111514   4.595   3.294   0.946  0.1450 -0.8512 -0.2093
  780MPD2    H711515   4.609   3.248   1.035 -2.2605 -0.0563  0.5722
  781MPD2     C11516   2.329   0.005  12.674 -0.0765 -0.2572  1.0221
  781MPD2    C111517   2.197   4.701  12.643 -0.4652  0.0140  0.5011
  781MPD2    C211518   2.139   0.028  12.533  0.9064  0.3575 -0.2683
  781MPD2    C311519   2.209   0.088  12.435 -0.0751 -0.4413 -0.0036
  781MPD2    C411520   2.346   0.101  12.456 -0.4058 -0.0400 -0.1368
  781MPD2    C511521   2.398   0.078  12.580  0.3695 -0.7621 -0.0116
  781MPD2     H11522   2.032   0.023  12.514  1.0678  1.0835 -1.3608
  781MPD2    H111523   2.405   0.156  12.383 -0.9159  1.6926  0.7544
  781MPD2    H211524   2.370   4.694  12.768 -0.8288  1.9791  2.1899
  781MPD2    H311525   2.502   0.103  12.595 -0.0535  0.5361  0.7151
  781MPD2     N11526   2.160   0.136  12.311  0.5002 -0.5530 -0.3288
  781MPD2    H511527   2.236   0.162  12.249  2.0494 -0.3278  1.6297
  781MPD2    N111528   2.114   4.638  12.742  0.1325 -0.1747  0.3477
  781MPD2    H711529   2.156   4.634  12.834 -1.1837 -0.5052  0.9384
  782MPD2     C11530   4.314   1.465  10.096 -0.0346 -0.3580 -0.3556
  782MPD2    C111531   4.457   1.451  10.079  0.1539  0.1658 -0.3314
  782MPD2    C211532   4.536   1.545  10.147  0.4701 -0.1645  0.0444
  782MPD2    C311533   4.483   1.664  10.212  0.2314 -0.2256  0.3957
  782MPD2    C411534   4.344   1.666  10.231 -0.1342 -0.1987  0.3713
  782MPD2    C511535   4.267   1.572  10.167 -0.3788  0.0565 -0.0940
  782MPD2     H11536   4.643   1.532  10.137  0.6849  2.2889 -0.8026
  782MPD2    H111537   4.295   1.753  10.274  0.3548  0.3594 -0.2055
  782MPD2    H211538   4.242   1.395  10.056 -0.0149 -2.2898  2.9784
  782MPD2    H311539   4.159   1.571  10.170 -0.3445 -2.4365 -0.0614
  782MPD2     N11540   4.576   1.752  10.272 -0.7860 -0.3800  0.0740
  782MPD2    H511541   4.674   1.732  10.256 -0.7641 -1.0248  1.0069
  782MPD2    N111542   4.507   1.336  10.014  0.5860  0.2092  0.3015
  782MPD2    H711543   4.440   1.261   9.998  0.2264  0.7789 -0.8539
  783MPD2     C11544   4.342   0.714  10.576 -0.0410 -0.0580  0.2071
  783MPD2    C111545   4.321   0.843  10.550  0.8775 -0.0066 -0.3611
  783MPD2    C211546   4.403   0.905  10.453  0.2306 -0.2419 -0.3512
  783MPD2    C311547   4.498   0.844  10.381  0.1890  0.0397  0.5489
  783MPD2    C411548   4.511   0.710  10.397  0.3710 -0.2340  0.4194
  783MPD2    C511549   4.429   0.643  10.491 -0.3437 -0.1596  0.1751
  783MPD2     H11550   4.388   1.011  10.438  0.1756 -0.2073 -0.0444
  783MPD2    H111551   4.582   0.652  10.338 -0.5419 -0.7038 -0.2078
  783MPD2    H211552   4.269   0.666  10.640 -0.0260 -1.0182 -0.5096
  783MPD2    H311553   4.441   0.536  10.504  0.7206 -0.1566 -0.8525
  783MPD2     N11554   4.560   0.922  10.284 -0.1827 -0.4622 -0.6246
  783MPD2    H511555   4.523   1.014  10.265 -2.0281 -0.7512  1.5285
  783MPD2    N111556   4.211   0.901  10.613 -0.1446 -0.3798  0.4547
  783MPD2    H711557   4.154   0.837  10.668  1.1923 -3.5321 -1.7759
  784MPD2     C11558   1.749   1.170   0.961 -0.1992 -0.0985  0.4581
  784MPD2    C111559   1.773   1.286   1.023 -0.5500  0.2594  0.6018
  784MPD2    C211560   1.679   1.388   1.007 -0.7879 -0.9336  0.2506
  784MPD2    C311561   1.560   1.370   0.938 -0.2302  0.3686  0.4074
  784MPD2    C411562   1.542   1.246   0.881 -0.1818  0.2361  0.1712
  784MPD2    C511563   1.632   1.147   0.903 -0.3066  0.0105  0.0639
  784MPD2     H11564   1.700   1.481   1.058 -2.5645 -0.2342 -0.2704
  784MPD2    H111565   1.450   1.219   0.832  0.6195 -0.9831 -0.6437
  784MPD2    H211566   1.814   1.083   0.957 -0.7419 -0.4748 -0.1789
  784MPD2    H311567   1.609   1.051   0.858 -1.6932 -0.3868  1.6242
  784MPD2     N11568   1.473   1.481   0.906 -0.7080 -0.3086 -0.0341
  784MPD2    H511569   1.487   1.567   0.958 -0.9223  0.3849 -1.1446
  784MPD2    N111570   1.892   1.325   1.085  0.9583 -0.4613 -0.0120
  784MPD2    H711571   1.917   1.421   1.104 -0.8714  0.2604 -1.2700
  785MPD2     C11572   2.373   4.683  10.544  0.0924  0.8518  0.3452
  785MPD2    C111573   2.328   0.069  10.605  0.8252  1.1592  0.0032
  785MPD2    C211574   2.195   0.068  10.642 -0.8769 -0.2431  0.4097
  785MPD2    C311575   2.101   4.705  10.602  0.3912  0.0237 -0.6759
  785MPD2    C411576   2.147   4.594  10.537  0.2775  0.3112 -0.3335
  785MPD2    C511577   2.282   4.579  10.511  0.0685  0.3572  0.2944
  785MPD2     H11578   2.148   0.148  10.698 -1.0899 -2.2279  3.0886
  785MPD2    H111579   2.078   4.516  10.506  1.1269 -1.0123  1.0720
  785MPD2    H211580   2.477   4.676  10.517  0.0150 -0.9013  0.4565
  785MPD2    H311581   2.315   4.492  10.455  1.6218  1.1928 -0.0946
  785MPD2     N11582   1.967   0.012  10.633  0.7784  0.0032  0.0051
  785MPD2    H511583   1.959   0.102  10.680 -2.9691 -0.6793  0.6375
  785MPD2    N111584   2.399   0.188  10.627 -0.5394 -0.0998  0.4704
  785MPD2    H711585   2.343   0.257  10.676 -0.1863  0.1470  0.5197
  786MPD2     C11586   0.699   2.763  14.671  0.5888 -0.5971  0.5244
  786MPD2    C111587   0.827   2.706  14.653  0.0086 -0.2068  0.5324
  786MPD2    C211588   0.924   2.747  14.744 -0.5944 -0.5143 -0.0220
  786MPD2    C311589   0.893   2.823  14.859 -0.0436 -0.2056  0.0313
  786MPD2    C411590   0.766   2.881  14.871  0.1865 -0.1953 -0.0915
  786MPD2    C511591   0.671   2.845  14.780 -0.2178  0.1153  0.1204
  786MPD2     H11592   1.022   2.702  14.735 -0.1682  0.5701 -0.8186
  786MPD2    H111593   0.747   2.950  14.953  0.3424  1.4838 -1.4521
  786MPD2    H211594   0.619   2.730  14.605  2.3722 -0.3673 -1.7762
  786MPD2    H311595   0.575   2.892  14.798  0.0420  0.3823  0.8143
  786MPD2     N11596   0.989   2.848  14.964 -0.2295 -0.7789  0.0523
  786MPD2    H511597   0.968   2.910  15.042  0.3325 -0.1981 -0.2538
  786MPD2    N111598   0.869   2.636  14.540  0.2723 -0.0519  0.3778
  786MPD2    H711599   0.970   2.624  14.532  0.4337  0.8371  1.0496
  787MPD2     C11600   1.068   1.904  14.254  0.5645  0.5757  0.0855
  787MPD2    C111601   1.126   2.020  14.316  0.2224 -0.1951 -0.1121
  787MPD2    C211602   1.228   2.000  14.402  0.1544  0.1389  0.0889
  787MPD2    C311603   1.284   1.878  14.423 -0.3048  0.0038  0.3989
  787MPD2    C411604   1.225   1.766  14.369 -0.3736 -0.7038  0.9879
  787MPD2    C511605   1.114   1.775  14.284  0.0994 -0.2714 -0.4710
  787MPD2     H11606   1.282   2.088  14.435 -0.6766  0.9067 -0.6257
  787MPD2    H111607   1.258   1.663  14.384 -0.7865 -1.0980 -0.7576
  787MPD2    H211608   0.982   1.904  14.189  1.5890 -0.0045 -1.2632
  787MPD2    H311609   1.066   1.685  14.247 -0.6383  0.1495 -0.5137
  787MPD2     N11610   1.402   1.858  14.498 -0.0982 -0.0791 -0.3352
  787MPD2    H511611   1.428   1.762  14.519 -1.0746  0.0739  1.5812
  787MPD2    N111612   1.068   2.142  14.281 -0.0987  0.1562 -0.0615
  787MPD2    H711613   0.977   2.136  14.236 -1.1283  2.1864  1.7096
  788MPD2     C11614   1.922   0.366   1.431  0.1839  0.6425  0.3603
  788MPD2    C111615   1.908   0.320   1.298 -0.5983 -0.3850  0.9998
  788MPD2    C211616   1.895   0.405   1.196  0.2356 -1.0720 -0.0397
  788MPD2    C311617   1.898   0.546   1.222  0.2980  0.1555 -0.5238
  788MPD2    C411618   1.893   0.590   1.354 -0.4924 -0.4840  0.2773
  788MPD2    C511619   1.907   0.498   1.456  0.6836 -0.3116  0.1500
  788MPD2     H11620   1.916   0.364   1.098  0.8230  0.7556 -0.6901
  788MPD2    H111621   1.903   0.694   1.381 -0.5805 -0.1272 -1.0478
  788MPD2    H211622   1.939   0.297   1.513 -0.3422  0.9724  0.7445
  788MPD2    H311623   1.932   0.527   1.558 -0.1956 -0.5663  0.4406
  788MPD2     N11624   1.936   0.642   1.124 -0.1891  0.2000 -0.2927
  788MPD2    H511625   1.945   0.739   1.155  1.2431 -0.3987  1.1444
  788MPD2    N111626   1.924   0.181   1.270  0.2598  0.3587  0.1159
  788MPD2    H711627   1.939   0.114   1.345 -2.5408 -0.7893 -0.3587
  789MPD2     C11628   3.376   0.594  16.256  0.1581 -0.7392 -0.5922
  789MPD2    C111629   3.342   0.544  16.383 -0.2087  0.3602 -1.0222
  789MPD2    C211630   3.213   0.549  16.427 -0.4064  0.3183  0.1236
  789MPD2    C311631   3.111   0.610  16.352  0.6677  0.4514  0.0530
  789MPD2    C411632   3.146   0.661  16.225  0.3428  0.7111  0.1140
  789MPD2    C511633   3.274   0.657  16.183 -0.4080 -0.0042  0.5930
  789MPD2     H11634   3.185   0.517  16.527  0.3882 -0.6990  0.0172
  789MPD2    H111635   3.077   0.716  16.161  0.5141 -0.3693 -0.9978
  789MPD2    H211636   3.479   0.600  16.222 -0.5054  0.0679 -2.4591
  789MPD2    H311637   3.303   0.704  16.090  0.9195  0.6699  1.3379
  789MPD2     N11638   2.984   0.640  16.410  0.6336  0.2853  0.3647
  789MPD2    H511639   2.918   0.667  16.338  0.4544  2.2062  1.2404
  789MPD2    N111640   3.438   0.484  16.471  0.0897  0.1555  0.0472
  789MPD2    H711641   3.425   0.489  16.571  0.0220  0.3816  0.0270
  790MPD2     C11642   4.594   2.610  13.502  0.4799  0.4404  0.2907
  790MPD2    C111643   4.469   2.546  13.501 -0.4192  0.5893 -0.0617
  790MPD2    C211644   4.415   2.505  13.381  0.4713  0.2278  0.8949
  790MPD2    C311645   4.489   2.517  13.264  0.0930  0.8986 -0.0269
  790MPD2    C411646   4.616   2.573  13.271  0.2042  0.6476 -0.0871
  790MPD2    C511647   4.664   2.620  13.391  0.2966  0.3710  0.2705
  790MPD2     H11648   4.322   2.450  13.369  0.9787 -0.1511 -1.3114
  790MPD2    H111649   4.669   2.605  13.182  0.3122  0.3420 -0.1343
  790MPD2    H211650   4.632   2.637  13.600  3.1237  0.4087 -0.7260
  790MPD2    H311651   0.036   2.669  13.399  0.6161  0.0032 -1.3394
  790MPD2     N11652   4.441   2.468  13.137  0.0934  0.1384 -0.2478
  790MPD2    H511653   4.512   2.443  13.069  1.0391  0.8796  0.4734
  790MPD2    N111654   4.403   2.525  13.624 -0.4476  0.3505 -0.2472
  790MPD2    H711655   4.453   2.555  13.707  0.9610 -0.4680 -0.7929
  791MPD2     C11656   3.698   2.525  12.802  0.4015  0.2487 -0.8902
  791MPD2    C111657   3.779   2.414  12.763 -0.1054  0.4037 -0.4304
  791MPD2    C211658   3.723   2.317  12.681 -0.2942 -0.5237 -0.1162
  791MPD2    C311659   3.588   2.333  12.651 -0.0029 -0.2881  0.7696
  791MPD2    C411660   3.511   2.447  12.684 -0.7017  0.5051 -0.2062
  791MPD2    C511661   3.571   2.538  12.764 -0.5352  0.3451  0.2930
  791MPD2     H11662   3.771   2.231  12.636  1.0375  0.1260  0.0542
  791MPD2    H111663   3.419   2.468  12.632  0.4777  0.6904 -2.1934
  791MPD2    H211664   3.748   2.597  12.865 -0.2962 -0.3513  0.3352
  791MPD2    H311665   3.517   2.629  12.786 -0.0653  0.9097 -0.8847
  791MPD2     N11666   3.527   2.220  12.587 -0.1852 -0.0693  0.2241
  791MPD2    H511667   3.577   2.133  12.575 -0.2441  0.0920 -1.1195
  791MPD2    N111668   3.912   2.404  12.807 -0.3033 -0.1380 -0.2062
  791MPD2    H711669   3.944   2.450  12.891  0.9065  1.9502 -1.7992
  792MPD2     C11670   4.711   1.977  11.141  0.5316 -0.1213 -0.8221
  792MPD2    C111671   4.607   2.064  11.094  0.2314  0.1980  0.0800
  792MPD2    C211672   4.485   2.005  11.059 -0.0970  0.1604  0.4217
  792MPD2    C311673   4.480   1.867  11.065  0.0602 -0.9214 -1.0733
  792MPD2    C411674   4.584   1.787  11.111 -0.6524 -0.3391 -0.5985
  792MPD2    C511675   4.704   1.843  11.145  0.5537  0.6739 -1.0635
  792MPD2     H11676   4.404   2.069  11.026  0.0396 -1.1918 -2.5687
  792MPD2    H111677   4.574   1.679  11.115  1.0389 -0.4074  1.8758
  792MPD2    H211678   0.088   2.010  11.163  0.4411 -0.0894 -0.4569
  792MPD2    H311679   0.060   1.773  11.167  0.5494  0.3837 -1.9592
  792MPD2     N11680   4.360   1.804  11.030 -0.4431  0.3298 -0.2929
  792MPD2    H511681   4.365   1.703  11.035  2.9613  0.4872 -0.3305
  792MPD2    N111682   4.643   2.203  11.091 -0.1603  0.3044 -0.4616
  792MPD2    H711683   0.007   2.242  11.123 -0.1379 -0.8631  0.8904
  793MPD2     C11684   3.858   2.234  10.404  0.7881 -0.2003 -0.2688
  793MPD2    C111685   3.983   2.230  10.466  0.2175 -0.2596  0.6827
  793MPD2    C211686   3.991   2.161  10.582  0.3537 -0.2054  0.0048
  793MPD2    C311687   3.886   2.093  10.644  0.1776  0.8571 -0.6419
  793MPD2    C411688   3.767   2.105  10.585  0.2361  0.0155  0.1060
  793MPD2    C511689   3.755   2.172  10.466 -0.9255 -0.8583  0.4226
  793MPD2     H11690   4.083   2.156  10.638  0.8163 -1.5801 -0.8872
  793MPD2    H111691   3.683   2.048  10.623 -0.1426  0.3280 -0.2624
  793MPD2    H211692   3.835   2.303  10.324 -0.6530 -0.4574 -0.0692
  793MPD2    H311693   3.651   2.186  10.436 -0.9761 -2.5814 -0.1921
  793MPD2     N11694   3.913   2.005  10.749 -0.2600  0.2511  0.2017
  793MPD2    H511695   4.005   2.021  10.789 -1.0347  2.3132  1.1402
  793MPD2    N111696   4.099   2.293  10.403 -0.2115 -0.1463  0.3745
  793MPD2    H711697   4.190   2.283  10.445 -1.1836 -1.1413  2.2656
  794MPD2     C11698   3.897   1.318  17.186  0.0580  0.1916 -0.1983
  794MPD2    C111699   3.784   1.254  17.231  0.1162  0.3771 -0.7047
  794MPD2    C211700   3.680   1.239  17.138 -0.2947 -0.0555  0.0648
  794MPD2    C311701   3.695   1.276  17.001  0.6892  0.5575  0.0338
  794MPD2    C411702   3.810   1.335  16.965  0.1873 -0.2741  0.7748
  794MPD2    C511703   3.907   1.364  17.057  0.2045 -0.1100  0.5414
  794MPD2     H11704   3.585   1.198  17.168 -0.2759 -0.4559 -0.4138
  794MPD2    H111705   3.839   1.370  16.867  0.3783  0.1065  0.9674
  794MPD2    H211706   3.974   1.347  17.257  0.5791  1.4437 -1.2832
  794MPD2    H311707   3.994   1.420  17.025  0.6476 -0.4790  1.1154
  794MPD2     N11708   3.585   1.258  16.912  0.7236 -0.4267  0.4812
  794MPD2    H511709   3.503   1.208  16.944  0.1462  0.1748 -0.0671
  794MPD2    N111710   3.761   1.214  17.364  0.6838 -0.5520 -0.0415
  794MPD2    H711711   3.690   1.145  17.386 -0.1312 -0.2782 -1.8754
  795MPD2     C11712   1.542   3.929  13.572  0.5997 -0.1162  0.0569
  795MPD2    C111713   1.484   3.813  13.520 -0.6713 -0.1252  0.1308
  795MPD2    C211714   1.564   3.720  13.460 -0.3389  0.4652 -0.3377
  795MPD2    C311715   1.697   3.745  13.445 -0.2720 -0.0706 -0.6031
  795MPD2    C411716   1.750   3.857  13.490  0.1890 -0.0585  0.4731
  795MPD2    C511717   1.672   3.953  13.550  0.1553 -0.4127 -0.7905
  795MPD2     H11718   1.525   3.627  13.419 -1.1370  1.2211 -1.3097
  795MPD2    H111719   1.849   3.895  13.467 -0.2028 -1.0568 -2.8762
  795MPD2    H211720   1.488   4.015  13.610  1.6488  0.3066  0.5830
  795MPD2    H311721   1.706   4.052  13.578  0.2919 -0.9198  0.8364
  795MPD2     N11722   1.768   3.646  13.367  0.4389  0.1176 -0.2232
  795MPD2    H511723   1.722   3.563  13.332  1.6408  0.0747 -1.6949
  795MPD2    N111724   1.342   3.793  13.523 -0.4199 -0.0324 -0.1630
  795MPD2    H711725   1.319   3.711  13.467 -2.9466  0.9356 -0.5091
  796MPD2     C11726   0.895   0.451  15.978  0.9677  0.0371 -0.3425
  796MPD2    C111727   1.010   0.508  16.025 -0.2219  0.2504 -0.1291
  796MPD2    C211728   1.062   0.626  15.970 -0.1616 -0.2034 -0.1556
  796MPD2    C311729   0.989   0.687  15.862  0.0569 -0.4665  0.0744
  796MPD2    C411730   0.871   0.631  15.825  0.1822  0.0554  0.0242
  796MPD2    C511731   0.831   0.513  15.873  0.3816 -0.5077  0.0803
  796MPD2     H11732   1.153   0.661  16.016  0.2771 -1.8820  0.2566
  796MPD2    H111733   0.816   0.681  15.746  2.4842  0.6288 -1.2000
  796MPD2    H211734   0.855   0.353  16.001  0.8560  0.2171  0.2367
  796MPD2    H311735   0.742   0.468  15.831 -0.2640  0.6650  0.2060
  796MPD2     N11736   1.025   0.801  15.796 -0.2645  0.3932  0.3341
  796MPD2    H511737   0.953   0.842  15.737 -0.0039  0.3472 -0.0187
  796MPD2    N111738   1.082   0.436  16.116  0.1407 -0.5783 -0.2117
  796MPD2    H711739   1.063   0.337  16.127 -0.3888 -0.6236 -1.4384
  797MPD2     C11740   1.945   4.494  17.469  0.8385  0.0965 -0.4185
  797MPD2    C111741   2.040   4.592  17.480  0.6200  0.0153  0.4804
  797MPD2    C211742   2.004   4.717  17.448 -0.9157 -0.4303 -0.5821
  797MPD2    C311743   1.891   0.033  17.394 -0.8160  0.5473  0.2690
  797MPD2    C411744   1.790   4.665  17.376  0.2730  0.4509  0.0874
  797MPD2    C511745   1.815   4.532  17.424 -0.8065  0.5107  0.3814
  797MPD2     H11746   2.077   0.068  17.474 -1.8793  0.6179 -0.8975
  797MPD2    H111747   1.686   4.690  17.357  0.9662  0.4081 -3.7996
  797MPD2    H211748   1.952   4.389  17.495  1.2259  0.7676  2.1477
  797MPD2    H311749   1.731   4.464  17.423  1.7200 -2.5829  1.7558
  797MPD2     N11750   1.887   0.174  17.378  0.4363 -0.8839  0.1678
  797MPD2    H511751   1.969   0.232  17.397  1.4718 -1.6657 -1.9167
  797MPD2    N111752   2.180   4.567  17.519  0.0170 -0.9955 -0.1128
  797MPD2    H711753   2.243   4.646  17.527  1.1844 -1.9888  0.4285
  798MPD2     C11754   2.337   0.548  17.673  0.6664  0.2939  0.3015
  798MPD2    C111755   2.275   0.464  17.586 -0.5490 -0.1816  0.0518
  798MPD2    C211756   2.310   0.332  17.595  0.2768 -0.6262 -0.6945
  798MPD2    C311757   2.410   0.280  17.681  0.1229  0.0881  0.5541
  798MPD2    C411758   2.463   0.369   0.079 -0.1339 -0.3775  0.1491
  798MPD2    C511759   2.420   0.500   0.074  0.4605 -0.2992  0.1128
  798MPD2     H11760   2.259   0.262  17.529  0.5165 -2.2833  0.8769
  798MPD2    H111761   2.546   0.343   0.144  0.7724  2.4543  0.1355
  798MPD2    H211762   2.310   0.653  17.673 -2.2481 -0.4636 -0.1086
  798MPD2    H311763   2.463   0.571   0.143  1.0750 -0.6031  0.0435
  798MPD2     N11764   2.436   0.145  17.669 -0.1884 -0.8711 -0.5111
  798MPD2    H511765   2.399   0.105  17.583  1.6099 -1.3684 -1.0549
  798MPD2    N111766   2.164   0.516  17.511  0.0041  0.1382  0.3890
  798MPD2    H711767   2.115   0.595  17.552 -0.2738  1.2836 -2.1390
  799MPD2     C11768   0.905   1.735  14.564 -0.1740  0.7977 -0.2710
  799MPD2    C111769   0.891   1.628  14.479 -0.5081  0.3707  0.0255
  799MPD2    C211770   0.830   1.635  14.353  0.0549  0.1942 -0.3260
  799MPD2    C311771   0.767   1.756  14.323 -0.5457 -0.3408 -0.6600
  799MPD2    C411772   0.763   1.861  14.412  0.2841  0.7382  0.0724
  799MPD2    C511773   0.834   1.844  14.528  1.0254 -0.3926  0.9836
  799MPD2     H11774   0.812   1.548  14.291 -0.3981  0.7628 -0.9999
  799MPD2    H111775   0.701   1.947  14.392 -1.5505 -0.6229 -0.0136
  799MPD2    H211776   0.945   1.725  14.664  0.9893  0.4649 -0.7773
  799MPD2    H311777   0.826   1.932  14.591 -0.3403  0.3280 -0.2050
  799MPD2     N11778   0.693   1.777  14.208 -0.3818  0.0877  0.4779
  799MPD2    H511779   0.646   1.865  14.190  1.0837  0.3684 -1.9066
  799MPD2    N111780   0.950   1.501  14.509 -0.0039 -0.2673 -0.1797
  799MPD2    H711781   0.943   1.425  14.442 -0.1186 -0.8109  0.4475
  800MPD2     C11782   1.675   2.927  14.307 -0.0773 -0.4325  0.4668
  800MPD2    C111783   1.799   2.877  14.278  0.2341 -0.5333 -0.3500
  800MPD2    C211784   1.814   2.771  14.186  0.2886  0.1669  0.5584
  800MPD2    C311785   1.697   2.727  14.129 -0.5448  0.6686  0.2626
  800MPD2    C411786   1.580   2.778  14.166 -0.9768 -1.3360  0.0560
  800MPD2    C511787   1.561   2.868  14.263 -0.7490  0.5321 -0.4821
  800MPD2     H11788   1.905   2.720  14.156 -1.3191 -2.4808  0.2065
  800MPD2    H111789   1.489   2.736  14.123 -0.2886  0.2796 -2.9519
  800MPD2    H211790   1.670   3.000  14.386  1.1736 -1.0445  1.1203
  800MPD2    H311791   1.463   2.907  14.289 -0.9443 -0.0171 -0.3789
  800MPD2     N11792   1.710   2.637  14.024 -0.1118 -0.7043  0.4909
  800MPD2    H511793   1.806   2.625  13.993 -0.0196  3.3250 -0.7293
  800MPD2    N111794   1.916   2.934  14.340 -0.4824  0.4280 -0.1479
  800MPD2    H711795   1.900   3.022  14.388 -0.3933  0.8149 -0.8344
  801MPD2     C11796   2.174   3.598  14.353 -0.1589 -0.6155 -0.0127
  801MPD2    C111797   2.093   3.488  14.377  0.4746  0.6999  0.2491
  801MPD2    C211798   1.975   3.518  14.447  0.0589  0.0320  0.0769
  801MPD2    C311799   1.938   3.647  14.480  0.6553 -0.1880  0.0733
  801MPD2    C411800   2.032   3.744  14.462 -0.4551  0.3160  0.1004
  801MPD2    C511801   2.146   3.720  14.394  0.3778  0.2708 -0.1270
  801MPD2     H11802   1.903   3.438  14.458 -0.1777  0.1894 -0.3107
  801MPD2    H111803   2.000   3.847  14.476  1.7561  0.9342  0.7048
  801MPD2    H211804   2.264   3.602  14.292 -0.3584  0.2743 -0.2531
  801MPD2    H311805   2.213   3.801  14.367  0.2241  0.3738 -0.1995
  801MPD2     N11806   1.815   3.687  14.533 -0.3655 -0.5843 -0.0849
  801MPD2    H511807   1.804   3.784  14.559 -2.5118 -0.7035 -0.5175
  801MPD2    N111808   2.131   3.351  14.351  0.4309 -0.2268  0.1565
  801MPD2    H711809   2.066   3.279  14.380  1.7296 -1.9761 -1.3136
  802MPD2     C11810   0.794   3.893  17.447 -0.6954 -0.6422  0.1139
  802MPD2    C111811   0.769   3.843  17.570 -0.6157  0.4695 -0.0938
  802MPD2    C211812   0.742   3.703  17.580 -0.1952  0.4492 -0.3298
  802MPD2    C311813   0.725   3.624  17.468  0.5077  0.0631 -0.2321
  802MPD2    C411814   0.717   3.696  17.345  0.3967 -0.0382  0.6584
  802MPD2    C511815   0.757   3.821  17.337  0.1042  0.4089  0.5118
  802MPD2     H11816   0.735   3.661  17.680  0.9467  0.3720 -0.2861
  802MPD2    H111817   0.710   3.644  17.250 -1.0030  1.4097 -0.0222
  802MPD2    H211818   0.814   3.999  17.433  2.1599 -1.1826  0.0166
  802MPD2    H311819   0.756   3.875  17.243  0.9237  1.1362  0.9131
  802MPD2     N11820   0.718   3.490  17.489  0.4718  0.5914 -0.1027
  802MPD2    H511821   0.738   3.461  17.584  0.0846  0.8529  0.0613
  802MPD2    N111822   0.766   3.913  17.694 -0.1490  0.3066 -0.0287
  802MPD2    H711823   0.720   3.869   0.075 -0.7295 -0.3740 -0.7456
  803MPD2     C11824   1.999   2.582  11.523  0.4964 -0.1122 -0.3225
  803MPD2    C111825   2.129   2.567  11.565 -0.4335 -0.1340  0.2148
  803MPD2    C211826   2.158   2.482  11.666 -0.1871 -0.7339  0.0845
  803MPD2    C311827   2.059   2.422  11.736  0.2488 -0.3244 -0.2413
  803MPD2    C411828   1.932   2.452  11.713  0.1960 -0.1198  0.6124
  803MPD2    C511829   1.898   2.523  11.599  0.7688 -0.1582 -0.3636
  803MPD2     H11830   2.261   2.461  11.691 -0.0025 -1.8819 -1.7059
  803MPD2    H111831   1.856   2.406  11.774  1.8058 -2.5657  0.7994
  803MPD2    H211832   1.965   2.656  11.451 -1.6511  0.4043  1.2468
  803MPD2    H311833   1.794   2.548  11.580  0.6322  0.0546  0.6694
  803MPD2     N11834   2.089   2.333  11.840  0.0761  0.5480 -0.1076
  803MPD2    H511835   2.020   2.303  11.907 -1.0195  1.0866 -1.0060
  803MPD2    N111836   2.235   2.628  11.501  1.1122  0.0552  0.0768
  803MPD2    H711837   2.323   2.627  11.551  0.2650 -1.5798  1.5266
  804MPD2     C11838   1.755   3.408  17.047  0.3784  0.6870  0.0677
  804MPD2    C111839   1.777   3.368  17.177 -0.1770  0.5568 -0.0860
  804MPD2    C211840   1.858   3.435  17.257 -0.0727 -0.1741  0.2214
  804MPD2    C311841   1.935   3.538  17.205 -0.4792  0.5672 -0.0660
  804MPD2    C411842   1.916   3.570  17.072  0.1124  0.0512 -0.7819
  804MPD2    C511843   1.827   3.508  16.991 -0.5674  0.2177  0.8714
  804MPD2     H11844   1.869   3.407  17.361  1.5417  1.1381  0.4146
  804MPD2    H111845   1.976   3.651  17.032 -0.1059 -0.0455 -1.3154
  804MPD2    H211846   1.691   3.351  16.980 -0.7410  2.0423 -0.0084
  804MPD2    H311847   1.820   3.537  16.886  0.7382 -0.8911  0.4717
  804MPD2     N11848   2.041   3.598  17.284  0.5999  0.1841 -0.3875
  804MPD2    H511849   2.066   3.559  17.374  3.6992  2.5381 -0.2274
  804MPD2    N111850   1.704   3.260  17.224 -0.4150  0.5789 -0.5176
  804MPD2    H711851   1.705   3.244  17.324 -1.7301 -0.1686 -0.6300
  805MPD2     C11852   0.649   1.552  15.352 -0.4432 -0.2033  0.3148
  805MPD2    C111853   0.709   1.613  15.245 -0.4031 -0.5348  0.6920
  805MPD2    C211854   0.840   1.652  15.252  0.4148  0.2745 -0.4070
  805MPD2    C311855   0.918   1.617  15.362  0.6992 -0.2658  0.5854
  805MPD2    C411856   0.850   1.552  15.464  0.0034  0.7586 -0.0572
  805MPD2    C511857   0.724   1.513  15.460  0.5759  0.2123 -0.3622
  805MPD2     H11858   0.882   1.692  15.161 -0.5706 -0.2169 -1.0852
  805MPD2    H111859   0.901   1.544  15.559  2.1646  0.4792 -1.2268
  805MPD2    H211860   0.544   1.524  15.353 -0.0835 -1.5546 -0.2209
  805MPD2    H311861   0.681   1.469  15.550 -3.5959 -1.1573 -2.9848
  805MPD2     N11862   1.055   1.655  15.366  0.1962  0.1679 -0.2008
  805MPD2    H511863   1.088   1.695  15.279 -3.2614  3.2889 -0.0819
  805MPD2    N111864   0.646   1.620  15.119 -0.1359 -0.4827  0.5333
  805MPD2    H711865   0.699   1.625  15.033  2.0800  3.6773  2.1371
  806MPD2     C11866   0.791   0.890   0.275  0.3594 -0.0255  0.0744
  806MPD2    C111867   0.915   0.894   0.335 -0.4366 -0.7325 -0.1042
  806MPD2    C211868   1.020   0.864   0.254  0.1395  0.6611  0.7505
  806MPD2    C311869   1.003   0.832   0.119  0.0131 -0.1069 -0.3758
  806MPD2    C411870   0.881   0.822   0.063  0.8427  0.8561  0.7309
  806MPD2    C511871   0.776   0.853   0.149 -0.4724  0.6894  1.4712
  806MPD2     H11872   1.124   0.870   0.283  0.5163 -0.4292 -0.3765
  806MPD2    H111873   0.861   0.799  17.657  2.4360 -1.5199  0.9562
  806MPD2    H211874   0.710   0.920   0.341  1.1009  0.2446  0.8684
  806MPD2    H311875   0.677   0.845   0.104  1.0808  0.5820 -1.9594
  806MPD2     N11876   1.115   0.817   0.040  0.5343 -0.0008 -0.0832
  806MPD2    H511877   1.203   0.822   0.091  1.1190 -0.7153 -1.0360
  806MPD2    N111878   0.921   0.936   0.474 -0.0976 -0.6415 -0.5651
  806MPD2    H711879   0.840   0.965   0.527 -0.2532  2.0265 -2.3044
  807MPD2     C11880   0.660   0.870   1.220 -0.4587 -0.4470  0.4565
  807MPD2    C111881   0.803   0.850   1.217 -0.7129  0.1174  0.2191
  807MPD2    C211882   0.861   0.778   1.322 -0.1720 -0.2700  0.2001
  807MPD2    C311883   0.791   0.704   1.412  0.4497  0.2426 -0.5541
  807MPD2    C411884   0.650   0.717   1.408 -0.3603  0.2918 -0.6613
  807MPD2    C511885   0.594   0.802   1.317  0.0542 -0.4909 -0.4839
  807MPD2     H11886   0.968   0.762   1.318 -0.2774  0.0835 -3.9082
  807MPD2    H111887   0.589   0.649   1.466  0.0882  1.1307  0.7714
  807MPD2    H211888   0.602   0.924   1.146  0.5383  0.4580  0.3320
  807MPD2    H311889   0.485   0.799   1.312 -0.1407  0.1170  4.0491
  807MPD2     N11890   0.861   0.639   1.520 -0.3936  0.2502  0.7199
  807MPD2    H511891   0.960   0.631   1.502 -0.6315 -0.6645 -0.1774
  807MPD2    N111892   0.890   0.892   1.110  0.3778 -0.2415 -0.7930
  807MPD2    H711893   0.990   0.879   1.118  0.5342  1.8183  0.6153
  808MPD2     C11894   2.260   2.512  10.008 -0.1137 -0.1988 -0.1483
  808MPD2    C111895   2.198   2.628   9.981  0.2878  0.8530 -0.6958
  808MPD2    C211896   2.276   2.734   9.933  0.5826 -0.1839  0.2314
  808MPD2    C311897   2.404   2.714   9.886  0.1232 -0.8143 -0.8737
  808MPD2    C411898   2.463   2.591   9.908 -0.1051  0.3648  0.4493
  808MPD2    C511899   2.395   2.495   9.979  0.5537 -0.6963 -0.5825
  808MPD2     H11900   2.238   2.835   9.921  0.9307  0.1325  1.8539
  808MPD2    H111901   2.568   2.576   9.887 -0.5732 -1.1371 -0.7692
  808MPD2    H211902   2.214   2.422  10.047 -0.5790  0.3795  0.6466
  808MPD2    H311903   2.439   2.398   9.995  1.1721 -0.7658 -2.6993
  808MPD2     N11904   2.486   2.819   9.826  0.2804 -0.3519 -0.5124
  808MPD2    H511905   2.569   2.789   9.776 -0.2603 -2.8449  0.1031
  808MPD2    N111906   2.056   2.642  10.006 -0.4662 -0.2730  0.6287
  808MPD2    H711907   2.016   2.734   9.991  0.2677  0.1158  1.0637
  809MPD2     C11908   3.066   3.124   9.057  0.2913  0.0952  0.1243
  809MPD2    C111909   3.070   3.024   9.150  0.3066  0.6702 -0.4106
  809MPD2    C211910   2.972   3.010   9.245 -0.0814  0.1982  0.5679
  809MPD2    C311911   2.875   3.105   9.246  1.0439  0.1286  0.2575
  809MPD2    C411912   2.874   3.217   9.158  0.2010  0.0477  0.2832
  809MPD2    C511913   2.976   3.228   9.064  0.1118 -0.2050  0.0376
  809MPD2     H11914   2.976   2.926   9.314  3.3202 -1.4124 -1.5862
  809MPD2    H111915   2.806   3.300   9.169 -1.9022 -1.7408  0.7544
  809MPD2    H211916   3.148   3.146   8.990 -0.0213 -0.8542 -0.5634
  809MPD2    H311917   2.982   3.323   9.011 -1.9825  0.0702  0.3186
  809MPD2     N11918   2.764   3.108   9.334  0.1355 -0.2459 -0.4601
  809MPD2    H511919   2.693   3.178   9.315 -0.8506 -0.4825  2.3117
  809MPD2    N111920   3.163   2.927   9.145  0.5571  0.2352 -0.0185
  809MPD2    H711921   3.170   2.861   9.221 -2.9797  0.3583  0.4288
  810MPD2     C11922   1.813   2.308  10.319 -1.2516 -0.6149  0.1797
  810MPD2    C111923   1.698   2.379  10.297  0.1172  0.3635 -0.1311
  810MPD2    C211924   1.695   2.506  10.329 -0.5530  0.6123  0.4219
  810MPD2    C311925   1.810   2.570  10.373  0.2208 -0.5720  0.2226
  810MPD2    C411926   1.932   2.509  10.363 -0.2061  0.5736  0.0191
  810MPD2    C511927   1.932   2.372  10.351 -0.6445 -0.4811  0.4174
  810MPD2     H11928   1.600   2.557  10.327 -0.8842  0.0071  0.8494
  810MPD2    H111929   2.027   2.556  10.388 -1.4255  1.4463  3.0651
  810MPD2    H211930   1.816   2.200  10.310  3.0099 -0.4094 -0.4520
  810MPD2    H311931   2.020   2.310  10.359 -0.7439 -0.4314  1.8046
  810MPD2     N11932   1.801   2.705  10.419 -0.3450  0.4044 -0.3221
  810MPD2    H511933   1.887   2.756  10.404 -0.7339  0.6575 -1.7016
  810MPD2    N111934   1.581   2.298  10.264 -0.1192  0.0452 -0.0163
  810MPD2    H711935   1.578   2.197  10.270  1.4730 -0.1653 -2.6635
  811MPD2     C11936   0.911   2.500   9.722  0.3460 -0.3673 -0.4909
  811MPD2    C111937   1.013   2.523   9.812 -0.5367  0.1971 -0.6820
  811MPD2    C211938   1.068   2.654   9.813  0.2556  0.0829  0.2184
  811MPD2    C311939   1.008   2.760   9.745 -0.4799 -0.5579 -0.1537
  811MPD2    C411940   0.910   2.732   9.657  0.8745 -0.3676 -0.0814
  811MPD2    C511941   0.865   2.602   9.633 -0.0347  0.8446 -0.5169
  811MPD2     H11942   1.158   2.680   9.867 -1.2537  0.4812  2.5501
  811MPD2    H111943   0.872   2.808   9.591 -0.7141 -1.0641  0.0392
  811MPD2    H211944   0.866   2.403   9.706 -1.0570  0.1052  0.6051
  811MPD2    H311945   0.792   2.582   9.555 -1.0056  1.9234  0.1161
  811MPD2     N11946   1.066   2.892   9.760 -0.5684  0.6711 -0.1759
  811MPD2    H511947   1.153   2.900   9.813  0.0465 -1.9529 -0.7639
  811MPD2    N111948   1.058   2.415   9.887  0.0026 -0.5941  0.2055
  811MPD2    H711949   1.013   2.325   9.878  1.3585 -1.4150  1.5281
  812MPD2     C11950   0.625   1.979  11.979  0.0050 -0.1937 -0.4676
  812MPD2    C111951   0.516   2.004  12.066 -0.1164 -0.4320  0.2301
  812MPD2    C211952   0.489   1.916  12.166 -0.5008  0.4918 -0.8928
  812MPD2    C311953   0.557   1.799  12.183 -0.3126 -0.3450 -0.2922
  812MPD2    C411954   0.664   1.780  12.097  0.3873  0.3717 -0.2098
  812MPD2    C511955   0.696   1.864  11.999 -0.1158  0.2442  0.6094
  812MPD2     H11956   0.413   1.930  12.243 -0.5511 -1.1626 -0.6511
  812MPD2    H111957   0.732   1.697  12.084  1.6397  1.3701 -0.0605
  812MPD2    H211958   0.652   2.055  11.907  2.2580 -0.8150 -0.2885
  812MPD2    H311959   0.763   1.820  11.926  1.4895  0.9419  1.6861
  812MPD2     N11960   0.536   1.693  12.281  0.8279 -0.1841 -0.7172
  812MPD2    H511961   0.603   1.617  12.285  0.5110 -0.3972  0.6345
  812MPD2    N111962   0.436   2.119  12.045 -0.4181  0.0765 -0.4390
  812MPD2    H711963   0.470   2.185  11.976  1.4686 -0.1797  0.2531
  813MPD2     C11964   3.925   3.945  12.555 -0.5209  0.4393  0.2660
  813MPD2    C111965   3.994   3.994  12.656 -0.4939 -0.0188 -0.1209
  813MPD2    C211966   3.936   4.083  12.748  0.5593  0.9150  0.0803
  813MPD2    C311967   3.815   4.123  12.731 -0.2163 -0.4474  0.0387
  813MPD2    C411968   3.738   4.064  12.636 -0.5287 -0.1542  0.1968
  813MPD2    C511969   3.796   3.974  12.549 -0.3099 -0.1337 -0.3121
  813MPD2     H11970   3.997   4.114  12.832 -0.9386  0.5588  1.3037
  813MPD2    H111971   3.631   4.082  12.628 -0.7748 -1.0431  1.5637
  813MPD2    H211972   3.968   3.889  12.472  0.4444 -1.5601  2.1229
  813MPD2    H311973   3.727   3.943  12.472 -0.6574  0.0980 -0.0936
  813MPD2     N11974   3.756   4.226  12.805 -0.3967  0.1352 -0.1635
  813MPD2    H511975   3.818   4.279  12.864 -1.3436  0.5976  0.4173
  813MPD2    N111976   4.126   3.963  12.685  0.6883  0.0540 -0.1728
  813MPD2    H711977   4.172   3.998  12.768 -1.4427  0.3589  0.8881
  814MPD2     C11978   4.317   0.913  11.754 -0.0148  0.2582 -0.3725
  814MPD2    C111979   4.421   0.883  11.664  0.4138 -0.3480 -0.3233
  814MPD2    C211980   4.549   0.932  11.696  0.7777  0.3102  0.4884
  814MPD2    C311981   4.574   0.998  11.812 -0.7892 -0.3630  0.4746
  814MPD2    C411982   4.476   1.002  11.903 -0.2099  0.7359 -1.0548
  814MPD2    C511983   4.344   0.975  11.872 -0.0742  0.4125 -0.9340
  814MPD2     H11984   4.626   0.916  11.622 -0.2189 -0.3920 -0.4045
  814MPD2    H111985   4.489   1.055  11.996 -2.7294 -1.4321  0.5413
  814MPD2    H211986   4.215   0.881  11.736  0.0844 -1.1537  1.5404
  814MPD2    H311987   4.266   0.984  11.947 -1.5486  0.1420 -2.4413
  814MPD2     N11988   4.697   1.063  11.840  0.3023  0.2232  0.1992
  814MPD2    H511989   4.711   1.087  11.938  2.8298 -1.9961  0.3897
  814MPD2    N111990   4.401   0.813  11.541  0.8436 -0.9547 -0.1238
  814MPD2    H711991   4.476   0.817  11.472  2.1990  0.4425  1.4255
  815MPD2     C11992   0.416   3.891  11.871  0.2047  0.2988 -0.9435
  815MPD2    C111993   0.415   3.756  11.892  0.4237 -0.2286  0.2526
  815MPD2    C211994   0.304   3.693  11.950  0.1956 -0.5422  0.0307
  815MPD2    C311995   0.178   3.758  11.970  0.1760  0.2160  0.3442
  815MPD2    C411996   0.179   3.894  11.940 -0.0812  0.5608  0.6811
  815MPD2    C511997   0.294   3.954  11.899  0.2248 -0.2393 -0.0526
  815MPD2     H11998   0.294   3.586  11.954 -2.1679 -0.2882  1.0864
  815MPD2    H111999   0.087   3.949  11.950 -0.6210 -0.6777  2.4954
  815MPD2    H212000   0.502   3.942  11.828 -1.0684  1.8024 -1.7320
  815MPD2    H312001   0.278   4.058  11.874 -0.3854 -0.2764  0.1898
  815MPD2     N12002   0.067   3.678  12.007  0.0030 -0.2084  0.3111
  815MPD2    H512003   0.087   3.584  12.041 -1.1485 -0.4805  0.2316
  815MPD2    N112004   0.532   3.680  11.847 -0.2811  0.3482  0.3923
  815MPD2    H712005   0.608   3.734  11.806 -1.6892  1.4514 -0.7602
  816MPD2     C12006   4.413   2.823  16.892 -0.6442  0.2430  0.2764
  816MPD2    C112007   4.520   2.914  16.910  0.4291  0.2287  0.2589
  816MPD2    C212008   4.652   2.858  16.912 -0.1417  0.3136  0.1180
  816MPD2    C312009   4.674   2.720  16.903 -1.0807  0.4260  0.3164
  816MPD2    C412010   4.564   2.640  16.899  0.5054 -0.3561  0.7509
  816MPD2    C512011   4.435   2.685  16.890  0.3337 -0.7702  0.3128
  816MPD2     H12012   0.014   2.925  16.915 -0.0426  0.2901 -2.1348
  816MPD2    H112013   4.571   2.532  16.897  3.7751 -0.1912  2.5357
  816MPD2    H212014   4.312   2.862  16.882  0.4227  3.2581  1.3286
  816MPD2    H312015   4.353   2.616  16.877  1.4119 -1.8515 -0.7846
  816MPD2     N12016   0.082   2.665  16.896 -0.4011 -0.5409  0.8493
  816MPD2    H512017   0.159   2.731  16.891  0.7879 -2.0878 -1.0901
  816MPD2    N112018   4.486   3.051  16.910  0.3768  0.1820  0.6148
  816MPD2    H712019   4.387   3.074  16.903  0.4958  0.0737 -1.6125
  817MPD2     C12020   4.448   4.654   9.756 -0.6679  0.2930 -0.0992
  817MPD2    C112021   4.531   4.683   9.652  0.1632  0.0430 -0.1635
  817MPD2    C212022   4.482   0.059   9.561 -0.8529  0.0166  0.3308
  817MPD2    C312023   4.363   0.124   9.583  0.6507  1.1346  0.2099
  817MPD2    C412024   4.287   0.089   9.693  0.5298 -0.5261 -0.0235
  817MPD2    C512025   4.324   4.709   9.770 -0.0423 -1.0449  0.4847
  817MPD2     H12026   4.546   0.095   9.481 -2.6883  0.6475 -0.8384
  817MPD2    H112027   4.189   0.132   9.712  1.3337 -0.0685  3.1388
  817MPD2    H212028   4.476   4.571   9.821 -1.4937 -0.2733 -0.4556
  817MPD2    H312029   4.261   4.670   9.849 -2.5652 -0.7853 -1.4207
  817MPD2     N12030   4.328   0.222   9.486  0.1244  0.0657  0.3713
  817MPD2    H512031   4.387   0.248   9.408 -0.6065 -2.0368 -0.8837
  817MPD2    N112032   4.654   4.630   9.617 -1.1538  0.4304  0.1742
  817MPD2    H712033   4.695   4.651   9.527  1.0994 -1.8795  0.6727
  818MPD2     C12034   3.387   4.057   9.468 -0.3461  0.6068 -0.4356
  818MPD2    C112035   3.352   3.987   9.579 -0.0222  0.7048 -0.0442
  818MPD2    C212036   3.378   3.855   9.586  0.5390 -0.3928  0.8014
  818MPD2    C312037   3.429   3.795   9.473  0.8119  0.0717 -0.1040
  818MPD2    C412038   3.466   3.861   9.362 -0.0568 -1.1065  0.4710
  818MPD2    C512039   3.449   3.999   9.358  0.3495 -0.5076  0.1206
  818MPD2     H12040   3.349   3.802   9.675 -0.3744 -0.7009  0.3199
  818MPD2    H112041   3.519   3.819   9.277 -0.8853 -0.3475 -0.4249
  818MPD2    H212042   3.371   4.163   9.451  0.4782  0.6901 -0.6504
  818MPD2    H312043   3.492   4.059   9.279  0.6201 -1.4852 -0.4754
  818MPD2     N12044   3.465   3.654   9.474 -0.0345  0.3607  0.6255
  818MPD2    H512045   3.507   3.618   9.389  0.0678  0.1882  0.7508
  818MPD2    N112046   3.281   4.038   9.692  0.4071 -0.4872 -0.1555
  818MPD2    H712047   3.269   3.977   9.772 -0.7401  1.0647  0.8589
  819MPD2     C12048   1.569   1.332  15.333 -0.0157 -0.0156  0.3324
  819MPD2    C112049   1.511   1.219  15.383  0.4522 -0.8805 -0.6991
  819MPD2    C212050   1.593   1.138  15.461 -0.3492 -0.3532  0.5149
  819MPD2    C312051   1.720   1.173  15.497 -0.9584  0.1643  0.2273
  819MPD2    C412052   1.771   1.291  15.450  0.7302 -0.7816 -0.0094
  819MPD2    C512053   1.698   1.372  15.359 -0.5721 -0.0998  0.0703
  819MPD2     H12054   1.565   1.035  15.483 -2.3958  0.2922  0.9344
  819MPD2    H112055   1.864   1.334  15.485 -0.7351  0.4436  2.4262
  819MPD2    H212056   1.511   1.384  15.257 -0.7804 -1.9286 -0.4113
  819MPD2    H312057   1.747   1.461  15.322  0.7590 -0.9829 -0.2860
  819MPD2     N12058   1.785   1.079  15.583 -0.4243 -0.1050 -0.0579
  819MPD2    H512059   1.725   1.001  15.608 -1.7153  1.5836  2.0471
  819MPD2    N112060   1.381   1.178  15.348 -0.2192  0.1925 -0.7593
  819MPD2    H712061   1.333   1.244  15.288 -0.2420 -0.9339 -1.9633
  820MPD2     C12062   0.689   1.146  14.617  0.5259 -0.0392  0.5115
  820MPD2    C112063   0.730   1.245  14.701 -1.1047  0.0255 -0.4159
  820MPD2    C212064   0.814   1.218  14.805 -0.7421  0.4660  0.3195
  820MPD2    C312065   0.852   1.083  14.820  0.5366  0.2077  0.3698
  820MPD2    C412066   0.814   0.984  14.732 -0.2031 -0.2458  0.0176
  820MPD2    C512067   0.722   1.012  14.637  0.0435 -0.6000  0.4569
  820MPD2     H12068   0.856   1.298  14.865 -0.4681 -0.8291  1.8563
  820MPD2    H112069   0.831   0.879  14.753  2.7701  0.4183  0.8202
  820MPD2    H212070   0.626   1.162  14.530 -0.2200  1.2638  1.2914
  820MPD2    H312071   0.674   0.941  14.572 -1.3511  1.0078 -0.2722
  820MPD2     N12072   0.932   1.028  14.928 -0.0166 -0.0307 -0.0787
  820MPD2    H512073   0.934   0.927  14.928  1.3304 -0.0003 -0.4716
  820MPD2    N112074   0.681   1.377  14.670  0.4839 -0.4169  0.3255
  820MPD2    H712075   0.611   1.384  14.597  0.7804 -0.3998  0.0438
  821MPD2     C12076   1.505   2.647  13.198  0.3293  0.2861  0.8523
  821MPD2    C112077   1.607   2.710  13.262  0.3138  0.2679  0.1836
  821MPD2    C212078   1.700   2.786  13.200 -0.0008 -0.1142 -0.2710
  821MPD2    C312079   1.694   2.805  13.060  0.5659 -0.2206 -0.1745
  821MPD2    C412080   1.598   2.738  12.992  0.9156 -0.6921 -0.2005
  821MPD2    C512081   1.505   2.658  13.058  0.6224 -0.6496  0.1417
  821MPD2     H12082   1.788   2.814  13.257 -0.7389  1.8965 -0.1239
  821MPD2    H112083   1.586   2.737  12.884  0.9841 -0.4382 -0.2086
  821MPD2    H212084   1.435   2.577  13.244  0.0912  0.1696  0.3129
  821MPD2    H312085   1.431   2.604  13.000  0.6343  1.2656 -1.6583
  821MPD2     N12086   1.803   2.870  12.988 -0.1117 -0.3198  0.3502
  821MPD2    H512087   1.803   2.855  12.888  1.5548  1.2396  0.1020
  821MPD2    N112088   1.638   2.687  13.395 -0.0056  0.5900  0.0660
  821MPD2    H712089   1.697   2.758  13.438 -0.3045  0.0618  1.3553
  822MPD2     C12090   2.472   2.446  15.855  0.0585 -0.1352 -0.1151
  822MPD2    C112091   2.436   2.424  15.981 -0.6585  0.5635  0.2024
  822MPD2    C212092   2.365   2.521  16.047  0.1836 -0.6488 -0.2691
  822MPD2    C312093   2.350   2.643  15.994  0.9273 -0.6568  0.0145
  822MPD2    C412094   2.396   2.666  15.872  0.1516  0.2018 -0.4842
  822MPD2    C512095   2.449   2.569  15.799  0.0999 -0.9121  0.4241
  822MPD2     H12096   2.328   2.505  16.148  0.6774  4.1000  0.6725
  822MPD2    H112097   2.385   2.762  15.822 -0.4844  0.6068  0.4457
  822MPD2    H212098   2.525   2.375  15.792  0.4364  0.7937 -0.8504
  822MPD2    H312099   2.476   2.588  15.695 -0.8387  1.8187  0.6963
  822MPD2     N12100   2.291   2.746  16.077  0.2726  0.4059  0.0319
  822MPD2    H512101   2.258   2.706  16.165  0.0040 -0.3205 -0.3956
  822MPD2    N112102   2.475   2.302  16.047 -0.2218 -0.1728 -0.6706
  822MPD2    H712103   2.461   2.295  16.147 -1.3330 -0.1636 -0.8342
  823MPD2     C12104   1.979   3.045  16.813  1.0111  0.0851  0.5033
  823MPD2    C112105   2.046   2.952  16.731 -0.0123 -0.7880  0.3707
  823MPD2    C212106   2.092   2.840  16.794 -0.8868 -0.1543 -0.2559
  823MPD2    C312107   2.049   2.802  16.927 -0.2580  0.8530  0.4269
  823MPD2    C412108   1.981   2.892  17.000 -0.8140 -0.3406  0.1369
  823MPD2    C512109   1.951   3.012  16.943  0.1019 -0.5086  0.0458
  823MPD2     H12110   2.163   2.784  16.736  0.6596  1.9777 -0.4268
  823MPD2    H112111   1.956   2.878  17.104  0.1813  0.5273  0.4939
  823MPD2    H212112   1.949   3.140  16.770  0.4024 -1.7686 -3.2446
  823MPD2    H312113   1.905   3.084  17.010 -0.4577 -0.3091 -0.5510
  823MPD2     N12114   2.081   2.683  16.989  0.5790 -0.4096 -1.0457
  823MPD2    H512115   2.046   2.670  17.083  0.2693  0.5087 -1.0318
  823MPD2    N112116   2.067   2.988  16.593 -0.4194 -0.3703  0.2451
  823MPD2    H712117   2.046   3.086  16.576  0.0271  0.2047  2.9029
  824MPD2     C12118   2.568   1.434  16.047  0.1255  0.7624 -0.0691
  824MPD2    C112119   2.645   1.542  15.997  0.3904  0.7216  1.0377
  824MPD2    C212120   2.752   1.509  15.913 -0.0046  0.3201  1.0420
  824MPD2    C312121   2.782   1.383  15.877 -0.7519 -0.0807  0.1557
  824MPD2    C412122   2.709   1.281  15.925  0.3092 -0.2739  0.2473
  824MPD2    C512123   2.606   1.305  16.010  0.1146 -0.4440 -0.2878
  824MPD2     H12124   2.816   1.587  15.874 -0.3582 -1.6130 -3.4570
  824MPD2    H112125   2.728   1.177  15.899  0.9154  0.2023 -1.2577
  824MPD2    H212126   2.485   1.442  16.116 -0.3920 -1.4565 -0.4039
  824MPD2    H312127   2.547   1.221  16.045 -2.0517  0.2361 -2.3659
  824MPD2     N12128   2.905   1.367  15.797 -0.3892 -0.1280 -0.3984
  824MPD2    H512129   2.962   1.451  15.797 -3.3912  1.9340  0.9464
  824MPD2    N112130   2.626   1.679  16.030 -0.2860 -0.3709 -0.4340
  824MPD2    H712131   2.693   1.744  15.989  0.8791 -0.7245  0.9131
  825MPD2     C12132   3.631   1.577  15.968 -0.5436  0.2121  0.3579
  825MPD2    C112133   3.555   1.595  15.858  0.3863  0.0935 -0.1969
  825MPD2    C212134   3.575   1.710  15.783 -0.0196 -0.3050 -0.4731
  825MPD2    C312135   3.658   1.809  15.829 -0.4330 -0.1585 -0.1309
  825MPD2    C412136   3.735   1.786  15.937 -0.2822 -0.1386  0.7430
  825MPD2    C512137   3.717   1.675  16.013  0.5513 -0.4996 -0.1946
  825MPD2     H12138   3.526   1.721  15.687 -0.3363 -0.5826 -0.3458
  825MPD2    H112139   3.811   1.857  15.967 -1.5622  0.8248  1.7122
  825MPD2    H212140   3.611   1.485  16.022 -0.8155 -1.0049 -1.8205
  825MPD2    H312141   3.771   1.658  16.105  0.1696  0.8508  0.2761
  825MPD2     N12142   3.680   1.936  15.763 -0.3363 -0.3750  0.0911
  825MPD2    H512143   3.743   1.996  15.815 -0.1247  0.1539 -0.7719
  825MPD2    N112144   3.462   1.495  15.831  0.1310 -0.5175  0.4215
  825MPD2    H712145   3.467   1.417  15.895 -0.4517  1.4839  2.9217
  826MPD2     C12146   3.104   1.958  13.541 -0.4015 -0.2901  0.4966
  826MPD2    C112147   3.012   1.956  13.438  0.3211  0.4397  0.8020
  826MPD2    C212148   2.901   2.041  13.451  0.5329 -0.4680  0.6347
  826MPD2    C312149   2.881   2.125  13.561  0.3069  0.6031 -0.1415
  826MPD2    C412150   2.985   2.132  13.649 -0.9043 -0.5241 -0.2724
  826MPD2    C512151   3.084   2.041  13.642  0.0795 -0.5109 -0.1441
  826MPD2     H12152   2.841   2.054  13.362  0.7844  1.1016  0.7024
  826MPD2    H112153   2.976   2.188  13.741 -0.5312  0.3373 -0.7572
  826MPD2    H212154   3.180   1.882  13.556 -0.2410  0.0126  1.2002
  826MPD2    H312155   3.158   2.035  13.722  0.8317  1.4315 -0.6861
  826MPD2     N12156   2.760   2.195  13.577 -0.1291 -0.2666  0.3776
  826MPD2    H512157   2.752   2.252  13.661 -0.7322  1.5426 -0.9146
  826MPD2    N112158   3.038   1.867  13.323 -0.0115  0.0604  0.3726
  826MPD2    H712159   3.121   1.809  13.332  0.4732  0.2034 -3.0367
  827MPD2     C12160   4.322   3.645  10.025 -0.0944  0.1762  0.1718
  827MPD2    C112161   4.286   3.514  10.044  0.1547  0.7574 -0.3717
  827MPD2    C212162   4.280   3.437   9.928  0.0594 -0.7263  0.0658
  827MPD2    C312163   4.302   3.483   9.806  0.5123 -0.0924 -0.3655
  827MPD2    C412164   4.348   3.610   9.797  0.3462  0.4073 -0.3830
  827MPD2    C512165   4.361   3.688   9.903  0.4708  0.5439 -0.1733
  827MPD2     H12166   4.246   3.335   9.937 -1.1935 -0.4225 -1.3343
  827MPD2    H112167   4.370   3.648   9.698  1.4334 -0.3357 -0.4156
  827MPD2    H212168   4.332   3.708  10.112  0.6225 -0.2985  0.4363
  827MPD2    H312169   4.405   3.786   9.887  0.5823  0.7486  1.3766
  827MPD2     N12170   4.284   3.396   9.697 -0.0252  0.0650  0.3203
  827MPD2    H512171   4.254   3.302   9.719  2.5929 -0.6755  0.7243
  827MPD2    N112172   4.261   3.474  10.180 -0.1209  0.6130  0.8326
  827MPD2    H712173   4.273   3.549  10.247 -1.0381 -0.3301  2.0607
  828MPD2     C12174   2.324   3.438  12.460 -0.1770 -0.0031 -0.6407
  828MPD2    C112175   2.256   3.438  12.342  0.0435 -0.1316 -0.2141
  828MPD2    C212176   2.323   3.457  12.225  0.1177 -0.8774  0.0424
  828MPD2    C312177   2.459   3.466  12.215  0.0930 -0.3832 -0.6893
  828MPD2    C412178   2.529   3.471  12.334  0.7354  0.5750 -0.3405
  828MPD2    C512179   2.465   3.453  12.454 -0.3088  0.0641  0.5315
  828MPD2     H12180   2.268   3.455  12.132 -1.9356 -0.8036  1.2526
  828MPD2    H112181   2.637   3.475  12.331  0.7320  2.2428  1.7828
  828MPD2    H212182   2.286   3.411  12.558  2.8820 -2.3453 -0.0953
  828MPD2    H312183   2.525   3.474  12.542  1.0358 -0.7645 -0.1841
  828MPD2     N12184   2.527   3.483  12.088  0.0981  0.5124  0.3754
  828MPD2    H512185   2.627   3.498  12.088  0.4471 -1.7849  0.7147
  828MPD2    N112186   2.111   3.422  12.332  0.0736  0.5953  0.0268
  828MPD2    H712187   2.078   3.444  12.238  0.2805 -0.5111 -0.3015
  829MPD2     C12188   1.688   3.327  11.581 -0.4420  0.5494 -0.5735
  829MPD2    C112189   1.592   3.296  11.672  0.5520 -0.0512  0.2678
  829MPD2    C212190   1.620   3.299  11.810 -0.4050  0.6952  0.2916
  829MPD2    C312191   1.741   3.335  11.851  0.4077  0.0693  0.2633
  829MPD2    C412192   1.840   3.363  11.753  0.1421  0.3567  0.7987
  829MPD2    C512193   1.813   3.366  11.621  0.0116 -1.0840 -0.4100
  829MPD2     H12194   1.552   3.256  11.882  1.1865 -0.1038  1.3205
  829MPD2    H112195   1.943   3.391  11.770  0.0240 -0.3347  2.6163
  829MPD2    H212196   1.665   3.336  11.475  0.5619 -1.1025 -0.9374
  829MPD2    H312197   1.890   3.393  11.551  1.1005  0.0100  1.2134
  829MPD2     N12198   1.779   3.330  11.989 -1.0785 -0.7288  0.2873
  829MPD2    H512199   1.878   3.341  12.009 -0.9853  0.0017 -0.5827
  829MPD2    N112200   1.463   3.258  11.627  0.6746  0.1227  0.0037
  829MPD2    H712201   1.443   3.256  11.527  2.3684 -1.3752 -0.3079
  830MPD2     C12202   2.407   0.558  15.585  0.6720  0.2738  0.0763
  830MPD2    C112203   2.302   0.650  15.588  0.2382 -0.3989  0.5236
  830MPD2    C212204   2.318   0.782  15.558  0.4590 -0.9834  0.0060
  830MPD2    C312205   2.449   0.833  15.555  0.1903 -0.2474 -0.2689
  830MPD2    C412206   2.558   0.741  15.560  0.4177 -0.0265  0.0726
  830MPD2    C512207   2.532   0.605  15.562  0.7598  0.5872  0.5941
  830MPD2     H12208   2.234   0.852  15.563  1.0224 -0.2690 -0.6165
  830MPD2    H112209   2.660   0.775  15.567  0.4573  0.0462 -0.8604
  830MPD2    H212210   2.387   0.455  15.611 -0.4575 -0.0892 -2.3013
  830MPD2    H312211   2.603   0.523  15.564  2.2459  1.8622  0.3958
  830MPD2     N12212   2.486   0.970  15.554  0.1638 -0.3403  0.3083
  830MPD2    H512213   2.585   0.986  15.537 -0.4287  0.3047 -2.4246
  830MPD2    N112214   2.173   0.592  15.602  0.1484  0.4405  0.0570
  830MPD2    H712215   2.173   0.491  15.589  1.8252  0.6168 -1.4394
  831MPD2     C12216   2.619   2.859  16.288 -0.0136 -0.7390 -0.4586
  831MPD2    C112217   2.626   2.727  16.254  0.0434 -0.5410 -0.0336
  831MPD2    C212218   2.540   2.640  16.313  0.0230 -0.0297  0.1359
  831MPD2    C312219   2.438   2.674  16.396 -0.6237 -0.0642  0.2458
  831MPD2    C412220   2.425   2.805  16.428  0.5169 -0.1514 -0.0313
  831MPD2    C512221   2.511   2.898  16.369  0.1004  0.4472 -0.0319
  831MPD2     H12222   2.551   2.535  16.289 -1.6342  0.1635 -1.4703
  831MPD2    H112223   2.356   2.849  16.500 -3.6660 -3.3096 -2.0950
  831MPD2    H212224   2.681   2.937  16.246  4.8925 -3.2402  2.1275
  831MPD2    H312225   2.487   3.004  16.370 -0.6693  0.2741  0.2578
  831MPD2     N12226   2.332   2.585  16.445  0.4481 -0.5093 -0.3575
  831MPD2    H512227   2.259   2.627  16.502  0.4866 -0.4582 -0.3455
  831MPD2    N112228   2.717   2.693  16.156  0.2695 -0.2703 -0.4004
  831MPD2    H712229   2.774   2.769  16.120  2.5399 -1.3356  1.0088
  832MPD2     C12230   0.950   3.369  17.063 -0.0166 -0.1673  0.0054
  832MPD2    C112231   0.967   3.508  17.073 -0.3070  0.2438  0.1354
  832MPD2    C212232   0.921   3.602  16.978  0.0133 -0.8716 -0.1364
  832MPD2    C312233   0.840   3.556  16.871  0.3932  0.1879 -0.2355
  832MPD2    C412234   0.830   3.422  16.859 -0.1298 -0.0959 -0.4770
  832MPD2    C512235   0.882   3.332  16.949 -0.4951 -0.0890 -0.8614
  832MPD2     H12236   0.931   3.709  16.994  0.5025 -1.1077  1.1697
  832MPD2    H112237   0.768   3.384  16.779 -1.7992 -1.8072  1.6357
  832MPD2    H212238   1.003   3.303  17.130  1.0851 -1.1567 -1.8374
  832MPD2    H312239   0.867   3.227  16.927  1.7831 -0.7506  0.7876
  832MPD2     N12240   0.753   3.632  16.792 -0.2176 -0.3860  0.2547
  832MPD2    H512241   0.684   3.588  16.732 -2.2999  2.1640  0.7493
  832MPD2    N112242   1.048   3.549  17.184  0.0766  0.7479  0.1427
  832MPD2    H712243   1.047   3.495  17.269  0.5349  2.0262  0.9499
  833MPD2     C12244   3.427   0.475  12.387  0.6884  0.2838 -0.5050
  833MPD2    C112245   3.375   0.580  12.309 -0.7576 -0.1379  0.2061
  833MPD2    C212246   3.376   0.570  12.171 -1.0198 -0.2312 -0.2880
  833MPD2    C312247   3.425   0.460  12.106 -0.1093 -0.1320 -0.7148
  833MPD2    C412248   3.475   0.362  12.179 -0.5183  0.8106 -0.0484
  833MPD2    C512249   3.479   0.372  12.311  0.1676  0.2519 -0.1115
  833MPD2     H12250   3.342   0.654  12.110 -0.2841  2.0414  2.4361
  833MPD2    H112251   3.519   0.275  12.132  0.2806  0.9178  0.4906
  833MPD2    H212252   3.411   0.456  12.492  1.2135 -0.1792 -0.5136
  833MPD2    H312253   3.493   0.281  12.368 -3.4962 -1.9099 -2.6705
  833MPD2     N12254   3.451   0.466  11.964 -0.1770 -0.4066 -0.1605
  833MPD2    H512255   3.494   0.383  11.925  0.6254 -0.5227  0.9782
  833MPD2    N112256   3.331   0.697  12.374 -0.7193 -0.1955 -0.0241
  833MPD2    H712257   3.337   0.693  12.476 -2.4181 -2.5999 -0.0093
  834MPD2     C12258   2.775   0.040  11.394  0.1728 -0.6198 -0.0639
  834MPD2    C112259   2.839   0.105  11.292  0.4063  0.5826 -1.1522
  834MPD2    C212260   2.947   0.193  11.311 -0.0146  0.6908  0.7077
  834MPD2    C312261   2.998   0.204  11.434  0.2015 -0.1447 -0.7675
  834MPD2    C412262   2.939   0.132  11.535 -0.0567 -0.5478  0.4525
  834MPD2    C512263   2.832   0.058  11.515  1.0550 -0.4740 -0.3450
  834MPD2     H12264   3.003   0.249  11.238 -0.0924 -0.0682  0.0588
  834MPD2    H112265   2.976   0.146  11.636 -2.3948 -1.6590  1.4545
  834MPD2    H212266   2.691   4.696  11.390  1.5709 -2.2971 -0.7657
  834MPD2    H312267   2.780   0.011  11.597  1.3659 -0.5691 -0.2005
  834MPD2     N12268   3.100   0.299  11.457 -0.9713 -0.1687 -0.1495
  834MPD2    H512269   3.115   0.352  11.371 -0.7991  1.3229  0.8149
  834MPD2    N112270   2.779   0.079  11.164 -0.0111 -0.0103  0.2154
  834MPD2    H712271   2.689   0.032  11.162  0.0908 -0.2297  0.7454
  835MPD2     C12272   3.151   3.584  11.183  0.0205 -0.0278 -0.0787
  835MPD2    C112273   3.037   3.607  11.252 -0.2473  0.3316 -0.6908
  835MPD2    C212274   3.048   3.679  11.375 -0.2121 -0.1360 -0.0628
  835MPD2    C312275   3.175   3.686  11.433  0.3831  0.2943 -0.2711
  835MPD2    C412276   3.285   3.646  11.365 -0.2220  0.5355  0.1279
  835MPD2    C512277   3.274   3.597  11.241 -0.2175  0.5331  0.0214
  835MPD2     H12278   2.955   3.707  11.424 -0.7841 -0.2367 -1.0965
  835MPD2    H112279   3.387   3.654  11.401  0.2658 -2.4716 -0.5876
  835MPD2    H212280   3.150   3.550  11.080  1.8569 -0.4024  0.0281
  835MPD2    H312281   3.370   3.585  11.192 -0.9238  1.5267 -1.6354
  835MPD2     N12282   3.197   3.734  11.561  0.1577 -0.2115 -0.1480
  835MPD2    H512283   3.290   3.721  11.600  1.1260  1.5528 -1.8376
  835MPD2    N112284   2.906   3.582  11.209  0.3800 -0.3054  0.6324
  835MPD2    H712285   2.827   3.614  11.264  0.9613  1.6700  0.2913
  836MPD2     C12286   2.678   3.790  11.736  0.4056  0.0200 -0.1154
  836MPD2    C112287   2.730   3.823  11.858  0.1999 -0.6267 -0.0446
  836MPD2    C212288   2.636   3.831  11.956  0.0682  0.1887  0.0699
  836MPD2    C312289   2.500   3.814  11.936 -0.4323 -0.1776  0.0093
  836MPD2    C412290   2.457   3.773  11.815  0.3187 -1.0964  0.2603
  836MPD2    C512291   2.544   3.756  11.714 -0.1105 -0.2556  1.2226
  836MPD2     H12292   2.668   3.838  12.059 -1.1549  3.1871  0.2204
  836MPD2    H112293   2.351   3.765  11.792 -0.2520 -0.3264  2.5858
  836MPD2    H212294   2.749   3.778  11.655  0.3621 -0.1254 -0.1325
  836MPD2    H312295   2.501   3.738  11.616  1.1902  1.1880  0.3854
  836MPD2     N12296   2.401   3.826  12.036  0.2263  0.0845 -0.3576
  836MPD2    H512297   2.306   3.819  12.002  0.5740 -0.5413 -1.2180
  836MPD2    N112298   2.866   3.851  11.872  0.0372 -0.0169  0.2191
  836MPD2    H712299   2.922   3.841  11.788  0.8770 -2.3323  1.0612
  837MPD2     C12300   1.659   3.387   9.603 -0.1396  0.1912 -0.0336
  837MPD2    C112301   1.596   3.414   9.726 -0.4451  0.2411  0.5089
  837MPD2    C212302   1.642   3.519   9.806  0.2232 -0.6646  0.3473
  837MPD2    C312303   1.734   3.608   9.756  0.2324 -0.0148 -0.1142
  837MPD2    C412304   1.804   3.574   9.644  0.2943  0.2774  0.1886
  837MPD2    C512305   1.768   3.466   9.573  0.7433  0.4279 -0.6981
  837MPD2     H12306   1.611   3.530   9.909  0.2453  2.7604 -0.0217
  837MPD2    H112307   1.863   3.656   9.604  1.2252 -0.3273  0.3226
  837MPD2    H212308   1.617   3.316   9.533 -0.0625 -0.3056  0.4206
  837MPD2    H312309   1.805   3.446   9.473  1.0489 -2.0984 -0.0763
  837MPD2     N12310   1.735   3.739   9.808  0.4243 -0.4015  0.0689
  837MPD2    H512311   1.684   3.756   9.894  0.0028  2.0705 -0.6764
  837MPD2    N112312   1.478   3.346   9.761  0.5336 -0.3617  0.0203
  837MPD2    H712313   1.432   3.379   9.845  0.1717  1.7494 -1.0008
  838MPD2     C12314   4.685   1.500  11.929  0.2134 -0.3971  0.1805
  838MPD2    C112315   4.592   1.409  11.874  0.2600  0.4393  0.4157
  838MPD2    C212316   4.486   1.377  11.965  0.2743 -0.7389  0.1023
  838MPD2    C312317   4.479   1.429  12.095 -0.6524  0.8059 -0.4454
  838MPD2    C412318   4.572   1.520  12.138  0.2656  0.4814 -0.1618
  838MPD2    C512319   4.675   1.554  12.055 -0.5503 -0.4845  0.2993
  838MPD2     H12320   4.413   1.300  11.941  1.2364 -1.5329 -0.2677
  838MPD2    H112321   4.576   1.572  12.233 -2.0279 -0.4798  0.4464
  838MPD2    H212322   0.049   1.535  11.876 -0.2303 -0.0977 -0.3487
  838MPD2    H312323   0.029   1.622  12.088 -0.8519  1.2660 -2.6286
  838MPD2     N12324   4.376   1.390  12.180  0.0456 -0.3364  0.0594
  838MPD2    H512325   4.312   1.325  12.136 -0.0091 -1.6807  2.1246
  838MPD2    N112326   4.586   1.352  11.744  0.0452  0.0357 -0.1439
  838MPD2    H712327   4.500   1.306  11.715  0.1260  0.7301 -1.4816
  839MPD2     C12328   3.924   1.034  11.361  0.4415 -0.4415  0.3346
  839MPD2    C112329   4.007   1.000  11.259  0.1584  0.1606  0.3898
  839MPD2    C212330   4.140   1.035  11.275 -0.0548  0.0840  0.3824
  839MPD2    C312331   4.187   1.104  11.386  0.0545  0.0085 -0.0037
  839MPD2    C412332   4.092   1.136  11.482  0.5410 -0.5503  0.0658
  839MPD2    C512333   3.962   1.103  11.470  0.2150  0.1154 -0.6810
  839MPD2     H12334   4.208   1.008  11.195  1.7315 -0.5849  2.1358
  839MPD2    H112335   4.120   1.201  11.564  1.0882  0.8700 -1.2331
  839MPD2    H212336   3.818   1.010  11.358  0.0719  1.2650 -0.2708
  839MPD2    H312337   3.886   1.135  11.540  2.2183  1.2754  0.9819
  839MPD2     N12338   4.317   1.143  11.413  0.7051  0.5474  0.3581
  839MPD2    H512339   4.319   1.202  11.495 -0.1211  2.2645 -0.8496
  839MPD2    N112340   3.969   0.913  11.146  0.3189 -0.3929  0.2451
  839MPD2    H712341   4.035   0.893  11.072 -1.7907  0.0544 -1.7400
  840MPD2     C12342   4.539   3.821  10.563  0.2433  0.4134  0.1542
  840MPD2    C112343   4.540   3.703  10.634 -0.2406  0.3106 -0.0471
  840MPD2    C212344   4.611   3.692  10.755  0.2733  0.0636 -0.8700
  840MPD2    C312345   4.685   3.801  10.798  0.2736  0.4308  0.1015
  840MPD2    C412346   4.688   3.918  10.726 -0.2649  0.7255 -0.8011
  840MPD2    C512347   4.615   3.923  10.609  0.0443  0.2249  0.1592
  840MPD2     H12348   4.607   3.602  10.816  2.3905  1.0955  0.7866
  840MPD2    H112349   0.024   4.001  10.760 -0.7285  1.1825 -1.1022
  840MPD2    H212350   4.491   3.832  10.467 -1.0345 -1.4021  0.5819
  840MPD2    H312351   4.612   4.019  10.558  0.0339 -0.1217 -0.4952
  840MPD2     N12352   0.042   3.807  10.919  0.2000  0.4897  0.6580
  840MPD2    H512353   0.092   3.894  10.936  2.4521 -0.2662 -2.1258
  840MPD2    N112354   4.451   3.604  10.587 -0.1359 -0.3759  0.6885
  840MPD2    H712355   4.391   3.629  10.509 -0.1460 -0.6413  0.6117
  841MPD2     C12356   3.868   3.328  14.528 -0.0530 -0.4594 -0.6824
  841MPD2    C112357   3.881   3.254  14.410 -0.1558 -0.1470 -0.3586
  841MPD2    C212358   3.885   3.324  14.293 -0.4941 -0.3209  0.2559
  841MPD2    C312359   3.881   3.464  14.284  0.1860 -0.1184  0.4032
  841MPD2    C412360   3.860   3.527  14.403  0.1446  0.1103  0.2603
  841MPD2    C512361   3.852   3.467  14.524  0.6295 -0.0371  0.4179
  841MPD2     H12362   3.900   3.273  14.198  1.5284  0.6184  0.0695
  841MPD2    H112363   3.858   3.636  14.405  0.1742  0.1507 -1.7084
  841MPD2    H212364   3.852   3.281  14.624 -1.0732 -0.8301 -1.0399
  841MPD2    H312365   3.824   3.521  14.613 -0.2887 -0.0534  0.1330
  841MPD2     N12366   3.930   3.534  14.171  0.3366  0.0076 -0.3826
  841MPD2    H512367   3.983   3.481  14.102  0.3580 -1.4113  0.7241
  841MPD2    N112368   3.906   3.113  14.410  0.3634  0.0289 -0.9028
  841MPD2    H712369   3.932   3.076  14.319  1.2257 -0.2778 -0.5280
  842MPD2     C12370   4.140   3.735  16.349  0.8604  0.1215 -0.4923
  842MPD2    C112371   4.218   3.829  16.415 -0.0715 -0.4553 -0.4558
  842MPD2    C212372   4.234   3.803  16.550 -0.1291 -0.4082  0.8514
  842MPD2    C312373   4.158   3.709  16.622  0.0901  0.3109  0.2462
  842MPD2    C412374   4.090   3.614  16.548  0.2519  0.0790  0.0733
  842MPD2    C512375   4.081   3.637  16.417  0.6323  0.4884 -0.3313
  842MPD2     H12376   4.268   3.889  16.605  1.5328  0.0466 -0.8932
  842MPD2    H112377   4.030   3.543  16.605  0.6704  0.9553  1.6080
  842MPD2    H212378   4.117   3.747  16.244  1.7049 -2.3682 -0.9426
  842MPD2    H312379   4.014   3.565  16.370  1.8212 -1.0794  0.3539
  842MPD2     N12380   4.142   3.701  16.761 -0.4273 -0.1278 -0.5630
  842MPD2    H512381   4.061   3.648  16.790  0.3195  0.1351  2.0511
  842MPD2    N112382   4.252   3.952  16.360 -0.3239 -0.5650 -0.4247
  842MPD2    H712383   4.215   3.968  16.267 -0.2002  0.9091 -0.2276
  843MPD2     C12384   1.468   4.415  17.671 -0.2235  0.2792 -0.3956
  843MPD2    C112385   1.570   4.324  17.680 -0.1186 -0.1969 -0.1201
  843MPD2    C212386   1.697   4.370   0.015  0.4989 -0.5681  0.1024
  843MPD2    C312387   1.715   4.507   0.040  0.5348  0.1541 -0.1923
  843MPD2    C412388   1.617   4.598   0.014 -0.3899 -0.4577 -0.2088
  843MPD2    C512389   1.493   4.550  17.691  0.7682  0.4759  0.0964
  843MPD2     H12390   1.772   4.298   0.044  2.3208  1.2350 -0.1741
  843MPD2    H112391   1.631   4.702   0.044 -3.9735  0.0411 -0.1887
  843MPD2    H212392   1.363   4.386  17.672  0.4068 -1.9846  0.8836
  843MPD2    H312393   1.402   4.610  17.698 -1.2556 -2.2795 -2.4266
  843MPD2     N12394   1.842   4.567   0.076  0.7863  0.5076 -0.3568
  843MPD2    H512395   1.854   4.667   0.061 -0.4339  0.4622 -1.6584
  843MPD2    N112396   1.533   4.187  17.691 -0.0178  0.3652  0.4397
  843MPD2    H712397   1.434   4.165  17.689 -0.0474  0.3748  1.4813
  844MPD2     C12398   0.705   3.480  16.242  0.4981  0.2787 -0.7658
  844MPD2    C112399   0.770   3.366  16.272  0.1195 -0.0554  0.3377
  844MPD2    C212400   0.856   3.373  16.384  0.2699  0.6950  0.4875
  844MPD2    C312401   0.878   3.489  16.453  0.2106  0.4553 -0.4616
  844MPD2    C412402   0.805   3.596  16.428 -0.5368 -0.4762  0.2100
  844MPD2    C512403   0.721   3.594  16.319 -0.7291 -0.5109 -0.4259
  844MPD2     H12404   0.916   3.287  16.412  1.1009  1.1949  0.2552
  844MPD2    H112405   0.822   3.693  16.472  0.4107 -0.8667  0.6965
  844MPD2    H212406   0.641   3.480  16.154  0.0169  0.3329 -0.4126
  844MPD2    H312407   0.665   3.683  16.293 -2.3805 -2.0110 -1.9825
  844MPD2     N12408   0.984   3.475  16.551 -0.7554  0.2859  0.3177
  844MPD2    H512409   1.035   3.389  16.568  1.7972  1.8333  0.5550
  844MPD2    N112410   0.765   3.244  16.199  0.5455 -0.2850  0.4838
  844MPD2    H712411   0.807   3.160  16.236 -1.1208 -1.1750  0.3460
  845MPD2     C12412   1.576   4.241  16.798  0.6363 -0.1000  0.0735
  845MPD2    C112413   1.440   4.218  16.827 -0.2907  0.2503 -0.1046
  845MPD2    C212414   1.396   4.086  16.827  0.2181 -0.0137 -0.2653
  845MPD2    C312415   1.475   3.989  16.774  0.7148 -0.3399  0.1431
  845MPD2    C412416   1.608   4.007  16.743 -0.2663 -0.1383 -0.4238
  845MPD2    C512417   1.656   4.134  16.764  0.1261 -0.8213 -0.0922
  845MPD2     H12418   1.306   4.070  16.885 -0.0973 -0.1072 -0.7769
  845MPD2    H112419   1.667   3.928  16.699 -0.3784 -0.7831  0.5647
  845MPD2    H212420   1.608   4.344  16.792  0.2433  0.0660  0.7671
  845MPD2    H312421   1.757   4.150  16.727 -0.9170 -0.2647 -2.7023
  845MPD2     N12422   1.404   3.865  16.762  0.1164 -0.3467 -0.0623
  845MPD2    H512423   1.304   3.856  16.780 -0.1058  0.0306 -1.1041
  845MPD2    N112424   1.358   4.328  16.871 -0.3341  0.4802 -0.4569
  845MPD2    H712425   1.388   4.423  16.849  0.3686  0.3248 -0.1388
  846MPD2     C12426   2.622   0.272  13.752  0.3456  0.3094 -0.0398
  846MPD2    C112427   2.517   0.359  13.776 -0.6432  0.6796  0.3622
  846MPD2    C212428   2.461   0.367  13.899  0.0094 -0.3690  0.0217
  846MPD2    C312429   2.500   0.281  13.996  0.0748 -0.2091 -0.5224
  846MPD2    C412430   2.605   0.194  13.977  0.1235 -0.4332  0.6736
  846MPD2    C512431   2.669   0.191  13.857  0.4644  0.4818  0.2742
  846MPD2     H12432   2.380   0.436  13.917  0.4421  0.2154 -0.2496
  846MPD2    H112433   2.633   0.118  14.049 -0.9516 -2.2355 -0.8224
  846MPD2    H212434   2.665   0.252  13.654 -1.4143 -3.7661  0.0245
  846MPD2    H312435   2.758   0.132  13.841  0.0382  0.1204 -0.7780
  846MPD2     N12436   2.420   0.279  14.111 -0.3217  0.4005  0.3500
  846MPD2    H512437   2.332   0.330  14.114 -1.2739 -1.3747  2.6395
  846MPD2    N112438   2.470   0.437  13.662 -0.1030 -1.0325 -0.7944
  846MPD2    H712439   2.401   0.507  13.685  2.2150  0.1136  2.6865
  847MPD2     C12440   2.460   1.136  14.363  0.3603  0.6448  0.7970
  847MPD2    C112441   2.541   1.199  14.450 -0.2577 -0.4571 -0.8175
  847MPD2    C212442   2.579   1.128  14.563 -0.4129  0.4020  0.2110
  847MPD2    C312443   2.517   1.011  14.602 -0.0460 -0.2685  0.2044
  847MPD2    C412444   2.428   0.954  14.519  0.4414  0.1983  0.3880
  847MPD2    C512445   2.401   1.018  14.399  0.3207 -0.0443 -0.2389
  847MPD2     H12446   2.655   1.173  14.625 -1.2646  0.3496  1.2959
  847MPD2    H112447   2.378   0.860  14.540  1.8634 -0.1371  2.2781
  847MPD2    H212448   2.448   1.176  14.263  1.1368 -0.7338  0.1499
  847MPD2    H312449   2.319   0.984  14.336  1.4901 -2.3575 -0.5029
  847MPD2     N12450   2.574   0.946  14.708 -0.5972 -0.1391  0.5163
  847MPD2    H512451   2.655   0.989  14.750 -0.6192  0.8968 -0.4991
  847MPD2    N112452   2.596   1.328  14.437  0.4708  0.1268 -0.4009
  847MPD2    H712453   2.654   1.364  14.513  0.8505 -2.3435  0.4807
  848MPD2     C12454   0.811   4.203  16.259  0.8292 -0.0867 -0.1937
  848MPD2    C112455   0.680   4.223  16.304 -0.6282  0.1615  0.1818
  848MPD2    C212456   0.618   4.347  16.276 -0.8087  0.5315 -0.0683
  848MPD2    C312457   0.685   4.449  16.211 -0.5225  0.7535  0.2189
  848MPD2    C412458   0.815   4.422  16.170 -0.4944  0.8850 -0.2226
  848MPD2    C512459   0.876   4.305  16.193  0.4366  0.2661 -0.3716
  848MPD2     H12460   0.524   4.370  16.326 -1.5505  0.3828 -1.3999
  848MPD2    H112461   0.880   4.484  16.109 -0.6011  1.5153  0.3137
  848MPD2    H212462   0.868   4.112  16.273  0.7166 -0.4754 -2.2650
  848MPD2    H312463   0.978   4.287  16.161  0.3155 -0.5427 -0.3148
  848MPD2     N12464   0.615   4.574  16.186 -0.2937 -0.2326  0.5414
  848MPD2    H512465   0.524   4.584  16.230  0.6820  0.8419  2.3337
  848MPD2    N112466   0.611   4.136  16.386  0.5844 -0.6153  0.3118
  848MPD2    H712467   0.517   4.155  16.418  0.5167 -0.2835 -0.0757
  849MPD2     C12468   3.706   4.230  14.007 -0.2671 -0.8295 -0.3818
  849MPD2    C112469   3.784   4.277  13.906  0.5455 -0.2325 -0.0313
  849MPD2    C212470   3.922   4.282  13.919  0.0319  0.2113  0.1452
  849MPD2    C312471   3.986   4.227  14.031  0.5005  0.0267 -0.2635
  849MPD2    C412472   3.906   4.195  14.139  0.1986 -0.3198 -1.1030
  849MPD2    C512473   3.770   4.200  14.128 -1.1083  0.0296  0.8227
  849MPD2     H12474   3.984   4.323  13.840  0.7084 -3.1781 -1.0944
  849MPD2    H112475   3.940   4.159  14.235 -1.2699 -1.1386 -0.8965
  849MPD2    H212476   3.599   4.249  14.011 -0.0548  0.6780 -1.9333
  849MPD2    H312477   3.710   4.175  14.215 -0.3607 -1.3804  0.9361
  849MPD2     N12478   4.126   4.215  14.040  0.5755  0.1490 -0.2748
  849MPD2    H512479   4.162   4.189  14.131  0.4584  0.2629 -0.1951
  849MPD2    N112480   3.718   4.326  13.792 -0.1515 -0.7603 -0.0899
  849MPD2    H712481   3.618   4.308  13.780  0.1245 -1.9939 -0.5325
  850MPD2     C12482   2.217   2.530  15.067 -0.1767  0.3695  0.5636
  850MPD2    C112483   2.306   2.486  15.162  1.0556  0.4910  0.1128
  850MPD2    C212484   2.428   2.441  15.128 -0.3797  0.2440 -0.1391
  850MPD2    C312485   2.465   2.445  14.995 -0.2302 -0.1707 -1.0719
  850MPD2    C412486   2.382   2.495  14.903 -0.3851 -0.0944 -0.7782
  850MPD2    C512487   2.261   2.535  14.940  0.0823 -0.1732  0.5661
  850MPD2     H12488   2.493   2.395  15.202 -0.6623  0.7570  0.4309
  850MPD2    H112489   2.415   2.512  14.801  0.6244 -0.4019 -0.4931
  850MPD2    H212490   2.113   2.551  15.091 -0.2529 -1.5397  1.8749
  850MPD2    H312491   2.200   2.559  14.854 -1.4685 -2.2709  1.0638
  850MPD2     N12492   2.595   2.404  14.950  0.0324  0.6566  0.3661
  850MPD2    H512493   2.609   2.393  14.850  0.0458 -0.4401  0.4871
  850MPD2    N112494   2.249   2.450  15.287 -0.3892 -0.0516 -0.3837
  850MPD2    H712495   2.151   2.474  15.302 -0.3005 -0.0100  0.1173
  851MPD2     C12496   2.167   1.895  16.021  0.1814 -0.2549 -0.1167
  851MPD2    C112497   2.214   1.934  15.899  0.3731 -0.2086  0.2110
  851MPD2    C212498   2.282   1.838  15.823  0.3120 -1.1217  0.0328
  851MPD2    C312499   2.277   1.702  15.861  0.3985 -0.0398 -0.4089
  851MPD2    C412500   2.231   1.669  15.987  0.0632  0.3124  0.2405
  851MPD2    C512501   2.168   1.764  16.066  0.5101 -0.5375 -0.0050
  851MPD2     H12502   2.330   1.854  15.728 -0.8487  0.6558 -0.2642
  851MPD2    H112503   2.246   1.567  16.022  0.1348  0.8662  1.8139
  851MPD2    H212504   2.131   1.973  16.087 -0.0534  1.6854 -2.5484
  851MPD2    H312505   2.134   1.737  16.165  1.4557  2.6264  1.1618
  851MPD2     N12506   2.344   1.612  15.780 -0.0235  0.0754  0.1182
  851MPD2    H512507   2.398   1.660  15.709  1.8515 -2.0772  0.1077
  851MPD2    N112508   2.196   2.069  15.861  0.3964 -0.0937  0.8020
  851MPD2    H712509   2.160   2.130  15.933 -0.3309 -0.0703  0.4096
  852MPD2     C12510   1.597   0.379  10.055  0.2690  0.1883 -0.0496
  852MPD2    C112511   1.709   0.392  10.133 -0.2249  0.1425 -0.4401
  852MPD2    C212512   1.803   0.481  10.078  0.7362 -0.5545  0.4769
  852MPD2    C312513   1.791   0.533   9.954  0.3011 -0.7066  0.5185
  852MPD2    C412514   1.671   0.520   9.887 -0.4523  0.1462  0.1713
  852MPD2    C512515   1.576   0.442   9.938 -0.0749 -0.0305 -0.1868
  852MPD2     H12516   1.894   0.498  10.134  0.5730  0.9383  0.2853
  852MPD2    H112517   1.643   0.564   9.792  0.7221  0.2594 -0.1203
  852MPD2    H212518   1.530   0.297  10.080  0.3948  0.3469  0.8036
  852MPD2    H312519   1.480   0.432   9.888  0.8676 -0.1735 -1.9291
  852MPD2     N12520   1.891   0.617   9.901 -0.7321  0.0454 -0.0887
  852MPD2    H512521   1.975   0.628   9.956 -2.3742  1.1039  2.2124
  852MPD2    N112522   1.716   0.345  10.266 -0.8420 -0.1103 -0.4790
  852MPD2    H712523   1.789   0.389  10.321 -0.1405 -0.4213 -1.1578
  853MPD2     C12524   3.933   4.654  12.124  0.2510  0.7061 -0.4453
  853MPD2    C112525   3.913   0.044  12.050  0.0664 -0.1547  0.4422
  853MPD2    C212526   3.885   0.043  11.918 -0.0065 -0.2128 -0.0081
  853MPD2    C312527   3.881   4.640  11.863  0.0749  0.0566 -0.3039
  853MPD2    C412528   3.914   4.526  11.931 -0.2980 -0.7967  0.7165
  853MPD2    C512529   3.926   4.533  12.064 -0.3988 -0.4713 -0.4897
  853MPD2     H12530   3.858   0.129  11.859  0.4556  0.6993  1.1122
  853MPD2    H112531   3.932   4.434  11.876 -2.2046  0.3808 -1.8975
  853MPD2    H212532   3.946   4.654  12.231  4.1252 -0.0781 -0.9328
  853MPD2    H312533   3.938   4.443  12.124  4.3206  1.4084  1.3277
  853MPD2     N12534   3.857   4.618  11.729 -0.2585 -0.1930  0.0492
  853MPD2    H512535   3.871   4.525  11.691 -0.1171 -0.2782  0.3133
  853MPD2    N112536   3.914   0.164  12.130  0.2396  0.0502  0.3067
  853MPD2    H712537   3.935   0.148  12.227 -3.1674 -1.1476  0.8454
  854MPD2     C12538   0.745   0.045  12.783 -0.5037  0.0224 -0.0595
  854MPD2    C112539   0.759   4.668  12.679 -0.3073  0.1978 -0.0836
  854MPD2    C212540   0.799   4.538  12.721  0.0852 -0.5527 -0.1431
  854MPD2    C312541   0.837   4.522  12.853 -1.1393  0.6221 -0.1715
  854MPD2    C412542   0.830   4.620  12.946 -0.4614  0.3204  0.4001
  854MPD2    C512543   0.790   0.025  12.907  0.6451 -0.3868  0.7176
  854MPD2     H12544   0.827   4.466  12.644  1.9548 -0.1003  0.1140
  854MPD2    H112545   0.858   4.607  13.049 -1.4188 -2.7541  0.2749
  854MPD2    H212546   0.720   0.146  12.751  1.4606  0.1376 -1.2206
  854MPD2    H312547   0.784   0.111  12.972 -1.7282  1.1213 -1.4921
  854MPD2     N12548   0.898   4.400  12.904  0.5398 -0.0286 -0.1373
  854MPD2    H512549   0.916   4.401  13.004 -2.2842 -1.2644  0.3719
  854MPD2    N112550   0.722   4.708  12.548 -0.1024 -0.3837  0.8597
  854MPD2    H712551   0.688   0.077  12.529  2.5563  0.4685  0.2836
  855MPD2     C12552   1.456   4.433  13.488  0.0365 -0.6835 -0.4357
  855MPD2    C112553   1.398   4.310  13.508 -0.3808  0.4620  0.0028
  855MPD2    C212554   1.347   4.241  13.398 -0.5327 -0.1467  0.0552
  855MPD2    C312555   1.350   4.293  13.272 -0.2944  0.3398  0.4036
  855MPD2    C412556   1.410   4.415  13.251 -0.4255  0.0267 -0.2406
  855MPD2    C512557   1.450   4.488  13.361 -0.4198  0.6169  0.3076
  855MPD2     H12558   1.301   4.146  13.420  0.6996 -0.7042  0.2120
  855MPD2    H112559   1.417   4.459  13.152 -0.0241  0.2467 -0.1157
  855MPD2    H212560   1.503   4.490  13.567 -2.0798  1.2211 -0.5457
  855MPD2    H312561   1.496   4.585  13.347  0.8893 -0.4646 -2.9089
  855MPD2     N12562   1.300   4.232  13.164 -0.3315  0.1220  0.4825
  855MPD2    H512563   1.307   4.283  13.077 -2.4615  1.7466  1.2620
  855MPD2    N112564   1.377   4.263  13.642  0.1198  0.4087 -0.7568
  855MPD2    H712565   1.338   4.170  13.655 -1.4817  1.1495 -0.3377
  856MPD2     C12566   3.019   0.737  14.248  0.2548 -0.6334 -0.1361
  856MPD2    C112567   3.127   0.821  14.211 -0.3587  0.8219 -0.0637
  856MPD2    C212568   3.097   0.939  14.147  0.6430  0.1057  0.1664
  856MPD2    C312569   2.961   0.980  14.118  0.0372 -0.6135 -0.2514
  856MPD2    C412570   2.862   0.888  14.145  0.1637  0.1263 -0.0259
  856MPD2    C512571   2.895   0.771  14.204 -0.3091  0.1559 -0.5440
  856MPD2     H12572   3.176   0.997  14.100  0.9927  0.2294  0.9055
  856MPD2    H112573   2.759   0.911  14.122  0.3480 -0.4157 -1.4087
  856MPD2    H212574   3.019   0.648  14.310 -1.8252 -0.3279  0.3001
  856MPD2    H312575   2.818   0.698  14.224 -0.5770  0.5944 -0.0110
  856MPD2     N12576   2.933   1.104  14.058  0.1597  0.3376  0.1348
  856MPD2    H512577   2.837   1.126  14.034  0.7565  1.5889 -1.0720
  856MPD2    N112578   3.261   0.788  14.240  0.6518  0.4157  0.5488
  856MPD2    H712579   3.333   0.839  14.189  1.2457  1.6347  2.6005
  857MPD2     C12580   0.168   2.615  12.467 -0.0687  0.5787 -0.0032
  857MPD2    C112581   0.307   2.611  12.465  0.1637 -0.6958 -0.0491
  857MPD2    C212582   0.374   2.734  12.482  0.6438  0.1964  0.0846
  857MPD2    C312583   0.311   2.851  12.478 -0.5864 -0.2028  0.6482
  857MPD2    C412584   0.176   2.850  12.469  0.7627 -0.2235 -0.2298
  857MPD2    C512585   0.099   2.735  12.464  1.3760  0.0060  0.2589
  857MPD2     H12586   0.483   2.736  12.486  0.7039 -2.4679  0.0027
  857MPD2    H112587   0.126   2.946  12.483  2.8050  0.5127  1.9696
  857MPD2    H212588   0.120   2.518  12.466 -0.5297  0.7877  1.5626
  857MPD2    H312589   4.716   2.736  12.473  1.3163  0.1354 -0.4198
  857MPD2     N12590   0.383   2.972  12.505  0.2081  0.3738  0.2675
  857MPD2    H512591   0.482   2.962  12.528  0.1069  0.5369  0.7716
  857MPD2    N112592   0.372   2.484  12.462 -0.1715 -0.5413 -0.4590
  857MPD2    H712593   0.309   2.406  12.480 -0.3871 -0.5619 -1.2927
  858MPD2     C12594   0.489   1.465  16.864 -0.0744  0.1992  0.1569
  858MPD2    C112595   0.620   1.470  16.835  0.6240  0.2500  0.3094
  858MPD2    C212596   0.698   1.554  16.907  0.1158 -0.2715 -0.1237
  858MPD2    C312597   0.645   1.624  17.011 -0.3104  0.8278  0.2344
  858MPD2    C412598   0.511   1.615  17.036  0.5508  0.2718 -0.5920
  858MPD2    C512599   0.428   1.543  16.958  0.4412  0.5518 -0.0106
  858MPD2     H12600   0.802   1.561  16.878 -0.3989 -1.0962 -2.1133
  858MPD2    H112601   0.461   1.674  17.112 -0.4226 -0.0373 -0.9916
  858MPD2    H212602   0.421   1.393  16.819  1.1768  0.2593 -1.8159
  858MPD2    H312603   0.323   1.539  16.982  0.7519  0.0915  1.2972
  858MPD2     N12604   0.720   1.714  17.086  0.3852 -0.1518 -0.4515
  858MPD2    H512605   0.670   1.771  17.153  1.3875  1.3126 -0.9595
  858MPD2    N112606   0.667   1.389  16.726 -0.1873  0.3211 -0.3636
  858MPD2    H712607   0.606   1.314  16.696 -2.0035  0.6168  2.5002
  859MPD2     C12608   4.069   3.260  15.032  0.2581  0.4352  0.1396
  859MPD2    C112609   4.119   3.323  14.920  0.8282  0.7404  0.3636
  859MPD2    C212610   4.153   3.240  14.819  1.1261 -0.1819  0.5391
  859MPD2    C312611   4.155   3.101  14.839 -0.9546 -0.3101 -0.4492
  859MPD2    C412612   4.119   3.047  14.962  0.1725 -0.7171  0.1367
  859MPD2    C512613   4.063   3.125  15.056  0.6562  0.1827 -0.3185
  859MPD2     H12614   4.182   3.291  14.728 -0.2236  1.0289  0.7885
  859MPD2    H112615   4.122   2.940  14.978 -0.1017 -0.6794  0.4582
  859MPD2    H212616   4.039   3.331  15.108 -0.5221 -0.2109  0.4268
  859MPD2    H312617   4.018   3.083  15.145  3.6051 -1.8155  0.2311
  859MPD2     N12618   4.219   3.007  14.752 -0.0598 -0.3836  0.5268
  859MPD2    H512619   4.226   2.908  14.774  0.0151  0.0528  2.5343
  859MPD2    N112620   4.139   3.466  14.908  0.4297  0.4540  0.8945
  859MPD2    H712621   4.151   3.498  14.812  1.3417 -1.2031  0.4649
  860MPD2     C12622   1.651   4.385  11.419 -0.2957 -0.9469 -0.4766
  860MPD2    C112623   1.708   4.363  11.548  0.8647 -0.0858  0.1973
  860MPD2    C212624   1.625   4.337  11.654 -0.2601 -0.0598 -0.4618
  860MPD2    C312625   1.492   4.353  11.641 -0.4546 -0.8393  0.2030
  860MPD2    C412626   1.437   4.385  11.527 -0.2935  0.2323 -0.1687
  860MPD2    C512627   1.520   4.402  11.413 -0.8235  0.9917  0.4664
  860MPD2     H12628   1.666   4.322  11.753 -1.0603  2.6307  0.2853
  860MPD2    H112629   1.330   4.390  11.513 -0.1962 -0.6542 -1.2238
  860MPD2    H212630   1.711   4.401  11.330  0.8067 -1.8819  0.0839
  860MPD2    H312631   1.485   4.426  11.314 -1.3969 -0.9704  0.1936
  860MPD2     N12632   1.422   4.334  11.763 -0.3606  0.1730 -0.0012
  860MPD2    H512633   1.471   4.329  11.852 -1.4974  0.4884  0.6418
  860MPD2    N112634   1.838   4.384  11.573 -0.4981 -0.6172 -0.0486
  860MPD2    H712635   1.857   4.375  11.673  2.4693 -2.9658 -0.8515
  861MPD2     C12636   0.897   2.728  10.809 -0.7622 -0.7143 -0.6279
  861MPD2    C112637   0.791   2.659  10.871 -0.3081  0.1842 -0.2280
  861MPD2    C212638   0.660   2.694  10.852 -0.5804 -0.1443 -0.7317
  861MPD2    C312639   0.633   2.787  10.756  0.0032  0.2696  0.4452
  861MPD2    C412640   0.739   2.847  10.688  0.4544 -0.0318 -0.1594
  861MPD2    C512641   0.869   2.823  10.720  0.0546  0.9258 -0.4860
  861MPD2     H12642   0.579   2.650  10.907 -1.2856  0.1429 -1.5394
  861MPD2    H112643   0.717   2.918  10.608  1.1919 -0.4518 -0.7370
  861MPD2    H212644   1.002   2.702  10.821 -0.5311  0.4933  0.0508
  861MPD2    H312645   0.945   2.871  10.659 -1.4985  1.7106 -1.8023
  861MPD2     N12646   0.500   2.832  10.731  0.6561 -0.0574  0.4872
  861MPD2    H512647   0.500   2.917  10.676  0.2397 -0.0941  0.4292
  861MPD2    N112648   0.821   2.580  10.982  0.1313  0.1649  0.5349
  861MPD2    H712649   0.754   2.524  11.035  0.9816 -1.2509  0.0992
  862MPD2     C12650   0.176   2.952  10.163 -0.4768 -0.6385  0.1665
  862MPD2    C112651   0.264   2.966  10.264  1.1531  0.1375 -0.4546
  862MPD2    C212652   0.374   2.887  10.281  1.2074  1.0833  0.1228
  862MPD2    C312653   0.391   2.775  10.200  0.4858  1.2591  0.3063
  862MPD2    C412654   0.302   2.756  10.096  0.5442  0.2016  0.7301
  862MPD2    C512655   0.200   2.846  10.079  0.2909  0.0172  0.0365
  862MPD2     H12656   0.433   2.898  10.371  2.2809 -0.7600 -0.3460
  862MPD2    H112657   0.297   2.666  10.037 -1.6688  0.0238  1.1742
  862MPD2    H212658   0.092   3.019  10.147 -0.8022 -1.4194 -1.3693
  862MPD2    H312659   0.140   2.839   9.989  0.7893 -3.9814  0.0216
  862MPD2     N12660   0.487   2.679  10.243  0.5055 -0.1191  0.5420
  862MPD2    H512661   0.477   2.583  10.212  1.1597  0.0458 -0.1772
  862MPD2    N112662   0.228   3.056  10.364 -0.0673 -0.2023 -0.5141
  862MPD2    H712663   0.133   3.034  10.391  0.1030 -1.6997 -1.1809
  863MPD2     C12664   3.945   0.612  17.005  0.8010 -0.8436 -0.3870
  863MPD2    C112665   3.889   0.586  17.126 -0.8313 -0.1803 -0.4253
  863MPD2    C212666   3.959   0.523  17.227 -0.3561 -0.3360 -0.0323
  863MPD2    C312667   4.095   0.488  17.209  0.2618 -0.0149  0.3214
  863MPD2    C412668   4.163   0.527  17.094 -0.0838 -0.2066 -0.1204
  863MPD2    C512669   4.082   0.583  16.992 -0.7054  0.7612  0.0559
  863MPD2     H12670   3.899   0.489  17.310  0.5532 -1.3152  0.2287
  863MPD2    H112671   4.270   0.509  17.091 -0.2096 -1.2902  1.6882
  863MPD2    H212672   3.898   0.658  16.918  1.2966  2.5887  1.1902
  863MPD2    H312673   4.137   0.628  16.910 -0.3097 -0.2853 -0.2588
  863MPD2     N12674   4.172   0.423  17.308  0.9485 -0.2999 -0.4844
  863MPD2    H512675   4.272   0.435  17.290  0.7768  1.7041 -0.0855
  863MPD2    N112676   3.768   0.640  17.144  0.5491  0.0206 -0.7283
  863MPD2    H712677   3.715   0.672  17.063  2.2944 -0.6784 -2.1264
  864MPD2     C12678   4.180   1.951  17.324 -0.4806 -0.0370  0.4674
  864MPD2    C112679   4.298   1.898  17.287  0.1611 -0.0185  0.2329
  864MPD2    C212680   4.389   1.971  17.200 -0.4813 -0.5290 -0.5002
  864MPD2    C312681   4.338   2.084  17.138 -0.6898  0.8656  0.6804
  864MPD2    C412682   4.230   2.141  17.181 -0.1103 -0.0192  0.1279
  864MPD2    C512683   4.151   2.076  17.271  0.2600 -0.2718 -0.5044
  864MPD2     H12684   4.481   1.922  17.170 -0.5563  0.4020 -2.2885
  864MPD2    H112685   4.197   2.236  17.140  0.7224  1.0736  2.0206
  864MPD2    H212686   4.101   1.897  17.375 -0.1650 -1.6231 -0.7204
  864MPD2    H312687   4.061   2.125  17.306  0.3150 -0.8918  0.4957
  864MPD2     N12688   4.405   2.150  17.032  0.0705  0.1666 -0.1382
  864MPD2    H512689   4.355   2.213  16.969 -2.5787 -0.0109  1.8030
  864MPD2    N112690   4.316   1.762  17.323  0.0095 -0.5124 -0.4449
  864MPD2    H712691   4.237   1.709  17.357  0.2122  1.2511  2.8036
  865MPD2     C12692   4.626   2.352  16.184 -0.4277  0.0340 -0.3364
  865MPD2    C112693   4.610   2.261  16.289 -0.2100 -0.2936 -0.0214
  865MPD2    C212694   4.521   2.296  16.389 -0.6387  0.5838 -0.0441
  865MPD2    C312695   4.458   2.420  16.392  1.0339  0.0826 -0.2871
  865MPD2    C412696   4.472   2.502  16.284  0.3422  0.0076 -0.2841
  865MPD2    C512697   4.561   2.467  16.181 -0.1802 -0.3123 -1.0272
  865MPD2     H12698   4.505   2.221  16.465  2.5966  1.4459  1.4953
  865MPD2    H112699   4.414   2.593  16.284 -0.1833 -0.3202  1.2662
  865MPD2    H212700   4.696   2.328  16.105 -0.2034  0.6225 -0.3152
  865MPD2    H312701   4.565   2.537  16.098  0.7259  0.1836 -0.5671
  865MPD2     N12702   4.384   2.470  16.505 -0.6644 -0.6923 -0.2029
  865MPD2    H512703   4.323   2.549  16.484 -0.5021  0.3571  3.3210
  865MPD2    N112704   4.691   2.147  16.285  0.1705  0.2682  0.5735
  865MPD2    H712705   0.031   2.144  16.207 -1.8992 -2.6146 -0.9887
  866MPD2     C12706   1.616   2.578  11.277 -0.1579 -0.3802 -0.5572
  866MPD2    C112707   1.617   2.659  11.162  0.1906 -0.3561  0.7084
  866MPD2    C212708   1.513   2.750  11.129 -0.4842 -0.4403  0.1255
  866MPD2    C312709   1.418   2.775  11.222  0.0906 -0.1438 -0.5521
  866MPD2    C412710   1.412   2.692  11.337 -0.1646  0.4890 -0.0432
  866MPD2    C512711   1.514   2.603  11.362  0.2656 -0.0503  0.2130
  866MPD2     H12712   1.517   2.802  11.034  0.7267  0.3425  0.6121
  866MPD2    H112713   1.331   2.688  11.409 -0.1807 -0.0851 -0.0932
  866MPD2    H212714   1.697   2.514  11.309 -0.4980 -0.4603  0.1446
  866MPD2    H312715   1.509   2.539  11.449 -1.3842 -0.1326  0.0612
  866MPD2     N12716   1.314   2.864  11.202 -0.1416 -0.1879  0.3774
  866MPD2    H512717   1.231   2.842  11.256 -0.8461 -0.0977 -0.6824
  866MPD2    N112718   1.732   2.634  11.081  0.7369  0.7709  0.5603
  866MPD2    H712719   1.789   2.559  11.119  0.9076  0.6459  0.0503
  867MPD2     C12720   2.983   1.663  16.359  0.8632  1.0154  0.8126
  867MPD2    C112721   3.048   1.656  16.479  0.3341 -0.7576  0.0759
  867MPD2    C212722   3.039   1.762  16.569  0.4663  0.8676  0.0756
  867MPD2    C312723   2.987   1.885  16.526 -0.0516  0.2880 -0.6351
  867MPD2    C412724   2.917   1.885  16.408  0.5187  0.6690  0.0667
  867MPD2    C512725   2.916   1.775  16.328  0.0768 -0.5520 -0.4144
  867MPD2     H12726   3.083   1.760  16.668 -0.4419 -2.3104  0.4244
  867MPD2    H112727   2.863   1.970  16.368 -0.6990 -0.0722  0.1370
  867MPD2    H212728   2.984   1.575  16.294  0.7957 -1.2156  3.8456
  867MPD2    H312729   2.861   1.775  16.235  0.4627 -1.8030 -0.6425
  867MPD2     N12730   3.001   1.998  16.608 -0.1278 -0.6759 -0.3883
  867MPD2    H512731   2.966   2.085  16.569  0.2624  0.0414  0.8603
  867MPD2    N112732   3.126   1.538  16.504  0.2185  1.5115 -0.0110
  867MPD2    H712733   3.131   1.475  16.424 -0.8829  0.0879  1.0333
  868MPD2     C12734   0.728   1.146  12.710  0.0907 -0.3298 -0.0803
  868MPD2    C112735   0.720   1.054  12.812 -0.3920  0.1228 -0.3779
  868MPD2    C212736   0.637   1.078  12.923 -0.2319 -0.4282 -0.0622
  868MPD2    C312737   0.581   1.205  12.937  0.2417  0.3406 -0.1097
  868MPD2    C412738   0.593   1.297  12.836  0.2515 -0.0435  0.4538
  868MPD2    C512739   0.659   1.259  12.723 -0.0735  0.4266  0.0465
  868MPD2     H12740   0.633   1.010  13.007 -2.4483  0.2702  0.4110
  868MPD2    H112741   0.560   1.400  12.840 -2.1213 -0.9077  3.2404
  868MPD2    H212742   0.796   1.131  12.627  2.3093 -0.6105  1.7763
  868MPD2    H312743   0.673   1.326  12.640  3.2900  0.2988  0.5087
  868MPD2     N12744   0.525   1.237  13.059 -0.0181 -0.0574 -0.2784
  868MPD2    H512745   0.511   1.160  13.124  1.8116 -0.1987 -0.0709
  868MPD2    N112746   0.798   0.935  12.798 -0.0963  0.6024 -0.5113
  868MPD2    H712747   0.851   0.930  12.711  1.2851  0.3225  0.3452
  869MPD2     C12748   1.757   3.925   1.668 -0.0216 -0.1446  0.2351
  869MPD2    C112749   1.653   3.840   1.651  0.1692 -0.1259  0.2234
  869MPD2    C212750   1.570   3.848   1.540 -0.0264 -0.4707 -0.6552
  869MPD2    C312751   1.582   3.954   1.454 -0.3228 -0.9746  0.4979
  869MPD2    C412752   1.676   4.051   1.485  0.2336 -0.7386 -0.1923
  869MPD2    C512753   1.762   4.031   1.591  0.2520 -0.1284  0.0395
  869MPD2     H12754   1.489   3.777   1.544  1.1439 -1.7214  0.5887
  869MPD2    H112755   1.689   4.143   1.429 -0.4057 -0.3205  0.3562
  869MPD2    H212756   1.807   3.921   1.764  2.9400 -0.2236 -1.3266
  869MPD2    H312757   1.832   4.108   1.622  0.3608 -0.3134  0.2570
  869MPD2     N12758   1.502   3.968   1.340 -0.1102 -0.4003 -0.0329
  869MPD2    H512759   1.517   4.060   1.301  0.6483 -0.5385 -0.0566
  869MPD2    N112760   1.642   3.736   1.747 -0.6487 -0.2948 -0.6449
  869MPD2    H712761   1.718   3.720   1.813 -0.2645  0.2346 -0.9603
  870MPD2     C12762   0.717   1.931   1.661 -1.0695  0.2860 -0.2181
  870MPD2    C112763   0.821   2.017   1.639 -0.0363 -0.1054  0.1385
  870MPD2    C212764   0.792   2.149   1.619 -0.2948 -1.0390  0.5587
  870MPD2    C312765   0.660   2.195   1.604 -1.0256 -0.6722  0.4120
  870MPD2    C412766   0.565   2.102   1.631 -0.2452  0.6885  0.3925
  870MPD2    C512767   0.586   1.972   1.664  0.1114 -0.4658  0.9792
  870MPD2     H12768   0.869   2.221   1.594 -1.6187  0.0758 -0.2786
  870MPD2    H112769   0.459   2.123   1.630 -0.6080 -1.2601 -1.3716
  870MPD2    H212770   0.736   1.826   1.679  0.8805  1.1555  2.8367
  870MPD2    H312771   0.506   1.909   1.701 -0.7204  0.1169  0.1871
  870MPD2     N12772   0.627   2.329   1.569 -0.5018  0.0821 -0.0133
  870MPD2    H512773   0.705   2.385   1.536 -0.2026  0.4310  1.2920
  870MPD2    N112774   0.952   1.966   1.626 -0.1730 -0.1371  0.0758
  870MPD2    H712775   0.960   1.865   1.629 -0.9043 -0.2044 -0.1925
  871MPD2     C12776   2.295   2.024  16.584  0.0238  0.1257 -0.3630
  871MPD2    C112777   2.268   1.997  16.717  0.2824 -0.9015 -0.3952
  871MPD2    C212778   2.255   1.865  16.758 -0.2476 -0.7566  0.1306
  871MPD2    C312779   2.297   1.763  16.681 -0.3820 -0.4284  0.4531
  871MPD2    C412780   2.310   1.788  16.542 -0.3729  0.4753 -0.0129
  871MPD2    C512781   2.310   1.915  16.503 -0.6399  0.4940  0.6985
  871MPD2     H12782   2.241   1.848  16.864 -0.7000  0.7182  0.3048
  871MPD2    H112783   2.329   1.701  16.480 -0.8325  1.4487 -1.5092
  871MPD2    H212784   2.289   2.128  16.553  0.8241  0.7472  1.5207
  871MPD2    H312785   2.313   1.939  16.398  0.5010 -0.3537  0.5335
  871MPD2     N12786   2.315   1.631  16.733  0.1898 -0.5191 -1.0898
  871MPD2    H512787   2.300   1.622  16.833 -0.8271  0.0515 -1.1813
  871MPD2    N112788   2.248   2.106  16.799  0.2113  0.1565  0.0379
  871MPD2    H712789   2.284   2.193  16.761 -0.5609  0.0118 -1.0327
  872MPD2     C12790   2.996   4.672  13.618  0.0738 -0.0367  0.3049
  872MPD2    C112791   3.047   0.018  13.722 -0.0971  1.2650 -0.5786
  872MPD2    C212792   3.000   4.718  13.848 -0.6468  0.3555 -0.0322
  872MPD2    C312793   2.895   4.631  13.863  0.2847 -0.0770  0.3810
  872MPD2    C412794   2.832   4.563  13.758 -0.0095 -0.3264 -0.0432
  872MPD2    C512795   2.888   4.580  13.639 -0.2971  0.1501 -0.1708
  872MPD2     H12796   3.035   0.063  13.924 -0.1298  0.2927 -0.2107
  872MPD2    H112797   2.741   4.506  13.777 -0.5024 -0.0744 -1.6685
  872MPD2    H212798   3.029   4.671  13.515  1.2499 -4.1521  0.7037
  872MPD2    H312799   2.847   4.522  13.557 -1.7861 -1.2503  1.5963
  872MPD2     N12800   2.841   4.588  13.995  0.5755  0.1022 -0.0255
  872MPD2    H512801   2.766   4.519  14.002  1.6113 -1.1413 -1.1675
  872MPD2    N112802   3.139   0.120  13.702 -0.0994 -0.3842 -0.3584
  872MPD2    H712803   3.190   0.170  13.774 -1.6244  1.6017 -0.6422
  873MPD2     C12804   4.362   4.525   0.507  0.5963 -0.6303  0.3973
  873MPD2    C112805   4.390   4.475   0.628 -0.2986 -0.1189  0.0318
  873MPD2    C212806   4.427   4.340   0.644 -0.0504  0.1255  0.3270
  873MPD2    C312807   4.444   4.258   0.530  0.4986  0.4806 -0.2520
  873MPD2    C412808   4.425   4.319   0.408 -0.3688 -0.0993 -0.0319
  873MPD2    C512809   4.386   4.446   0.400  0.5626 -0.0326  0.5662
  873MPD2     H12810   4.436   4.307   0.747 -0.7954 -1.5900 -0.1698
  873MPD2    H112811   4.435   4.267   0.313 -4.8384 -1.0120  0.0343
  873MPD2    H212812   4.323   4.620   0.474  2.1516 -0.2599 -0.4175
  873MPD2    H312813   4.372   4.480   0.298  0.4071  2.7451  1.5003
  873MPD2     N12814   4.492   4.127   0.553  0.0888  0.7567 -0.0760
  873MPD2    H512815   4.517   4.101   0.647 -1.3384  0.6171  0.2515
  873MPD2    N112816   4.372   4.569   0.740  0.5638  0.3751 -0.7866
  873MPD2    H712817   4.334   4.662   0.724 -2.0113 -0.3833  0.9187
  874MPD2     C12818   4.545   0.086  16.171 -0.0198 -0.3121  0.3635
  874MPD2    C112819   4.610   4.710  16.228  0.3324 -0.1000  0.1161
  874MPD2    C212820   0.015   4.719  16.270 -0.4672 -0.3836  0.3629
  874MPD2    C312821   0.079   0.113  16.253  0.8442  0.1515  0.0202
  874MPD2    C412822   0.016   0.220  16.196  0.2925  0.3542  0.5668
  874MPD2    C512823   4.607   0.209  16.150  0.5722 -0.2785  0.8167
  874MPD2     H12824   0.066   4.628  16.299  1.7008 -0.0655 -2.4784
  874MPD2    H112825   0.059   0.310  16.155  0.4034  0.5697  1.1570
  874MPD2    H212826   4.443   0.080  16.137  0.1427 -0.2569 -0.1302
  874MPD2    H312827   4.563   0.290  16.093 -1.0455  0.3739  2.9916
  874MPD2     N12828   0.218   0.118  16.274  0.1166  0.0872  0.1022
  874MPD2    H512829   0.265   0.029  16.275 -0.6783 -0.4014 -5.7409
  874MPD2    N112830   4.528   4.594  16.238  0.0638  0.3617 -0.4427
  874MPD2    H712831   4.431   4.611  16.214 -0.6409 -0.9723  1.5166
  875MPD2     C12832   1.106   3.109  14.616  0.0891 -0.2389  0.2814
  875MPD2    C112833   0.974   3.117  14.662  0.3105 -0.0940 -0.4616
  875MPD2    C212834   0.950   3.182  14.779  0.1118  0.6536  0.5497
  875MPD2    C312835   1.053   3.212  14.863  0.1322  0.5343  0.2247
  875MPD2    C412836   1.179   3.172  14.832 -0.3619  0.1772 -0.0064
  875MPD2    C512837   1.214   3.134  14.708  0.5960  0.1225 -0.7347
  875MPD2     H12838   0.856   3.232  14.796  1.1149  1.8106  2.6584
  875MPD2    H112839   1.256   3.217  14.894 -0.5483 -1.5099  1.4491
  875MPD2    H212840   1.121   3.103  14.509 -0.6761  2.4505  0.0219
  875MPD2    H312841   1.307   3.153  14.656  0.4747 -0.2959 -1.0983
  875MPD2     N12842   1.039   3.279  14.990 -0.3191 -0.2739  0.0950
  875MPD2    H512843   1.120   3.284  15.052  0.1261  1.6832 -0.6412
  875MPD2    N112844   0.861   3.093  14.584 -0.0896 -0.3222  0.1394
  875MPD2    H712845   0.771   3.126  14.618  0.1747  1.0995 -0.5101
  876MPD2     C12846   0.415   4.318  15.902  0.3022  0.1301 -0.7585
  876MPD2    C112847   0.298   4.266  15.856 -0.4729 -0.7881 -0.2210
  876MPD2    C212848   0.282   4.136  15.883 -0.3387 -0.2017  0.0031
  876MPD2    C312849   0.373   4.055  15.962  0.1932  0.1580 -0.0203
  876MPD2    C412850   0.485   4.115  16.019 -0.1462 -0.0317 -0.1649
  876MPD2    C512851   0.505   4.245  15.978  0.5834  0.1863  0.4044
  876MPD2     H12852   0.197   4.085  15.840 -0.5325 -1.5724  1.9921
  876MPD2    H112853   0.563   4.063  16.073  0.6134  0.0235 -1.2116
  876MPD2    H212854   0.436   4.420  15.873  0.9796  0.5453  1.2041
  876MPD2    H312855   0.605   4.286  15.993  0.5095  1.1220 -1.6728
  876MPD2     N12856   0.349   3.914  15.962  0.8172  0.7864 -0.2780
  876MPD2    H512857   0.256   3.892  15.927  0.2718 -1.1707  2.3825
  876MPD2    N112858   0.212   4.342  15.770  0.4053  0.0691 -0.3551
  876MPD2    H712859   0.237   4.440  15.758 -2.2643  0.6214 -1.5102
  877MPD2     C12860   0.212   0.242  15.309 -0.2002 -0.8866 -0.4712
  877MPD2    C112861   0.147   0.135  15.250  0.3833  0.1779  0.0517
  877MPD2    C212862   0.085   0.148  15.122 -0.0198 -0.4585 -0.0348
  877MPD2    C312863   0.098   0.271  15.052  0.4550  0.0875  0.2919
  877MPD2    C412864   0.172   0.374  15.107  0.2762  0.3160  0.5033
  877MPD2    C512865   0.223   0.358  15.235  0.1346 -0.3890  0.7229
  877MPD2     H12866   0.037   0.062  15.077 -1.1449  1.1803 -1.9860
  877MPD2    H112867   0.178   0.469  15.055 -0.4290 -0.4367 -0.9468
  877MPD2    H212868   0.260   0.236  15.406 -1.3750  0.8332  0.2053
  877MPD2    H312869   0.284   0.435  15.281 -3.5978  2.9382  0.0900
  877MPD2     N12870   0.048   0.290  14.920 -0.1552  0.3692 -0.0881
  877MPD2    H512871   0.081   0.370  14.867 -0.4688  1.7568  1.8132
  877MPD2    N112872   0.114   0.015  15.319  0.4361  0.1327  0.2686
  877MPD2    H712873   0.041   4.681  15.279  1.1250 -1.2921  1.0867
  878MPD2     C12874   4.069   3.772  13.188 -0.4176 -0.9613 -0.1745
  878MPD2    C112875   4.107   3.893  13.144 -0.3679  0.0282  0.4043
  878MPD2    C212876   4.030   4.003  13.173  0.5077  0.9678  0.9105
  878MPD2    C312877   3.912   3.997  13.245  0.0089 -0.1787 -0.2920
  878MPD2    C412878   3.883   3.866  13.297  0.3735 -0.2001  0.4941
  878MPD2    C512879   3.960   3.754  13.266 -0.3021  0.7177  0.4667
  878MPD2     H12880   4.047   4.096  13.120 -0.4093 -0.3579 -1.7127
  878MPD2    H112881   3.783   3.851  13.336  0.3907 -1.9278 -0.1352
  878MPD2    H212882   4.131   3.688  13.160 -0.9510 -1.3718 -0.1237
  878MPD2    H312883   3.935   3.654  13.300  0.4197  0.1044 -0.8201
  878MPD2     N12884   3.835   4.116  13.272  0.3654 -0.5455  0.2888
  878MPD2    H512885   3.886   4.202  13.254 -0.1886 -0.2324  0.2318
  878MPD2    N112886   4.229   3.896  13.076  0.4802 -0.0762 -0.0404
  878MPD2    H712887   4.275   3.806  13.068 -2.7538 -1.6507 -1.0260
  879MPD2     C12888   4.718   0.171   0.331 -0.1495  0.2180 -0.0431
  879MPD2    C112889   4.675   0.279   0.253 -0.5058 -0.5581 -0.3593
  879MPD2    C212890   4.633   0.252   0.123 -0.8058 -0.0264 -0.2080
  879MPD2    C312891   4.632   0.115   0.079  0.4188 -0.1602 -0.5180
  879MPD2    C412892   4.670   0.014   0.162 -0.2932 -0.7534  0.7886
  879MPD2    C512893   4.713   0.041   0.289 -0.2719 -0.7657 -0.9622
  879MPD2     H12894   4.605   0.330   0.054  0.1557  2.8424  2.6527
  879MPD2    H112895   4.675   4.634   0.132  2.2865 -0.7243  1.1409
  879MPD2    H212896   0.025   0.197   0.432  1.1098  2.2306 -0.9545
  879MPD2    H312897   0.024   4.684   0.353  1.6720  1.3621  0.6623
  879MPD2     N12898   4.593   0.076  17.644 -0.0473 -0.2369  0.1633
  879MPD2    H512899   4.595   4.700  17.626 -1.1099 -0.7453  2.8744
  879MPD2    N112900   4.667   0.411   0.311 -0.1058  0.0942  0.4338
  879MPD2    H712901   4.692   0.405   0.410  2.6609  0.5058 -0.2339
  880MPD2     C12902   1.290   2.260   0.335  0.8583  0.6794 -0.1990
  880MPD2    C112903   1.194   2.290   0.428 -0.0410 -0.0247 -0.2171
  880MPD2    C212904   1.144   2.179   0.502 -0.7713  0.7932 -0.4336
  880MPD2    C312905   1.198   2.047   0.484  0.7235 -0.1197 -0.7769
  880MPD2    C412906   1.299   2.025   0.398 -0.0532 -0.4841  0.3282
  880MPD2    C512907   1.340   2.132   0.321  0.2470  0.3686 -0.1034
  880MPD2     H12908   1.057   2.192   0.566  1.3059 -1.6854  2.9012
  880MPD2    H112909   1.352   1.931   0.389 -2.5684 -1.8157 -0.4381
  880MPD2    H212910   1.321   2.324   0.253 -0.9994  0.9454 -0.7033
  880MPD2    H312911   1.409   2.100   0.243 -0.3929  1.6602 -1.2097
  880MPD2     N12912   1.149   1.938   0.559 -0.1180  0.4330  0.2159
  880MPD2    H512913   1.088   1.967   0.635  0.8073 -0.1453  1.1739
  880MPD2    N112914   1.155   2.422   0.442 -0.1390 -0.2190 -0.0087
  880MPD2    H712915   1.211   2.488   0.390  0.6308 -0.6046  0.3436
  881MPD2     C12916   1.495   3.243   0.102 -0.3169 -0.3101 -0.1589
  881MPD2    C112917   1.429   3.139   0.040  0.6604  0.0645 -0.1353
  881MPD2    C212918   1.354   3.059   0.131  0.6559 -0.1270 -0.0716
  881MPD2    C312919   1.348   3.082   0.266  0.4742  0.7964  0.1629
  881MPD2    C412920   1.418   3.188   0.316 -0.7229 -0.2239 -0.0604
  881MPD2    C512921   1.483   3.268   0.236 -0.1114  0.5138  0.5740
  881MPD2     H12922   1.302   2.974   0.089 -0.9000  0.0294  1.5206
  881MPD2    H112923   1.406   3.227   0.417 -0.2418 -1.6092  0.5307
  881MPD2    H212924   1.583   3.276   0.047  0.2358 -2.4017 -0.5378
  881MPD2    H312925   1.547   3.345   0.278  0.8599 -0.4643  0.8977
  881MPD2     N12926   1.267   3.007   0.362  0.6429  0.3301  0.1299
  881MPD2    H512927   1.255   3.054   0.451  2.9612  0.6898  0.2430
  881MPD2    N112928   1.472   3.102  17.612 -0.1689  0.3447  0.2047
  881MPD2    H712929   1.546   3.162  17.578 -0.9905  0.1590 -1.9456
  882MPD2     C12930   4.404   4.681  14.157  0.5476 -0.1439 -0.1721
  882MPD2    C112931   4.360   4.717  14.282  0.5719 -0.1424 -0.0238
  882MPD2    C212932   4.231   4.689  14.323  0.3967 -0.9288  0.8684
  882MPD2    C312933   4.151   4.622  14.232 -0.2521  0.5451 -0.3895
  882MPD2    C412934   4.197   4.565  14.116  0.3480  0.7284 -0.2626
  882MPD2    C512935   4.325   4.603  14.070 -0.9985  0.0294  0.2403
  882MPD2     H12936   4.184   0.008  14.410  1.1008  0.6734  0.4496
  882MPD2    H112937   4.135   4.505  14.051  0.0658 -0.3520  1.0160
  882MPD2    H212938   4.505   4.709  14.128  0.9709 -1.0066  0.4664
  882MPD2    H312939   4.372   4.569  13.978  0.2301  1.4364  0.3503
  882MPD2     N12940   4.019   4.599  14.270 -0.3050  0.7250  0.2993
  882MPD2    H512941   4.001   4.607  14.369 -2.0806 -0.2639  0.0517
  882MPD2    N112942   4.444   0.076  14.357  0.2197 -0.6667  0.1761
  882MPD2    H712943   4.532   0.104  14.316 -1.1190  0.5966 -1.8340
  883MPD2     C12944   1.853   4.676  16.265 -0.1426  0.8169 -0.2997
  883MPD2    C112945   1.923   4.701  16.146  0.6595  0.5784  0.8566
  883MPD2    C212946   2.059   4.706  16.148 -0.9127  0.3478  0.1527
  883MPD2    C312947   2.133   4.696  16.263  0.3488 -0.9110 -0.4916
  883MPD2    C412948   2.062   4.686  16.380 -0.1485  0.5776  0.0812
  883MPD2    C512949   1.927   4.671  16.377 -0.0471  0.5248 -0.1677
  883MPD2     H12950   2.112   4.715  16.054 -0.0844 -2.1655  0.3830
  883MPD2    H112951   2.105   4.674  16.479 -0.3526 -0.2889  0.0667
  883MPD2    H212952   1.745   4.664  16.267 -0.0857  0.3109 -0.2602
  883MPD2    H312953   1.869   4.663  16.468  0.5124  2.7323  0.3858
  883MPD2     N12954   2.275   4.698  16.254  0.2250  0.1097  0.0469
  883MPD2    H512955   2.315   4.709  16.161 -1.1869 -0.0601 -0.5890
  883MPD2    N112956   1.864   4.696  16.019 -0.0447  0.0249 -0.0183
  883MPD2    H712957   1.930   4.707  15.943 -1.1123  1.7809 -0.7097
  884MPD2     C12958   3.562   0.211  15.609 -1.0999 -1.1234 -0.3834
  884MPD2    C112959   3.587   0.306  15.516 -0.4235  0.1163 -0.0199
  884MPD2    C212960   3.476   0.375  15.482 -0.8183  0.4917 -0.0112
  884MPD2    C312961   3.351   0.363  15.540  0.6868  0.3416  0.1740
  884MPD2    C412962   3.326   0.258  15.626 -0.5843  0.3045  0.7446
  884MPD2    C512963   3.438   0.183  15.658  0.9220 -0.0807  0.2262
  884MPD2     H12964   3.492   0.464  15.421 -1.3934  0.7742  0.2495
  884MPD2    H112965   3.237   0.226  15.678 -1.3588  1.9860  0.4483
  884MPD2    H212966   3.646   0.154  15.647 -0.5158 -1.0026 -1.4977
  884MPD2    H312967   3.427   0.113  15.740  0.0951 -0.1415  0.0648
  884MPD2     N12968   3.253   0.461  15.516  0.3925 -0.1273 -0.4095
  884MPD2    H512969   3.279   0.551  15.477 -0.5435  0.0554 -0.5925
  884MPD2    N112970   3.715   0.344  15.461 -0.0486  0.0941 -0.2699
  884MPD2    H712971   3.722   0.416  15.390 -2.7266  0.9098  0.2753
  885MPD2     C12972   1.489   0.500  17.493 -0.9872  0.1854 -0.1981
  885MPD2    C112973   1.594   0.561  17.552  0.4938 -0.1589 -0.2850
  885MPD2    C212974   1.647   0.670  17.496  0.0578  0.3485  0.2004
  885MPD2    C312975   1.587   0.721  17.380 -0.0245  0.8632  0.6951
  885MPD2    C412976   1.482   0.656  17.321 -0.1007  0.2804 -0.0283
  885MPD2    C512977   1.433   0.542  17.373  1.1250 -0.0931 -0.3807
  885MPD2     H12978   1.726   0.717  17.553  0.0386  0.5153  0.0900
  885MPD2    H112979   1.428   0.694  17.235  0.7239  0.5880 -0.4128
  885MPD2    H212980   1.447   0.406  17.529 -0.6878 -0.3195 -1.1632
  885MPD2    H312981   1.361   0.480  17.322 -3.1125  2.7269  2.1361
  885MPD2     N12982   1.641   0.842  17.326  0.3989  0.1457 -0.4177
  885MPD2    H512983   1.737   0.870  17.348  0.6867 -0.8203 -0.4258
  885MPD2    N112984   1.644   0.505  17.674 -0.8530  0.0625 -0.0074
  885MPD2    H712985   1.609   0.411  17.693 -1.0860 -0.2206 -1.8058
  886MPD2     C12986   3.068   4.037  15.592  0.2491 -0.1192 -0.0652
  886MPD2    C112987   3.143   3.962  15.503 -0.7590 -0.7308 -0.1694
  886MPD2    C212988   3.151   4.015  15.376 -0.2293  1.4641  0.5126
  886MPD2    C312989   3.092   4.133  15.341 -0.7464 -0.0371 -0.0520
  886MPD2    C412990   3.016   4.202  15.439  0.1078  1.1020  0.0860
  886MPD2    C512991   3.004   4.152  15.566 -0.0385 -0.2770 -0.3391
  886MPD2     H12992   3.217   3.964  15.307 -2.8758  1.7294 -2.2187
  886MPD2    H112993   2.969   4.299  15.425  0.3376  1.2104  0.0816
  886MPD2    H212994   3.047   4.003  15.693 -2.0156  0.8031 -0.2314
  886MPD2    H312995   2.954   4.211  15.642 -1.0542 -0.6233 -0.7326
  886MPD2     N12996   3.131   4.186  15.217 -0.4287  0.6376  0.6699
  886MPD2    H512997   3.190   4.126  15.161 -0.1407 -0.0582  1.7240
  886MPD2    N112998   3.214   3.847  15.542 -0.3422  0.2023  0.6141
  886MPD2    H712999   3.244   3.781  15.471 -0.0421  0.1496  0.7897
  887MPD2     C13000   3.863   3.833  15.439  0.1009 -0.4007  0.9769
  887MPD2    C113001   3.780   3.884  15.535  0.0637  0.3658  0.6910
  887MPD2    C213002   3.790   4.010  15.584 -0.1124  0.1177  0.3971
  887MPD2    C313003   3.877   4.093  15.527  0.1977 -0.4847 -0.4989
  887MPD2    C413004   3.961   4.053  15.421 -0.3644 -0.5732  0.2745
  887MPD2    C513005   3.956   3.920  15.379  0.4642 -0.0282  0.3183
  887MPD2     H13006   3.723   4.037  15.665 -0.7047  2.9060 -1.0146
  887MPD2    H113007   4.039   4.118  15.382 -1.7608  1.4359  0.8356
  887MPD2    H213008   3.862   3.727  15.413 -1.6932  0.0391 -0.7353
  887MPD2    H313009   4.019   3.880  15.301  2.7088 -0.1624  2.2009
  887MPD2     N13010   3.877   4.225  15.581  0.1743 -0.1093  0.8426
  887MPD2    H513011   3.802   4.248  15.646 -1.4836 -1.4897 -0.5946
  887MPD2    N113012   3.678   3.806  15.592  0.1498  0.8887 -0.2851
  887MPD2    H713013   3.603   3.857  15.638 -0.0523 -0.5862  1.0054
  888MPD2     C13014   0.889   4.399  14.462  0.0868  0.6005 -0.6463
  888MPD2    C113015   0.872   4.432  14.593  0.0137 -0.4790 -0.3297
  888MPD2    C213016   0.926   4.551  14.634 -0.2625 -0.5251 -0.6559
  888MPD2    C313017   0.999   4.639  14.551  0.1584  0.4371  0.0391
  888MPD2    C413018   1.024   4.598  14.422 -0.5212 -0.3773  0.4940
  888MPD2    C513019   0.961   4.481  14.380  0.2050 -0.0821 -0.2500
  888MPD2     H13020   0.913   4.577  14.739  3.0189 -0.6784 -0.2157
  888MPD2    H113021   1.078   4.660  14.352 -2.8179  1.5323  0.3962
  888MPD2    H213022   0.873   4.298  14.425 -0.6505 -0.2395  1.9738
  888MPD2    H313023   0.970   4.441  14.279  2.8406 -2.1410  0.7750
  888MPD2     N13024   1.041   0.035  14.613  0.7699 -1.2586  0.5970
  888MPD2    H513025   1.002   0.051  14.705 -0.3721  0.6380 -0.2288
  888MPD2    N113026   0.804   4.353  14.687 -0.0897  0.0019  0.0730
  888MPD2    H713027   0.817   4.386  14.782  1.1863  0.7528 -0.3617
  889MPD2     C13028   0.423   3.750  12.293 -0.5524 -0.0560 -0.2829
  889MPD2    C113029   0.453   3.716  12.421  0.7924 -0.1710  0.0051
  889MPD2    C213030   0.395   3.800  12.517 -0.7440 -0.3667  0.1913
  889MPD2    C313031   0.341   3.923  12.494 -0.1945 -0.3772 -0.0483
  889MPD2    C413032   0.321   3.957  12.361  0.4426 -0.0088  0.3796
  889MPD2    C513033   0.373   3.877  12.263 -0.2965  0.6725  0.4923
  889MPD2     H13034   0.387   3.776  12.622  1.6627  0.6689  0.5949
  889MPD2    H113035   0.276   4.045  12.316  1.7055 -0.2656 -1.3630
  889MPD2    H213036   0.475   3.687  12.223  0.2086  1.4736 -1.0807
  889MPD2    H313037   0.378   3.910  12.160 -2.6990 -0.3108  0.0661
  889MPD2     N13038   0.308   4.001  12.611 -0.1773 -0.1153 -0.7870
  889MPD2    H513039   0.315   3.948  12.697 -2.5312  0.6594 -0.1234
  889MPD2    N113040   0.481   3.589  12.448 -0.2465  0.1558 -0.1102
  889MPD2    H713041   0.469   3.525  12.370  1.1052 -0.7945  0.4670
  890MPD2     C13042   4.343   0.399  14.900  0.3749 -0.4369  0.3518
  890MPD2    C113043   4.433   0.503  14.907 -0.4908  0.8396 -0.6086
  890MPD2    C213044   4.503   0.526  15.028  0.9210 -0.1995 -0.4129
  890MPD2    C313045   4.478   0.440  15.137  0.6884  0.7937 -0.1676
  890MPD2    C413046   4.373   0.339  15.127 -0.4766 -0.1422  0.3433
  890MPD2    C513047   4.308   0.317  15.005 -0.2385 -0.4994  0.3581
  890MPD2     H13048   4.586   0.595  15.029  1.3312 -0.7331  2.5053
  890MPD2    H113049   4.352   0.274  15.212 -2.2064  0.2877  0.2331
  890MPD2    H213050   4.281   0.389  14.812 -1.4065  0.3329  1.5174
  890MPD2    H313051   4.231   0.242  14.985 -0.6268  0.2060 -0.8173
  890MPD2     N13052   4.557   0.454  15.251  0.3488 -0.0933 -0.6418
  890MPD2    H513053   4.623   0.531  15.249 -0.6793  0.7851 -0.9867
  890MPD2    N113054   4.457   0.577  14.792  0.5607  0.3326 -0.4800
  890MPD2    H713055   4.421   0.546  14.703 -3.3986  0.5420  1.0440
  891MPD2     C13056   3.006   3.346  16.542 -0.0509  0.9952  0.3205
  891MPD2    C113057   2.949   3.436  16.637 -0.1045  0.2193 -0.1225
  891MPD2    C213058   3.001   3.440  16.762  0.3453 -0.1055 -0.0263
  891MPD2    C313059   3.123   3.372  16.801 -0.3528  0.3985 -0.5729
  891MPD2    C413060   3.170   3.278  16.708 -0.0898 -0.7541 -0.0675
  891MPD2    C513061   3.116   3.272  16.578  0.0167 -0.9975 -0.6029
  891MPD2     H13062   2.944   3.506  16.826  2.1217 -0.3897  1.8303
  891MPD2    H113063   3.259   3.219  16.724 -0.9440 -1.6147  1.4606
  891MPD2    H213064   2.968   3.323  16.443  0.3250 -0.4633  0.5236
  891MPD2    H313065   3.161   3.196  16.515  2.4101 -1.5679  1.8134
  891MPD2     N13066   3.179   3.391  16.932 -0.3072 -0.3095 -0.4134
  891MPD2    H513067   3.133   3.455  16.995 -2.7629  2.2153 -4.7321
  891MPD2    N113068   2.831   3.514  16.618 -0.3421 -0.6552 -0.3518
  891MPD2    H713069   2.803   3.574  16.695 -0.8277 -0.9787 -0.2720
  892MPD2     C13070   3.615   0.305  14.845  0.2316 -0.6269 -0.0676
  892MPD2    C113071   3.522   0.206  14.840 -0.3647  0.5296  0.6891
  892MPD2    C213072   3.563   0.100  14.765 -0.1470 -0.2336  0.3227
  892MPD2    C313073   3.683   0.089  14.692  0.3249  0.1952  0.6273
  892MPD2    C413074   3.783   0.180  14.723 -0.3654 -0.2607 -0.3108
  892MPD2    C513075   3.741   0.290  14.794  0.6864  0.5871  0.3653
  892MPD2     H13076   3.487   0.024  14.756 -0.8250  0.5939 -0.9329
  892MPD2    H113077   3.884   0.173  14.684 -1.4188 -0.4614 -2.9871
  892MPD2    H213078   3.596   0.388  14.913  1.3087 -0.0202 -0.5110
  892MPD2    H313079   3.815   0.366  14.818  0.5018  0.4446  1.3953
  892MPD2     N13080   3.703   4.705  14.598  0.5925 -0.4121 -0.3649
  892MPD2    H513081   3.790   4.720  14.547  1.4003  0.5941  1.3181
  892MPD2    N113082   3.389   0.208  14.890  0.0967 -0.8394  0.0737
  892MPD2    H713083   3.338   0.120  14.893  1.7177 -1.7941 -0.2856
  893MPD2     C13084   0.143   2.737   1.699 -0.0712 -0.3399 -0.3399
  893MPD2    C113085   0.272   2.764   1.742 -0.5839  0.3354  0.2358
  893MPD2    C213086   0.351   2.668   1.808 -0.2212 -0.1752  0.4464
  893MPD2    C313087   0.298   2.546   1.831  0.5090  0.3930 -0.0229
  893MPD2    C413088   0.167   2.517   1.800 -0.4039 -0.0488 -0.8362
  893MPD2    C513089   0.092   2.611   1.736 -0.1544  0.1730 -0.2496
  893MPD2     H13090   0.452   2.699   1.828  0.2526 -3.0030  2.3886
  893MPD2    H113091   0.122   2.427   1.840  1.0147 -1.0506 -1.4768
  893MPD2    H213092   0.084   2.817   1.654  0.7005  0.3696 -0.0839
  893MPD2    H313093   4.715   2.596   1.702 -0.7523  1.1378  1.1253
  893MPD2     N13094   0.375   2.440   1.886 -0.5102  0.1872  0.3848
  893MPD2    H513095   0.332   2.348   1.889 -0.2542  0.0470 -0.1954
  893MPD2    N113096   0.325   2.895   1.717 -0.6150  0.4886  0.0310
  893MPD2    H713097   0.271   2.965   1.668  0.4255  1.0085 -0.3778
  894MPD2     C13098   3.302   1.084   1.077 -0.1532  0.0179 -0.1814
  894MPD2    C113099   3.295   1.151   1.204 -0.3970  0.1820  0.3191
  894MPD2    C213100   3.320   1.287   1.222 -0.0885 -0.5232 -0.0853
  894MPD2    C313101   3.354   1.353   1.106 -0.0735  0.4189  0.2943
  894MPD2    C413102   3.353   1.284   0.990  0.2440  0.4823  0.6442
  894MPD2    C513103   3.325   1.158   0.967 -0.4131 -0.4692 -0.2822
  894MPD2     H13104   3.315   1.344   1.314  0.0090 -1.1420  0.3025
  894MPD2    H113105   3.382   1.332   0.897 -0.2165 -0.8044 -0.1531
  894MPD2    H213106   3.283   0.978   1.071 -0.9841  0.1279  0.5474
  894MPD2    H313107   3.338   1.119   0.867  0.2555  0.3845 -0.5275
  894MPD2     N13108   3.390   1.484   1.120 -0.0522 -0.4381 -0.2584
  894MPD2    H513109   3.375   1.530   1.209  1.3509  0.0238 -0.2562
  894MPD2    N113110   3.265   1.082   1.318  0.4880 -0.0542 -0.1793
  894MPD2    H713111   3.277   1.134   1.405 -2.2378  2.6660 -1.4323
  895MPD2     C13112   2.553   4.227  13.715  0.0739 -0.3115  0.2480
  895MPD2    C113113   2.526   4.285  13.595  0.1465 -0.3102 -0.0492
  895MPD2    C213114   2.626   4.288  13.503  0.3880 -0.5214 -0.5195
  895MPD2    C313115   2.751   4.238  13.526  0.6206  0.3253 -0.3161
  895MPD2    C413116   2.766   4.172  13.651 -0.4885 -0.2359  0.3613
  895MPD2    C513117   2.674   4.167  13.745  0.2140 -0.2856  0.0929
  895MPD2     H13118   2.611   4.327  13.403 -0.9711 -0.3840 -0.2562
  895MPD2    H113119   2.858   4.124  13.683 -0.0370  0.1004 -0.4437
  895MPD2    H213120   2.488   4.249  13.799  2.5020 -0.9730  2.3109
  895MPD2    H313121   2.687   4.121  13.842 -0.1729  1.9248  1.1851
  895MPD2     N13122   2.854   4.245  13.436 -0.1860 -0.1791 -0.4578
  895MPD2    H513123   2.913   4.162  13.435  3.3464  2.3542  1.6839
  895MPD2    N113124   2.412   4.359  13.574  0.1983  0.0742  0.5827
  895MPD2    H713125   2.401   4.392  13.479  0.5786 -0.2437  0.4271
  896MPD2     C13126   0.301   2.120   0.942 -0.1747 -0.3115 -0.8713
  896MPD2    C113127   0.280   1.982   0.969 -0.2536  0.3897  0.2025
  896MPD2    C213128   0.154   1.938   1.005  0.2848 -0.4906 -0.5112
  896MPD2    C313129   0.065   2.040   1.044  0.5787  0.0221 -0.2382
  896MPD2    C413130   0.093   2.176   1.017  1.3434 -0.0674  0.2422
  896MPD2    C513131   0.212   2.215   0.974 -0.6198  0.2102  0.1428
  896MPD2     H13132   0.119   1.835   1.009 -1.6079  0.2753  2.5655
  896MPD2    H113133   0.031   2.263   1.030 -2.0029 -2.4429  0.0262
  896MPD2    H213134   0.396   2.157   0.905 -0.7128  2.1601  0.2511
  896MPD2    H313135   0.229   2.320   0.951  0.1054 -0.5078 -2.6285
  896MPD2     N13136   4.663   1.998   1.096 -0.5907 -0.2527 -0.3182
  896MPD2    H513137   4.651   1.900   1.122  0.4184 -0.4573 -0.6428
  896MPD2    N113138   0.385   1.895   0.916 -0.3746 -0.1590  0.5022
  896MPD2    H713139   0.466   1.939   0.873 -1.5871  0.2409 -1.4223
  897MPD2     C13140   1.680   3.720  10.842 -0.8999 -0.4697 -0.1239
  897MPD2    C113141   1.649   3.703  10.705 -0.5506 -0.1670 -0.0136
  897MPD2    C213142   1.521   3.737  10.663  0.0133 -0.4925  0.0964
  897MPD2    C313143   1.421   3.780  10.752  0.3444  0.6206  0.1022
  897MPD2    C413144   1.453   3.795  10.884 -0.2460  0.1817 -0.2204
  897MPD2    C513145   1.579   3.760  10.927  0.4140  0.3586  0.5880
  897MPD2     H13146   1.510   3.722  10.556 -2.8099 -0.8293  0.4398
  897MPD2    H113147   1.375   3.815  10.957  0.0718 -0.2620  0.2348
  897MPD2    H213148   1.780   3.699  10.878 -1.1094 -0.2272  0.5938
  897MPD2    H313149   1.590   3.745  11.034  0.7373 -1.2336  0.3291
  897MPD2     N13150   1.297   3.812  10.700 -0.5627 -0.3898 -0.3919
  897MPD2    H513151   1.274   3.780  10.606 -0.4294  1.3327 -1.0096
  897MPD2    N113152   1.762   3.691  10.620  0.4036 -0.1417  0.1876
  897MPD2    H713153   1.849   3.683  10.672  0.8176 -0.1555 -0.5088
  898MPD2     C13154   3.187   3.785  16.965  0.1676 -0.4518  0.9273
  898MPD2    C113155   3.185   3.824  17.100  0.2495 -0.4874 -0.6335
  898MPD2    C213156   3.076   3.883  17.156  0.1682 -0.1238 -0.0950
  898MPD2    C313157   2.959   3.888  17.089  0.2096 -0.0514  0.1648
  898MPD2    C413158   2.959   3.849  16.956  0.1299 -0.3614 -0.5561
  898MPD2    C513159   3.072   3.804  16.889 -0.4051 -0.1205 -0.7236
  898MPD2     H13160   3.084   3.920  17.258 -1.6025  2.1924 -0.7861
  898MPD2    H113161   2.869   3.859  16.897  1.1862 -0.7443 -2.2608
  898MPD2    H213162   3.275   3.751  16.911  0.0620  1.7581 -0.6512
  898MPD2    H313163   3.075   3.785  16.783 -0.6560  1.4392 -0.9982
  898MPD2     N13164   2.843   3.938  17.154 -0.3150  0.2248  0.0413
  898MPD2    H513165   2.860   3.990  17.239  0.4192  0.1242 -0.0515
  898MPD2    N113166   3.294   3.820  17.190 -0.4148 -0.1590 -0.0064
  898MPD2    H713167   3.291   3.868  17.279 -0.6462  1.3332 -0.8086
  899MPD2     C13168   4.105   4.649   0.238 -0.8814  0.1598 -0.6685
  899MPD2    C113169   4.115   0.059   0.249 -0.2209 -0.1270 -0.4412
  899MPD2    C213170   4.054   0.122   0.360  0.3568  0.1802 -0.0127
  899MPD2    C313171   3.983   0.053   0.450 -0.0803 -0.3441  0.3547
  899MPD2    C413172   3.966   4.645   0.428 -0.1804 -0.8546  0.0042
  899MPD2    C513173   4.024   4.578   0.327  0.5604  0.1247 -0.2037
  899MPD2     H13174   4.078   0.226   0.382  4.3795 -0.7440  0.0293
  899MPD2    H113175   3.895   4.588   0.487 -1.8205  0.5988 -0.5861
  899MPD2    H213176   4.159   4.584   0.170  0.9675  0.3960  0.5732
  899MPD2    H313177   4.024   4.470   0.319 -0.8226  0.0245  0.9772
  899MPD2     N13178   3.924   0.113   0.571  0.2493 -0.2212 -0.0545
  899MPD2    H513179   3.868   0.065   0.641  0.5842 -0.7487 -0.1464
  899MPD2    N113180   4.193   0.134   0.158 -0.1133 -0.2979 -0.9851
  899MPD2    H713181   4.207   0.094   0.066 -0.1058  1.1802 -1.6149
  900MPD2     C13182   4.104   1.779  12.744 -0.3306  0.2682  0.3213
  900MPD2    C113183   4.054   1.659  12.686 -1.2124  0.2128  0.6269
  900MPD2    C213184   3.945   1.666  12.605  0.1395 -0.6909  0.7050
  900MPD2    C313185   3.877   1.785  12.574 -0.0076  0.3976  0.2433
  900MPD2    C413186   3.938   1.897  12.624  0.0179 -0.5588  0.1358
  900MPD2    C513187   4.048   1.898  12.703  0.5128 -0.2746  0.3890
  900MPD2     H13188   3.907   1.580  12.550 -0.7661 -1.7287  2.9789
  900MPD2    H113189   3.902   1.995  12.595  1.5480  0.0501  0.3164
  900MPD2    H213190   4.196   1.788  12.801 -0.5370  2.6041  0.2773
  900MPD2    H313191   4.092   1.995  12.725 -0.9927  0.0085  2.1124
  900MPD2     N13192   3.764   1.786  12.482 -0.0256  0.1759  0.0324
  900MPD2    H513193   3.757   1.697  12.434 -0.6434 -0.3769  1.1565
  900MPD2    N113194   4.115   1.537  12.710 -0.0947  0.2347 -0.4756
  900MPD2    H713195   4.206   1.551  12.753 -0.8716  2.5080  0.4399
  901MPD2     C13196   4.120   0.448  12.896  0.2115  0.6409 -0.0869
  901MPD2    C113197   4.211   0.469  12.796 -0.4163 -0.6669  0.8223
  901MPD2    C213198   4.254   0.596  12.761  0.2862 -0.3792 -0.0475
  901MPD2    C313199   4.192   0.705  12.821  0.1954 -0.1255 -0.2653
  901MPD2    C413200   4.099   0.686  12.919  0.3967  0.1748  0.2310
  901MPD2    C513201   4.067   0.558  12.963  0.4426 -0.2287 -0.2575
  901MPD2     H13202   4.316   0.618  12.675  0.1162 -1.2214 -0.3775
  901MPD2    H113203   4.039   0.767  12.960 -2.5426 -2.0875  0.3643
  901MPD2    H213204   4.078   0.352  12.923 -0.6813  1.5829  1.9498
  901MPD2    H313205   3.982   0.551  13.030  0.3289 -2.8056 -0.6563
  901MPD2     N13206   4.224   0.834  12.768  0.0614 -0.4851  0.2496
  901MPD2    H513207   4.301   0.836  12.702 -1.0666 -0.1365 -1.0617
  901MPD2    N113208   4.240   0.362  12.708  0.5583  0.0569  0.2312
  901MPD2    H713209   4.192   0.277  12.737  2.8723 -1.2814  0.1531
  902MPD2     C13210   3.011   0.349  12.698  0.3422 -0.3486  0.0997
  902MPD2    C113211   2.991   0.215  12.717 -0.4681 -0.3135  0.2969
  902MPD2    C213212   3.036   0.125  12.617  0.4220 -0.4516 -0.5770
  902MPD2    C313213   3.086   0.166  12.497  0.9831  0.3974 -0.4233
  902MPD2    C413214   3.104   0.299  12.478  0.3396 -0.4338 -0.1290
  902MPD2    C513215   3.065   0.386  12.576 -0.2101 -1.1309 -0.0202
  902MPD2     H13216   3.015   0.023  12.645 -1.4559  0.5020  1.5166
  902MPD2    H113217   3.141   0.338  12.384  1.7374 -3.6623 -0.9417
  902MPD2    H213218   2.983   0.424  12.772  1.2494  1.6992 -1.6435
  902MPD2    H313219   3.072   0.491  12.549  0.8174 -1.1676  0.1085
  902MPD2     N13220   3.115   0.081  12.390 -0.2816  0.3691 -0.0931
  902MPD2    H513221   3.136   0.130  12.304  0.5896 -0.3308 -0.2852
  902MPD2    N113222   2.921   0.176  12.833  0.0240 -0.2875  0.0479
  902MPD2    H713223   2.901   0.239  12.910 -0.1271 -0.1871 -0.0736
  903MPD2     C13224   2.898   4.448  11.630 -0.7221 -0.4588 -0.3819
  903MPD2    C113225   2.853   4.518  11.736  1.1138  0.2210  0.1062
  903MPD2    C213226   2.718   4.536  11.740  0.1979  0.0655  0.3956
  903MPD2    C313227   2.638   4.488  11.640  0.9366 -0.2093 -0.0474
  903MPD2    C413228   2.690   4.424  11.531  0.1224  0.1302  1.1861
  903MPD2    C513229   2.822   4.395  11.532 -0.7501  0.1687  0.6890
  903MPD2     H13230   2.666   4.586  11.820 -3.0376 -0.8810 -1.0938
  903MPD2    H113231   2.632   4.396  11.443  3.0465 -0.5258 -0.5326
  903MPD2    H213232   3.006   4.438  11.622 -0.5816  1.6214 -1.0177
  903MPD2    H313233   2.869   4.346  11.447 -1.8567  0.9722 -0.3928
  903MPD2     N13234   2.500   4.523  11.648  0.2537  0.0848  0.4029
  903MPD2    H513235   2.473   4.577  11.729  0.4934  0.8354 -0.0148
  903MPD2    N113236   2.941   4.545  11.844  0.1366 -0.5071 -0.4833
  903MPD2    H713237   3.040   4.525  11.838  0.2515 -0.1847  0.4391
  904MPD2     C13238   2.343   3.447  13.670 -0.8436  0.1892  0.3481
  904MPD2    C113239   2.382   3.564  13.614 -1.0120  0.5126  0.0144
  904MPD2    C213240   2.516   3.589  13.578  0.8627 -0.3987  0.2722
  904MPD2    C313241   2.612   3.500  13.605 -0.2037  0.0802  0.0490
  904MPD2    C413242   2.576   3.381  13.664  0.1268  0.1492 -0.1355
  904MPD2    C513243   2.443   3.348  13.689 -0.4698 -0.2892 -0.3837
  904MPD2     H13244   2.539   3.692  13.555 -1.2301 -0.0425 -0.2087
  904MPD2    H113245   2.645   3.300  13.686 -2.0642 -1.2037  1.6649
  904MPD2    H213246   2.243   3.412  13.689 -0.9540  0.8778  1.0361
  904MPD2    H313247   2.416   3.262  13.750  1.3491 -2.1682 -2.2680
  904MPD2     N13248   2.745   3.540  13.594 -0.2032 -0.4618  0.1773
  904MPD2    H513249   2.759   3.633  13.558 -2.3417 -0.2262 -0.0428
  904MPD2    N113250   2.282   3.663  13.601  0.0779 -0.5001 -0.0185
  904MPD2    H713251   2.330   3.746  13.566  3.0880 -0.9968  2.9077
  905MPD2     C13252   2.136   3.918  13.054  0.0819 -0.5164  0.3210
  905MPD2    C113253   2.175   4.004  13.154 -0.3682 -0.6760 -0.2522
  905MPD2    C213254   2.293   4.076  13.128  0.4743 -0.0428  0.0897
  905MPD2    C313255   2.364   4.065  13.011 -0.1248  0.5347  0.6209
  905MPD2    C413256   2.328   3.976  12.921  0.1739  0.5517  0.2177
  905MPD2    C513257   2.210   3.904  12.938 -0.3991 -0.4433  0.3351
  905MPD2     H13258   2.333   4.138  13.208  1.5518  1.2391 -1.4406
  905MPD2    H113259   2.398   3.954  12.842  1.1981  1.5231  0.8538
  905MPD2    H213260   2.052   3.850  13.057  0.6731 -1.1598  2.1100
  905MPD2    H313261   2.167   3.831  12.869 -0.6270  3.0591 -3.2549
  905MPD2     N13262   2.492   4.130  12.997  0.3192 -0.4745  0.0965
  905MPD2    H513263   2.541   4.124  12.908 -1.7268 -2.1420 -0.9073
  905MPD2    N113264   2.113   3.998  13.279  0.2521 -0.1201  0.1277
  905MPD2    H713265   2.051   3.919  13.291  1.4380 -1.5291 -2.8057
  906MPD2     C13266   0.112   3.474  11.721 -0.3255  0.4236 -0.0665
  906MPD2    C113267   0.024   3.511  11.622  0.0153  1.0671 -0.1169
  906MPD2    C213268   4.618   3.465  11.641 -0.2705  0.2445 -0.7000
  906MPD2    C313269   4.583   3.369  11.731 -0.1172 -0.0294 -0.0674
  906MPD2    C413270   4.680   3.324  11.816 -0.2673  0.2121 -0.8333
  906MPD2    C513271   0.082   3.380  11.812 -0.0591 -0.7608  0.0068
  906MPD2     H13272   4.549   3.480  11.559 -2.1408 -3.3509  0.2118
  906MPD2    H113273   4.654   3.244  11.884  1.2163 -0.8492 -1.5064
  906MPD2    H213274   0.213   3.513  11.731 -0.4100  0.4842  0.5400
  906MPD2    H313275   0.161   3.356  11.883 -0.5058  1.5025  1.2652
  906MPD2     N13276   4.464   3.294  11.722 -0.4005  0.3750  0.2908
  906MPD2    H513277   4.452   3.214  11.784 -1.0832 -0.7394 -1.2791
  906MPD2    N113278   0.048   3.600  11.514 -0.8418 -0.2872  0.0721
  906MPD2    H713279   4.696   3.622  11.450 -0.1252  1.7457 -0.0725
  907MPD2     C13280   3.720   2.633  15.950  0.4566  0.7347  0.2051
  907MPD2    C113281   3.748   2.500  15.962  0.1525 -0.1708  0.3427
  907MPD2    C213282   3.783   2.451  16.086  0.5867 -0.0837 -0.1891
  907MPD2    C313283   3.803   2.532  16.195 -0.5600 -0.1362 -0.3180
  907MPD2    C413284   3.782   2.667  16.180 -0.3258  0.1095 -0.0652
  907MPD2    C513285   3.733   2.708  16.064 -0.2732  0.4581  0.0546
  907MPD2     H13286   3.809   2.347  16.098  1.4928  0.1325 -0.3172
  907MPD2    H113287   3.796   2.738  16.261  1.3082 -0.1634 -0.1068
  907MPD2    H213288   3.694   2.679  15.855 -0.1829 -1.8714 -0.8620
  907MPD2    H313289   3.717   2.813  16.045 -0.8398  0.3242 -0.2160
  907MPD2     N13290   3.854   2.473  16.313 -0.0030 -0.0128 -0.4790
  907MPD2    H513291   3.887   2.377  16.314  3.0530  1.0609 -0.3147
  907MPD2    N113292   3.755   2.407  15.855 -0.0896  0.0479  0.2731
  907MPD2    H713293   3.792   2.314  15.869  1.3047  0.2224 -2.2055
  908MPD2     C13294   2.131   3.448   9.653 -0.3708  0.2290 -0.0695
  908MPD2    C113295   2.081   3.366   9.750  0.0952  0.3067 -0.0028
  908MPD2    C213296   2.041   3.408   9.878 -0.1875 -0.3232  0.9055
  908MPD2    C313297   2.060   3.547   9.907 -0.1747 -0.3925  0.0897
  908MPD2    C413298   2.120   3.628   9.806 -0.1722 -0.6326  0.1514
  908MPD2    C513299   2.145   3.577   9.685 -0.0826  0.1315 -0.0891
  908MPD2     H13300   1.996   3.334   9.943 -0.3800 -1.4662 -0.5464
  908MPD2    H113301   2.135   3.735   9.812  2.8441 -1.1005  1.1599
  908MPD2    H213302   2.147   3.408   9.554  1.4374 -1.3209  0.8431
  908MPD2    H313303   2.193   3.638   9.611  1.5509 -0.7589  0.2214
  908MPD2     N13304   2.027   3.598  10.040 -1.1645 -0.5800 -0.0805
  908MPD2    H513305   1.996   3.521  10.098  0.9547 -1.4416 -0.0954
  908MPD2    N113306   2.076   3.231   9.706 -0.9415  0.2943 -0.3155
  908MPD2    H713307   2.115   3.204   9.616 -0.8720 -1.2543  0.1934
  909MPD2     C13308   2.220   1.390  11.547 -0.4908 -0.1055  0.6387
  909MPD2    C113309   2.187   1.513  11.497  0.6027  0.0365  0.6971
  909MPD2    C213310   2.061   1.570  11.532  0.0941  0.4944 -0.2147
  909MPD2    C313311   1.972   1.504  11.615  0.3933 -0.1942 -0.7592
  909MPD2    C413312   2.008   1.383  11.656 -0.1969 -0.0892 -0.4940
  909MPD2    C513313   2.128   1.326  11.624  0.2453  0.5712  0.3004
  909MPD2     H13314   2.036   1.669  11.496  0.0177 -0.0941 -1.7690
  909MPD2    H113315   1.943   1.329  11.723 -2.5230  1.9086 -1.1399
  909MPD2    H213316   2.305   1.332  11.517 -0.2579  0.3380  0.4466
  909MPD2    H313317   2.144   1.225  11.660 -0.8328  0.1156 -0.5126
  909MPD2     N13318   1.854   1.574  11.650  0.4672 -0.1628  0.3687
  909MPD2    H513319   1.851   1.672  11.622 -0.4847  0.3354  2.2208
  909MPD2    N113320   2.265   1.583  11.411 -0.1429  0.3246  0.1024
  909MPD2    H713321   2.239   1.678  11.384 -0.0255  0.8783  1.9286
  910MPD2     C13322   2.750   3.005  15.958 -0.6823 -0.1723  0.3216
  910MPD2    C113323   2.850   3.028  15.870 -0.1764 -0.8856  0.0695
  910MPD2    C213324   2.813   3.064  15.740  0.0115 -0.6345  0.7912
  910MPD2    C313325   2.680   3.077  15.706  0.8673  0.1759  0.3452
  910MPD2    C413326   2.584   3.059  15.803  0.0045 -0.2842 -0.2079
  910MPD2    C513327   2.620   3.017  15.929 -0.0533  0.0450  0.1516
  910MPD2     H13328   2.893   3.085  15.669 -1.0616  1.9630  0.3489
  910MPD2    H113329   2.478   3.071  15.785  0.1661 -0.4748 -1.3011
  910MPD2    H213330   2.787   2.963  16.051  0.0614  0.1944  0.1926
  910MPD2    H313331   2.536   2.999  15.995 -0.0879  0.2237  0.1555
  910MPD2     N13332   2.629   3.106  15.575  0.1554 -0.6960  0.6995
  910MPD2    H513333   2.528   3.096  15.573  0.1224 -0.1641 -0.5852
  910MPD2    N113334   2.987   3.017  15.888  0.1224 -0.3241 -0.2464
  910MPD2    H713335   3.049   3.029  15.808  0.6919  0.9701  0.3886
  911MPD2     C13336   1.208   3.340  16.147  0.1516  0.0202 -0.2683
  911MPD2    C113337   1.256   3.448  16.220 -0.0225 -0.0717 -0.3830
  911MPD2    C213338   1.192   3.578  16.214 -0.3349 -1.0456  0.2979
  911MPD2    C313339   1.079   3.592  16.139  0.7903 -0.6187  0.3943
  911MPD2    C413340   1.022   3.475  16.088  0.5131  0.3615 -0.6659
  911MPD2    C513341   1.085   3.355  16.087 -0.1482 -0.3596  0.0495
  911MPD2     H13342   1.236   3.671  16.248  0.5068 -1.1505 -0.5219
  911MPD2    H113343   0.923   3.490  16.047  0.9095  3.9795 -0.3369
  911MPD2    H213344   1.245   3.239  16.157 -0.8068 -0.3810 -0.8255
  911MPD2    H313345   1.040   3.267  16.043 -1.2894 -0.5554  1.6159
  911MPD2     N13346   0.995   3.709  16.130 -0.0134  0.0291  0.6706
  911MPD2    H513347   0.911   3.695  16.075  1.9224 -1.4430 -1.9269
  911MPD2    N113348   1.371   3.425  16.302  0.0605 -0.2284  0.4131
  911MPD2    H713349   1.410   3.332  16.300 -0.5332 -0.5172  2.4984
  912MPD2     C13350   0.550   3.690  15.588  0.0590  1.2113  0.7027
  912MPD2    C113351   0.623   3.674  15.703 -0.0133  0.0351 -0.3742
  912MPD2    C213352   0.627   3.542  15.752  0.9021  0.4309 -0.6499
  912MPD2    C313353   0.590   3.433  15.676 -0.4334 -0.3329  0.1185
  912MPD2    C413354   0.511   3.444  15.559  0.2584 -0.5514 -0.6350
  912MPD2    C513355   0.501   3.573  15.529 -0.5490  0.4435  0.0863
  912MPD2     H13356   0.680   3.530  15.846 -2.9692  2.8027  1.8129
  912MPD2    H113357   0.473   3.363  15.496 -0.4284 -2.2901  2.0196
  912MPD2    H213358   0.547   3.789  15.544  0.2313  0.4390 -1.0326
  912MPD2    H313359   0.454   3.610  15.438  0.5004 -2.4357 -1.6363
  912MPD2     N13360   0.635   3.310  15.729 -0.0614 -0.4622 -0.3376
  912MPD2    H513361   0.668   3.316  15.825 -0.8234 -1.6175  0.0031
  912MPD2    N113362   0.693   3.780  15.765 -0.0544  0.4676 -0.6368
  912MPD2    H713363   0.675   3.873  15.728  2.3060  0.7982 -0.9272
  913MPD2     C13364   1.198   0.361  10.036 -0.9932 -0.1688 -0.4007
  913MPD2    C113365   1.246   0.418  10.151 -0.5326  0.1929 -0.0496
  913MPD2    C213366   1.273   0.556  10.150  0.5920  0.2030 -0.0561
  913MPD2    C313367   1.246   0.639  10.045  0.6792  0.0496 -0.6221
  913MPD2    C413368   1.192   0.580   9.931  0.3853 -0.5521  0.3886
  913MPD2    C513369   1.178   0.445   9.924 -0.7899 -0.2508 -0.2601
  913MPD2     H13370   1.307   0.590  10.247 -2.1820 -2.6998  1.9473
  913MPD2    H113371   1.182   0.636   9.839  1.1235  1.9919  1.8752
  913MPD2    H213372   1.168   0.257  10.024  0.1048 -0.4548 -0.6425
  913MPD2    H313373   1.142   0.396   9.834  1.2704 -4.2986  1.1361
  913MPD2     N13374   1.273   0.779  10.042 -0.2035  0.3631  0.3045
  913MPD2    H513375   1.263   0.837   9.959  1.3291 -0.4230 -0.4200
  913MPD2    N113376   1.266   0.329  10.261 -0.6029 -0.0459 -0.2522
  913MPD2    H713377   1.270   0.229  10.244  0.7903  0.2215 -1.5283
  914MPD2     C13378   3.997   0.815  12.009 -0.8652  0.3049  0.2150
  914MPD2    C113379   4.061   0.848  12.130 -0.2401 -0.3513  0.4528
  914MPD2    C213380   4.128   0.745  12.195  0.2045 -0.0943 -0.2717
  914MPD2    C313381   4.145   0.620  12.136 -0.5925  0.2543 -0.0565
  914MPD2    C413382   4.079   0.592  12.016  0.4857  0.3078 -0.1871
  914MPD2    C513383   3.999   0.689  11.955 -0.1653 -0.5277 -0.2860
  914MPD2     H13384   4.179   0.764  12.288  0.9950 -1.3940 -0.4463
  914MPD2    H113385   4.080   0.490  11.979 -0.1997 -0.3407  1.5997
  914MPD2    H213386   3.957   0.895  11.948 -1.1965  0.3590  0.5054
  914MPD2    H313387   3.948   0.664  11.863 -1.7056  1.7360 -0.0678
  914MPD2     N13388   4.218   0.526  12.209 -0.3432 -0.0439 -0.0667
  914MPD2    H513389   4.279   0.562  12.280 -0.3995 -1.3892  0.6665
  914MPD2    N113390   4.048   0.979  12.178  0.7547 -0.6830  0.0919
  914MPD2    H713391   3.989   1.045  12.130  0.2755  0.1687  1.8700
  915MPD2     C13392   1.417   0.287  15.854 -0.7357  0.3963  0.0338
  915MPD2    C113393   1.394   0.401  15.781  0.2466 -0.6862  0.3855
  915MPD2    C213394   1.395   0.526  15.839  0.4988 -0.0719 -0.1852
  915MPD2    C313395   1.440   0.545  15.965 -1.2115 -0.1894 -0.0691
  915MPD2    C413396   1.456   0.428  16.036 -0.9120  0.1724  0.5828
  915MPD2    C513397   1.443   0.301  15.985 -0.1457  0.1463  0.0243
  915MPD2     H13398   1.363   0.614  15.785  1.9484  0.9731  0.6578
  915MPD2    H113399   1.464   0.425  16.144  0.3833  0.3915  0.4920
  915MPD2    H213400   1.411   0.186  15.816  0.2036 -0.6732  2.7445
  915MPD2    H313401   1.448   0.214  16.049 -2.0760 -1.2921 -1.8004
  915MPD2     N13402   1.443   0.668  16.020 -0.2813 -0.0019  0.0366
  915MPD2    H513403   1.408   0.750  15.973  1.0429  0.8880  0.5923
  915MPD2    N113404   1.369   0.405  15.643 -0.2112  0.1800  0.3181
  915MPD2    H713405   1.377   0.497  15.600  2.3642  0.3812  1.2192
  916MPD2     C13406   0.172   3.599  15.433 -0.0318 -0.2532 -0.0265
  916MPD2    C113407   0.175   3.503  15.532  0.3285  0.0930 -0.1351
  916MPD2    C213408   0.167   3.373  15.504  0.2287 -0.2504  0.3128
  916MPD2    C313409   0.166   3.333  15.372  0.3216  0.3356 -0.0619
  916MPD2    C413410   0.157   3.428  15.268  1.6722 -0.0842  0.7259
  916MPD2    C513411   0.159   3.557  15.306 -0.0725 -0.0108 -0.5428
  916MPD2     H13412   0.159   3.300  15.584  0.4999  2.0052  2.4170
  916MPD2    H113413   0.163   3.408  15.162  0.1680 -1.3772  0.8832
  916MPD2    H213414   0.187   3.705  15.445 -0.1750 -0.3717  1.1707
  916MPD2    H313415   0.135   3.634  15.233 -2.2065  1.4434  1.6819
  916MPD2     N13416   0.163   3.194  15.354  0.5607  0.5687  0.0324
  916MPD2    H513417   0.146   3.140  15.438 -0.3896  0.3307 -0.3200
  916MPD2    N113418   0.188   3.547  15.663  0.1066 -0.0244  0.0007
  916MPD2    H713419   0.220   3.642  15.680  1.6297 -0.7707  1.3389
  917MPD2     C13420   0.495   1.466  10.608  0.0241  0.0480 -0.5878
  917MPD2    C113421   0.580   1.456  10.711 -0.5908  1.1296  0.3975
  917MPD2    C213422   0.714   1.490  10.698 -0.8751  0.0287 -0.3670
  917MPD2    C313423   0.753   1.543  10.575  0.4417  0.3050  0.7700
  917MPD2    C413424   0.670   1.551  10.465 -0.1223  0.1361  0.2251
  917MPD2    C513425   0.543   1.505  10.474  0.2232 -0.4770 -0.1115
  917MPD2     H13426   0.782   1.495  10.782 -0.2640 -0.1949 -0.8430
  917MPD2    H113427   0.708   1.591  10.372  1.1967  0.8150  1.0595
  917MPD2    H213428   0.398   1.420  10.620  0.5168 -0.5104  1.2334
  917MPD2    H313429   0.474   1.515  10.391  2.4569 -1.0132 -2.0288
  917MPD2     N13430   0.879   1.589  10.550  0.0832  0.3205 -0.5360
  917MPD2    H513431   0.903   1.633  10.462  0.7755 -0.6356 -0.8186
  917MPD2    N113432   0.526   1.397  10.834  0.0909  0.3813 -0.0901
  917MPD2    H713433   0.426   1.383  10.838  0.2433 -0.9450 -0.7848
  918MPD2     C13434   0.622   1.486  11.874 -0.2223  0.3378  0.3406
  918MPD2    C113435   0.726   1.443  11.797  0.0709 -0.2073  0.2147
  918MPD2    C213436   0.701   1.433  11.659 -0.1400 -0.5542 -0.8624
  918MPD2    C313437   0.569   1.439  11.610 -0.2670  0.0341  0.1815
  918MPD2    C413438   0.469   1.493  11.696  0.2136  0.2795 -0.1791
  918MPD2    C513439   0.500   1.520  11.823  0.4729  0.4451 -0.2609
  918MPD2     H13440   0.788   1.419  11.597  0.6806 -0.5088  0.2847
  918MPD2    H113441   0.368   1.496  11.658  0.9241  2.4201 -1.8879
  918MPD2    H213442   0.640   1.515  11.977 -0.2108 -0.8742  0.6818
  918MPD2    H313443   0.424   1.557  11.891 -0.7684 -0.1415 -1.3130
  918MPD2     N13444   0.555   1.421  11.475 -0.2519 -0.2681 -0.0113
  918MPD2    H513445   0.637   1.396  11.419  0.2158  1.9474 -0.3280
  918MPD2    N113446   0.859   1.420  11.844 -0.4021 -0.1664  0.3896
  918MPD2    H713447   0.927   1.398  11.771 -0.9554 -1.3949  0.2474
  919MPD2     C13448   0.852   0.569  11.165  0.9371  0.2216 -0.4266
  919MPD2    C113449   0.853   0.439  11.137 -0.0513 -0.2818  0.6932
  919MPD2    C213450   0.872   0.399  11.003 -0.3332  0.0638  0.0015
  919MPD2    C313451   0.889   0.490  10.889 -0.4731 -0.8856  0.9535
  919MPD2    C413452   0.890   0.624  10.928  0.1824  0.0529  0.7012
  919MPD2    C513453   0.877   0.658  11.061 -0.2891 -0.3462 -0.1024
  919MPD2     H13454   0.851   0.298  10.971 -0.5405 -0.6800  2.4994
  919MPD2    H113455   0.911   0.702  10.855 -0.3944 -2.4976 -2.2139
  919MPD2    H213456   0.837   0.620  11.259 -0.5108 -0.6725 -0.1680
  919MPD2    H313457   0.869   0.764  11.081  0.3379  0.0299 -1.9093
  919MPD2     N13458   0.899   0.454  10.757  0.4781 -0.3385 -0.0525
  919MPD2    H513459   0.908   0.537  10.698 -0.6493  0.2321  0.5823
  919MPD2    N113460   0.816   0.340  11.228 -0.3227 -0.1582  0.3757
  919MPD2    H713461   0.842   0.245  11.203  0.1919 -0.1678  0.9535
  920MPD2     C13462   0.799   0.820   9.842  0.8720  0.1687  1.3707
  920MPD2    C113463   0.732   0.701   9.830 -0.0119  0.4091  0.2469
  920MPD2    C213464   0.747   0.610   9.933  0.0879 -0.6301 -0.3025
  920MPD2    C313465   0.819   0.640  10.049  0.3723  0.5533  0.3985
  920MPD2    C413466   0.883   0.765  10.059  0.8066  0.3689  0.6098
  920MPD2    C513467   0.868   0.852   9.955  1.1962  0.1274  0.7149
  920MPD2     H13468   0.696   0.514   9.933 -0.0361 -0.5545  2.3906
  920MPD2    H113469   0.942   0.801  10.142  0.3262 -0.3647  1.2637
  920MPD2    H213470   0.781   0.894   9.765  2.3551 -0.4675  0.4299
  920MPD2    H313471   0.907   0.952   9.972 -0.5325  1.1308 -1.1625
  920MPD2     N13472   0.804   0.548  10.155 -0.3321  0.6832 -0.5980
  920MPD2    H513473   0.759   0.459  10.134  0.6397 -0.3197  1.6012
  920MPD2    N113474   0.662   0.660   9.720 -0.6931 -0.6610 -0.1409
  920MPD2    H713475   0.628   0.565   9.724  1.1396 -1.2952  0.3620
  921MPD2     C13476   2.133   3.939  16.793  0.1772  0.6393  0.2110
  921MPD2    C113477   2.177   3.835  16.719 -0.3536  0.1566 -0.1303
  921MPD2    C213478   2.084   3.741  16.679 -0.1742  0.1717  0.4777
  921MPD2    C313479   1.949   3.750  16.713  0.3868  0.3207  0.3595
  921MPD2    C413480   1.907   3.858  16.787 -0.0799 -0.5911 -0.4149
  921MPD2    C513481   1.999   3.952  16.826 -1.0691  0.9349 -0.6545
  921MPD2     H13482   2.109   3.671  16.600 -0.0774 -1.8711  2.3080
  921MPD2    H113483   1.802   3.871  16.810  0.1238 -0.4830  0.4376
  921MPD2    H213484   2.192   4.027  16.816  0.8706  0.3449 -0.4571
  921MPD2    H313485   1.964   4.042  16.875  1.0628  0.5939  1.4838
  921MPD2     N13486   1.849   3.664  16.661 -0.0560 -0.5726  0.2194
  921MPD2    H513487   1.752   3.688  16.676  0.2794  1.7003 -1.2486
  921MPD2    N113488   2.309   3.829  16.666 -0.0311  0.4055 -0.4444
  921MPD2    H713489   2.365   3.913  16.677 -0.1525  0.5103 -0.6223
  922MPD2     C13490   2.425   1.631  17.083 -0.8738 -0.0060 -0.1321
  922MPD2    C113491   2.497   1.557  17.172  0.2876 -0.5657 -0.8949
  922MPD2    C213492   2.455   1.551  17.305  0.7974 -0.0011  0.5540
  922MPD2    C313493   2.344   1.612  17.351 -0.2153  0.7965 -0.3842
  922MPD2    C413494   2.268   1.679  17.261 -0.2092 -0.0633  0.5755
  922MPD2    C513495   2.311   1.688  17.130  0.1861 -0.1881 -0.6658
  922MPD2     H13496   2.513   1.498  17.381 -0.4864 -1.7186  0.3277
  922MPD2    H113497   2.173   1.726  17.286 -1.5913 -1.7469 -1.4416
  922MPD2    H213498   2.454   1.635  16.978 -1.2151  0.0789 -0.2240
  922MPD2    H313499   2.256   1.743  17.054 -0.3117  0.7571  0.3703
  922MPD2     N13500   2.305   1.625  17.486 -0.3946  0.1263 -0.2809
  922MPD2    H513501   2.223   1.681  17.507 -1.4207 -0.4665 -2.7144
  922MPD2    N113502   2.621   1.493  17.139 -0.6349 -0.0912  0.2234
  922MPD2    H713503   2.670   1.458  17.221 -0.5107 -1.8906 -0.6175
  923MPD2     C13504   0.272   3.606   9.120 -0.7216  0.0588  0.2771
  923MPD2    C113505   0.196   3.713   9.149 -0.0630  0.0127 -0.2206
  923MPD2    C213506   0.214   3.776   9.275 -0.1510  0.0179 -0.3924
  923MPD2    C313507   0.315   3.731   9.364 -0.0257 -0.2848 -0.1201
  923MPD2    C413508   0.398   3.622   9.328 -0.3949 -0.3324  0.3157
  923MPD2    C513509   0.368   3.561   9.207  0.3904  0.5682  0.0098
  923MPD2     H13510   0.142   3.846   9.315  1.8441  0.1766  2.8945
  923MPD2    H113511   0.467   3.570   9.393  0.4923  2.0023  1.2471
  923MPD2    H213512   0.260   3.563   9.021  2.7717 -0.6688  0.1636
  923MPD2    H313513   0.430   3.476   9.182  0.2869 -0.0828  1.9980
  923MPD2     N13514   0.324   3.788   9.497  0.5317  0.5928 -0.0728
  923MPD2    H513515   0.380   3.736   9.564  0.3659  2.5723  1.5856
  923MPD2    N113516   0.108   3.761   9.048 -0.1416 -0.2219  0.6951
  923MPD2    H713517   0.106   3.714   8.958 -0.3620  0.1581  0.4992
  924MPD2     C13518   3.784   1.638  16.499 -0.0108  0.3663  0.4094
  924MPD2    C113519   3.742   1.754  16.427  0.2031 -0.1531 -0.2527
  924MPD2    C213520   3.810   1.868  16.438  0.5768 -0.6607  0.2261
  924MPD2    C313521   3.904   1.873  16.539  0.3786  0.4480  0.3020
  924MPD2    C413522   3.955   1.762  16.597  0.0960 -0.2570  0.4400
  924MPD2    C513523   3.895   1.639  16.573 -0.3071  0.1477 -0.3709
  924MPD2     H13524   3.762   1.961  16.411 -0.8958 -0.9024  1.9866
  924MPD2    H113525   4.041   1.749  16.662  1.4437  1.2146 -1.0636
  924MPD2    H213526   3.736   1.542  16.484  0.2437  0.5038 -1.2397
  924MPD2    H313527   3.920   1.542  16.615 -2.7878  0.2790  1.4307
  924MPD2     N13528   3.961   1.997  16.572 -0.3564 -0.6005 -0.3802
  924MPD2    H513529   4.024   1.998  16.651  0.8780 -1.8197 -1.3502
  924MPD2    N113530   3.621   1.760  16.355  0.5159  0.9445  0.1628
  924MPD2    H713531   3.590   1.852  16.327 -1.6321  0.7860  2.0985
  925MPD2     C13532   2.969   4.204  14.750 -0.1551  0.6053 -0.2422
  925MPD2    C113533   2.837   4.221  14.722  0.2078  0.2718 -0.9452
  925MPD2    C213534   2.748   4.144  14.800 -0.1521  0.3891 -0.6514
  925MPD2    C313535   2.793   4.059  14.897  0.0663  0.2861  0.0010
  925MPD2    C413536   2.929   4.051  14.921  0.3290  0.4776 -0.7430
  925MPD2    C513537   3.016   4.122  14.845 -0.2013  0.1379  0.0236
  925MPD2     H13538   2.644   4.148  14.769 -0.3924 -0.9709 -0.0107
  925MPD2    H113539   2.978   3.991  14.997  0.8704  2.4514  0.4615
  925MPD2    H213540   3.042   4.271  14.706  2.0607 -0.7284  1.4175
  925MPD2    H313541   3.121   4.122  14.871  0.1356  0.7696 -1.3528
  925MPD2     N13542   2.708   3.981  14.980  0.5356 -0.0191  0.2462
  925MPD2    H513543   2.752   3.936  15.060 -1.9796 -0.2113  1.5429
  925MPD2    N113544   2.790   4.318  14.625 -0.2633 -0.4855  0.3491
  925MPD2    H713545   2.690   4.334  14.621 -0.5521 -2.7311 -1.3464
  926MPD2     C13546   1.403   3.326  13.706  0.3729 -0.2033 -0.1235
  926MPD2    C113547   1.278   3.330  13.653 -0.3232  0.2210  1.2292
  926MPD2    C213548   1.266   3.365  13.520 -0.9801 -0.3972 -0.0602
  926MPD2    C313549   1.371   3.383  13.433 -0.0683  0.4979 -0.2826
  926MPD2    C413550   1.496   3.366  13.489  0.4655  0.0541  0.0219
  926MPD2    C513551   1.507   3.346  13.625 -0.0399  0.3114  0.2078
  926MPD2     H13552   1.165   3.360  13.480 -0.5523  2.3082 -1.4547
  926MPD2    H113553   1.586   3.364  13.427  0.9736  0.1221  0.7528
  926MPD2    H213554   1.426   3.309  13.811 -0.5580 -0.7895 -0.0139
  926MPD2    H313555   1.606   3.358  13.669 -0.1080  0.0903  0.4236
  926MPD2     N13556   1.362   3.393  13.289 -0.0659 -0.8922 -0.5760
  926MPD2    H513557   1.450   3.412  13.242  0.2945 -1.2864 -0.0643
  926MPD2    N113558   1.164   3.299  13.722  0.2042  0.7328  0.1883
  926MPD2    H713559   1.080   3.313  13.667 -0.3863  0.5243  1.0363
  927MPD2     C13560   1.296   0.349   0.335  0.0847  0.5734 -0.8033
  927MPD2    C113561   1.180   0.401   0.281 -0.1912  0.3737  0.0867
  927MPD2    C213562   1.156   0.365   0.153  0.1393 -0.4808 -0.7007
  927MPD2    C313563   1.250   0.282   0.073 -0.2742  0.5414  0.4770
  927MPD2    C413564   1.369   0.245   0.129 -0.3832 -0.3334 -0.4745
  927MPD2    C513565   1.387   0.281   0.258  0.3987 -0.3773 -0.4163
  927MPD2     H13566   1.058   0.380   0.109  0.9987  1.2287 -2.0564
  927MPD2    H113567   1.449   0.189   0.083  1.3638  0.2785  1.8216
  927MPD2    H213568   1.336   0.374   0.432  1.2546 -1.7286 -0.6961
  927MPD2    H313569   1.482   0.263   0.306 -0.4793  1.7566  2.1170
  927MPD2     N13570   1.205   0.227  17.647  0.2916 -0.0024  0.0606
  927MPD2    H513571   1.111   0.249  17.615 -0.2073 -0.7832  0.9947
  927MPD2    N113572   1.085   0.471   0.359 -0.8432  0.1612 -0.2449
  927MPD2    H713573   1.108   0.473   0.458 -0.8731 -0.1225 -0.2317
  928MPD2     C13574   4.037   3.550   0.644 -0.5614 -1.1528 -0.3717
  928MPD2    C113575   3.928   3.621   0.688  0.2661 -0.0735  0.2921
  928MPD2    C213576   3.889   3.730   0.616  0.2125  0.6730  1.0488
  928MPD2    C313577   3.967   3.781   0.515 -0.2132 -1.1355  0.9146
  928MPD2    C413578   4.072   3.703   0.470 -0.0844 -0.4909 -0.7179
  928MPD2    C513579   4.110   3.589   0.536 -0.4671 -0.1786 -0.7472
  928MPD2     H13580   3.801   3.790   0.637 -0.0477  0.2753  1.0810
  928MPD2    H113581   4.134   3.740   0.389 -1.4102  2.9237 -0.1504
  928MPD2    H213582   4.052   3.452   0.687 -0.0868 -1.0958 -0.4141
  928MPD2    H313583   4.198   3.531   0.511 -0.6481  0.0132 -1.8304
  928MPD2     N13584   3.929   3.893   0.446 -0.0404  0.9737  0.5462
  928MPD2    H513585   3.972   3.905   0.355 -2.5651 -0.9875 -0.9030
  928MPD2    N113586   3.858   3.573   0.798 -1.3045 -0.2903 -0.1319
  928MPD2    H713587   3.898   3.485   0.830 -0.3465  0.9193  1.9379
  929MPD2     C13588   4.118   3.499   9.297 -0.3621 -0.1502 -0.1923
  929MPD2    C113589   4.009   3.511   9.386 -0.1760 -0.0009  0.1387
  929MPD2    C213590   3.893   3.441   9.357  0.0632 -0.2689  0.1316
  929MPD2    C313591   3.883   3.358   9.240 -0.1988 -0.7976  0.9572
  929MPD2    C413592   3.995   3.339   9.161  0.4859  0.0922 -0.1526
  929MPD2    C513593   4.105   3.407   9.193 -0.1732 -0.1770  0.7798
  929MPD2     H13594   3.807   3.467   9.417  0.0533  0.6088 -0.2568
  929MPD2    H113595   3.996   3.287   9.066  1.3508  1.7779 -1.0609
  929MPD2    H213596   4.215   3.542   9.316 -0.6155  0.1134  0.4950
  929MPD2    H313597   4.186   3.386   9.124  0.1924  1.4130  0.7194
  929MPD2     N13598   3.765   3.289   9.192  0.1845 -0.4634  0.2634
  929MPD2    H513599   3.779   3.252   9.098 -3.4950  1.7312 -1.1830
  929MPD2    N113600   4.038   3.576   9.500 -0.8219 -0.0291  0.1755
  929MPD2    H713601   4.106   3.652   9.502 -0.3945 -0.3552 -2.3635
  930MPD2     C13602   0.740   0.865  13.825 -0.2200 -0.5885 -0.3409
  930MPD2    C113603   0.759   0.983  13.762 -0.6432 -0.3479  0.5029
  930MPD2    C213604   0.773   0.973  13.629  0.1316  0.7655 -0.1391
  930MPD2    C313605   0.785   0.861  13.555 -0.4456  0.2997  0.0260
  930MPD2    C413606   0.773   0.744  13.625 -0.2028 -0.2630  0.5574
  930MPD2    C513607   0.742   0.748  13.757 -0.3691  0.3683  0.1429
  930MPD2     H13608   0.787   1.066  13.574  0.5574  0.7418 -0.0742
  930MPD2    H113609   0.782   0.650  13.571  1.4997 -0.3026  0.9091
  930MPD2    H213610   0.722   0.863  13.932 -0.0073  1.1536 -0.2792
  930MPD2    H313611   0.743   0.651  13.806 -0.4626  0.2943  0.0001
  930MPD2     N13612   0.803   0.862  13.415  0.3037 -0.9193  0.3413
  930MPD2    H513613   0.847   0.783  13.369 -0.9021 -1.1796 -0.3629
  930MPD2    N113614   0.763   1.110  13.830  0.5038 -0.0119 -0.3540
  930MPD2    H713615   0.762   1.191  13.768 -0.1585 -1.0236 -1.6542
  931MPD2     C13616   1.220   0.514   0.980 -0.4984 -0.5893  0.6357
  931MPD2    C113617   1.083   0.518   0.955  0.0816 -0.5716 -0.0425
  931MPD2    C213618   1.009   0.488   1.066  0.5650 -0.0545  0.3994
  931MPD2    C313619   1.068   0.435   1.181 -0.6786 -0.0654  0.3773
  931MPD2    C413620   1.205   0.418   1.196  0.0107 -0.7356  0.1101
  931MPD2    C513621   1.278   0.482   1.098 -0.1563 -0.0675  0.8303
  931MPD2     H13622   0.901   0.490   1.051  0.2871 -1.3561  2.1468
  931MPD2    H113623   1.263   0.386   1.281 -2.1112  3.5779  3.1816
  931MPD2    H213624   1.288   0.561   0.910 -1.1131 -1.2981 -0.4369
  931MPD2    H313625   1.386   0.487   1.106 -0.4168  3.1299  2.3837
  931MPD2     N13626   0.989   0.367   1.274  0.0205 -0.1364  0.2119
  931MPD2    H513627   1.034   0.322   1.354 -3.2132 -0.7309  1.7021
  931MPD2    N113628   1.028   0.561   0.829  0.2361  0.3466  0.5646
  931MPD2    H713629   1.098   0.554   0.756  0.0508 -1.2126  0.5343
  932MPD2     C13630   2.496   4.326  11.119  0.0240 -0.4546 -0.1846
  932MPD2    C113631   2.614   4.355  11.051 -0.5104  0.4342  0.0495
  932MPD2    C213632   2.720   4.273  11.071 -0.1389  0.2549  0.1119
  932MPD2    C313633   2.720   4.178  11.170 -0.0829  0.9105  0.0661
  932MPD2    C413634   2.605   4.160  11.243 -0.2394  0.2236 -0.3091
  932MPD2    C513635   2.488   4.222  11.212 -0.8191 -0.1585 -0.4506
  932MPD2     H13636   2.812   4.291  11.017 -0.3810  2.9531  0.6055
  932MPD2    H113637   2.607   4.100  11.333  1.2537 -0.1189 -0.5722
  932MPD2    H213638   2.403   4.374  11.092 -0.4232 -0.2881  1.6519
  932MPD2    H313639   2.391   4.198  11.253 -0.5355 -1.0264 -0.2823
  932MPD2     N13640   2.835   4.110  11.205 -0.0914  0.2028 -0.4925
  932MPD2    H513641   2.844   4.074  11.299  0.4331  0.0393 -0.6072
  932MPD2    N113642   2.628   4.465  10.966 -0.6764 -0.2287 -0.2120
  932MPD2    H713643   2.720   4.478  10.927 -1.0513 -0.8232 -1.2860
  933MPD2     C13644   3.155   3.272   1.308  0.7876 -0.0647  0.4721
  933MPD2    C113645   3.183   3.321   1.182  0.0368  1.0031 -0.4134
  933MPD2    C213646   3.085   3.385   1.111 -0.2725 -0.3611 -0.2398
  933MPD2    C313647   2.957   3.398   1.159  0.4727 -0.0854 -0.4249
  933MPD2    C413648   2.931   3.347   1.286  0.7630 -0.9342  0.0015
  933MPD2    C513649   3.023   3.274   1.353  0.2371 -0.3570  0.6759
  933MPD2     H13650   3.095   3.427   1.012 -0.5586  2.8759  1.1245
  933MPD2    H113651   2.833   3.341   1.331  0.7572  1.5348  0.3371
  933MPD2    H213652   3.227   3.217   1.367 -1.5354 -1.0406  2.3572
  933MPD2    H313653   3.001   3.236   1.452  2.0755 -2.6939  0.1813
  933MPD2     N13654   2.857   3.459   1.083 -0.5143  0.3073  0.8203
  933MPD2    H513655   2.875   3.468   0.984  3.3051 -3.9697  1.1026
  933MPD2    N113656   3.320   3.331   1.144  0.0352  0.3478 -0.1023
  933MPD2    H713657   3.389   3.299   1.212  0.2168 -0.3900 -0.6320
  934MPD2     C13658   4.596   2.240   1.508 -0.1781  0.6062  0.0428
  934MPD2    C113659   4.656   2.120   1.484  0.6977 -0.3275  0.3107
  934MPD2    C213660   4.599   2.001   1.542 -0.3024 -0.8247  0.3574
  934MPD2    C313661   4.485   2.008   1.621 -0.7869  0.7566  0.3914
  934MPD2    C413662   4.426   2.134   1.636 -0.0687  0.1736  0.7865
  934MPD2    C513663   4.483   2.247   1.580  0.0647 -0.5142 -0.7612
  934MPD2     H13664   4.647   1.906   1.521  0.7249 -0.0242 -0.9430
  934MPD2    H113665   4.336   2.156   1.693 -0.6859 -0.0475 -0.1058
  934MPD2    H213666   4.635   2.335   1.473 -1.2466  2.0538  2.7779
  934MPD2    H313667   4.432   2.339   1.609  0.4903 -0.4246 -0.2933
  934MPD2     N13668   4.416   1.891   1.670 -0.4911  0.4108  0.4287
  934MPD2    H513669   4.329   1.905   1.721 -1.1377 -2.5145  0.0998
  934MPD2    N113670   0.062   2.100   1.421  0.8244 -0.0945 -0.2662
  934MPD2    H713671   0.097   2.006   1.409 -0.7268 -0.5775 -0.9734
  935MPD2     C13672   4.629   0.889   1.884  0.0641  0.1577 -0.2290
  935MPD2    C113673   4.505   0.897   1.819  0.0720 -0.3962 -0.0747
  935MPD2    C213674   4.443   1.019   1.787 -0.0729  0.1425  0.3813
  935MPD2    C313675   4.514   1.137   1.813  0.1787  0.2675  0.3853
  935MPD2    C413676   4.638   1.126   1.874  0.2079  0.0980 -0.5303
  935MPD2    C513677   4.690   1.009   1.914 -0.3547  0.2702 -0.1152
  935MPD2     H13678   4.344   1.025   1.743 -0.8463 -1.9892  1.8574
  935MPD2    H113679   4.690   1.219   1.898  2.2769 -0.6893 -1.9929
  935MPD2    H213680   4.662   0.795   1.926 -1.5722 -0.1010  0.4773
  935MPD2    H313681   0.059   1.017   1.970 -0.1708  1.5696 -0.6156
  935MPD2     N13682   4.466   1.260   1.777 -0.3668 -0.1117  0.3709
  935MPD2    H513683   4.533   1.337   1.776  0.3508 -0.6624  3.5269
  935MPD2    N113684   4.430   0.776   1.788 -0.2908  0.4053 -0.0181
  935MPD2    H713685   4.346   0.778   1.730 -0.6041 -0.9437  0.3701
  936MPD2     C13686   3.128   3.141  12.504  0.0755  0.6696 -0.0023
  936MPD2    C113687   3.199   3.060  12.591  0.5097 -0.2223 -0.6465
  936MPD2    C213688   3.322   3.102  12.643  0.1583  0.2555 -0.8613
  936MPD2    C313689   3.372   3.221  12.605 -0.2143 -0.5419  0.7507
  936MPD2    C413690   3.308   3.296  12.514 -0.5155  0.3573  0.3677
  936MPD2    C513691   3.189   3.257  12.459  0.0471 -0.5265  0.5394
  936MPD2     H13692   3.364   3.055  12.731 -0.2583 -0.5892 -1.1118
  936MPD2    H113693   3.362   3.384  12.481  4.5648 -2.7362  0.5710
  936MPD2    H213694   3.026   3.120  12.474  0.3189  0.0728 -0.4017
  936MPD2    H313695   3.138   3.324  12.391  2.0216  0.2869 -0.1517
  936MPD2     N13696   3.502   3.253  12.655 -0.2213  0.5317  0.1612
  936MPD2    H513697   3.535   3.189  12.727  3.1117 -0.1144 -1.9420
  936MPD2    N113698   3.139   2.941  12.629  0.2670 -0.0798  0.1118
  936MPD2    H713699   3.051   2.914  12.587  0.3736 -3.1760  1.8792
  937MPD2     C13700   1.014   4.483  11.316  0.1331  0.5623 -0.0390
  937MPD2    C113701   1.085   4.587  11.367  0.2376  0.2987  0.4937
  937MPD2    C213702   1.205   4.622  11.316  0.2048  0.5536 -0.8152
  937MPD2    C313703   1.261   4.556  11.211  0.8273 -0.2556 -0.3006
  937MPD2    C413704   1.197   4.444  11.169 -0.2948 -1.1503  0.0538
  937MPD2    C513705   1.074   4.410  11.218 -0.0615 -0.3020 -0.1081
  937MPD2     H13706   1.256   4.713  11.345  3.3471 -0.5718 -2.7603
  937MPD2    H113707   1.236   4.384  11.088 -0.6522  0.2099 -1.1345
  937MPD2    H213708   0.918   4.444  11.349  0.3871  0.0410  0.0728
  937MPD2    H313709   1.013   4.338  11.164 -1.4046  0.1743  0.7725
  937MPD2     N13710   1.380   4.608  11.153 -0.3741 -0.8075 -0.1422
  937MPD2    H513711   1.404   4.701  11.186 -0.0453 -1.2774  0.9566
  937MPD2    N113712   1.001   4.682  11.433 -0.4785  0.1882  0.5968
  937MPD2    H713713   1.038   0.053  11.438  0.8042 -0.2839  0.1583
  938MPD2     C13714   3.466   0.778   0.802 -0.2006 -0.9278  0.4872
  938MPD2    C113715   3.532   0.828   0.909 -0.4696  0.5072 -0.1120
  938MPD2    C213716   3.519   0.767   1.036  0.2894  0.1373  0.0492
  938MPD2    C313717   3.430   0.664   1.054  0.1034 -0.1785 -0.0162
  938MPD2    C413718   3.359   0.615   0.944 -0.2487 -0.3082  0.1798
  938MPD2    C513719   3.387   0.671   0.825  1.0205 -0.1627 -0.0336
  938MPD2     H13720   3.567   0.819   1.118  1.8819 -0.1518 -0.6899
  938MPD2    H113721   3.284   0.536   0.944  0.5129 -1.0644  3.2763
  938MPD2    H213722   3.463   0.823   0.703 -1.2440 -0.0296  0.9323
  938MPD2    H313723   3.332   0.629   0.741  1.1795 -0.1246 -0.1578
  938MPD2     N13724   3.386   0.618   1.183 -0.6907 -0.4584 -0.0367
  938MPD2    H513725   3.306   0.556   1.176 -0.4667 -0.5364 -1.9767
  938MPD2    N113726   3.610   0.946   0.903  0.0991  0.0250 -0.5944
  938MPD2    H713727   3.633   0.987   0.993  1.4461 -1.8929 -0.0689
  939MPD2     C13728   4.322   1.890   0.917 -0.1316 -0.4996 -0.2350
  939MPD2    C113729   4.349   1.996   0.832 -0.8122 -0.0483 -0.2396
  939MPD2    C213730   4.473   2.005   0.770 -0.0523  0.6765 -0.4954
  939MPD2    C313731   4.563   1.904   0.794 -0.7401  0.1952  0.2572
  939MPD2    C413732   4.533   1.797   0.874  0.1284  0.3056 -0.3993
  939MPD2    C513733   4.409   1.792   0.933  0.5883  0.4059  0.3308
  939MPD2     H13734   4.492   2.090   0.705  1.2175  0.8473  0.1088
  939MPD2    H113735   4.607   1.722   0.899 -0.1194  0.4557  0.7585
  939MPD2    H213736   4.225   1.883   0.963  1.7568 -0.9429  3.6548
  939MPD2    H313737   4.382   1.705   0.992 -0.0755 -0.0500 -0.6470
  939MPD2     N13738   4.689   1.915   0.727  0.0459  0.7507 -0.2576
  939MPD2    H513739   4.702   2.003   0.679 -0.3110  0.0820 -1.5632
  939MPD2    N113740   4.241   2.082   0.806  0.0889 -0.3386 -0.1796
  939MPD2    H713741   4.150   2.060   0.844 -0.0180  0.7589  0.2046
  940MPD2     C13742   4.587   2.774  12.940 -0.5095 -0.0665 -0.1998
  940MPD2    C113743   4.450   2.785  12.936  0.5808 -0.0069 -0.3259
  940MPD2    C213744   4.379   2.752  12.820  0.1930 -0.2463  0.2863
  940MPD2    C313745   4.442   2.698  12.712 -0.0801 -1.1768 -0.4601
  940MPD2    C413746   4.582   2.688  12.718  1.0423 -0.4515  0.0255
  940MPD2    C513747   4.657   2.733  12.824  0.2031  0.8027 -0.1158
  940MPD2     H13748   4.271   2.765  12.820  0.5523  2.6911  0.0335
  940MPD2    H113749   4.637   2.644  12.636  1.0356  1.1181 -0.8173
  940MPD2    H213750   4.650   2.801  13.024  0.4679 -2.2226 -0.2585
  940MPD2    H313751   0.040   2.717  12.820  0.0099 -0.7924  1.1881
  940MPD2     N13752   4.368   2.654  12.604  1.0055  0.9937  0.1709
  940MPD2    H513753   4.423   2.609  12.531  0.2876 -0.2997  0.4196
  940MPD2    N113754   4.377   2.846  13.045 -0.3912 -0.4683  0.0670
  940MPD2    H713755   4.281   2.862  13.018 -0.0701  0.4022 -0.5631
  941MPD2     C13756   3.773   2.475   9.095  0.3248 -0.8152 -0.2529
  941MPD2    C113757   3.733   2.438   9.222  0.6503 -0.1337  0.4101
  941MPD2    C213758   3.628   2.349   9.238 -0.2527 -1.0412  0.5817
  941MPD2    C313759   3.574   2.275   9.129  0.4205  0.2430  0.4830
  941MPD2    C413760   3.625   2.307   9.004  0.1301  0.3602  0.8104
  941MPD2    C513761   3.711   2.416   8.989 -0.5340 -0.3354 -0.1996
  941MPD2     H13762   3.597   2.316   9.336 -0.2833  1.1770  1.3013
  941MPD2    H113763   3.589   2.265   8.911  1.1312  1.1717  0.0597
  941MPD2    H213764   3.850   2.549   9.075 -2.1696  1.0929 -2.9083
  941MPD2    H313765   3.741   2.446   8.889 -1.6671 -1.2335 -0.8089
  941MPD2     N13766   3.474   2.172   9.143  0.0800 -0.0071 -0.1168
  941MPD2    H513767   3.440   2.138   9.053  1.2162  0.7564 -0.8342
  941MPD2    N113768   3.796   2.493   9.338  0.2797 -0.3524  0.0749
  941MPD2    H713769   3.757   2.462   9.426 -1.0966 -0.0641 -0.4375
  942MPD2     C13770   4.472   3.550   8.561  0.1699 -0.4565  0.4292
  942MPD2    C113771   4.344   3.518   8.532 -0.2680  0.4049  0.2378
  942MPD2    C213772   4.248   3.536   8.628  0.4722  0.2429  0.1097
  942MPD2    C313773   4.280   3.603   8.748 -0.2825 -0.8620 -0.3661
  942MPD2    C413774   4.406   3.629   8.777 -0.0184  0.1618 -0.2516
  942MPD2    C513775   4.502   3.595   8.691 -0.1395  0.4647  0.7528
  942MPD2     H13776   4.146   3.514   8.597  0.9694  0.3683 -1.6280
  942MPD2    H113777   4.438   3.666   8.874 -2.0100  2.5997 -0.5203
  942MPD2    H213778   4.556   3.523   8.498  0.1472  1.9134 -0.6166
  942MPD2    H313779   4.608   3.610   8.710  0.5528 -0.2246 -2.5155
  942MPD2     N13780   4.192   3.627   8.856 -0.1923  0.0448 -0.5740
  942MPD2    H513781   4.225   3.683   8.935  0.1460  0.4039 -0.9689
  942MPD2    N113782   4.301   3.459   8.413 -0.1604 -0.2215 -0.0753
  942MPD2    H713783   4.200   3.457   8.406 -0.2295  1.2668  0.3352
  943MPD2     C13784   2.803   1.458   9.673  0.6962 -0.4581  0.1233
  943MPD2    C113785   2.663   1.464   9.674 -0.6454 -0.6382  0.1631
  943MPD2    C213786   2.602   1.494   9.558  0.9021  0.4852  0.1373
  943MPD2    C313787   2.668   1.537   9.443  0.2356 -0.2692  0.0164
  943MPD2    C413788   2.805   1.532   9.444 -0.6415 -0.0397  0.2772
  943MPD2    C513789   2.865   1.493   9.562 -0.6929  0.2409 -0.1237
  943MPD2     H13790   2.494   1.496   9.548  0.8704 -1.5656  0.2390
  943MPD2    H113791   2.863   1.577   9.364 -0.5934 -1.0544 -0.2635
  943MPD2    H213792   2.860   1.433   9.762 -0.4285  0.3392  1.0625
  943MPD2    H313793   2.972   1.484   9.567 -0.4152  2.3817 -2.3493
  943MPD2     N13794   2.608   1.577   9.321 -0.0319 -0.0097 -0.0162
  943MPD2    H513795   2.668   1.607   9.245  1.7013 -2.1417  0.5009
  943MPD2    N113796   2.597   1.441   9.797 -0.0729  0.7368 -0.1060
  943MPD2    H713797   2.656   1.425   9.878 -1.5074  0.5142  0.8994
  944MPD2     C13798   2.528   0.749  11.153 -0.0015 -0.2741  0.3328
  944MPD2    C113799   2.504   0.831  11.043 -0.2058  0.1654  0.0829
  944MPD2    C213800   2.394   0.920  11.044  0.0606  0.3831  0.2016
  944MPD2    C313801   2.310   0.929  11.157 -0.0923 -0.1109  0.2535
  944MPD2    C413802   2.330   0.840  11.258  0.1364 -0.7478  0.4011
  944MPD2    C513803   2.435   0.753  11.260 -0.4503  0.1873 -0.1689
  944MPD2     H13804   2.367   0.989  10.965 -0.9428  1.1211  1.1941
  944MPD2    H113805   2.268   0.841  11.347 -1.1273 -0.1178 -0.4837
  944MPD2    H213806   2.602   0.670  11.158 -1.1030 -1.1933  2.1749
  944MPD2    H313807   2.453   0.686  11.343 -1.8905  1.3735  1.0844
  944MPD2     N13808   2.198   1.021  11.155 -0.1617 -0.0702  0.5782
  944MPD2    H513809   2.194   1.078  11.071 -2.5317 -0.8502  0.1676
  944MPD2    N113810   2.593   0.822  10.933 -0.0778  0.8603 -0.2484
  944MPD2    H713811   2.680   0.781  10.964 -0.2457  1.9575  1.6855
    1TCq1    O113812   4.577   3.612  15.107 -0.6324  0.3068  0.1373
    1TCq1    C113813   4.505   3.509  15.162  0.5045 -0.3578 -0.2363
    1TCq1    O213814   4.470   3.493  15.279  0.4597  0.5101 -0.1359
    1TCq1    C213815   4.492   3.415  15.056  0.4279 -0.4495 -0.4901
    1TCq1    C313816   4.524   3.287  15.086 -0.1990 -0.3147  0.1475
    1TCq1    C413817   4.521   3.195  14.988 -0.1449 -0.3634  0.0537
    1TCq1    C513818   4.500   3.238  14.850  0.0462 -0.4174  0.0737
    1TCq1    C613819   4.472   3.366  14.822 -0.0202 -0.4407 -0.0227
    1TCq1    C713820   4.475   3.455  14.926 -0.5222 -0.3236  0.4444
    1TCq1    C813821   4.423   3.412  14.689 -0.5415  0.3790  0.2637
    1TCq1    O413822   4.332   3.488  14.680 -0.2712  0.7630 -0.1275
    1TCq1    C913823   4.527   3.059  15.028  0.5365 -0.7770  0.3220
    1TCq1    O513824   4.566   2.980  14.939 -0.0546 -0.3598 -0.0846
    1TCq1    O613825   4.508   3.026  15.147 -0.2807  0.4860 -0.1615
    1TCq1    H113826   4.642   3.590  15.038  1.2847  0.5890  1.8435
    1TCq1    H213827   4.515   3.248  15.187  3.5571 -1.4147  0.0330
    1TCq1    H313828   4.476   3.168  14.771  1.0308 -1.7238  0.9213
    1TCq1    H413829   4.474   3.561  14.902  2.1971 -0.3040  0.3544
    2MPD2     C13830   4.491   3.504  14.197 -0.2311  0.5864 -0.1563
    2MPD2    C113831   4.584   3.408  14.231  0.5030  0.0969 -0.1000
    2MPD2    C213832   4.588   3.367  14.361 -0.2851 -0.4036  0.2026
    2MPD2    C313833   4.493   3.405  14.452  0.4125 -0.0232  0.0465
    2MPD2    C413834   4.394   3.502  14.410  0.3687  0.1845 -0.2818
    2MPD2    C513835   4.396   3.560  14.286 -1.0178 -0.0896  0.1123
    2MPD2     H13836   4.667   3.304  14.401  0.4289 -0.1027 -0.7412
    2MPD2    H113837   4.313   3.538  14.471  1.7029  2.0226  0.4123
    2MPD2    H213838   4.496   3.553  14.100 -0.5244  1.2106  0.1446
    2MPD2    H313839   4.330   3.640  14.255  2.9074  3.4833  0.9277
    2MPD2     N13840   4.503   3.364  14.590  0.7038 -0.0356  0.1511
    2MPD2    H513841   4.581   3.303  14.612 -1.1497 -2.4146  0.0596
    2MPD2    N113842   4.672   3.365  14.132 -0.6454 -0.6567 -0.7488
    2MPD2    H713843   4.669   3.419  14.047 -2.4514  0.1889 -0.1422
    3TMC2    C113844   0.150   3.283  14.055  0.3021  0.2585 -0.4772
    3TMC2    C213845   0.245   3.184  14.067 -0.7898  0.5660 -0.6724
    3TMC2    C313846   0.345   3.176  13.973  0.0611  0.7358 -0.4477
    3TMC2    C413847   0.161   3.376  13.960  0.4091 -0.0795  0.2416
    3TMC2    C513848   0.273   3.373  13.874 -0.2212  0.4097 -0.1170
    3TMC2    C613849   0.370   3.274  13.878  0.1195  0.7918  0.0245
    3TMC2     C13850   0.046   3.278  14.152  0.0156 -0.0961  0.3190
    3TMC2     O13851   0.050   3.186  14.235  0.1090 -0.6000 -0.2903
    3TMC2     H13852   0.233   3.099  14.133  0.5864  2.5393  2.1186
    3TMC2    H113853   0.087   3.454  13.947  1.1144  0.6385  0.5978
    3TMC2    H213854   0.447   3.264  13.802  2.1207 -0.7034  2.2295
    3TMC2    C713855   0.253   3.443  13.746  0.6807 -0.1584 -0.1238
    3TMC2    C813856   0.456   3.088  13.998  0.0920 -0.4967 -0.5844
    3TMC2    O113857   0.142   3.492  13.728 -0.0650 -0.6191 -0.1292
    3TMC2    O213858   0.554   3.087  13.921 -0.2133 -0.4077 -0.1240
    3TMC2    O513859   0.467   3.117  14.128  0.1242 -0.7192  0.3076
    3TMC2    H513860   0.384   3.133  14.177  1.1297 -0.1509  1.8194
    4MPD2     C13861   4.019   3.535  12.688 -0.9265  0.0007 -0.0102
    4MPD2    C113862   4.130   3.528  12.603 -0.1150 -0.0180  0.2988
    4MPD2    C213863   4.257   3.531  12.661  0.1798  0.3299  0.1784
    4MPD2    C313864   4.273   3.534  12.799  0.0485 -0.0231 -0.1062
    4MPD2    C413865   4.166   3.527  12.877  0.1952 -0.1814 -0.4942
    4MPD2    C513866   4.041   3.524  12.824  0.3132 -0.1567 -0.0931
    4MPD2     H13867   4.347   3.531  12.600  0.1009 -1.6492  0.0858
    4MPD2    H113868   4.177   3.522  12.985  1.1136  1.6636 -0.5064
    4MPD2    H213869   3.915   3.539  12.658 -1.7238 -0.4996  2.6673
    4MPD2    H313870   3.952   3.518  12.885  0.5569  0.0068  0.2791
    4MPD2     N13871   4.408   3.542  12.850  0.2423 -0.5223 -0.1067
    4MPD2    H513872   4.476   3.513  12.780  0.3347  3.4435 -1.6470
    4MPD2    N113873   4.112   3.545  12.465 -0.0726 -0.3015 -0.1835
    4MPD2    H713874   4.019   3.569  12.431  0.7151  0.8443 -1.5470
    5TCq2    C113875   4.440   3.590  12.978 -0.1744  0.1521 -0.0665
    5TCq2    O213876   4.370   3.611  13.074  0.2859  0.3009 -0.2507
    5TCq2    C213877   4.577   3.623  12.986  0.6734 -0.3255  0.2395
    5TCq2    C313878   4.644   3.668  12.877 -0.5655  0.6124  0.2706
    5TCq2    C413879   0.041   3.732  12.900  0.0352 -0.2383  0.1652
    5TCq2    C513880   0.096   3.744  13.026 -0.7115 -0.0481  0.1885
    5TCq2    C613881   0.024   3.684  13.127 -0.2689 -0.5320 -0.2290
    5TCq2    C713882   4.628   3.622  13.111  0.7919 -0.3244 -0.1347
    5TCq2    C813883   0.101   3.644  13.247 -0.2275 -0.0409  1.0706
    5TCq2    O413884   0.050   3.561  13.317 -0.2704 -0.3958  0.3906
    5TCq2    C913885   0.109   3.802  12.791  0.2284  0.5184 -0.0190
    5TCq2    O513886   0.062   3.785  12.676  0.3468  0.4599 -0.6284
    5TCq2    O613887   0.228   3.831  12.816 -0.0059 -0.0435 -0.1720
    5TCq2    H213888   4.601   3.671  12.777 -0.7007 -1.4083  0.2686
    5TCq2    H313889   0.182   3.807  13.047 -0.3827 -0.3444 -0.2701
    5TCq2    H413890   4.575   3.566  13.186 -0.1295  0.1792 -0.4126
    6MPD1     C13891   3.293   0.233  12.939 -0.3539 -0.9885  0.0779
    6MPD1    C113892   3.279   0.100  12.971  0.2633  0.0623 -0.4403
    6MPD1    C213893   3.321   0.006  12.884  0.8397 -0.8434  0.1836
    6MPD1    C313894   3.372   0.045  12.759 -0.3193  0.8242 -0.0685
    6MPD1    C413895   3.362   0.176  12.720  0.8996 -0.1974  1.0467
    6MPD1    C513896   3.323   0.271  12.813 -0.8624  0.2734  0.3407
    6MPD1     H13897   3.323   4.626  12.915  1.0005  0.1893  3.6076
    6MPD1    H113898   3.409   0.204  12.626 -1.9803 -1.9433 -0.9052
    6MPD1    H213899   3.273   0.314  13.009  0.7475 -0.9194  0.3078
    6MPD1    H313900   3.350   0.375  12.802  0.0455  0.1187  1.0915
    6MPD1     N13901   3.409   4.680  12.664 -0.2776  0.2096 -0.0418
    6MPD1    H513902   3.449   4.717  12.579  3.1585 -0.5379  1.2459
    6MPD1    N113903   3.250   0.069  13.106 -0.1276 -0.8427 -1.0767
    6MPD1    H613904   3.188   0.138  13.146  2.4945 -0.4076  2.1845
    6MPD1    H713905   3.203   4.702  13.112 -1.0946 -0.2194  0.5684
    7MPD2     C13906   3.439   3.854  12.344  0.4754 -0.1284 -1.0524
    7MPD2    C113907   3.529   3.950  12.289 -0.2232 -0.3495 -0.7177
    7MPD2    C213908   3.640   3.912  12.213  0.3628 -0.3849 -0.5993
    7MPD2    C313909   3.669   3.781  12.200  0.1451  0.1663  0.5426
    7MPD2    C413910   3.584   3.686  12.249 -0.5830  0.1854  0.2219
    7MPD2    C513911   3.469   3.722  12.317  0.1776 -0.3267 -0.6155
    7MPD2     H13912   3.711   3.988  12.184  0.8380  0.7071  3.4331
    7MPD2    H113913   3.591   3.580  12.230 -1.1056  0.5932 -2.3187
    7MPD2    H213914   3.349   3.880  12.398  0.1659 -1.6393 -0.8169
    7MPD2    H313915   3.408   3.639  12.351  0.6300 -0.1128  0.7141
    7MPD2     N13916   3.798   3.739  12.166 -0.0229  0.1461  0.0343
    7MPD2    H513917   3.816   3.639  12.172  1.2094  0.4947  2.1295
    7MPD2    N113918   3.523   4.092  12.317 -0.7892  0.1264 -0.3403
    7MPD2    H713919   3.597   4.148  12.277  1.8794 -2.8984  0.3335
    8TMC3    C113920   4.030   3.754  12.122  0.0021 -0.1836  0.5726
    8TMC3    C213921   4.051   3.663  12.224 -0.7651 -0.7504  0.0208
    8TMC3    C313922   4.182   3.645  12.260 -0.2653 -0.1630 -0.3827
    8TMC3    C413923   4.129   3.831  12.078 -1.1549  0.3297 -0.4238
    8TMC3    C513924   4.257   3.821  12.134  0.3487 -0.0311  0.4482
    8TMC3    C613925   4.288   3.720  12.216  0.6178 -1.0016 -0.0268
    8TMC3     C13926   3.899   3.818  12.114 -0.0963  0.3457 -0.3336
    8TMC3     O13927   3.891   3.929  12.066  0.0708 -0.1890 -0.5008
    8TMC3     H13928   3.973   3.594  12.256 -0.4954 -1.3366 -0.5878
    8TMC3    H113929   4.116   3.907  12.002 -1.3872  1.8256  1.1212
    8TMC3    H213930   4.386   3.721  12.262  0.6516 -1.3107 -0.0942
    8TMC3    C713931   4.285   3.942  12.210  0.8567  0.1076 -0.3277
    8TMC3    C813932   4.212   3.562  12.374  0.3195  0.3889 -0.3563
    8TMC3    O113933   4.393   3.956  12.265 -0.0564 -0.6921 -0.2352
    8TMC3    O213934   4.326   3.516  12.373 -0.1232 -0.0948 -0.5401
    9TMC3    C113935   3.459   4.478  12.571 -0.1595 -0.1692  0.5606
    9TMC3    C213936   3.592   4.502  12.551  0.1526  0.0754  0.3280
    9TMC3    C313937   3.669   4.412  12.479 -0.2722  0.2379 -0.4860
    9TMC3    C413938   3.405   4.364  12.517 -1.0531  0.2752  0.1469
    9TMC3    C513939   3.479   4.277  12.448  0.2472 -0.5077  0.2326
    9TMC3    C613940   3.615   4.299  12.432 -0.2451  0.0752  0.4484
    9TMC3     C13941   3.389   4.547  12.675  0.6777 -0.1481 -0.4379
    9TMC3     O13942   3.315   4.480  12.746 -0.2446  0.0827  0.0601
    9TMC3     H13943   3.638   4.588  12.599 -0.6966  1.6927 -1.8050
    9TMC3    H113944   3.300   4.345  12.536 -0.7600 -1.6013 -0.1181
    9TMC3    H213945   3.683   4.217  12.412  0.9953  1.4312 -0.9209
    9TMC3    C713946   3.430   4.145  12.409  0.4331 -0.4893  0.6033
    9TMC3    C813947   3.814   4.427  12.473 -0.3970  0.1661 -0.5492
    9TMC3    O113948   3.323   4.111  12.462  0.7379  0.1975 -0.1804
    9TMC3    O213949   3.859   4.493  12.565 -0.6652  0.1002  0.0796
   10MPD2     C13950   4.249   4.180  12.380  0.3278  0.6567  0.1883
   10MPD2    C113951   4.151   4.128  12.298  0.3621 -0.1491 -0.9091
   10MPD2    C213952   4.020   4.181  12.294  1.2070  0.0943  0.3490
   10MPD2    C313953   3.993   4.287  12.382 -0.2720 -0.0836  0.3292
   10MPD2    C413954   4.093   4.326  12.469  0.2274  0.5647 -0.1674
   10MPD2    C513955   4.219   4.273  12.465  0.3078  0.8537  0.0658
   10MPD2     H13956   3.941   4.141  12.232 -1.0190  2.5995  1.5628
   10MPD2    H113957   4.069   4.403  12.541  1.1461  0.3199  0.4055
   10MPD2    H213958   4.355   4.162  12.365  0.2731  2.3423 -2.2439
   10MPD2    H313959   4.293   4.323  12.526 -1.4748  1.7656  1.4830
   10MPD2     N13960   3.867   4.343  12.380  0.2821  0.8952  0.5442
   10MPD2    H513961   3.808   4.300  12.310  1.7247  0.2948 -0.3233
   10MPD2    N113962   4.173   4.020  12.220 -0.1840 -0.2192 -0.0776
   10MPD2    H713963   4.086   3.988  12.178 -0.2056  1.6935 -1.4739
   11MPD2     C13964   0.512   3.594  13.538  0.4483  0.3221  0.2172
   11MPD2    C113965   0.382   3.552  13.556  0.4550  0.0244  0.5899
   11MPD2    C213966   0.283   3.585  13.467  0.1646 -0.3258  0.2784
   11MPD2    C313967   0.320   3.665  13.359  0.4797  0.0714 -0.0795
   11MPD2    C413968   0.445   3.719  13.347 -0.0224  0.8579  0.7687
   11MPD2    C513969   0.545   3.679  13.435 -0.1292 -0.0248 -0.1531
   11MPD2     H13970   0.183   3.548  13.488  0.8905 -0.1653  4.0774
   11MPD2    H113971   0.474   3.779  13.261  0.5581  1.4287  1.3558
   11MPD2    H213972   0.581   3.560  13.614  2.1373 -0.4995 -1.6824
   11MPD2    H313973   0.646   3.716  13.419  0.4245 -1.5636 -0.1809
   11MPD2     N13974   0.235   3.687  13.252  0.1436 -0.4171 -0.1771
   11MPD2    H513975   0.271   3.751  13.182 -0.1332 -0.6048 -0.4897
   11MPD2    N113976   0.370   3.482  13.680 -0.5246 -0.7926  0.5794
   11MPD2    H713977   0.459   3.466  13.725  0.7787 -1.0454 -2.0459
    1MPD1     C13978   2.506   0.510  16.265  0.3432 -0.0972  0.6032
    1MPD1    C113979   2.622   0.451  16.233 -0.0799  1.0723  0.4022
    1MPD1    C213980   2.690   0.390  16.337  0.7483  1.1205 -0.3364
    1MPD1    C313981   2.635   0.378  16.462 -0.4077  0.2870 -0.9492
    1MPD1    C413982   2.519   0.445  16.492 -0.0886 -0.0879 -0.1744
    1MPD1    C513983   2.452   0.511  16.395 -0.4016 -0.1769  0.0118
    1MPD1     H13984   2.787   0.346  16.316  0.9071  1.3371 -0.0532
    1MPD1    H113985   2.485   0.465  16.593 -1.8139 -0.2517 -0.7215
    1MPD1    H213986   2.444   0.559  16.190 -0.8149 -1.7214  0.4841
    1MPD1    H313987   2.360   0.565  16.414 -0.1289 -0.2345  1.4855
    1MPD1     N13988   2.699   0.323  16.573 -0.4601  0.7776  0.1094
    1MPD1    H513989   2.648   0.334  16.659  1.6765  1.8428  1.2571
    1MPD1    N113990   2.685   0.456  16.104 -0.1164  0.0789 -0.2907
    1MPD1    H613991   2.746   0.376  16.090 -0.8640 -0.5414  0.0143
    1MPD1    H713992   2.609   0.445  16.037 -1.2804  0.2265  0.9909
    2MPD1     C13993   3.566   0.357  17.223  0.3345 -1.1755 -0.2482
    2MPD1    C113994   3.458   0.303  17.297  0.3254  0.1458 -0.2406
    2MPD1    C213995   3.343   0.254  17.228 -0.0280 -0.6198  0.6117
    2MPD1    C313996   3.330   0.277  17.091 -0.0102 -0.2742 -0.0017
    2MPD1    C413997   3.442   0.333  17.023 -0.7841 -0.1118  0.5355
    2MPD1    C513998   3.554   0.371  17.087 -0.5609  0.3609  0.1094
    2MPD1     H13999   3.270   0.201  17.288  0.6829 -0.9652  1.1902
    2MPD1    H114000   3.448   0.336  16.915  3.4923 -0.0141  0.7835
    2MPD1    H214001   3.665   0.374  17.264  0.8781 -1.2680 -1.4879
    2MPD1    H314002   3.639   0.410  17.031 -1.8684  1.8161 -0.8734
    2MPD1     N14003   3.216   0.225  17.026  0.0573 -0.3266 -0.0089
    2MPD1    H514004   3.146   0.188  17.089 -2.4775  1.2450 -1.9449
    2MPD1    N114005   3.473   0.274  17.435 -0.7551  1.0438  0.1012
    2MPD1    H614006   3.393   0.295  17.496 -0.4307  1.2392  0.4625
    2MPD1    H714007   3.552   0.308  17.490 -0.6935  1.7637 -0.4361
    3TMC3    C114008   3.059   0.222  16.848  0.7598  0.8680  0.0173
    3TMC3    C214009   2.979   0.142  16.927  0.1037 -0.3293  0.4804
    3TMC3    C314010   2.843   0.130  16.890  0.7389 -0.1747  0.4867
    3TMC3    C414011   3.014   0.287  16.735 -0.3302  0.0262 -0.4897
    3TMC3    C514012   2.874   0.278  16.708 -0.5180 -0.5598 -0.3494
    3TMC3    C614013   2.787   0.203  16.785  0.2975  0.0814 -0.3533
    3TMC3     C14014   3.185   0.270  16.898 -0.8794  0.6829  0.0547
    3TMC3     O14015   3.254   0.327  16.813  0.0199 -1.0900  0.2522
    3TMC3     H14016   3.016   0.071  17.001 -1.2006  0.1641  1.5944
    3TMC3    H114017   3.064   0.353  16.665  1.4063 -0.7355  0.0611
    3TMC3    H214018   2.690   0.170  16.750  0.0961  0.5944 -0.2768
    3TMC3    C714019   2.831   0.296  16.581 -0.5498  0.5492  0.6145
    3TMC3    C814020   2.764   0.034  16.964  0.6617 -0.2971  0.3771
    3TMC3    O114021   2.914   0.273  16.491  0.0867 -0.4473  0.4712
    3TMC3    O214022   2.818   4.648  16.976  0.0756 -0.1875 -0.4571
    4MPD1     C14023   2.322   4.575  17.149 -0.4285 -0.4456 -0.3299
    4MPD1    C114024   2.302   4.710  17.115  0.4066  0.0531 -0.5072
    4MPD1    C214025   2.415   0.054  17.073 -0.3136  0.1010 -0.7441
    4MPD1    C314026   2.540   4.720  17.046  0.0604 -0.4076 -0.7237
    4MPD1    C414027   2.553   4.588  17.080  0.7024  0.7475  0.5598
    4MPD1    C514028   2.444   4.513  17.121  0.1940  0.4972 -0.1778
    4MPD1     H14029   2.392   0.157  17.045  1.4830 -0.1748 -3.2037
    4MPD1    H114030   2.646   4.533  17.086  0.1870 -0.6416 -4.0264
    4MPD1    H214031   2.249   4.519  17.208  2.2369 -0.7038  2.7105
    4MPD1    H314032   2.464   4.409  17.144  0.2164  0.5764  0.1589
    4MPD1     N14033   2.644   0.079  16.996 -0.2028 -0.4010 -0.0446
    4MPD1    H514034   2.630   0.178  16.976  1.9752  0.1420  1.1202
    4MPD1    N114035   2.185   0.046  17.169  0.0727 -0.3998 -0.3196
    4MPD1    H614036   2.156   0.129  17.119  0.1580 -0.5279 -0.5792
    4MPD1    H714037   2.106   4.706  17.183 -1.5060  1.4290 -0.8571
    1TCq1    O114038   3.440   0.036  12.090  0.1408 -0.0863 -0.4515
    1TCq1    C114039   3.539   4.675  12.118  0.1482 -0.4756 -0.2191
    1TCq1    O214040   3.599   4.682  12.224 -0.3446  0.1205 -0.2089
    1TCq1    C214041   3.531   4.565  12.033 -0.6242  0.5154 -0.5104
    1TCq1    C314042   3.560   4.447  12.089  0.1435  0.2284 -0.7009
    1TCq1    C414043   3.570   4.339  12.009 -0.1699  0.5238 -0.2348
    1TCq1    C514044   3.556   4.344  11.875 -0.0426  0.6213 -0.8252
    1TCq1    C614045   3.523   4.466  11.822  1.0221  0.5194  0.3097
    1TCq1    C714046   3.504   4.576  11.898  0.3556 -0.3313  0.1400
    1TCq1    C814047   3.491   4.477  11.683 -0.3966 -0.3226 -0.1879
    1TCq1    O414048   3.440   4.581  11.647  0.2747  0.2522 -0.0173
    1TCq1    C914049   3.683   4.256  12.044 -0.0262 -0.6206  0.7819
    1TCq1    O514050   3.757   4.221  11.946  0.2338  0.2020  0.3592
    1TCq1    O614051   3.709   4.245  12.164  0.2682 -0.1927 -0.5555
    1TCq1    H114052   3.391   0.014  12.008 -0.0244 -1.0134 -0.1018
    1TCq1    H214053   3.601   4.432  12.187  1.4553  1.6334 -1.0465
    1TCq1    H314054   3.581   4.255  11.819 -1.7395 -0.8528  0.7797
    1TCq1    H414055   3.498   4.672  11.849  2.6785 -0.6496 -0.7702
    2MPD1     C14056   3.563   4.350  11.188  0.0736  0.3450 -0.7190
    2MPD1    C114057   3.634   4.267  11.277 -0.0477  0.9424  0.4239
    2MPD1    C214058   3.624   4.280  11.414  0.3062 -0.1216 -0.1027
    2MPD1    C314059   3.537   4.372  11.468 -0.2923  0.1196 -0.0793
    2MPD1    C414060   3.463   4.451  11.383 -0.5901 -0.0532 -0.3564
    2MPD1    C514061   3.474   4.440  11.246  0.0677  0.1302  0.8034
    2MPD1     H14062   3.689   4.221  11.476 -1.7959 -2.1734  0.1369
    2MPD1    H114063   3.391   4.517  11.429  0.9168  0.7299  0.8793
    2MPD1    H214064   3.568   4.359  11.080 -1.1530 -2.0608 -0.9853
    2MPD1    H314065   3.418   4.500  11.176 -0.7540  0.3670  1.6736
    2MPD1     N14066   3.538   4.377  11.607  0.1005 -0.6405  0.2567
    2MPD1    H514067   3.604   4.311  11.646  3.2997  2.1166 -0.4057
    2MPD1    N114068   3.734   4.190  11.223 -0.1431  0.0620 -0.1772
    2MPD1    H614069   3.782   4.124  11.284 -1.8038 -1.8786 -0.9846
    2MPD1    H714070   3.797   4.245  11.165  1.8650 -1.4217  0.5960
    1TCq1    O114071   4.626   3.491   8.997 -0.5113  0.0523 -0.3598
    1TCq1    C114072   4.527   3.395   9.001 -0.4018  0.3885 -0.1650
    1TCq1    O214073   4.421   3.401   9.058 -0.1424 -0.2938  0.1924
    1TCq1    C214074   4.546   3.319   8.879  0.3170  0.7382 -0.1122
    1TCq1    C314075   4.674   3.310   8.828 -0.5476 -1.1959 -0.5624
    1TCq1    C414076   4.688   3.242   8.711 -0.0504  0.3759  0.4765
    1TCq1    C514077   4.585   3.213   8.623  0.1028 -0.0588  0.2931
    1TCq1    C614078   4.457   3.231   8.672 -0.4525 -0.5242 -0.1125
    1TCq1    C714079   4.441   3.283   8.800 -0.0578 -0.7547 -0.2609
    1TCq1    C814080   4.338   3.179   8.611  0.1612 -0.4247  0.2598
    1TCq1    O414081   4.232   3.177   8.677  0.2551 -0.3177  0.3305
    1TCq1    C914082   0.099   3.219   8.663 -0.7324  0.0378 -0.1183
    1TCq1    O514083   0.195   3.250   8.736 -0.1608  0.4159  0.5465
    1TCq1    O614084   0.105   3.208   8.539  0.0606 -0.3206  0.0125
    1TCq1    H114085   4.686   3.467   8.924 -0.5522 -1.4365  0.0903
    1TCq1    H214086   0.033   3.310   8.898 -2.0101  0.2754  1.1669
    1TCq1    H314087   4.601   3.167   8.526 -0.5498  1.3034 -0.4584
    1TCq1    H414088   4.343   3.288   8.845 -0.3926 -1.8149 -0.8648
    2MPD1     C14089   4.106   2.950   8.204 -0.1249 -0.2269 -0.1687
    2MPD1    C114090   4.244   2.931   8.195  1.0142 -0.1553 -0.2727
    2MPD1    C214091   4.326   2.982   8.294  1.1063 -0.2908  0.0286
    2MPD1    C314092   4.276   3.050   8.403  0.1774  0.9583  0.5700
    2MPD1    C414093   4.143   3.052   8.420 -0.5378 -0.3805  0.1323
    2MPD1    C514094   4.058   3.009   8.318 -0.4561 -0.1931 -0.5660
    2MPD1     H14095   4.434   2.983   8.283  1.0131  2.6245 -0.8712
    2MPD1    H114096   4.096   3.102   8.504 -0.0774 -1.0699  0.8023
    2MPD1    H214097   4.041   2.936   8.118 -0.7340 -0.4238  0.3249
    2MPD1    H314098   3.951   3.020   8.327 -0.3546 -0.4800  1.0133
    2MPD1     N14099   4.371   3.112   8.491 -0.6593 -0.6465 -0.2248
    2MPD1    H514100   4.465   3.111   8.453  0.0971  0.0071  1.6117
    2MPD1    N114101   4.308   2.888   8.072  0.3904  0.2711 -0.0792
    2MPD1    H614102   4.399   2.850   8.099  1.2200  1.0924 -1.7109
    2MPD1    H714103   4.248   2.820   8.027  1.5677 -0.5097 -0.4649
    1MPD1     C14104   0.339   4.406  11.615 -0.7117  0.0921  0.4530
    1MPD1    C114105   0.465   4.387  11.566 -0.5232 -0.5412  0.5692
    1MPD1    C214106   0.501   4.454  11.450  0.0128 -0.2013  0.0142
    1MPD1    C314107   0.426   4.557  11.402  0.2358 -0.5097 -0.2622
    1MPD1    C414108   0.304   4.583  11.461 -0.1564 -0.9140  0.5823
    1MPD1    C514109   0.255   4.507  11.566  0.3815  0.5690 -0.4741
    1MPD1     H14110   0.599   4.431  11.410 -0.4693  0.5532 -1.5852
    1MPD1    H114111   0.232   4.655  11.423 -2.1012 -1.9602  2.2664
    1MPD1    H214112   0.306   4.347  11.700 -1.4499 -1.2634 -0.7629
    1MPD1    H314113   0.159   4.526  11.612  0.7332  0.0354  0.4647
    1MPD1     N14114   0.479   4.631  11.293 -0.5382 -0.2840 -0.6844
    1MPD1    H514115   0.574   4.608  11.265  0.6725  2.4931  1.1570
    1MPD1    N114116   0.546   4.281  11.608  1.4231  0.0427 -0.5006
    1MPD1    H614117   0.524   4.264  11.706  0.3488 -0.7363 -0.8769
    1MPD1    H714118   0.647   4.287  11.593  1.7155 -1.0220  0.9947
    2MPD1     C14119   0.058   4.157  11.553  0.5823 -0.3003  0.3429
    2MPD1    C114120   0.020   4.025  11.545  0.6479 -0.4198 -0.1253
    2MPD1    C214121   4.677   3.989  11.428 -0.0470 -0.5746 -0.0680
    2MPD1    C314122   4.680   4.077  11.319 -0.5112 -0.4205 -0.0529
    2MPD1    C414123   0.023   4.197  11.329 -0.6329 -0.3951  0.5059
    2MPD1    C514124   0.080   4.235  11.447 -0.3621 -0.3445 -0.5041
    2MPD1     H14125   4.633   3.891  11.421 -1.1825 -0.0796  0.1540
    2MPD1    H114126   0.028   4.274  11.254 -0.4728  0.8534  1.7871
    2MPD1    H214127   0.117   4.175  11.642  2.2663 -1.3797 -0.5313
    2MPD1    H314128   0.132   4.329  11.461 -0.5190 -0.1836 -0.9761
    2MPD1     N14129   4.606   4.060  11.201 -0.4448  0.0447 -0.6062
    2MPD1    H514130   4.621   4.131  11.129  0.0162 -1.0422 -1.5795
    2MPD1    N114131   0.026   3.949  11.663  0.5091 -0.0338  0.3364
    2MPD1    H614132   0.041   3.851  11.641  0.6765  0.0349  0.1493
    2MPD1    H714133   0.103   3.980  11.721  1.9503  0.5318 -1.9038
    3MPD1     C14134   3.913   3.411  10.805  0.4681  0.5134  0.3485
    3MPD1    C114135   3.993   3.402  10.919  0.1546 -0.3961  1.1191
    3MPD1    C214136   4.098   3.491  10.926 -0.2557 -0.3897 -0.0794
    3MPD1    C314137   4.128   3.585  10.829 -0.3157  0.4776  1.2601
    3MPD1    C414138   4.051   3.593  10.718  0.5764 -0.5773 -0.6198
    3MPD1    C514139   3.944   3.506  10.708 -0.2851  0.3014  0.6993
    3MPD1     H14140   4.162   3.486  11.013 -1.0404 -1.1879  0.4589
    3MPD1    H114141   4.081   3.660  10.638 -1.9914  1.3227  0.0180
    3MPD1    H214142   3.829   3.347  10.782 -0.5409  0.8454  3.0230
    3MPD1    H314143   3.886   3.496  10.617  1.2702  0.5148 -0.3065
    3MPD1     N14144   4.223   3.687  10.861 -0.3369  0.4796  0.0795
    3MPD1    H514145   4.285   3.668  10.939  1.0639  1.6664 -0.7421
    3MPD1    N114146   3.951   3.312  11.023 -0.4672 -0.2769  0.5854
    3MPD1    H614147   4.026   3.271  11.077 -1.0568 -1.0198  0.8425
    3MPD1    H714148   3.900   3.234  10.983 -0.7408  0.2823 -0.1547
    4MPD2     C14149   0.297   0.495  10.764 -0.1387 -0.4336  0.5194
    4MPD2    C114150   0.362   0.375  10.740  0.3412  0.0787  0.3847
    4MPD2    C214151   0.337   0.304  10.626  0.2317  0.3321 -0.8300
    4MPD2    C314152   0.236   0.338  10.540 -0.5147 -0.9452  0.2792
    4MPD2    C414153   0.155   0.447  10.574  0.4095 -0.3301  0.2046
    4MPD2    C514154   0.194   0.523  10.683 -0.3244  0.0173 -0.2529
    4MPD2     H14155   0.393   0.213  10.608 -0.5776  0.2468 -2.9315
    4MPD2    H114156   0.067   0.478  10.518  0.4346  0.9994  0.9115
    4MPD2    H214157   0.310   0.558  10.851 -0.6382  1.7227 -0.9820
    4MPD2    H314158   0.133   0.607  10.716  0.8021  0.2523  1.2613
    4MPD2     N14159   0.211   0.249  10.428 -0.3598  0.3047  0.0183
    4MPD2    H514160   0.276   0.173  10.412 -0.3102  0.3867 -0.1781
    4MPD2    N114161   0.455   0.310  10.827 -0.1909  0.2503 -0.0269
    4MPD2    H714162   0.497   0.220  10.806 -1.7267 -0.4056 -0.2376
    5TMC3    C114163   0.583   0.265  11.013  0.3258 -0.0510 -0.9406
    5TMC3    C214164   0.513   0.224  11.123  0.8397  0.3520  0.4891
    5TMC3    C314165   0.503   0.087  11.136  0.5828  0.4144  0.3509
    5TMC3    C414166   0.634   0.177  10.922 -0.1431 -0.1302  0.3992
    5TMC3    C514167   0.618   0.041  10.932 -0.6204 -0.5049 -0.4250
    5TMC3    C614168   0.551   4.717  11.042 -0.2255 -0.3988 -0.2712
    5TMC3     C14169   0.503   0.364  10.946 -0.3529 -0.7030  0.2678
    5TMC3     O14170   0.461   0.463  11.010  0.1684  0.1406  0.1350
    5TMC3     H14171   0.466   0.298  11.187 -0.9002  0.0030 -0.3957
    5TMC3    H114172   0.688   0.215  10.836  0.8652 -2.4431  0.0216
    5TMC3    H214173   0.524   4.612  11.038 -0.6635 -0.2708 -0.6437
    5TMC3    C714174   0.587   4.701  10.798  0.1428 -0.4574  0.4751
    5TMC3    C814175   0.436   0.034  11.249 -0.2984  0.0115  0.1016
    5TMC3    O114176   0.582   0.064  10.712 -0.1306 -0.0562 -0.0887
    5TMC3    O214177   0.350   0.110  11.293 -0.4786  0.6261 -0.4598
    6TMC3    C114178   4.448   3.997  11.056  0.8433  0.1693 -0.5625
    6TMC3    C214179   4.382   3.889  10.998 -0.4472  0.1339 -0.0587
    6TMC3    C314180   4.350   3.899  10.863 -0.3967  0.4545  0.5583
    6TMC3    C414181   4.479   4.116  10.992  0.3993 -0.2132  0.3914
    6TMC3    C514182   4.419   4.129  10.870  0.9255  0.2813  0.1913
    6TMC3    C614183   4.369   4.018  10.806 -0.0524 -1.2115 -0.3501
    6TMC3     C14184   4.519   3.957  11.180  0.2099  0.7260 -0.1391
    6TMC3     O14185   4.492   3.851  11.234 -0.2275 -0.1647 -0.6886
    6TMC3     H14186   4.365   3.797  11.054  0.7736 -1.2492 -1.9744
    6TMC3    H114187   4.538   4.199  11.027 -0.1495  1.0268 -1.6284
    6TMC3    H214188   4.330   4.025  10.705  0.9356  0.4357 -0.6259
    6TMC3    C714189   4.440   4.241  10.782 -0.3344 -0.2831 -0.1104
    6TMC3    C814190   4.244   3.815  10.800 -0.2028  0.5546 -0.2428
    6TMC3    O114191   4.492   4.225  10.673  0.4066 -0.2406  0.2350
    6TMC3    O214192   4.195   3.850  10.694 -0.1866 -0.8305 -0.5369
    7MPD2     C14193   0.450   4.320  10.488  0.5594 -0.4135 -0.5434
    7MPD2    C114194   0.442   4.455  10.481  0.2527 -0.4653  0.8051
    7MPD2    C214195   0.500   4.534  10.576 -0.0104 -0.1129 -0.2015
    7MPD2    C314196   0.554   4.480  10.692  1.4118  0.2736 -0.6133
    7MPD2    C414197   0.569   4.348  10.693 -0.6800 -0.0830 -0.2751
    7MPD2    C514198   0.521   4.268  10.589 -0.2894  0.0588 -0.0150
    7MPD2     H14199   0.476   4.640  10.574 -0.4868 -0.1547  2.8408
    7MPD2    H114200   0.626   4.299  10.772 -0.1711 -0.9156 -1.1658
    7MPD2    H214201   0.395   4.255  10.422  1.7253 -1.4043 -0.5282
    7MPD2    H314202   0.512   4.161  10.604 -2.0378 -0.0407 -1.7049
    7MPD2     N14203   0.596   4.562  10.799  0.6590 -0.6148  0.0142
    7MPD2    H514204   0.623   4.516  10.886  0.3211  0.0824  0.4858
    7MPD2    N114205   0.358   4.507  10.370 -0.3075  0.6534 -0.7355
    7MPD2    H714206   0.310   4.436  10.315  0.6594 -0.5078 -0.0885
    8TMC3    C114207   0.218   4.670  10.287 -0.4381  0.4888 -0.1258
    8TMC3    C214208   0.112   4.602  10.332  0.0411 -0.6803  0.1554
    8TMC3    C314209   4.712   4.666  10.353 -0.0094  0.7143 -0.6966
    8TMC3    C414210   0.206   0.078  10.259 -0.3941 -0.2942 -0.0729
    8TMC3    C514211   0.083   0.142  10.277 -0.4879 -0.3697 -0.2705
    8TMC3    C614212   4.699   0.073  10.324  0.5673  0.5238 -0.0920
    8TMC3     C14213   0.339   4.641  10.348 -0.3929  0.6720  0.7326
    8TMC3     O14214   0.405   0.012  10.386 -0.7757 -0.2603 -0.1509
    8TMC3     H14215   0.135   4.508  10.381  0.0705 -1.5208 -1.4830
    8TMC3    H114216   0.293   0.128  10.217 -0.8136  0.0293 -0.5519
    8TMC3    H214217   4.611   0.130  10.352 -0.3869 -1.6284  1.2496
    8TMC3    C714218   0.101   0.265  10.344 -0.0432  0.0375 -0.0770
    8TMC3    C814219   4.631   4.602  10.457  0.6933  0.3369 -0.5764
    8TMC3    O114220   0.004   0.334  10.351 -0.0836  0.3112 -0.5384
    8TMC3    O214221   4.665   4.487  10.490  0.2830  0.6043 -0.1006
    9MPD2     C14222   4.417   0.025  10.711 -0.2814  0.4374 -0.0939
    9MPD2    C114223   4.454   4.647  10.627  0.3947 -0.0256  0.0390
    9MPD2    C214224   4.445   4.518  10.672 -0.1149  0.0974  0.1740
    9MPD2    C314225   4.402   4.486  10.802  0.5630  0.1029 -0.0350
    9MPD2    C414226   4.358   4.591  10.882 -0.2230  0.0289  0.2476
    9MPD2    C514227   4.363   4.717  10.833  1.2183  0.1878 -0.2702
    9MPD2     H14228   4.479   4.442  10.603 -0.0185  1.4187 -1.2436
    9MPD2    H114229   4.342   4.584  10.988 -0.0011  0.7179  0.3255
    9MPD2    H214230   4.437   0.127  10.680 -0.0958  0.4787  0.1614
    9MPD2    H314231   4.348   0.071  10.906 -2.4299 -0.3471 -0.4319
    9MPD2     N14232   4.405   4.356  10.851 -0.1417 -0.7452  0.1052
    9MPD2    H514233   4.369   4.332  10.943 -0.6467  1.6410  0.5318
    9MPD2    N114234   4.543   4.686  10.517  0.2021  0.2363  0.4713
    9MPD2    H714235   4.553   0.062  10.505 -1.4847  0.2010 -1.3051
    1MPD1     C14236   1.108   3.057  16.567  0.3800 -0.6859 -0.1889
    1MPD1    C114237   1.044   3.016  16.456 -0.3979 -0.0281  0.5745
    1MPD1    C214238   0.910   2.997  16.460 -0.1080 -0.3483  0.8837
    1MPD1    C314239   0.840   3.055  16.564  0.3913  0.7090  0.5804
    1MPD1    C414240   0.901   3.117  16.665 -0.3167 -0.1411  0.3614
    1MPD1    C514241   1.037   3.113  16.671  0.3023 -0.1219  0.0132
    1MPD1     H14242   0.866   2.959  16.368 -1.4958 -0.2512  1.5110
    1MPD1    H114243   0.847   3.152  16.752 -1.3806 -3.1443  0.8956
    1MPD1    H214244   1.215   3.076  16.576  0.1758 -0.2067  1.2673
    1MPD1    H314245   1.091   3.151  16.757  0.9588 -1.1464  0.0530
    1MPD1     N14246   0.700   3.067  16.571  0.0710  0.0309  0.3778
    1MPD1    H514247   0.653   3.093  16.657 -0.1372 -0.8647  0.5354
    1MPD1    N114248   1.120   2.962  16.347 -0.2726  0.2577  0.8438
    1MPD1    H614249   1.074   2.984  16.259 -0.0234 -0.8350  0.4416
    1MPD1    H714250   1.208   3.014  16.345 -0.4157  0.5662  2.6764
    2MPD1     C14251   4.608   2.980  15.984 -0.0745  0.7345 -0.5299
    2MPD1    C114252   0.004   3.049  15.975  0.4341  0.2266 -0.3649
    2MPD1    C214253   0.091   3.033  16.082  0.2184  1.0679 -0.5806
    2MPD1    C314254   0.043   2.969  16.197 -0.0829 -0.2227  0.0674
    2MPD1    C414255   4.651   2.897  16.200  0.0923 -0.7310 -0.8306
    2MPD1    C514256   4.573   2.904  16.086  0.2229  0.8917 -0.4049
    2MPD1     H14257   0.194   3.065  16.078  0.5460  0.0340 -0.4099
    2MPD1    H114258   4.611   2.839  16.282  0.4608  0.4325  0.1649
    2MPD1    H214259   4.536   2.970  15.904 -0.9056  0.8487  0.2027
    2MPD1    H314260   4.485   2.841  16.087 -0.0905  1.3149 -1.3743
    2MPD1     N14261   0.145   2.958  16.299 -0.3749  0.6722  0.3576
    2MPD1    H514262   0.235   2.998  16.275 -0.4416  0.7914  0.3096
    2MPD1    N114263   0.047   3.103  15.855 -0.2786 -0.4311 -0.3285
    2MPD1    H614264   4.693   3.131  15.796  0.3977  0.5226 -0.7555
    2MPD1    H714265   0.105   3.186  15.859  0.7178 -1.2118  1.7964
    3TCq2    C114266   0.132   2.893  16.419 -0.0627  0.1373  0.0502
    3TCq2    O214267   0.042   2.844  16.479 -0.0349  0.1233  0.0475
    3TCq2    C214268   0.249   2.921  16.504  0.0628 -0.4482 -0.3384
    3TCq2    C314269   0.218   2.939  16.634  0.6064 -0.3397  0.4272
    3TCq2    C414270   0.323   2.992  16.714 -0.1828  0.0610  0.7204
    3TCq2    C514271   0.441   3.039  16.657 -0.5475  0.0332  0.3039
    3TCq2    C614272   0.467   3.014  16.528  0.4209 -0.5535 -0.5357
    3TCq2    C714273   0.367   2.953  16.445 -0.3448  0.3114 -0.4795
    3TCq2    C814274   0.604   3.025  16.481  0.5228  0.2930 -0.9138
    3TCq2    O414275   0.625   2.986  16.367 -0.1158  0.1248 -0.2474
    3TCq2    C914276   0.323   2.979  16.854 -0.5679  0.7951  0.4138
    3TCq2    O514277   0.258   2.878  16.891  0.1421  0.4575  0.2576
    3TCq2    O614278   0.404   3.042  16.924 -1.0147  0.0147 -0.0017
    3TCq2    H214279   0.132   2.896  16.683  0.5953 -1.3635 -0.4940
    3TCq2    H314280   0.497   3.112  16.715 -2.7429  0.7431  1.5197
    3TCq2    H414281   0.384   2.933  16.339 -2.6174  0.0783 -0.8027
    1TCq1    O114282   2.475   1.514  12.650  0.2642 -0.3948 -0.1473
    1TCq1    C114283   2.546   1.558  12.543  0.3715 -0.1647  0.3070
    1TCq1    O214284   2.647   1.509  12.502 -0.0303 -0.6541 -0.0372
    1TCq1    C214285   2.502   1.697  12.522  0.5825 -0.5587  0.0485
    1TCq1    C314286   2.375   1.729  12.514  0.4567 -0.3728  0.2106
    1TCq1    C414287   2.344   1.858  12.497  0.6432 -0.2103 -0.1177
    1TCq1    C514288   2.445   1.953  12.495  1.1062  0.1246 -0.7989
    1TCq1    C614289   2.569   1.914  12.503 -0.1661 -0.3892  0.7436
    1TCq1    C714290   2.608   1.788  12.510  0.3855 -0.4924  0.7517
    1TCq1    C814291   2.668   2.020  12.502 -0.3609 -0.6967  0.4626
    1TCq1    O414292   2.633   2.134  12.472 -0.9902  0.5616  0.6088
    1TCq1    C914293   2.210   1.907  12.484  0.2675 -0.4072  0.4579
    1TCq1    O514294   2.115   1.825  12.476  0.3681  0.3848  0.1571
    1TCq1    O614295   2.188   2.026  12.524 -0.1784 -0.0039  0.5647
    1TCq1    H114296   2.416   1.585  12.685 -1.5761 -1.1795 -1.6370
    1TCq1    H214297   2.299   1.652  12.521 -1.6875  1.9075  2.5626
    1TCq1    H314298   2.408   2.055  12.496  0.0240 -0.2617 -1.5472
    1TCq1    H414299   2.712   1.760  12.502  0.0816 -1.1876 -0.8736
    2MPD2     C14300   2.918   2.174  12.528 -0.5484  0.0742 -0.1654
    2MPD2    C114301   2.885   2.073  12.607  0.1218 -0.4979 -0.3231
    2MPD2    C214302   2.966   2.046  12.711 -0.4930  0.0289  0.5282
    2MPD2    C314303   3.078   2.125  12.742 -0.3904 -0.4329  0.8274
    2MPD2    C414304   3.098   2.234  12.673 -0.4111  0.0355  0.4296
    2MPD2    C514305   3.028   2.253  12.557  0.0732 -0.2834 -0.2923
    2MPD2     H14306   2.939   1.966  12.779 -0.9055 -0.8848 -0.7007
    2MPD2    H114307   3.168   2.314  12.695 -0.8086  0.4925  0.0477
    2MPD2    H214308   2.857   2.197  12.442 -1.9836 -1.1001  0.5432
    2MPD2    H314309   3.055   2.340  12.498  0.5805 -2.7099 -3.5813
    2MPD2     N14310   3.158   2.087  12.852  0.4761 -0.3804 -0.0184
    2MPD2    H514311   3.139   1.999  12.900 -2.0213 -0.5763 -1.3517
    2MPD2    N114312   2.779   1.985  12.582  0.1964  0.0128 -0.6923
    2MPD2    H714313   2.784   1.897  12.633 -0.7701  0.1342 -0.3889
    3TCq1    O114314   3.497   2.302  13.311 -0.5906 -0.2078  0.4321
    3TCq1    C114315   3.407   2.218  13.356 -0.5777  0.7662  0.3977
    3TCq1    O214316   3.391   2.183  13.475  0.0704  0.5270  0.2492
    3TCq1    C214317   3.361   2.142  13.241 -0.0508  0.5495 -0.0369
    3TCq1    C314318   3.358   2.004  13.264  0.0290  0.3016 -0.3150
    3TCq1    C414319   3.327   1.927  13.162 -0.3499  0.0824 -0.8283
    3TCq1    C514320   3.298   1.975  13.038  0.0401  0.5454 -0.6492
    3TCq1    C614321   3.298   2.117  13.033 -0.1130 -0.2349 -1.4803
    3TCq1    C714322   3.346   2.202  13.121  0.0202  0.4103 -0.2341
    3TCq1    C814323   3.256   2.169  12.902  0.2992  0.0196  0.2382
    3TCq1    O414324   3.282   2.285  12.876  0.4167  0.4580  0.0689
    3TCq1    C914325   3.336   1.788  13.171 -0.4326 -0.1403  0.1129
    3TCq1    O514326   3.336   1.735  13.283  0.0981 -0.4737 -0.2291
    3TCq1    O614327   3.312   1.723  13.066  0.0912  0.1804  0.0644
    3TCq1    H114328   3.518   2.296  13.215  2.9505  1.0421  1.1047
    3TCq1    H214329   3.384   1.974  13.365  2.3767 -0.0971 -1.0528
    3TCq1    H314330   3.291   1.918  12.946 -0.3220  0.2676 -0.4544
    3TCq1    H414331   3.347   2.307  13.094 -1.4101  0.3624 -0.4513
    1MPD2     C14332   2.854   3.669  14.299  0.5846  0.2227 -0.1942
    1MPD2    C114333   2.879   3.558  14.372 -0.5280 -0.5007 -1.1380
    1MPD2    C214334   3.004   3.537  14.412 -0.0282  0.1531  0.3738
    1MPD2    C314335   3.113   3.619  14.380 -0.6825 -0.6732 -0.8705
    1MPD2    C414336   3.088   3.725  14.299 -0.0448 -0.0601  0.6679
    1MPD2    C514337   2.965   3.744  14.255  0.0984  0.2604 -0.4421
    1MPD2     H14338   3.032   3.458  14.481  0.1906 -1.3938 -1.5096
    1MPD2    H114339   3.166   3.784  14.252  0.1059  0.2695  1.3388
    1MPD2    H214340   2.755   3.700  14.268  1.4947  2.3014 -1.0541
    1MPD2    H314341   2.946   3.818  14.178  0.5032  0.9525  0.1256
    1MPD2     N14342   3.238   3.592  14.432 -0.4039 -0.6507  0.1897
    1MPD2    H514343   3.240   3.504  14.482  0.5509 -0.7190  0.0249
    1MPD2    N114344   2.770   3.478  14.423 -0.7484  0.7743  0.2957
    1MPD2    H714345   2.676   3.491  14.386 -1.2770 -0.9052  1.0808
    2TMC3    C114346   2.670   3.315  14.563  0.1262 -0.1038  0.2276
    2TMC3    C214347   2.706   3.204  14.628 -0.7944  0.1143  0.4194
    2TMC3    C314348   2.653   3.187  14.754  0.1966  0.2921 -0.1470
    2TMC3    C414349   2.573   3.407  14.605 -0.2350  0.0635  0.3388
    2TMC3    C514350   2.514   3.370  14.721 -0.5526  0.6606 -0.1024
    2TMC3    C614351   2.544   3.259  14.804 -0.6911 -0.1154 -0.0258
    2TMC3     C14352   2.786   3.359  14.495 -0.4592  0.1420 -0.3547
    2TMC3     O14353   2.893   3.317  14.533 -0.1178 -0.3109 -0.4415
    2TMC3     H14354   2.783   3.138  14.591 -1.6752  0.6554 -2.4118
    2TMC3    H114355   2.536   3.492  14.549  0.5625 -1.6583 -2.8488
    2TMC3    H214356   2.508   3.254  14.906 -0.2076 -0.0867  0.1473
    2TMC3    C714357   2.390   3.430  14.752  0.5083  0.5630 -0.6093
    2TMC3    C814358   2.740   3.149  14.853  0.1106  0.7083  0.2094
    2TMC3    O114359   2.314   3.366  14.824  0.2838  0.3925 -0.0611
    2TMC3    O214360   2.704   3.126  14.969  0.2180  0.1974 -0.0073
    3TCq1    O114361   2.035   4.610  14.715  0.1502  0.3703 -0.2466
    3TCq1    C114362   2.013   4.562  14.840  0.0101  0.5475 -0.4529
    3TCq1    O214363   1.901   4.545  14.875 -0.1801 -0.1007 -0.3141
    3TCq1    C214364   2.119   4.467  14.868 -0.2388  0.0229 -1.1516
    3TCq1    C314365   2.249   4.507  14.846  0.1599  0.6533  0.5629
    3TCq1    C414366   2.343   4.408  14.812  0.0387 -0.4393 -0.1981
    3TCq1    C514367   2.307   4.277  14.804  0.0901 -0.1157  0.1974
    3TCq1    C614368   2.172   4.242  14.827 -0.3410  0.5457 -0.4384
    3TCq1    C714369   2.084   4.336  14.871 -0.5370 -0.6756 -0.2443
    3TCq1    C814370   2.111   4.112  14.801  0.1408 -0.4865 -0.5000
    3TCq1    O414371   1.984   4.112  14.797  0.0041  0.0416 -0.0804
    3TCq1    C914372   2.477   4.445  14.777 -0.2411 -0.3000 -0.6354
    3TCq1    O514373   2.527   4.375  14.693 -0.2225 -0.1898  0.4386
    3TCq1    O614374   2.533   4.551  14.810 -0.5241  0.0474 -0.1546
    3TCq1    H114375   2.119   4.583  14.671 -0.3001  0.2258 -1.0208
    3TCq1    H214376   2.284   4.609  14.846  0.5357  0.5231 -1.1788
    3TCq1    H314377   2.383   4.204  14.777  1.2868  1.7997 -1.5628
    3TCq1    H414378   1.976   4.327  14.868 -0.6458  0.5421  0.1246
    4MPD2     C14379   2.065   3.818  14.792 -0.0371 -0.7170 -0.2828
    4MPD2    C114380   2.189   3.879  14.769  0.3611  1.0288 -0.3748
    4MPD2    C214381   2.294   3.789  14.749  0.2176  0.7451 -0.1641
    4MPD2    C314382   2.272   3.650  14.745  0.4254 -0.6073 -0.5028
    4MPD2    C414383   2.149   3.595  14.762  0.0498 -0.1478 -1.0196
    4MPD2    C514384   2.048   3.679  14.794 -0.3984  0.2165  0.0026
    4MPD2     H14385   2.395   3.829  14.739  1.2281 -2.3821 -2.4973
    4MPD2    H114386   2.127   3.490  14.744 -2.5747 -0.1127  1.9674
    4MPD2    H214387   1.975   3.879  14.795  0.2200 -0.2409 -2.1441
    4MPD2    H314388   1.948   3.636  14.797 -1.1461  2.0268  1.0983
    4MPD2     N14389   2.386   3.567  14.723 -0.6521 -0.2461 -0.2424
    4MPD2    H514390   2.476   3.611  14.709 -1.3424  1.2247 -0.0542
    4MPD2    N114391   2.209   4.017  14.772  0.0751  0.5167  0.4607
    4MPD2    H714392   2.303   4.044  14.747  0.3007 -2.1429 -1.5301
    5TMC2    C114393   3.440   3.448  14.677  0.0270 -0.1295 -0.8760
    5TMC2    C214394   3.445   3.530  14.783 -0.2683 -0.7173  0.2487
    5TMC2    C314395   3.462   3.661  14.751  0.6248  0.0679  0.4865
    5TMC2    C414396   3.453   3.497  14.550 -0.0302 -0.3644 -0.2745
    5TMC2    C514397   3.447   3.629  14.520  0.8766 -0.1925  0.0204
    5TMC2    C614398   3.455   3.715  14.622  0.5217  0.4301 -0.1068
    5TMC2     C14399   3.331   3.357  14.693  0.1011  0.8776 -0.2509
    5TMC2     O14400   3.256   3.350  14.599  0.3629  0.2225  0.0328
    5TMC2     H14401   3.434   3.498  14.886 -0.5707 -0.4450  0.3010
    5TMC2    H114402   3.433   3.424  14.472  3.7224 -0.8159 -0.8282
    5TMC2    H214403   3.452   3.820  14.597 -0.0977  0.5194  0.3680
    5TMC2    C714404   3.345   3.676  14.429 -0.2893  0.6938  0.7592
    5TMC2    C814405   3.430   3.734  14.868 -0.1180 -0.0705  1.0179
    5TMC2    O114406   3.345   3.793  14.384  0.1296 -0.4428  0.3809
    5TMC2    O214407   3.451   3.693  14.982  0.0431  0.0650  0.3316
    5TMC2    O514408   3.393   3.861  14.840 -0.0767  0.2901  0.2526
    5TMC2    H514409   3.342   3.861  14.757 -1.4395 -0.7146  1.0929
    6MPD2     C14410   3.005   3.126  15.007 -0.0383  0.9451  0.2908
    6MPD2    C114411   2.986   3.167  14.873 -0.3999  0.1513 -0.1308
    6MPD2    C214412   3.095   3.220  14.807  0.0102 -0.2692 -0.7647
    6MPD2    C314413   3.221   3.226  14.869  0.0119  0.0949  0.8037
    6MPD2    C414414   3.244   3.168  14.991  0.0162 -0.0559 -1.4234
    6MPD2    C514415   3.134   3.118  15.056  1.0798  0.4501  0.2951
    6MPD2     H14416   3.075   3.266  14.711  1.9440  0.0223 -1.0318
    6MPD2    H114417   3.343   3.168  15.033 -1.1526 -1.9512  1.3540
    6MPD2    H214418   2.925   3.094  15.073  0.4822 -1.6143 -0.3326
    6MPD2    H314419   3.150   3.063  15.148 -0.0813 -0.8448 -0.2959
    6MPD2     N14420   3.330   3.299  14.814 -0.0927  0.0182 -0.2302
    6MPD2    H514421   3.417   3.301  14.865 -0.4556  0.6773  0.3549
    6MPD2    N114422   2.861   3.192  14.808  0.4197 -0.2056  0.5922
    6MPD2    H714423   2.868   3.231  14.714  0.2451  1.8807  1.4325
  945NH4     N114424   2.600   1.148   8.273 -0.0862 -0.2877  0.6562
  945NH4     H214425   2.505   1.153   8.230  1.0620  1.4265 -1.6788
  945NH4     H314426   2.663   1.090   8.213  1.9843  0.2700  2.2833
  945NH4     H414427   2.585   1.086   8.355 -1.6522  0.3684  0.8635
  945NH4     H514428   2.650   1.237   8.291 -1.9809  0.8208  0.4471
  946SOD     NA14429   3.643   2.557   0.236  0.4704  0.4975  0.1020
  947SOD     NA14430   1.120   2.137  16.287 -0.3297 -0.0846  0.1771
  948SOD     NA14431   0.715   2.394   0.934 -0.1557  0.1513 -0.1675
  949SOD     NA14432   4.260   2.395  14.526  0.2354 -0.1567  0.0763
  950SOD     NA14433   3.724   4.024  16.466 -0.1541  0.0260 -0.4451
  951SOD     NA14434   1.816   0.509   9.502 -0.1918 -0.2581  0.2840
  952SOD     NA14435   2.253   1.484   9.535  0.2779  0.5756 -0.2273
  953SOD     NA14436   1.453   1.108  12.935 -0.5022  0.1090  0.3013
  954SOD     NA14437   3.056   0.649  10.973 -0.2812 -0.5249 -0.0952
  955SOD     NA14438   3.071   3.233  11.245 -0.2853  0.5211 -0.0999
  956SOD     NA14439   3.386   1.631  12.897 -0.2077 -0.6595  0.2710
  957SOD     NA14440   0.413   2.072  11.498  0.1775  0.2110  0.1342
  958SOD     NA14441   0.105   3.626  12.528 -0.3614  0.0122 -0.0674
  959SOD     NA14442   1.893   1.475   9.439 -0.0363  0.3711 -0.1684
  960SOD     NA14443   2.942   2.554  11.510 -0.3647  0.1110  0.0495
  961SOD     NA14444   0.294   3.307   2.069  0.0194 -0.3578 -0.4448
  962SOD     NA14445   2.635   2.161   9.824  0.7781 -0.1136 -0.0330
  963SOD     NA14446   4.288   2.626   0.305  0.0567  0.1533  0.2220
  964SOD     NA14447   1.052   2.297  17.645  0.0178  0.0077  0.0699
  965SOD     NA14448   3.035   2.822   1.357  0.2391  0.2073 -0.1784
  966SOD     NA14449   3.153   3.908   3.303 -0.2557 -0.1935 -0.2871
  967SOD     NA14450   1.319   2.658  10.151 -0.5081  0.0877  0.0378
  968SOD     NA14451   2.777   2.874  10.864 -0.1936  0.0526  0.0587
  969SOD     NA14452   0.815   3.843  11.346 -0.2052  0.1648 -0.2413
  970SOD     NA14453   3.506   4.239   5.178 -0.1154 -0.0991 -0.1640
  971SOD     NA14454   1.762   1.785  10.565  0.0252  0.1841 -0.8010
  972SOD     NA14455   3.875   0.907  15.519  0.0248 -0.1729  0.4411
  973SOD     NA14456   4.213   4.241  11.894  0.7594  0.2426  0.0302
  974SOD     NA14457   3.076   3.362   8.607  0.3383 -0.1398 -0.0079
  975SOD     NA14458   3.105   4.069  12.394 -0.1495 -0.0600 -0.1942
  976SOD     NA14459   4.590   2.766  14.987 -0.3408 -0.0706 -0.3046
  977SOD     NA14460   0.053   2.554  14.803 -0.2051 -0.9764  0.0079
  978SOD     NA14461   3.805   2.400  10.058 -0.6081  0.3050  0.5531
  979SOD     NA14462   2.599   4.628   3.475 -0.2126 -0.0187  0.0056
  980SOD     NA14463   0.169   0.940  12.751  0.1744 -0.1141 -0.0033
  981SOD     NA14464   3.466   1.641   0.459 -0.2448 -0.3898 -0.6354
  982SOD     NA14465   4.406   2.515  14.811 -0.2444  0.6781  0.1028
  983SOD     NA14466   3.732   2.388  14.081  0.3610  0.3880 -0.2174
  984SOD     NA14467   0.341   2.909  17.097  0.2395 -0.7480  0.3383
  985SOD     NA14468   2.082   3.208   1.967  0.0909 -0.0023  0.3588
  986SOD     NA14469   0.977   2.593  13.587  0.0765 -0.1552  0.5019
  987SOD     NA14470   4.014   0.432  14.028  0.1512  0.2814  0.2961
  988SOD     NA14471   0.252   2.405  15.075  0.2493 -0.4629  0.6776
  989SOD     NA14472   4.337   4.670   1.552 -0.2194 -0.0038  0.6309
  990SOD     NA14473   3.298   0.695   8.269  0.0073  0.4035 -0.2907
  991SOD     NA14474   3.696   3.959  11.161 -0.4858 -0.0835  0.0004
  992SOD     NA14475   1.647   2.254  12.997  0.3949 -0.7373  0.3928
  993SOD     NA14476   3.881   2.731  13.983  0.0849 -0.0363 -0.0635
  994SOD     NA14477   2.759   4.604  14.852 -0.0288  0.2704  0.3414
  995SOD     NA14478   1.693   1.845   8.128 -0.6278  0.0555  0.0142
  996SOD     NA14479   2.111   1.760  15.353  0.3536 -0.0904 -0.9675
  997SOD     NA14480   0.502   1.015   1.497 -0.2667 -0.1834 -0.3729
  998SOD     NA14481   2.250   2.989  10.524 -0.1975 -0.1194 -0.2676
  999SOD     NA14482   2.953   2.000   9.833  0.0905  0.3329  0.0357
 1000SOD     NA14483   3.085   0.801  11.287  0.6158  0.1418  0.0202
 1001SOD     NA14484   1.736   3.977  16.349 -0.7151 -0.2555 -0.3604
 1002SOD     NA14485   4.356   1.325   0.961 -0.0813  0.0959 -0.0110
 1003SOD     NA14486   2.597   3.978   4.049  0.1377  0.1500 -0.3195
 1004SOD     NA14487   2.068   2.166  12.638 -0.2698 -0.3370 -0.7852
 1005SOD     NA14488   0.343   3.251   3.650  0.2997 -0.6691  0.2183
 1006SOD     NA14489   0.192   2.914  15.719  0.4081  0.1652  0.0115
 1007SOD     NA14490   2.470   4.075  10.341 -0.0098  0.5482 -0.1434
 1008SOD     NA14491   4.489   1.284   0.643  0.2939  0.0605  0.2126
 1009SOD     NA14492   4.611   3.148  11.260  0.1508 -0.4808 -0.7042
 1010SOD     NA14493   2.035   3.078   8.985 -0.4927  0.1308 -0.3598
 1011SOL     OW14494   3.811   1.119   9.127  0.3218  0.3748  0.5882
 1011SOL    HW114495   3.876   1.064   9.084 -1.9905 -1.1872 -0.9432
 1011SOL    HW214496   3.781   1.178   9.057 -0.9828  1.2556  1.8851
 1012SOL     OW14497   1.423   1.576  14.189 -0.7085  0.0987  0.5250
 1012SOL    HW114498   1.471   1.638  14.243 -0.7879 -1.1060  1.9775
 1012SOL    HW214499   1.370   1.526  14.251  0.5781 -0.7869  0.9144
 1013SOL     OW14500   2.242   0.226   3.894  0.3290 -0.4944 -0.4624
 1013SOL    HW114501   2.229   0.312   3.934 -1.5179 -0.8343 -0.3621
 1013SOL    HW214502   2.150   0.203   3.889  0.3627 -0.6270 -0.4643
 1014SOL     OW14503   2.193   0.387   4.751 -0.1128 -0.1101 -0.2325
 1014SOL    HW114504   2.119   0.340   4.789 -0.1721  0.2072  0.0442
 1014SOL    HW214505   2.250   0.387   4.828 -0.4046 -1.4218 -0.0144
 1015SOL     OW14506   1.350   2.366   1.636 -0.4189  0.4331 -0.0874
 1015SOL    HW114507   1.283   2.341   1.699 -0.4505  1.3009  0.2315
 1015SOL    HW214508   1.346   2.462   1.638  1.5638  0.5280 -0.5384
 1016SOL     OW14509   0.205   4.423  11.085 -0.2699 -0.3948 -0.3315
 1016SOL    HW114510   0.175   4.512  11.069 -0.8698 -0.5472 -0.0478
 1016SOL    HW214511   0.195   4.417  11.180 -0.2869 -1.5804 -0.4082
 1017SOL     OW14512   1.177   3.212   0.608  0.0748 -0.1033  0.2593
 1017SOL    HW114513   1.170   3.306   0.593  1.2293  0.3012  2.2591
 1017SOL    HW214514   1.214   3.210   0.697 -2.7189  1.1216  1.4575
 1018SOL     OW14515   2.731   1.513   3.172  0.0555  0.6321 -0.0292
 1018SOL    HW114516   2.648   1.558   3.160  0.8742  2.1178 -0.2108
 1018SOL    HW214517   2.772   1.520   3.086 -4.1471  0.6970 -1.9845
 1019SOL     OW14518   1.994   1.221   7.348 -0.3012  0.2822 -0.0625
 1019SOL    HW114519   2.028   1.206   7.436 -1.7678  0.2733  0.4931
 1019SOL    HW214520   2.020   1.314   7.346  2.8925 -0.5900  1.1253
 1020SOL     OW14521   1.001   3.847   8.999 -0.1157  0.2523  0.1243
 1020SOL    HW114522   1.066   3.825   8.932 -0.8270  1.3595 -0.9437
 1020SOL    HW214523   1.019   3.769   9.051 -1.7164 -0.2545 -0.1042
 1021SOL     OW14524   3.276   0.713  10.960 -0.2280 -0.2807  0.3952
 1021SOL    HW114525   3.332   0.651  10.913 -0.3251 -0.4286  0.4748
 1021SOL    HW214526   3.289   0.779  10.892  1.3006  0.2578  1.2087
 1022SOL     OW14527   1.990   2.658   2.600  0.1735  0.5496 -0.1115
 1022SOL    HW114528   1.970   2.626   2.688  1.2718 -0.8990 -0.3750
 1022SOL    HW214529   1.954   2.746   2.607 -0.1523  0.2253  2.2266
 1023SOL     OW14530   1.482   2.368   7.086 -0.3651  0.2549  0.1877
 1023SOL    HW114531   1.485   2.293   7.146  0.9033  1.8068  2.0304
 1023SOL    HW214532   1.499   2.435   7.152 -1.7653  1.5619 -0.7636
 1024SOL     OW14533   1.445   0.402   2.906 -0.4026 -0.1736 -0.4333
 1024SOL    HW114534   1.541   0.406   2.905 -0.5042  2.3431 -1.5654
 1024SOL    HW214535   1.416   0.477   2.959  0.6233  0.2774 -0.5037
 1025SOL     OW14536   2.358   4.240   9.699 -0.3878 -0.2027 -0.2884
 1025SOL    HW114537   2.387   4.244   9.791 -0.1192  1.0061 -0.4323
 1025SOL    HW214538   2.271   4.203   9.713  0.0395 -1.8880 -2.1253
 1026SOL     OW14539   1.968   0.132  10.998 -0.6510 -0.0634  0.2167
 1026SOL    HW114540   1.952   0.176  10.914  0.6439 -0.5487 -0.2893
 1026SOL    HW214541   2.051   0.170  11.026 -0.4927 -0.3760  0.1719
 1027SOL     OW14542   0.565   0.577  17.379 -0.3150  0.0467 -0.0916
 1027SOL    HW114543   0.621   0.637  17.331  0.1996 -0.1018  0.3213
 1027SOL    HW214544   0.572   0.615  17.467  1.4400  0.5168 -0.4417
 1028SOL     OW14545   2.581   1.157   0.757 -0.4772  0.3894 -0.4731
 1028SOL    HW114546   2.533   1.099   0.816  1.8485  0.4114  1.4485
 1028SOL    HW214547   2.532   1.141   0.676  0.2375 -0.5590 -0.7039
 1029SOL     OW14548   0.696   3.229  12.181  0.2320 -0.1524 -0.2689
 1029SOL    HW114549   0.719   3.166  12.248 -0.1645  0.6764  0.6452
 1029SOL    HW214550   0.780   3.233  12.135  1.3827  0.1319  1.8616
 1030SOL     OW14551   0.530   1.219   6.262  0.1664 -0.2111 -0.9746
 1030SOL    HW114552   0.598   1.274   6.224  0.0956 -0.2989 -1.2275
 1030SOL    HW214553   0.528   1.144   6.203  1.2587 -0.1021 -1.1480
 1031SOL     OW14554   0.957   3.101   5.239  0.0410 -0.7273 -0.1862
 1031SOL    HW114555   1.017   3.086   5.313  2.3183 -1.6884 -2.2220
 1031SOL    HW214556   0.993   3.042   5.172 -1.2269  0.3217 -1.7758
 1032SOL     OW14557   1.471   1.588   5.341 -0.2775  0.0858 -0.2060
 1032SOL    HW114558   1.469   1.520   5.274  0.8712 -1.7703  1.6611
 1032SOL    HW214559   1.508   1.542   5.417 -2.7386 -0.3917  0.6984
 1033SOL     OW14560   2.540   0.337   5.959 -0.7234 -0.3818 -0.1436
 1033SOL    HW114561   2.611   0.326   6.023 -1.5912  0.5155  0.9906
 1033SOL    HW214562   2.493   0.414   5.991 -0.2184 -0.7660  1.5486
 1034SOL     OW14563   1.509   3.003  15.825  0.6630 -0.5265  0.8491
 1034SOL    HW114564   1.548   2.946  15.759  1.1276 -1.4882  1.9425
 1034SOL    HW214565   1.576   3.072  15.826 -0.0839  0.2007  0.9086
 1035SOL     OW14566   4.014   2.349   8.634  0.0526 -0.2853  0.6737
 1035SOL    HW114567   3.985   2.287   8.567 -0.5502 -0.1762  0.8255
 1035SOL    HW214568   3.976   2.430   8.599 -0.4553 -2.1454 -3.0648
 1036SOL     OW14569   0.215   1.456   1.023  0.1339 -0.1622  0.0477
 1036SOL    HW114570   0.132   1.473   0.978 -0.1575  0.7992  0.9630
 1036SOL    HW214571   0.260   1.539   1.011 -2.5372  0.9796 -1.9869
 1037SOL     OW14572   1.327   2.573   0.194 -0.6769 -0.1875 -0.1060
 1037SOL    HW114573   1.305   2.664   0.214  3.2042  0.9008 -0.6945
 1037SOL    HW214574   1.323   2.578   0.098  1.1491  2.9762 -0.0229
 1038SOL     OW14575   4.319   2.571   5.933  0.6487 -0.2153  0.5009
 1038SOL    HW114576   4.389   2.522   5.891  1.5202  2.2986 -0.9457
 1038SOL    HW214577   4.292   2.515   6.005 -1.1083 -0.3845 -0.2662
 1039SOL     OW14578   4.340   1.773   9.923 -0.1519 -0.1439  0.2184
 1039SOL    HW114579   4.251   1.794   9.897 -0.2792  1.6242  2.0815
 1039SOL    HW214580   4.324   1.713   9.997 -1.1127  0.1608  0.2471
 1040SOL     OW14581   0.094   3.734  17.557 -0.3319  0.3411 -1.1302
 1040SOL    HW114582   0.013   3.743  17.607  0.5287 -0.3029  0.3561
 1040SOL    HW214583   0.055   3.729  17.469 -1.2084  0.7446 -0.7651
 1041SOL     OW14584   0.678   0.822   6.495  0.3306  0.1173 -0.1244
 1041SOL    HW114585   0.708   0.773   6.417  1.8001  0.8572 -0.0259
 1041SOL    HW214586   0.644   0.748   6.546 -1.7689  0.4347 -1.0697
 1042SOL     OW14587   4.610   1.454  16.135 -0.0629  0.1349 -0.1612
 1042SOL    HW114588   4.657   1.429  16.215  1.8569 -0.0524 -1.3491
 1042SOL    HW214589   4.672   1.425  16.068 -1.5883 -2.1644 -0.5786
 1043SOL     OW14590   4.710   4.356   4.802 -0.3913 -0.0261  0.4266
 1043SOL    HW114591   4.662   4.337   4.722 -0.9522  0.6009  0.6118
 1043SOL    HW214592   4.675   4.444   4.817  3.1475  1.2906  0.8751
 1044SOL     OW14593   4.010   3.894  14.402 -0.3206  0.0581 -0.1656
 1044SOL    HW114594   3.972   3.856  14.482 -1.5460  2.6334  0.4751
 1044SOL    HW214595   3.969   3.846  14.330  0.2258 -0.8674  0.1320
 1045SOL     OW14596   2.652   0.514   5.060 -0.2007  0.2099 -0.1170
 1045SOL    HW114597   2.594   0.473   5.124  1.2267 -0.4712  0.7416
 1045SOL    HW214598   2.712   0.570   5.110 -0.7421  0.7852 -0.1216
 1046SOL     OW14599   2.898   2.317   1.671  0.2621  0.2231 -0.5799
 1046SOL    HW114600   2.993   2.321   1.660  0.4517 -1.4368  0.4537
 1046SOL    HW214601   2.882   2.404   1.709 -0.8431  0.1199 -0.7968
 1047SOL     OW14602   2.960   0.559   9.399 -0.0464  0.0866 -0.4929
 1047SOL    HW114603   3.026   0.626   9.379  0.8729 -0.8409 -0.5462
 1047SOL    HW214604   2.894   0.608   9.351 -0.9701  1.0187  1.7210
 1048SOL     OW14605   1.004   2.700  14.163  0.4748  0.0409  0.4760
 1048SOL    HW114606   1.039   2.730  14.247  1.1255 -1.5517  0.7844
 1048SOL    HW214607   1.080   2.648  14.136 -0.3637 -0.3710 -1.0954
 1049SOL     OW14608   1.068   3.247   4.956 -0.1665  0.0145 -0.1219
 1049SOL    HW114609   0.976   3.219   4.955 -0.2398  0.3029 -1.8946
 1049SOL    HW214610   1.067   3.320   5.019 -0.5142  0.4869 -0.6749
 1050SOL     OW14611   1.691   3.759   6.955  0.1336 -0.6449  0.0320
 1050SOL    HW114612   1.619   3.808   6.915  0.3174  0.1850  0.7077
 1050SOL    HW214613   1.645   3.710   7.023 -1.3856  1.9215  0.8462
 1051SOL     OW14614   0.255   1.617   2.572  0.0340  0.1009 -0.1536
 1051SOL    HW114615   0.233   1.599   2.480 -1.8193  1.0529  0.1225
 1051SOL    HW214616   0.184   1.672   2.606 -0.0216 -0.5961  0.8636
 1052SOL     OW14617   1.375   4.112  11.254  0.4149  0.3478 -0.4232
 1052SOL    HW114618   1.460   4.074  11.230  1.1960  1.4905  0.5881
 1052SOL    HW214619   1.385   4.126  11.348  0.9773 -0.3744 -0.3753
 1053SOL     OW14620   3.469   2.767   8.556  0.1006  0.6800 -0.3054
 1053SOL    HW114621   3.494   2.823   8.629 -1.6710  1.4962 -0.3183
 1053SOL    HW214622   3.419   2.702   8.605  1.7797 -1.7156 -1.7667
 1054SOL     OW14623   4.056   0.474   1.929 -0.1945 -0.4910 -0.6049
 1054SOL    HW114624   4.115   0.541   1.897  0.7434 -0.6867  0.6962
 1054SOL    HW214625   3.970   0.515   1.940 -0.5942 -1.2457 -0.8953
 1055SOL     OW14626   2.720   4.010   7.814 -0.3898  0.4133  0.0771
 1055SOL    HW114627   2.787   3.954   7.776 -3.2228 -1.7406 -1.7233
 1055SOL    HW214628   2.770   4.092   7.821 -0.9216  0.8135 -0.8518
 1056SOL     OW14629   3.364   3.399   6.350  0.5907 -0.1695 -0.0570
 1056SOL    HW114630   3.387   3.397   6.257 -3.3441 -1.3228 -0.9775
 1056SOL    HW214631   3.269   3.395   6.349  0.6177 -0.3496 -1.0725
 1057SOL     OW14632   4.289   2.164   4.716 -0.3890 -0.0742  0.0192
 1057SOL    HW114633   4.319   2.200   4.799  0.7043  2.4401 -1.4830
 1057SOL    HW214634   4.366   2.141   4.664 -0.6241 -0.7601 -0.0257
 1058SOL     OW14635   4.418   0.403   1.139  0.3636  0.6983  0.2054
 1058SOL    HW114636   4.494   0.409   1.198  0.7839 -0.0647 -0.2525
 1058SOL    HW214637   4.350   0.378   1.202 -1.2726  0.4924 -1.6504
 1059SOL     OW14638   0.229   3.409   7.882  0.2717 -0.0279  0.2353
 1059SOL    HW114639   0.153   3.352   7.868  0.8495 -0.4995 -0.9640
 1059SOL    HW214640   0.241   3.406   7.977  0.2998  2.0911  0.2992
 1060SOL     OW14641   0.826   0.942   6.030  0.5594 -0.2842  0.6199
 1060SOL    HW114642   0.830   0.857   5.986  1.9190 -0.8103  1.7334
 1060SOL    HW214643   0.734   0.934   6.054  0.4605  0.0398  0.3403
 1061SOL     OW14644   2.834   1.644   7.555 -0.0148 -0.2146 -0.4496
 1061SOL    HW114645   2.892   1.687   7.492 -0.1177  1.1850  0.4259
 1061SOL    HW214646   2.768   1.708   7.581 -1.1672 -0.5882 -2.4231
 1062SOL     OW14647   2.242   2.632   4.613 -0.1258  0.1380 -0.5257
 1062SOL    HW114648   2.319   2.600   4.661 -0.7726 -0.0495  0.3788
 1062SOL    HW214649   2.215   2.550   4.571  1.3343 -0.9041  0.5679
 1063SOL     OW14650   0.249   3.078   5.284  0.1926 -0.5552  0.1622
 1063SOL    HW114651   0.288   3.149   5.335 -0.5121 -1.1883  1.5805
 1063SOL    HW214652   0.333   3.043   5.254 -0.7309 -0.9995 -1.8989
 1064SOL     OW14653   2.680   4.242   4.324  0.5819  0.7031  0.1881
 1064SOL    HW114654   2.694   4.281   4.238  0.7722  1.0171  0.3625
 1064SOL    HW214655   2.610   4.301   4.349 -0.6714  0.3033 -2.3219
 1065SOL     OW14656   3.871   3.010   4.660  0.5511  0.5637  0.4309
 1065SOL    HW114657   3.852   2.947   4.590 -0.1282 -0.0902  1.2091
 1065SOL    HW214658   3.947   2.992   4.715  3.0422  2.7646 -2.1969
 1066SOL     OW14659   0.776   2.503   0.299  0.0177 -0.2026 -0.4182
 1066SOL    HW114660   0.752   2.519   0.207 -1.7221  2.0344  0.4455
 1066SOL    HW214661   0.749   2.586   0.338  0.3853  1.2301 -3.1472
 1067SOL     OW14662   4.531   0.539  16.328  0.0599  0.1138  0.0985
 1067SOL    HW114663   4.622   0.516  16.310 -0.1425 -1.3241  0.8828
 1067SOL    HW214664   4.540   0.624  16.371  1.8329  0.4007 -0.8372
 1068SOL     OW14665   2.943   3.105   5.242  0.1925  0.4069 -0.0399
 1068SOL    HW114666   2.864   3.054   5.260  0.1180 -0.6784 -3.5849
 1068SOL    HW214667   2.898   3.177   5.199  1.6769  0.5590 -1.3259
 1069SOL     OW14668   2.164   1.498  13.375 -0.2151 -0.3120 -0.7960
 1069SOL    HW114669   2.223   1.570  13.395 -0.1194 -0.8152  0.6841
 1069SOL    HW214670   2.085   1.536  13.412 -0.5709 -1.2834 -0.5595
 1070SOL     OW14671   1.681   4.509   2.094  0.2240  0.3833 -0.2740
 1070SOL    HW114672   1.628   4.429   2.101  1.1865 -0.2493 -0.2082
 1070SOL    HW214673   1.693   4.523   2.000  0.4142  1.0682 -0.1419
 1071SOL     OW14674   4.574   0.232   1.964 -0.2144 -0.7302  0.1677
 1071SOL    HW114675   4.610   0.146   1.983 -1.0996 -0.8664  1.2376
 1071SOL    HW214676   4.485   0.206   1.941  0.0892 -2.0315  0.4948
 1072SOL     OW14677   2.934   1.962  11.785  0.5819 -0.0274 -0.9485
 1072SOL    HW114678   2.998   1.976  11.855 -1.1135 -0.3773  0.6704
 1072SOL    HW214679   2.933   1.867  11.789  0.7071  0.1829  4.8348
 1073SOL     OW14680   1.783   1.085  12.147  0.3012  0.3440 -0.0471
 1073SOL    HW114681   1.706   1.133  12.179  1.8347  2.7823  0.0305
 1073SOL    HW214682   1.816   1.155  12.091  1.1793 -0.8230 -0.9670
 1074SOL     OW14683   3.709   2.795   2.677  0.2453  0.0784 -0.0191
 1074SOL    HW114684   3.765   2.719   2.660  0.3677 -0.0006  0.7316
 1074SOL    HW214685   3.764   2.867   2.645  0.2765 -1.0199 -2.4077
 1075SOL     OW14686   1.132   1.006   4.124 -0.7147 -0.7407  0.3651
 1075SOL    HW114687   1.059   1.066   4.114 -0.8421 -0.6728  1.6308
 1075SOL    HW214688   1.088   0.921   4.135 -0.0378 -1.2212 -0.6291
 1076SOL     OW14689   1.106   0.372   3.224  0.1199 -0.4471 -0.2337
 1076SOL    HW114690   1.017   0.403   3.241  0.2423 -0.2136 -0.0184
 1076SOL    HW214691   1.151   0.457   3.224 -1.0097  0.1498  1.8901
 1077SOL     OW14692   2.985   3.150   9.646  0.5981 -0.3297 -0.5009
 1077SOL    HW114693   2.974   3.221   9.709  0.6243 -0.0229 -0.8446
 1077SOL    HW214694   2.970   3.203   9.568 -3.0820  0.3916  0.6872
 1078SOL     OW14695   4.636   2.064   5.722 -0.0496  0.5430  0.0322
 1078SOL    HW114696   4.644   2.061   5.817 -1.5392 -0.0676  0.1352
 1078SOL    HW214697   4.558   2.011   5.702  0.6896 -0.2786 -0.6862
 1079SOL     OW14698   1.600   3.354   3.815  0.3789 -0.4827  0.0729
 1079SOL    HW114699   1.568   3.264   3.819  0.1454 -0.4646 -1.5062
 1079SOL    HW214700   1.664   3.342   3.886 -1.1906  0.1946  1.6027
 1080SOL     OW14701   2.235   0.861  16.496 -0.1538  0.1655  0.3714
 1080SOL    HW114702   2.250   0.801  16.570 -0.5528  1.7051  1.7066
 1080SOL    HW214703   2.215   0.793  16.432  1.5170  0.2743 -0.2559
 1081SOL     OW14704   1.440   2.177   2.594  0.0437  0.0871 -0.2783
 1081SOL    HW114705   1.523   2.129   2.600  0.8640  1.3774 -1.4081
 1081SOL    HW214706   1.438   2.192   2.499 -0.3111  1.8325  0.0087
 1082SOL     OW14707   2.116   1.097  16.599  0.4996 -0.1794 -0.1411
 1082SOL    HW114708   2.168   1.027  16.559 -2.3603 -2.0329 -0.5824
 1082SOL    HW214709   2.078   1.059  16.678 -0.4236 -1.6628 -1.3061
 1083SOL     OW14710   0.051   4.511   7.308 -0.6121 -0.3676  0.0691
 1083SOL    HW114711   0.039   4.440   7.244 -1.9965 -0.1159  0.0560
 1083SOL    HW214712   0.076   4.472   7.392 -0.2110 -2.6078 -1.0782
 1084SOL     OW14713   2.045   0.623   8.985  0.4969  0.2204  0.3948
 1084SOL    HW114714   1.959   0.665   8.980  0.3379 -0.1148  0.3030
 1084SOL    HW214715   2.071   0.618   8.893 -0.0091 -0.1198  0.2757
 1085SOL     OW14716   1.055   4.344  10.739  0.4240  0.2245 -0.0569
 1085SOL    HW114717   1.117   4.417  10.740  1.1856 -0.4238  1.0233
 1085SOL    HW214718   1.040   4.325  10.647 -1.9160 -0.7867  0.5359
 1086SOL     OW14719   0.445   3.053   9.109 -0.0600  0.3444  0.4684
 1086SOL    HW114720   0.357   3.070   9.076 -0.0907 -2.3394 -0.8460
 1086SOL    HW214721   0.424   2.982   9.171  0.4344 -0.6461 -0.5088
 1087SOL     OW14722   0.151   3.391   5.533  0.8025 -0.4393 -0.0458
 1087SOL    HW114723   0.071   3.351   5.499  1.4283 -0.4832 -1.4503
 1087SOL    HW214724   0.229   3.339   5.514  1.8285  1.4210 -0.8840
 1088SOL     OW14725   2.243   2.059   0.587  1.1530  0.1381  0.1817
 1088SOL    HW114726   2.241   2.147   0.549 -0.9008 -0.3379 -0.8243
 1088SOL    HW214727   2.218   2.077   0.677  2.4893  2.3665  0.0919
 1089SOL     OW14728   1.106   2.810   3.335  0.0821 -0.3396 -0.1071
 1089SOL    HW114729   1.156   2.837   3.258  1.2068 -2.5896 -0.1369
 1089SOL    HW214730   1.033   2.871   3.322 -0.4148 -0.8310  0.3790
 1090SOL     OW14731   0.461   1.530   6.219  0.1027  0.2657 -0.0420
 1090SOL    HW114732   0.498   1.496   6.301 -0.9130 -2.4852 -0.7584
 1090SOL    HW214733   0.377   1.485   6.216  1.4347 -2.2573  0.2959
 1091SOL     OW14734   1.785   3.877   0.413 -0.5341 -0.0962 -0.4167
 1091SOL    HW114735   1.804   3.804   0.353  2.0622 -0.5752  0.9888
 1091SOL    HW214736   1.807   3.835   0.496  0.3884  0.9678 -0.1188
 1092SOL     OW14737   1.642   2.848   8.421 -0.4918 -0.3997  0.0728
 1092SOL    HW114738   1.637   2.819   8.512  1.2857  0.3026  0.3839
 1092SOL    HW214739   1.558   2.893   8.412  0.4403  1.3387  0.1223
 1093SOL     OW14740   1.927   1.797   8.194  0.1557  0.8713 -0.3517
 1093SOL    HW114741   1.975   1.865   8.240  0.4749  0.5235 -0.1688
 1093SOL    HW214742   1.944   1.727   8.257 -0.0331 -0.3711 -1.6699
 1094SOL     OW14743   3.121   3.129   1.677  0.0393  0.5729 -0.8252
 1094SOL    HW114744   3.029   3.105   1.670  0.0159 -0.9359  4.9741
 1094SOL    HW214745   3.159   3.041   1.669 -1.2676 -0.1927  1.6194
 1095SOL     OW14746   2.429   0.238  10.051 -0.2039 -0.1017 -0.0959
 1095SOL    HW114747   2.474   0.212  10.131  2.3028 -0.0885 -1.4741
 1095SOL    HW214748   2.504   0.247   9.991  1.3052 -1.3298  1.6223
 1096SOL     OW14749   3.869   1.101  15.377 -0.6015 -0.2318 -0.1277
 1096SOL    HW114750   3.832   1.168  15.319 -0.0939 -0.3995 -0.6412
 1096SOL    HW214751   3.959   1.099  15.346 -0.8512 -2.7676 -0.6311
 1097SOL     OW14752   3.635   3.819   8.128  0.2285 -0.4833  0.1573
 1097SOL    HW114753   3.577   3.820   8.204 -2.6138  0.9129 -2.0412
 1097SOL    HW214754   3.590   3.878   8.068  0.2095 -1.4646 -0.7816
 1098SOL     OW14755   3.027   0.278   8.608  0.0815  0.0785  0.0225
 1098SOL    HW114756   3.045   0.254   8.699 -1.9248 -0.3312  0.3123
 1098SOL    HW214757   2.980   0.359   8.627 -0.2280 -0.3985  1.2737
 1099SOL     OW14758   3.115   1.279   1.508 -0.8244 -0.1256  0.7790
 1099SOL    HW114759   3.064   1.320   1.438  1.1842  1.4386  0.2442
 1099SOL    HW214760   3.057   1.293   1.583 -0.9578 -2.4468  1.0885
 1100SOL     OW14761   3.202   0.256   2.293  0.2310  0.2485  0.1881
 1100SOL    HW114762   3.155   0.272   2.211 -0.0912 -0.3623  0.2536
 1100SOL    HW214763   3.147   0.304   2.354  0.0610  0.8260 -0.4134
 1101SOL     OW14764   4.506   1.720   6.155 -0.2465  0.2018 -0.6996
 1101SOL    HW114765   4.465   1.749   6.237 -0.1291 -1.2692 -0.1279
 1101SOL    HW214766   4.481   1.628   6.153  0.0464  0.0456  1.9386
 1102SOL     OW14767   1.185   0.702  11.776 -0.6645 -0.0827  0.6758
 1102SOL    HW114768   1.224   0.777  11.733 -2.6751  0.6736  0.1374
 1102SOL    HW214769   1.102   0.741  11.805  0.3030  2.7870 -0.4646
 1103SOL     OW14770   1.820   2.923   8.991  0.0818  0.0537  0.4480
 1103SOL    HW114771   1.807   2.840   8.947 -0.9003  0.3618  0.1475
 1103SOL    HW214772   1.765   2.981   8.938 -0.7092 -2.7868 -1.8320
 1104SOL     OW14773   2.378   2.192   0.130  0.0497  0.5738  0.3757
 1104SOL    HW114774   2.362   2.196   0.035 -0.2372  0.9628  0.4406
 1104SOL    HW214775   2.445   2.260   0.138 -0.0574  0.6884  0.3136
 1105SOL     OW14776   4.577   2.208   9.245  0.5690  0.4903  0.4275
 1105SOL    HW114777   4.516   2.186   9.315 -0.5714  2.4190  0.0263
 1105SOL    HW214778   4.517   2.225   9.173  2.1632 -0.4887 -1.1417
 1106SOL     OW14779   2.990   3.045   6.689 -0.4241 -0.0467  0.1138
 1106SOL    HW114780   3.062   3.056   6.752 -1.7242 -0.9641  1.7512
 1106SOL    HW214781   2.931   2.991   6.741  1.3084 -1.1288  0.9771
 1107SOL     OW14782   3.867   2.088   8.839  0.1397  0.1006  0.4709
 1107SOL    HW114783   3.902   2.027   8.773 -1.4020  0.3378 -0.5597
 1107SOL    HW214784   3.808   2.025   8.880 -0.0614 -1.3230 -1.9909
 1108SOL     OW14785   2.026   0.894  11.779  0.0023 -0.3082  0.0575
 1108SOL    HW114786   2.095   0.904  11.714  0.8688  0.0990  1.0340
 1108SOL    HW214787   1.951   0.936  11.737 -0.0191 -1.0300 -0.6270
 1109SOL     OW14788   1.344   4.707   6.053  0.5987 -0.4425 -0.3212
 1109SOL    HW114789   1.339   4.636   6.117 -0.5343  0.2754  0.3883
 1109SOL    HW214790   1.262   4.684   6.008  0.3252 -0.2969  0.0933
 1110SOL     OW14791   1.674   2.178  11.608  0.5432 -0.1509  0.3453
 1110SOL    HW114792   1.729   2.141  11.677 -0.1778 -0.9583  0.4749
 1110SOL    HW214793   1.602   2.118  11.593  0.1958  1.1830 -3.3581
 1111SOL     OW14794   2.149   0.766   7.997 -0.2981 -0.0624 -0.6668
 1111SOL    HW114795   2.205   0.691   7.976  2.8508  2.4240 -1.0624
 1111SOL    HW214796   2.060   0.735   7.978 -0.0988 -2.2545  1.8445
 1112SOL     OW14797   4.094   3.798  11.732  0.5527  0.1356  0.2056
 1112SOL    HW114798   4.113   3.714  11.774  4.3837  0.0592 -1.6966
 1112SOL    HW214799   4.063   3.762  11.649  1.4788  0.9463 -0.4914
 1113SOL     OW14800   3.447   4.043  10.370 -0.3348  0.5913 -0.3121
 1113SOL    HW114801   3.422   4.020  10.460  1.2642  1.8781  0.4816
 1113SOL    HW214802   3.541   4.055  10.385  0.0113 -3.2909  0.8151
 1114SOL     OW14803   1.267   1.940   6.831  0.0726 -0.2387  0.1730
 1114SOL    HW114804   1.204   1.874   6.801  1.0012 -0.3173 -1.6476
 1114SOL    HW214805   1.346   1.888   6.844  0.7155  0.7959  0.3921
 1115SOL     OW14806   3.308   3.883   5.009  0.0469 -0.4369  0.3529
 1115SOL    HW114807   3.309   3.977   5.022 -0.1495 -0.3373 -0.3331
 1115SOL    HW214808   3.296   3.847   5.097  0.9192 -3.1517 -0.6419
 1116SOL     OW14809   2.153   3.453   7.162 -0.0366  0.0071  0.3974
 1116SOL    HW114810   2.245   3.434   7.143  0.7031  3.2625  0.6698
 1116SOL    HW214811   2.136   3.384   7.226 -0.5082 -0.6956 -0.4822
 1117SOL     OW14812   2.717   3.704  16.097  0.4517  0.6401 -0.3262
 1117SOL    HW114813   2.806   3.674  16.113  0.0877 -0.6877 -0.7501
 1117SOL    HW214814   2.725   3.798  16.080 -0.1187  0.6029 -0.8088
 1118SOL     OW14815   0.828   3.766  11.113 -0.3146  0.3641 -0.0069
 1118SOL    HW114816   0.746   3.718  11.095 -1.4638  2.0237  0.8499
 1118SOL    HW214817   0.887   3.693  11.132 -1.8119 -0.1806  2.5792
 1119SOL     OW14818   1.811   1.065   7.213 -0.3089 -0.3670  0.5299
 1119SOL    HW114819   1.845   1.145   7.254  0.3051  0.3133 -1.3283
 1119SOL    HW214820   1.723   1.100   7.196  0.5316  0.8378 -1.2169
 1120SOL     OW14821   2.165   0.138   1.469  0.1568 -0.4345 -0.1347
 1120SOL    HW114822   2.096   0.164   1.530  0.5694 -0.7732  0.4795
 1120SOL    HW214823   2.185   0.057   1.515  3.4571  0.0077 -0.8245
 1121SOL     OW14824   3.474   3.188   2.919 -0.0441  0.0604 -0.1961
 1121SOL    HW114825   3.560   3.218   2.890 -1.4113  1.3042 -2.9194
 1121SOL    HW214826   3.414   3.257   2.892 -0.1443 -0.0209 -0.1781
 1122SOL     OW14827   0.692   2.121   6.714  0.0177  0.1609 -0.3769
 1122SOL    HW114828   0.693   2.167   6.798 -0.5743 -3.9367  1.9220
 1122SOL    HW214829   0.599   2.103   6.702 -0.7980  3.6336  0.9013
 1123SOL     OW14830   4.056   2.377  14.422 -0.1723 -0.2971  0.3638
 1123SOL    HW114831   4.043   2.341  14.334 -1.4235 -1.5715  1.0755
 1123SOL    HW214832   3.973   2.351  14.461 -0.3335  1.7383  1.4059
 1124SOL     OW14833   2.747   1.928   7.088 -0.8126 -0.1843 -0.2721
 1124SOL    HW114834   2.777   2.018   7.084 -3.7650  0.7767 -0.7777
 1124SOL    HW214835   2.769   1.905   7.178 -0.2602  0.8264 -0.1542
 1125SOL     OW14836   3.962   0.441   4.559  0.1880 -0.1170  0.5114
 1125SOL    HW114837   3.989   0.382   4.629 -0.8203 -2.7502 -1.3163
 1125SOL    HW214838   4.043   0.439   4.508 -0.6599 -0.0884 -0.8344
 1126SOL     OW14839   2.878   4.649   2.752  0.3272  0.4269  0.3088
 1126SOL    HW114840   2.903   0.018   2.749 -1.3745  0.8729  0.3704
 1126SOL    HW214841   2.963   4.606   2.738 -0.7191 -1.0733 -1.3444
 1127SOL     OW14842   4.207   4.129  17.630 -0.2060  0.0121  0.4539
 1127SOL    HW114843   4.219   4.166   0.019  3.4692  0.8929 -0.4244
 1127SOL    HW214844   4.293   4.118  17.589  0.2952  1.4548  1.1254
 1128SOL     OW14845   2.723   2.044   5.374  0.3660  0.0798  0.4617
 1128SOL    HW114846   2.676   2.006   5.298 -2.3150 -1.0576  2.6825
 1128SOL    HW214847   2.672   2.120   5.401 -0.7318 -0.1198 -1.0278
 1129SOL     OW14848   0.959   4.474   4.699  0.4051 -0.3653 -0.5444
 1129SOL    HW114849   1.047   4.463   4.663  1.4420  0.1008  1.8210
 1129SOL    HW214850   0.909   4.434   4.629  0.1885  1.2107 -1.2932
 1130SOL     OW14851   4.571   4.721   6.600  0.6764  0.2743  0.0014
 1130SOL    HW114852   4.653   4.672   6.606  1.2289  1.4198  2.0832
 1130SOL    HW214853   4.590   0.064   6.666 -1.5246  1.3539 -0.4602
 1131SOL     OW14854   4.139   3.410  13.347  0.2071  0.4707 -0.3228
 1131SOL    HW114855   4.069   3.422  13.411 -1.2177  1.0820 -1.9954
 1131SOL    HW214856   4.202   3.478  13.371 -0.5490  0.6303  1.2496
 1132SOL     OW14857   1.700   2.077   2.599 -0.3256  0.2080 -0.0825
 1132SOL    HW114858   1.686   2.061   2.506  2.5130 -2.1895 -0.0722
 1132SOL    HW214859   1.790   2.108   2.606 -0.8350  1.9472 -1.1792
 1133SOL     OW14860   1.330   2.009  16.120  0.1049 -0.8516 -0.1896
 1133SOL    HW114861   1.260   2.058  16.077  1.1380  0.7142 -0.1003
 1133SOL    HW214862   1.416   2.020  16.079  0.0337 -0.3092 -0.2047
 1134SOL     OW14863   0.516   1.785   9.203  0.1639  1.1816  0.0823
 1134SOL    HW114864   0.436   1.833   9.225  1.1895  1.2204  3.7287
 1134SOL    HW214865   0.488   1.730   9.130  1.5415  0.7061 -0.0964
 1135SOL     OW14866   0.029   0.401   1.770  0.2530  0.2978  0.4976
 1135SOL    HW114867   0.011   0.443   1.686 -2.6819  0.0602  1.0237
 1135SOL    HW214868   4.666   0.362   1.780 -0.2542  1.3622  0.2402
 1136SOL     OW14869   2.808   4.172   1.715  0.2965  0.2887  0.1883
 1136SOL    HW114870   2.864   4.250   1.721  1.4304 -0.0815 -5.3896
 1136SOL    HW214871   2.801   4.161   1.620  0.6310 -1.0611  0.3200
 1137SOL     OW14872   2.129   2.055   6.059  0.6125 -1.0959 -0.2661
 1137SOL    HW114873   2.072   2.114   6.010  0.0086  0.0897  1.8266
 1137SOL    HW214874   2.208   2.100   6.030 -0.8730  2.2649  0.9614
 1138SOL     OW14875   1.304   0.842   4.388 -0.0188 -0.5119  0.6509
 1138SOL    HW114876   1.303   0.771   4.324 -1.1942 -0.0984  0.2073
 1138SOL    HW214877   1.253   0.792   4.451 -0.8430 -0.5132 -0.0088
 1139SOL     OW14878   4.474   0.047  15.135 -0.2055 -0.5157 -0.2190
 1139SOL    HW114879   4.480   0.133  15.176 -0.5608  0.5427 -2.3703
 1139SOL    HW214880   4.544   0.053  15.069  0.5210  1.4654  0.7473
 1140SOL     OW14881   4.133   0.699   3.286  0.4235  0.0689 -0.1354
 1140SOL    HW114882   4.228   0.687   3.281  0.2469 -1.2879 -0.2614
 1140SOL    HW214883   4.104   0.616   3.324  1.3659  0.3463  1.1984
 1141SOL     OW14884   0.059   2.648   9.825 -0.1248 -0.1004  0.1750
 1141SOL    HW114885   0.089   2.709   9.758 -0.9151  0.2982  0.1882
 1141SOL    HW214886   4.720   2.694   9.879 -2.8234 -0.6183 -2.5312
 1142SOL     OW14887   1.549   0.491   2.167  0.6107 -0.3144 -0.6661
 1142SOL    HW114888   1.528   0.492   2.074  1.6369  2.5677 -0.8727
 1142SOL    HW214889   1.593   0.576   2.160 -0.9568  0.5807  0.4444
 1143SOL     OW14890   2.997   1.645   2.115  0.0051  0.7148  0.0456
 1143SOL    HW114891   3.030   1.621   2.202  1.8102  0.4033 -0.7339
 1143SOL    HW214892   3.070   1.635   2.054 -0.6041 -2.3175 -0.1868
 1144SOL     OW14893   3.798   1.486   5.328  0.2505  1.1805  0.1520
 1144SOL    HW114894   3.796   1.535   5.246 -1.1616 -1.7329 -1.5357
 1144SOL    HW214895   3.806   1.399   5.291  1.0824  1.9136 -1.3986
 1145SOL     OW14896   2.257   4.190   3.583 -0.2900  0.2987  0.1245
 1145SOL    HW114897   2.170   4.159   3.607  0.1346 -0.4367  0.6821
 1145SOL    HW214898   2.232   4.231   3.500 -0.5408  0.8880  0.4879
 1146SOL     OW14899   1.255   3.946  11.809 -0.6245 -0.2271  0.2608
 1146SOL    HW114900   1.176   3.985  11.846  1.0081  1.7031  1.7026
 1146SOL    HW214901   1.233   3.853  11.817  1.3665 -0.8691 -1.6280
 1147SOL     OW14902   0.095   2.112   8.243 -0.4875 -0.4549  0.3453
 1147SOL    HW114903   0.123   2.169   8.315  0.3070 -0.7645  0.2844
 1147SOL    HW214904   0.175   2.112   8.190 -0.6663  1.9385  0.0894
 1148SOL     OW14905   3.057   1.803  11.446  0.6285  0.1765  0.0756
 1148SOL    HW114906   2.966   1.834  11.446 -0.7670 -3.9163 -0.7251
 1148SOL    HW214907   3.111   1.880  11.462 -1.7611  1.1450  3.4143
 1149SOL     OW14908   0.120   2.401  15.265 -0.1556 -0.7764 -0.4086
 1149SOL    HW114909   0.028   2.410  15.242 -0.1665 -0.6975 -0.3336
 1149SOL    HW214910   0.113   2.370  15.355  1.5904  1.9386  0.6608
 1150SOL     OW14911   2.462   2.706  10.234  0.2663  0.3908 -0.1264
 1150SOL    HW114912   2.529   2.720  10.167  0.1781 -0.9809 -0.4977
 1150SOL    HW214913   2.434   2.617  10.212  1.6932 -0.2750  0.7474
 1151SOL     OW14914   0.895   1.377   4.316 -0.1853 -0.1366 -0.2276
 1151SOL    HW114915   0.818   1.343   4.363 -1.0005 -0.4662 -1.8058
 1151SOL    HW214916   0.968   1.351   4.372 -0.7891 -2.9774 -0.7911
 1152SOL     OW14917   3.764   4.713   0.006 -0.5285 -0.5276  0.2872
 1152SOL    HW114918   3.744   0.082   0.003  0.3516 -0.3645 -0.3255
 1152SOL    HW214919   3.735   4.695   0.096  0.8977 -1.8110  0.5056
 1153SOL     OW14920   0.202   0.839   6.970  0.1325  0.2061  0.3475
 1153SOL    HW114921   0.179   0.923   6.932 -1.0276 -0.4833 -0.4801
 1153SOL    HW214922   0.228   0.873   7.056  0.1200  1.0061  0.0249
 1154SOL     OW14923   3.361   1.824   3.463 -0.5437  0.5915  0.2731
 1154SOL    HW114924   3.305   1.902   3.473 -0.5597  0.5895  0.2006
 1154SOL    HW214925   3.376   1.827   3.368  3.4217  1.3082  0.9200
 1155SOL     OW14926   1.635   0.894   9.437  0.0995  0.6200 -0.5051
 1155SOL    HW114927   1.625   0.893   9.532 -0.9703  1.1250 -0.6091
 1155SOL    HW214928   1.673   0.981   9.423  0.1583  0.5060 -1.0655
 1156SOL     OW14929   0.430   1.618   1.968  0.1624 -0.5357 -0.2077
 1156SOL    HW114930   0.475   1.697   1.997  1.4368 -1.2463 -0.2067
 1156SOL    HW214931   0.421   1.633   1.874 -0.3477  1.0708  0.1054
 1157SOL     OW14932   1.081   3.402   8.994  0.3230  0.1774  0.5187
 1157SOL    HW114933   1.170   3.368   9.006 -0.3430 -1.6808  0.2973
 1157SOL    HW214934   1.067   3.371   8.904  1.1204  0.7899  0.1894
 1158SOL     OW14935   2.233   1.133  10.672  0.4161  0.1468  0.5524
 1158SOL    HW114936   2.268   1.046  10.652  1.6524  0.0347  3.2166
 1158SOL    HW214937   2.306   1.178  10.630  0.6145 -2.2529 -1.7626
 1159SOL     OW14938   2.918   2.374   0.138 -0.2693  0.6230  0.1926
 1159SOL    HW114939   3.005   2.403   0.165  0.1622 -0.0156 -0.5119
 1159SOL    HW214940   2.929   2.282   0.160  2.5554  0.3215 -2.5039
 1160SOL     OW14941   2.433   1.777   9.630 -0.5840 -0.2440  0.6136
 1160SOL    HW114942   2.360   1.715   9.619 -1.3663  1.2198 -2.1954
 1160SOL    HW214943   2.413   1.830   9.553  0.1271 -0.7575  0.0789
 1161SOL     OW14944   2.130   0.926   0.048  0.6671  0.1949 -0.6904
 1161SOL    HW114945   2.177   0.963   0.123  3.1941 -2.1178 -1.1413
 1161SOL    HW214946   2.199   0.940  17.682  0.5174 -0.9037 -1.0781
 1162SOL     OW14947   2.786   1.259   7.494  0.2730 -0.0911  0.1024
 1162SOL    HW114948   2.732   1.194   7.539 -0.6047  1.1825  0.9063
 1162SOL    HW214949   2.734   1.340   7.493  0.1665 -0.1883 -2.8594
 1163SOL     OW14950   4.626   2.678   6.417 -0.0932 -0.1427  0.0761
 1163SOL    HW114951   4.639   2.583   6.406 -0.2041  0.2135 -3.2964
 1163SOL    HW214952   4.717   2.707   6.413 -0.4218  1.2528  2.9317
 1164SOL     OW14953   0.583   0.872   1.659 -0.1406 -0.4224 -0.4333
 1164SOL    HW114954   0.596   0.925   1.738 -1.0440  1.8721 -1.8182
 1164SOL    HW214955   0.597   0.782   1.688 -1.7094 -0.3416  0.5933
 1165SOL     OW14956   0.907   1.704   6.848  0.3582  0.3313 -0.0558
 1165SOL    HW114957   0.917   1.629   6.906 -0.1277 -1.4931 -2.3485
 1165SOL    HW214958   0.989   1.707   6.798  1.5708 -2.0870  1.8010
 1166SOL     OW14959   0.467   2.962   2.824  0.3679  0.5880 -0.7328
 1166SOL    HW114960   0.533   2.939   2.889  0.6118  1.5956 -0.6368
 1166SOL    HW214961   0.523   2.984   2.750  0.1141  1.5980 -0.6220
 1167SOL     OW14962   0.489   1.495   4.466  0.3480 -0.4039 -0.2078
 1167SOL    HW114963   0.398   1.464   4.470 -0.9704  3.4756  0.1636
 1167SOL    HW214964   0.473   1.560   4.398 -1.5003  1.0675  1.6245
 1168SOL     OW14965   4.511   3.052   5.915 -0.2743  0.0785  0.2792
 1168SOL    HW114966   4.426   3.030   5.879  0.5765 -1.8796 -0.5426
 1168SOL    HW214967   4.517   2.979   5.977  1.0549  1.1427  1.4150
 1169SOL     OW14968   1.617   2.586  10.710  0.5272 -0.2828 -0.1709
 1169SOL    HW114969   1.661   2.649  10.767  0.9663 -0.4045 -0.3776
 1169SOL    HW214970   1.619   2.639  10.631  0.1789  1.2714  0.8694
 1170SOL     OW14971   2.780   3.791   2.794  0.2950  0.2821 -0.1680
 1170SOL    HW114972   2.720   3.822   2.726  0.4416  2.4888  0.7335
 1170SOL    HW214973   2.829   3.717   2.758  1.2647  0.2587  1.2276
 1171SOL     OW14974   4.387   4.462   0.008  0.1792  0.9366 -0.5786
 1171SOL    HW114975   4.337   4.395   0.055  2.4371 -0.5449 -0.2904
 1171SOL    HW214976   4.473   4.443   0.045 -0.6965 -1.1328  0.3960
 1172SOL     OW14977   1.396   4.552   2.719 -0.1777  0.0982  0.2180
 1172SOL    HW114978   1.345   4.620   2.675 -0.2098  1.8402  3.0066
 1172SOL    HW214979   1.389   4.483   2.653 -0.8759 -0.1401  0.5458
 1173SOL     OW14980   2.326   0.389  10.348  0.2278  0.1696  0.3892
 1173SOL    HW114981   2.325   0.423  10.258 -0.5838 -0.6188  0.1067
 1173SOL    HW214982   2.291   0.463  10.397  1.9319  0.2019  1.5815
 1174SOL     OW14983   2.685   2.490  12.011 -0.1183  0.4434  0.0575
 1174SOL    HW114984   2.766   2.499  11.959  0.8730  1.0333  1.7147
 1174SOL    HW214985   2.683   2.578  12.049  0.3253  0.7521 -0.6102
 1175SOL     OW14986   0.971   4.464  15.866  0.1306 -0.1375  0.3016
 1175SOL    HW114987   1.048   4.510  15.900  1.4259 -0.6780 -1.9487
 1175SOL    HW214988   1.007   4.376  15.862 -0.5867 -0.4573  0.8408
 1176SOL     OW14989   2.407   3.951   3.617  0.3071  0.5270 -0.3069
 1176SOL    HW114990   2.364   4.036   3.612 -0.4248  0.1786  0.1141
 1176SOL    HW214991   2.387   3.919   3.529 -1.4477 -0.0643  0.3082
 1177SOL     OW14992   3.654   0.459   8.961 -0.6356 -0.3679  0.0204
 1177SOL    HW114993   3.571   0.436   9.003 -1.3893 -0.7983 -1.7209
 1177SOL    HW214994   3.691   0.371   8.951 -1.9492 -0.9151 -0.1005
 1178SOL     OW14995   2.701   4.467  10.133 -0.1002 -0.0178 -0.5654
 1178SOL    HW114996   2.708   4.425  10.048  1.4276 -1.3250  0.1989
 1178SOL    HW214997   2.745   4.548  10.106  1.2258 -0.6503 -0.2941
 1179SOL     OW14998   1.020   4.320   2.999  0.0727 -0.6914  0.1741
 1179SOL    HW114999   1.018   4.227   3.021  0.0188 -0.6207  0.4724
 1179SOL    HW215000   1.055   4.316   2.910 -1.1928 -1.8120 -0.2786
 1180SOL     OW15001   3.221   4.269  14.528  0.3026  0.0155 -0.1570
 1180SOL    HW115002   3.184   4.188  14.494  1.8079 -1.4093  1.5630
 1180SOL    HW215003   3.150   4.321  14.491 -1.2560 -3.1220 -1.5598
 1181SOL     OW15004   2.166   2.830  11.822  0.5184 -0.1406  0.3917
 1181SOL    HW115005   2.117   2.747  11.819 -1.7100  1.2989 -2.6573
 1181SOL    HW215006   2.204   2.831  11.910 -1.9183 -0.1337  1.4430
 1182SOL     OW15007   0.614   4.552   4.357  0.4841  0.5706  0.6839
 1182SOL    HW115008   0.651   4.475   4.313  0.8299  1.4357 -0.5560
 1182SOL    HW215009   0.574   4.514   4.435  1.3397 -1.1713  0.2745
 1183SOL     OW15010   0.643   3.711   3.958  0.4744  0.4674 -0.1975
 1183SOL    HW115011   0.723   3.752   3.993  0.7310 -0.4766  0.3296
 1183SOL    HW215012   0.627   3.748   3.872 -0.4859  1.4047  0.3908
 1184SOL     OW15013   0.552   3.242   3.743  0.1905 -0.4362  0.2040
 1184SOL    HW115014   0.607   3.165   3.756  0.1037 -0.4687  0.3809
 1184SOL    HW215015   0.569   3.290   3.824 -0.9839  2.0475 -1.0387
 1185SOL     OW15016   0.623   3.721   1.444  0.2404  0.8521  0.3269
 1185SOL    HW115017   0.654   3.687   1.360  0.7006 -1.0002  1.2523
 1185SOL    HW215018   0.565   3.650   1.471 -1.8699  2.9318  1.2218
 1186SOL     OW15019   4.274   0.013   3.447 -0.4641 -0.0231  0.2834
 1186SOL    HW115020   4.270   0.039   3.539 -1.6025 -0.6350  0.4097
 1186SOL    HW215021   4.275   4.642   3.456 -0.4174 -0.0298  0.2090
 1187SOL     OW15022   3.549   0.225   7.740  0.3201 -0.2887  0.2470
 1187SOL    HW115023   3.585   0.269   7.817 -3.1538  0.3882  1.4980
 1187SOL    HW215024   3.630   0.207   7.692  1.5102  2.4477  1.2601
 1188SOL     OW15025   1.528   1.394   8.235  0.4380 -0.1465  0.2496
 1188SOL    HW115026   1.433   1.382   8.229  0.2650  1.4181  0.0088
 1188SOL    HW215027   1.536   1.390   8.330  1.9138 -1.1549  0.0930
 1189SOL     OW15028   3.954   2.141  12.307  0.1693 -0.0242 -0.3264
 1189SOL    HW115029   3.871   2.181  12.282  0.9347  0.8943 -1.3825
 1189SOL    HW215030   3.941   2.046  12.297 -1.9958  0.0052  2.1077
 1190SOL     OW15031   0.279   0.279   8.735  0.2573  0.5594  0.2028
 1190SOL    HW115032   0.358   0.273   8.682  2.0585  1.6455  2.7551
 1190SOL    HW215033   0.289   0.194   8.779 -2.6770  0.2395  0.2732
 1191SOL     OW15034   2.443   2.073   1.330 -0.1457  0.5599  0.4946
 1191SOL    HW115035   2.369   2.128   1.304 -0.0202  0.4662 -0.0743
 1191SOL    HW215036   2.406   2.042   1.412  0.2477 -1.0122  0.0702
 1192SOL     OW15037   1.897   3.627   1.498 -0.1887 -0.2013 -0.1488
 1192SOL    HW115038   1.943   3.694   1.549 -0.3699  0.6934 -1.1676
 1192SOL    HW215039   1.806   3.655   1.489 -0.1257  0.9788  2.6934
 1193SOL     OW15040   1.076   0.172   4.836  0.2903  0.4361 -0.6665
 1193SOL    HW115041   1.117   0.088   4.859 -0.9942  0.3861  1.4487
 1193SOL    HW215042   1.008   0.170   4.904  1.8446 -0.3476  0.8764
 1194SOL     OW15043   1.340   2.146   4.179  0.3316 -0.0350  0.4588
 1194SOL    HW115044   1.426   2.107   4.190 -0.6136 -2.0130  0.9195
 1194SOL    HW215045   1.320   2.140   4.085  2.4699 -2.4544  0.1658
 1195SOL     OW15046   2.595   0.029   3.783 -0.1762  0.3154 -0.1424
 1195SOL    HW115047   2.647   4.687   3.738  0.0182 -0.5156  1.3048
 1195SOL    HW215048   2.619   0.109   3.737  1.6689  0.3811  0.9355
 1196SOL     OW15049   3.354   0.526   7.718  1.2082 -0.2881  0.5128
 1196SOL    HW115050   3.433   0.577   7.700  0.8084 -0.0287 -0.4871
 1196SOL    HW215051   3.361   0.453   7.656  1.0093 -0.7448  1.0250
 1197SOL     OW15052   1.090   4.509   2.643 -0.3153  0.0346  0.5028
 1197SOL    HW115053   1.026   4.540   2.579 -1.6527  1.3893  2.4831
 1197SOL    HW215054   1.128   4.591   2.676 -0.0263 -0.4004  1.2701
 1198SOL     OW15055   4.407   1.036   6.374  0.1116 -0.1616  0.1354
 1198SOL    HW115056   4.365   0.993   6.300 -1.4186  0.9118  0.3710
 1198SOL    HW215057   4.402   1.126   6.340 -0.9347 -0.6580 -1.0065
 1199SOL     OW15058   1.137   0.261   6.614  0.0617  0.2031 -0.1465
 1199SOL    HW115059   1.098   0.331   6.666  1.3797 -0.7276  2.0770
 1199SOL    HW215060   1.198   0.224   6.678  0.7209 -0.9492 -1.4530
 1200SOL     OW15061   3.586   2.566  14.025 -0.1183  0.3329  0.3541
 1200SOL    HW115062   3.504   2.591  14.068 -2.1227 -2.2735 -1.9401
 1200SOL    HW215063   3.554   2.571  13.935 -1.2841  1.3836  0.8256
 1201SOL     OW15064   2.889   3.777   5.138 -0.1929  0.1309  0.3822
 1201SOL    HW115065   2.971   3.775   5.088  0.8728  1.7222  2.0468
 1201SOL    HW215066   2.817   3.777   5.075 -0.1018  1.6369  0.2712
 1202SOL     OW15067   3.234   0.070  11.897 -0.1747  0.6676  0.8859
 1202SOL    HW115068   3.170   0.102  11.960 -1.9685  1.1521 -1.1702
 1202SOL    HW215069   3.237   0.143  11.835 -2.6184 -0.2157 -0.3144
 1203SOL     OW15070   1.432   0.158  11.239 -0.6534  0.7993 -0.1666
 1203SOL    HW115071   1.432   0.160  11.335  2.9341  0.8352 -0.1477
 1203SOL    HW215072   1.488   0.234  11.222  1.9915 -0.8828  0.9536
 1204SOL     OW15073   0.501   0.846  10.080 -0.2422  0.2940 -0.2262
 1204SOL    HW115074   0.478   0.936  10.103 -0.4478 -0.0699  1.0263
 1204SOL    HW215075   0.554   0.846  10.001 -3.4065 -0.6137 -2.3107
 1205SOL     OW15076   1.468   4.609   4.679 -0.0560  0.2474  0.1607
 1205SOL    HW115077   1.563   4.614   4.667  0.1050 -0.5322  1.1428
 1205SOL    HW215078   1.444   4.616   4.586 -1.9329 -0.0801  0.6420
 1206SOL     OW15079   2.774   0.947   6.573  0.3778  0.0388  0.0494
 1206SOL    HW115080   2.750   0.932   6.482  0.5056  0.4675 -0.0514
 1206SOL    HW215081   2.698   0.993   6.608  1.8670  0.8530  2.2395
 1207SOL     OW15082   0.546   1.012   6.101  0.0993  0.0856 -0.2193
 1207SOL    HW115083   0.508   1.022   6.014 -0.8322 -0.0250  0.1784
 1207SOL    HW215084   0.529   0.919   6.117 -0.0023  0.3373  1.1810
 1208SOL     OW15085   1.228   1.130   9.261  0.4289 -0.5258 -0.2252
 1208SOL    HW115086   1.151   1.158   9.213  0.4653 -0.2114 -0.1010
 1208SOL    HW215087   1.202   1.044   9.293  1.9269 -1.1749 -0.7202
 1209SOL     OW15088   1.633   0.062   9.739  0.1028  0.4562  0.1752
 1209SOL    HW115089   1.728   0.065   9.748  0.0629  0.7186  0.5050
 1209SOL    HW215090   1.609   4.716   9.800 -0.5603 -0.5374 -1.2350
 1210SOL     OW15091   3.389   4.403   1.560  0.4123  0.1269  0.3476
 1210SOL    HW115092   3.297   4.379   1.543  1.1509 -0.2719 -3.0777
 1210SOL    HW215093   3.375   4.496   1.581  0.5800  0.2704 -0.1697
 1211SOL     OW15094   1.270   4.433   8.425 -0.0504 -0.3639 -0.3399
 1211SOL    HW115095   1.266   4.398   8.514 -0.2913  1.2097  0.2758
 1211SOL    HW215096   1.288   4.355   8.373  0.8974 -0.6809  0.4689
 1212SOL     OW15097   3.092   1.841   3.893 -0.0883  0.2620 -0.0563
 1212SOL    HW115098   3.097   1.790   3.812 -0.6920  0.8707 -0.4826
 1212SOL    HW215099   3.029   1.909   3.868  1.2354  1.6065  0.2503
 1213SOL     OW15100   0.786   3.643   5.251  0.2120 -0.3562  0.1657
 1213SOL    HW115101   0.835   3.724   5.240  0.0372 -0.5832 -2.2529
 1213SOL    HW215102   0.823   3.607   5.331 -1.7452 -1.6152  0.5260
 1214SOL     OW15103   0.260   0.480   6.299  0.3717 -0.7115  0.1841
 1214SOL    HW115104   0.210   0.546   6.347 -1.2044 -3.1455  1.8639
 1214SOL    HW215105   0.196   0.438   6.242 -0.3439  2.3681 -1.2832
 1215SOL     OW15106   1.034   0.335   5.480  0.0044  0.3314 -0.4553
 1215SOL    HW115107   0.946   0.374   5.485 -0.1790 -0.4368  2.6155
 1215SOL    HW215108   1.083   0.404   5.524 -0.1327  0.2446 -0.1624
 1216SOL     OW15109   3.229   4.238   3.756 -0.3168 -0.4755  0.2616
 1216SOL    HW115110   3.258   4.149   3.736  0.9113  0.4171 -2.0674
 1216SOL    HW215111   3.225   4.229   3.851  0.6929  1.1360  0.4703
 1217SOL     OW15112   2.897   2.851   2.118  0.1037  0.0246  0.0931
 1217SOL    HW115113   2.943   2.777   2.159  1.3819  0.9272  0.3079
 1217SOL    HW215114   2.873   2.902   2.196  0.6696  0.0184  0.2721
 1218SOL     OW15115   2.107   3.027   3.371  1.1944  0.2645 -0.3023
 1218SOL    HW115116   2.080   2.935   3.369  0.1178  0.5754 -0.2354
 1218SOL    HW215117   2.076   3.047   3.282 -0.8701  1.9363  0.7792
 1219SOL     OW15118   2.597   3.395   4.734  0.0279 -0.4832  0.3457
 1219SOL    HW115119   2.584   3.328   4.666  0.9073  0.2023 -0.4892
 1219SOL    HW215120   2.670   3.445   4.697  1.1690 -2.1427  0.3184
 1220SOL     OW15121   3.124   1.086   1.966  0.5037 -0.8108 -0.0388
 1220SOL    HW115122   3.103   1.064   2.056 -1.5554  0.2195 -0.2560
 1220SOL    HW215123   3.040   1.127   1.942 -0.5636 -2.0519  1.5859
 1221SOL     OW15124   1.952   3.162   7.517  0.2880  0.4511  0.2765
 1221SOL    HW115125   2.025   3.136   7.572  0.3516 -0.0959 -0.0601
 1221SOL    HW215126   1.965   3.255   7.500 -1.7997  0.7385  0.1790
 1222SOL     OW15127   1.029   4.252   8.940  0.1526  0.7827  0.1491
 1222SOL    HW115128   1.004   4.187   9.006 -1.3065  0.7868 -0.4167
 1222SOL    HW215129   1.002   4.334   8.981  0.5659  0.6150  0.7520
 1223SOL     OW15130   1.656   3.941  16.115  0.0524 -0.3175 -0.2361
 1223SOL    HW115131   1.690   3.881  16.048  1.0826 -1.8909  1.7034
 1223SOL    HW215132   1.564   3.915  16.107 -0.1683  0.9963 -1.9342
 1224SOL     OW15133   2.531   1.846   0.042  0.3444  0.1912 -0.4068
 1224SOL    HW115134   2.535   1.870  17.648 -0.1328  0.3197 -0.3944
 1224SOL    HW215135   2.558   1.755   0.050 -1.4146 -0.5344 -2.7753
 1225SOL     OW15136   4.520   2.075   0.448  0.0732  0.0941  0.5968
 1225SOL    HW115137   4.445   2.118   0.489 -1.3023 -1.0822 -0.6752
 1225SOL    HW215138   4.591   2.097   0.507 -1.2263  1.2373  1.7263
 1226SOL     OW15139   4.183   1.351  15.572 -0.2337 -0.1947 -0.2215
 1226SOL    HW115140   4.168   1.341  15.666 -0.3904 -1.9702 -0.4363
 1226SOL    HW215141   4.219   1.263  15.563 -0.7587 -0.7459  3.1082
 1227SOL     OW15142   3.944   1.693  13.161  0.0762  0.4752  0.7292
 1227SOL    HW115143   3.864   1.746  13.164 -1.2502 -1.3872 -1.3082
 1227SOL    HW215144   3.919   1.628  13.095 -3.8664  2.3745  0.3665
 1228SOL     OW15145   3.822   0.491   7.582 -0.2193 -0.7050  0.8736
 1228SOL    HW115146   3.815   0.415   7.524  0.7419  0.3108 -0.5678
 1228SOL    HW215147   3.871   0.448   7.652  3.7932 -0.3672 -1.7412
 1229SOL     OW15148   2.923   2.621   3.432  0.2713 -0.3544  0.2212
 1229SOL    HW115149   3.014   2.651   3.432  0.6278 -1.3662 -1.6615
 1229SOL    HW215150   2.922   2.548   3.369 -0.7896  0.2139 -0.4172
 1230SOL     OW15151   4.449   3.986   2.561 -0.1492  0.5101 -0.5864
 1230SOL    HW115152   4.518   3.993   2.626 -1.9381  0.9966  1.2611
 1230SOL    HW215153   4.404   4.070   2.576 -0.4527  0.0549  0.9916
 1231SOL     OW15154   1.059   1.170  12.591  0.1711  0.0385  0.2221
 1231SOL    HW115155   1.074   1.169  12.496  0.3398 -1.4840  0.2658
 1231SOL    HW215156   0.999   1.245  12.600  1.3739  0.8335  1.5728
 1232SOL     OW15157   1.524   0.584   6.049  0.2358 -0.0143 -0.3271
 1232SOL    HW115158   1.599   0.643   6.046  0.5036 -0.4696 -3.3148
 1232SOL    HW215159   1.548   0.529   6.124  0.1658  0.3744 -0.0227
 1233SOL     OW15160   1.864   0.835   8.238 -0.5501  0.3762  0.0884
 1233SOL    HW115161   1.784   0.882   8.215 -0.4993 -0.2066 -1.2340
 1233SOL    HW215162   1.879   0.788   8.156 -3.1574  2.4665 -1.5876
 1234SOL     OW15163   2.792   0.091  13.451 -0.4750  0.3275  0.1166
 1234SOL    HW115164   2.862   0.053  13.397 -1.9173 -2.1149 -0.0068
 1234SOL    HW215165   2.810   0.067  13.542 -2.8464 -0.6155  0.3230
 1235SOL     OW15166   2.022   3.663  10.813 -0.3021  0.8145  0.2144
 1235SOL    HW115167   1.996   3.753  10.795 -0.9576  0.3571 -1.1141
 1235SOL    HW215168   2.115   3.669  10.831 -0.1311  1.1120 -0.7553
 1236SOL     OW15169   2.442   0.211   9.467  0.7370  0.3128 -0.3866
 1236SOL    HW115170   2.429   0.116   9.473  0.3989  0.5038  1.8333
 1236SOL    HW215171   2.531   0.214   9.432  0.8533 -0.1150 -0.1301
 1237SOL     OW15172   4.644   0.940   9.036  0.0408 -0.1054 -0.3895
 1237SOL    HW115173   4.708   0.892   8.984 -0.3590  0.0284 -1.0050
 1237SOL    HW215174   4.654   1.031   9.006  0.2507  0.8454  2.5910
 1238SOL     OW15175   4.356   4.586   7.508 -0.2480 -0.0188  0.0902
 1238SOL    HW115176   4.412   4.619   7.578 -2.4172  0.7181  1.4916
 1238SOL    HW215177   4.423   4.593   7.440 -0.5776  1.6853 -0.0763
 1239SOL     OW15178   3.331   0.142   8.898 -0.6055  0.1772  0.6456
 1239SOL    HW115179   3.295   0.128   8.986  2.5535 -0.7749  1.7868
 1239SOL    HW215180   3.256   0.108   8.850 -0.3216 -0.0957  0.3962
 1240SOL     OW15181   0.614   0.371   9.746  0.7224 -0.7955 -0.0239
 1240SOL    HW115182   0.673   0.296   9.756  0.3351 -0.9607  1.0103
 1240SOL    HW215183   0.533   0.343   9.788 -0.3009  0.0066 -1.4919
 1241SOL     OW15184   3.786   3.802   2.141  0.1753 -0.5082 -0.3622
 1241SOL    HW115185   3.860   3.760   2.185  0.2874 -0.8820 -0.8996
 1241SOL    HW215186   3.817   3.892   2.149  1.1577 -1.0667  2.0514
 1242SOL     OW15187   3.434   3.323   1.424 -0.0981  0.0443 -0.1982
 1242SOL    HW115188   3.506   3.338   1.486  0.3496  0.9091 -0.9337
 1242SOL    HW215189   3.367   3.379   1.465  0.4820  0.1440  0.6134
 1243SOL     OW15190   2.105   4.045   9.619 -0.0290 -0.3691  0.3251
 1243SOL    HW115191   2.073   4.125   9.577  0.4219 -0.1330  0.4209
 1243SOL    HW215192   2.024   3.996   9.630  0.3895 -1.0468  0.4040
 1244SOL     OW15193   0.228   0.051   5.225 -0.0731 -0.0407  0.2699
 1244SOL    HW115194   0.299   0.011   5.175  1.5669  1.8169  1.1124
 1244SOL    HW215195   0.269   0.053   5.312  1.2717 -0.0288 -0.3832
 1245SOL     OW15196   0.363   3.330  17.570  0.0726  0.4471  0.5462
 1245SOL    HW115197   0.358   3.398  17.637  0.1337  0.5637  0.4317
 1245SOL    HW215198   0.353   3.373  17.486 -0.2310 -1.1009 -0.2074
 1246SOL     OW15199   4.476   1.275   6.642 -0.3184 -0.0483 -0.2977
 1246SOL    HW115200   4.428   1.350   6.678  0.7348  0.3407  0.2960
 1246SOL    HW215201   4.406   1.215   6.618 -1.7741  1.7650 -0.6706
 1247SOL     OW15202   2.358   2.771   1.808 -0.1897 -0.0340 -0.0230
 1247SOL    HW115203   2.265   2.794   1.805  0.0110  0.3889 -3.1943
 1247SOL    HW215204   2.407   2.853   1.814  0.5107 -0.5138  0.7475
 1248SOL     OW15205   1.024   2.410  16.571  0.0776 -0.3670 -0.3784
 1248SOL    HW115206   1.022   2.316  16.553  0.6549 -0.3641 -0.4612
 1248SOL    HW215207   1.009   2.443  16.483 -0.3683  2.0561  0.6115
 1249SOL     OW15208   4.514   0.765  12.626  0.3065 -0.0146  0.3577
 1249SOL    HW115209   4.604   0.792  12.608  0.3481 -0.9855 -0.8635
 1249SOL    HW215210   4.531   0.753  12.720 -2.0424  2.1257  1.0427
 1250SOL     OW15211   0.934   2.860   4.568 -0.0830 -0.0823  0.2234
 1250SOL    HW115212   0.904   2.911   4.643 -1.3105  1.8278 -1.5677
 1250SOL    HW215213   0.851   2.833   4.529  0.8066  0.8887 -2.3807
 1251SOL     OW15214   1.154   3.144   7.042  0.0815 -0.1737  0.6007
 1251SOL    HW115215   1.221   3.211   7.040 -0.8802  0.7902  0.8044
 1251SOL    HW215216   1.078   3.201   7.034 -0.6706 -1.2709 -0.1504
 1252SOL     OW15217   2.800   1.896   9.394 -0.3458 -0.1410 -0.1729
 1252SOL    HW115218   2.865   1.826   9.386 -0.6327 -0.4565  0.2679
 1252SOL    HW215219   2.753   1.863   9.471  1.4976 -0.8155  0.6521
 1253SOL     OW15220   1.501   2.737   4.219  0.1607 -0.3548 -0.8431
 1253SOL    HW115221   1.508   2.682   4.297  0.4633  0.1492 -0.5159
 1253SOL    HW215222   1.410   2.720   4.195  0.1327 -0.1488 -0.8789
 1254SOL     OW15223   3.116   3.290   0.489  0.1138 -0.1320  0.4416
 1254SOL    HW115224   3.152   3.286   0.578  0.9128 -0.9468  0.0789
 1254SOL    HW215225   3.021   3.287   0.503 -0.0366 -0.9550 -0.8509
 1255SOL     OW15226   0.054   2.312  15.511  0.4743  0.0532 -0.3560
 1255SOL    HW115227   0.081   2.295  15.602 -1.1362 -0.1761  0.0841
 1255SOL    HW215228   0.011   2.231  15.484  0.7174 -1.0725  2.5717
 1256SOL     OW15229   1.744   0.432  16.206 -0.3532 -0.3076 -0.0836
 1256SOL    HW115230   1.670   0.493  16.210  0.0442  0.1359  0.4232
 1256SOL    HW215231   1.693   0.364  16.251 -1.7421  1.0427  0.3835
 1257SOL     OW15232   0.762   2.857   5.043 -0.2899  0.4524  0.2566
 1257SOL    HW115233   0.684   2.840   4.991 -1.8713  1.5191  2.3078
 1257SOL    HW215234   0.826   2.805   4.995 -1.6378 -1.0732  0.1424
 1258SOL     OW15235   1.178   2.687   6.804  0.8394 -0.0480  0.2763
 1258SOL    HW115236   1.253   2.723   6.756 -0.4830  0.3291 -1.4982
 1258SOL    HW215237   1.230   2.645   6.873  1.1239 -0.1240  0.0173
 1259SOL     OW15238   3.464   1.595   5.305  0.3418 -0.5077 -0.2502
 1259SOL    HW115239   3.374   1.564   5.300  1.2132 -3.0716  0.1727
 1259SOL    HW215240   3.485   1.579   5.397  1.4886  2.6071  0.0528
 1260SOL     OW15241   4.601   0.359   1.363 -0.0305  0.0268  0.5961
 1260SOL    HW115242   4.622   0.293   1.429 -0.8669 -3.0963 -2.2919
 1260SOL    HW215243   4.657   0.430   1.395  1.0471 -0.1156 -0.9726
 1261SOL     OW15244   3.879   1.112   7.953 -0.1431 -0.1585 -0.1411
 1261SOL    HW115245   3.897   1.205   7.967 -5.1148  1.2784 -3.2932
 1261SOL    HW215246   3.945   1.065   8.003  1.0515  1.8835  0.1867
 1262SOL     OW15247   3.228   1.328   6.505  0.0036  0.5671  0.1255
 1262SOL    HW115248   3.253   1.409   6.459  1.3229 -0.0530 -0.2661
 1262SOL    HW215249   3.160   1.354   6.566  0.0464  0.4000  0.2442
 1263SOL     OW15250   1.086   1.283   2.631 -0.1249  0.1121 -0.2866
 1263SOL    HW115251   1.142   1.234   2.692 -0.3717  0.6004  0.3301
 1263SOL    HW215252   1.005   1.284   2.682 -1.2016 -1.1376 -1.9600
 1264SOL     OW15253   3.467   0.663   6.585  0.2438 -0.2408  0.0751
 1264SOL    HW115254   3.434   0.595   6.643 -0.8848  0.6927  0.5302
 1264SOL    HW215255   3.440   0.749   6.617  3.0609  0.2585  1.1607
 1265SOL     OW15256   3.053   3.917   7.754 -0.2529  0.2988 -0.2833
 1265SOL    HW115257   2.996   3.841   7.759 -0.2582  0.2014 -1.9421
 1265SOL    HW215258   3.091   3.900   7.667 -1.1715  2.3561 -1.0740
 1266SOL     OW15259   0.106   1.288   4.048  0.0083 -0.5945  0.2101
 1266SOL    HW115260   0.107   1.369   3.997 -1.7681  0.1375  1.3211
 1266SOL    HW215261   0.104   1.227   3.974  3.8644 -1.1419  0.5939
 1267SOL     OW15262   0.640   2.529  12.030  0.6405  0.1724  0.5788
 1267SOL    HW115263   0.638   2.598  12.096  1.7637  2.0580 -1.3265
 1267SOL    HW215264   0.730   2.544  12.001  0.7909  2.5709  2.3042
 1268SOL     OW15265   0.627   1.260  13.602 -0.0628 -0.3934  0.6658
 1268SOL    HW115266   0.537   1.230  13.611 -0.3093 -0.2372 -1.4024
 1268SOL    HW215267   0.606   1.353  13.608 -2.3593 -0.8472 -0.1389
 1269SOL     OW15268   1.896   1.585   5.576  0.5205  0.3897  0.2213
 1269SOL    HW115269   1.808   1.600   5.542  0.1314 -0.6902  0.7476
 1269SOL    HW215270   1.896   1.651   5.645 -1.2200  1.1157 -0.4886
 1270SOL     OW15271   4.209   1.658   5.376 -0.2183  0.3450  0.1093
 1270SOL    HW115272   4.197   1.670   5.470  0.0956 -0.3329  0.2356
 1270SOL    HW215273   4.230   1.748   5.350  0.1729 -0.0060 -0.8091
 1271SOL     OW15274   2.191   4.657  16.771 -0.4078 -0.4232 -0.4301
 1271SOL    HW115275   2.132   4.710  16.824  0.8212  2.7984 -2.2718
 1271SOL    HW215276   2.160   4.572  16.800 -1.3541 -0.2141 -0.8247
 1272SOL     OW15277   0.693   4.459   8.030 -0.0687  0.2417 -0.2274
 1272SOL    HW115278   0.619   4.400   8.039 -0.4865  0.6866 -0.7233
 1272SOL    HW215279   0.688   4.517   8.105  0.2808  0.4892 -0.3929
 1273SOL     OW15280   3.066   3.461   3.771  0.2728 -0.2665  0.4423
 1273SOL    HW115281   3.124   3.508   3.711 -0.5507  1.4794  1.0073
 1273SOL    HW215282   3.140   3.411   3.805  0.1594 -0.3539  0.5561
 1274SOL     OW15283   0.545   3.249   2.124  0.0397 -0.7505  0.6591
 1274SOL    HW115284   0.602   3.325   2.111  0.3419 -0.5695  2.9650
 1274SOL    HW215285   0.565   3.227   2.215 -1.1098  1.1200  1.3509
 1275SOL     OW15286   4.652   3.787  17.323  0.0613 -0.4631  0.2107
 1275SOL    HW115287   4.567   3.765  17.361 -1.0902  0.1386 -2.0153
 1275SOL    HW215288   4.654   3.750  17.235  1.4563 -0.1981  0.1336
 1276SOL     OW15289   1.802   0.584   2.663  0.7630 -0.5601  0.2615
 1276SOL    HW115290   1.890   0.617   2.643  0.5613 -0.3032 -0.1834
 1276SOL    HW215291   1.763   0.629   2.588 -1.0157  1.4473  2.3965
 1277SOL     OW15292   1.536   3.096   9.928  0.0221  0.3242  0.1578
 1277SOL    HW115293   1.554   3.173   9.983 -1.4261  1.4375 -0.9445
 1277SOL    HW215294   1.568   3.028   9.987  0.5521  1.5267  1.2663
 1278SOL     OW15295   0.071   2.849   3.428 -0.1605  0.0586  0.3587
 1278SOL    HW115296   0.127   2.842   3.505 -0.0480  1.5965  0.4243
 1278SOL    HW215297   0.003   2.907   3.463 -2.8917 -1.0328 -3.1344
 1279SOL     OW15298   4.308   1.508   7.550 -0.3151 -0.4988 -0.3927
 1279SOL    HW115299   4.399   1.537   7.560 -0.1890 -0.7198 -0.9256
 1279SOL    HW215300   4.274   1.500   7.639 -0.4680  0.5739 -0.3611
 1280SOL     OW15301   0.318   4.673  16.573  0.1096  0.4500  0.9947
 1280SOL    HW115302   0.336   0.031  16.619 -0.7440  1.9165 -1.2445
 1280SOL    HW215303   0.407   4.655  16.542 -0.8041 -0.6357 -0.9560
 1281SOL     OW15304   4.293   1.307   0.528  0.1035  0.3886 -0.0624
 1281SOL    HW115305   4.261   1.362   0.456 -1.7327 -0.4500  0.1158
 1281SOL    HW215306   4.206   1.269   0.542  0.2806  0.2994  0.7593
 1282SOL     OW15307   4.023   2.008  16.960 -0.6322 -0.2663 -0.2472
 1282SOL    HW115308   4.081   1.990  16.886  1.5064  0.7484  1.1820
 1282SOL    HW215309   4.086   1.976  17.025 -1.2772  2.0605  1.5244
 1283SOL     OW15310   3.859   4.102   7.099 -0.1356 -0.4977  0.3858
 1283SOL    HW115311   3.942   4.075   7.137 -0.2674 -1.2568  0.1536
 1283SOL    HW215312   3.837   4.182   7.147  2.8584  0.6339 -0.1445
 1284SOL     OW15313   3.601   4.211   6.659  0.2483 -0.0564  0.0903
 1284SOL    HW115314   3.689   4.249   6.666  0.4251 -0.2110 -1.2704
 1284SOL    HW215315   3.584   4.194   6.751  2.4424 -0.4456  0.4258
 1285SOL     OW15316   0.848   1.313   0.821  0.1723 -0.1721  0.0118
 1285SOL    HW115317   0.782   1.251   0.850 -1.5135  1.3042 -0.6985
 1285SOL    HW215318   0.812   1.337   0.735  0.8869  1.5879  0.2116
 1286SOL     OW15319   4.424   1.447   2.439  0.1573 -0.2799  0.2718
 1286SOL    HW115320   4.425   1.354   2.415 -0.3446  0.6252 -3.3152
 1286SOL    HW215321   4.491   1.448   2.507  0.8584 -0.6598 -0.4261
 1287SOL     OW15322   2.369   4.552  15.752 -0.4489  0.4014 -0.7165
 1287SOL    HW115323   2.310   4.485  15.716  2.4297 -0.4220 -3.9110
 1287SOL    HW215324   2.383   4.612  15.679  0.1845 -0.5706 -1.4044
 1288SOL     OW15325   4.616   4.534  11.544 -0.2755  0.7095  0.4260
 1288SOL    HW115326   4.570   4.505  11.465  2.2178 -0.9157 -0.4362
 1288SOL    HW215327   4.609   4.629  11.538  0.4360  0.7773  0.6529
 1289SOL     OW15328   4.023   1.311  14.996  0.0788  0.4503  0.1246
 1289SOL    HW115329   3.990   1.390  14.952 -4.0939 -0.5324  1.5022
 1289SOL    HW215330   4.094   1.355  15.043  0.7054  0.1654 -0.5632
 1290SOL     OW15331   3.055   2.569   2.478 -0.0640 -1.0346 -0.3438
 1290SOL    HW115332   2.960   2.577   2.486 -0.0061 -0.5345 -0.1280
 1290SOL    HW215333   3.071   2.475   2.484 -0.7230 -1.1443 -0.2810
 1291SOL     OW15334   2.151   0.584   9.281  0.2814 -0.5247  0.3676
 1291SOL    HW115335   2.172   0.677   9.292 -1.3224 -0.2420  0.9958
 1291SOL    HW215336   2.097   0.590   9.202  2.3940 -0.3062 -1.0677
 1292SOL     OW15337   3.663   0.586   8.034 -0.5273  0.0595  0.4018
 1292SOL    HW115338   3.616   0.573   8.116 -0.7414 -0.8527  0.1336
 1292SOL    HW215339   3.612   0.660   8.000 -0.1821  2.1834  4.5257
 1293SOL     OW15340   2.821   3.094   3.805  0.1263  0.0688  0.0764
 1293SOL    HW115341   2.767   3.153   3.857 -0.9161  0.6441 -1.6790
 1293SOL    HW215342   2.876   3.164   3.770  1.1539 -1.0759 -0.5981
 1294SOL     OW15343   2.408   3.056   9.294  0.3804  0.0045 -0.8864
 1294SOL    HW115344   2.422   2.983   9.234  1.0463  0.4454 -1.2646
 1294SOL    HW215345   2.398   3.010   9.378 -0.0044  1.6203 -0.0424
 1295SOL     OW15346   4.474   1.476   0.239  0.7011  0.1513  0.2116
 1295SOL    HW115347   4.473   1.543   0.170  1.9096 -0.9290 -0.8466
 1295SOL    HW215348   4.381   1.469   0.260  0.7071 -0.8816 -0.1276
 1296SOL     OW15349   2.340   1.476   3.385 -0.2154  0.4464 -0.0540
 1296SOL    HW115350   2.264   1.420   3.370  0.0363 -0.3854  1.7184
 1296SOL    HW215351   2.323   1.556   3.335 -4.9407 -0.7681 -0.3732
 1297SOL     OW15352   2.613   3.067   2.974 -0.1659  0.3409 -0.2076
 1297SOL    HW115353   2.632   3.135   3.038  1.2505 -0.9709  0.7612
 1297SOL    HW215354   2.665   2.999   3.019  0.2021  1.5537  1.2012
 1298SOL     OW15355   3.065   0.240  13.231 -0.1656  0.3529 -0.1923
 1298SOL    HW115356   3.039   0.176  13.297  1.7454 -2.2587 -1.9500
 1298SOL    HW215357   3.008   0.315  13.243 -0.0961  0.1543  1.3493
 1299SOL     OW15358   2.892   3.045  16.351  0.1035 -0.2269  0.0318
 1299SOL    HW115359   2.927   3.033  16.262 -0.8284  0.2076 -0.3840
 1299SOL    HW215360   2.954   2.993  16.403 -0.4116 -1.1591 -0.2817
 1300SOL     OW15361   0.658   2.799   3.435 -0.4241 -0.3363 -0.3896
 1300SOL    HW115362   0.745   2.835   3.451  0.3054 -2.1015 -0.4611
 1300SOL    HW215363   0.639   2.774   3.525 -0.5216 -2.9284 -1.1242
 1301SOL     OW15364   1.940   2.565   3.806  0.2928  0.2178 -0.6032
 1301SOL    HW115365   1.943   2.505   3.731  2.9180 -1.5445  0.9147
 1301SOL    HW215366   2.024   2.604   3.783  0.9276 -0.2151  0.9853
 1302SOL     OW15367   1.449   4.196  16.060  0.2902  0.1991 -0.3975
 1302SOL    HW115368   1.372   4.227  16.109 -0.9062  0.0034 -2.1622
 1302SOL    HW215369   1.439   4.102  16.071  1.4635  0.1703  0.3769
 1303SOL     OW15370   2.668   4.461   8.003  0.6148  0.3820 -0.5534
 1303SOL    HW115371   2.636   4.501   7.922 -1.9934 -1.9785 -0.6799
 1303SOL    HW215372   2.612   4.388   8.029 -1.1487  1.2711 -1.8823
 1304SOL     OW15373   4.022   1.150   3.486 -0.1335 -0.2798 -0.6796
 1304SOL    HW115374   3.997   1.139   3.578  3.3395 -0.6202  0.2312
 1304SOL    HW215375   4.118   1.151   3.481 -0.0901 -1.2429 -0.1145
 1305SOL     OW15376   1.098   4.224  10.972  0.1034  0.0158 -0.3987
 1305SOL    HW115377   1.080   4.255  10.883  2.0781  0.6396 -0.5684
 1305SOL    HW215378   1.180   4.175  10.963  0.2949  0.4240 -0.8398
 1306SOL     OW15379   2.290   4.567   8.496 -0.5682 -0.1238 -0.2494
 1306SOL    HW115380   2.362   4.630   8.491 -0.2183 -0.4365  0.9632
 1306SOL    HW215381   2.286   4.549   8.590  0.5828  1.7309  0.1469
 1307SOL     OW15382   3.978   0.207   3.543 -0.4271  0.1322 -0.2821
 1307SOL    HW115383   3.969   0.169   3.455  1.9001  0.7317 -0.7717
 1307SOL    HW215384   3.960   0.300   3.530 -0.7372  0.0705 -0.2955
 1308SOL     OW15385   0.961   2.987   3.783 -0.5985 -0.0034 -0.0891
 1308SOL    HW115386   0.945   2.899   3.749 -2.0438 -0.4373  1.7096
 1308SOL    HW215387   1.038   2.974   3.839  0.4454 -1.4554 -1.8637
 1309SOL     OW15388   0.374   1.579   5.196  0.4012  0.0207  0.7634
 1309SOL    HW115389   0.458   1.624   5.197  0.7227 -0.5681 -0.5342
 1309SOL    HW215390   0.398   1.503   5.249  1.7708 -0.6371 -0.8044
 1310SOL     OW15391   1.461   1.463   6.946 -0.0638  0.3388  0.7408
 1310SOL    HW115392   1.478   1.406   6.871 -1.5365 -1.3720  1.7039
 1310SOL    HW215393   1.368   1.447   6.959  0.0713 -0.7330  0.3821
 1311SOL     OW15394   2.691   4.329  15.623  0.0169 -0.2475 -0.8086
 1311SOL    HW115395   2.603   4.293  15.635  1.1889 -2.4936  0.9760
 1311SOL    HW215396   2.691   4.332  15.527 -0.2966 -0.8867 -0.8285
 1312SOL     OW15397   4.060   1.947   2.953  0.1229 -0.3774 -0.6485
 1312SOL    HW115398   4.089   1.906   2.871 -0.2406 -0.3726 -0.7793
 1312SOL    HW215399   4.129   1.931   3.018  0.9388  0.3651 -1.3260
 1313SOL     OW15400   4.703   1.607  14.101  0.4590  0.4141  0.1787
 1313SOL    HW115401   0.053   1.565  14.145  0.5539 -0.4562 -0.8277
 1313SOL    HW215402   4.688   1.544  14.031  0.9104 -1.0491  1.3912
 1314SOL     OW15403   1.874   1.554   8.639 -0.4167 -0.2361  0.3199
 1314SOL    HW115404   1.822   1.473   8.644 -0.6701 -0.1416 -0.8325
 1314SOL    HW215405   1.932   1.547   8.715 -1.5991  1.2610  1.3707
 1315SOL     OW15406   0.818   0.423   3.294  0.1888 -0.2574  0.3084
 1315SOL    HW115407   0.723   0.435   3.291  0.2679  0.7480  1.5502
 1315SOL    HW215408   0.828   0.398   3.386  2.5957 -1.6561 -0.3512
 1316SOL     OW15409   0.318   0.962   9.514  0.1007  0.0932  0.0219
 1316SOL    HW115410   0.271   0.909   9.578  0.1249  2.5571  2.0951
 1316SOL    HW215411   0.277   0.923   9.437  1.0733 -0.4404 -0.2158
 1317SOL     OW15412   4.711   2.849  12.072  0.2839 -0.1904  0.1413
 1317SOL    HW115413   4.656   2.810  12.140  0.8501 -1.6939 -0.2512
 1317SOL    HW215414   0.047   2.906  12.120  2.2707 -1.2578 -1.0411
 1318SOL     OW15415   4.116   1.101   4.563  0.0529  0.9504  0.1352
 1318SOL    HW115416   4.026   1.074   4.543  0.0971  0.5507  0.4668
 1318SOL    HW215417   4.134   1.070   4.652 -2.2016  2.3711  1.0725
 1319SOL     OW15418   2.871   1.222  10.373 -0.1106  0.2404  0.1507
 1319SOL    HW115419   2.926   1.264  10.307 -1.5385  2.4305  0.3268
 1319SOL    HW215420   2.792   1.251  10.328  1.3606  0.8660 -2.0510
 1320SOL     OW15421   1.700   4.646  16.627 -0.5674  0.1130 -0.2654
 1320SOL    HW115422   1.730   4.564  16.588  0.4415  0.7272 -0.7764
 1320SOL    HW215423   1.636   4.615  16.692  1.2406 -1.2027  0.8624
 1321SOL     OW15424   2.441   2.184   5.313  0.7102  0.3638 -0.5534
 1321SOL    HW115425   2.447   2.089   5.316  0.1774  0.3493 -0.0092
 1321SOL    HW215426   2.345   2.186   5.317  0.8152  0.9875  1.6553
 1322SOL     OW15427   3.827   0.292   4.930 -0.4004 -0.4134 -0.5937
 1322SOL    HW115428   3.734   0.309   4.913  0.5442  2.7256 -2.6325
 1322SOL    HW215429   3.850   0.379   4.962 -0.8801 -0.3848 -0.3325
 1323SOL     OW15430   0.927   3.876   0.932 -0.1732 -0.5733  0.4415
 1323SOL    HW115431   0.929   3.785   0.960 -0.1536 -0.1255  1.9122
 1323SOL    HW215432   0.890   3.870   0.845  1.2643 -0.4383 -0.1828
 1324SOL     OW15433   1.120   3.640   1.142  0.2609 -0.1506  0.2139
 1324SOL    HW115434   1.067   3.599   1.210  1.0861  0.2094  1.0817
 1324SOL    HW215435   1.075   3.618   1.061 -0.2573  1.2247  0.1260
 1325SOL     OW15436   2.031   1.218   3.874  0.7628 -0.1979  0.4183
 1325SOL    HW115437   2.000   1.128   3.876 -1.8040  0.6796 -0.7969
 1325SOL    HW215438   2.009   1.242   3.784  0.5412  0.5797  0.6802
 1326SOL     OW15439   0.106   2.304   4.556 -0.4614  0.2231  0.1055
 1326SOL    HW115440   0.192   2.303   4.597 -0.2122  0.1249 -0.4294
 1326SOL    HW215441   0.075   2.215   4.572 -0.0707 -0.0493 -0.6589
 1327SOL     OW15442   1.344   4.575   6.537 -0.0997 -0.4677 -0.0832
 1327SOL    HW115443   1.364   4.663   6.505  4.4903 -1.0975  1.0537
 1327SOL    HW215444   1.403   4.580   6.613 -2.0370  1.4870  1.3138
 1328SOL     OW15445   3.421   4.023   1.019  0.1465  0.0950 -0.5300
 1328SOL    HW115446   3.501   4.075   1.028  1.0907 -1.5672  0.5629
 1328SOL    HW215447   3.441   3.951   1.079  1.0666  0.6596 -0.1591
 1329SOL     OW15448   1.562   1.128  10.809 -0.2741 -0.7039 -0.2219
 1329SOL    HW115449   1.485   1.185  10.815  0.2950  0.2076 -1.6610
 1329SOL    HW215450   1.620   1.200  10.784 -2.0557  0.2842 -1.5020
 1330SOL     OW15451   3.919   4.524   4.367  0.3054  0.0072  0.3782
 1330SOL    HW115452   3.960   4.522   4.453 -2.1730  0.2276  1.5437
 1330SOL    HW215453   3.839   4.478   4.389  0.6590  0.0251  1.6880
 1331SOL     OW15454   2.500   4.251   8.067 -0.1756  0.0270 -0.3377
 1331SOL    HW115455   2.417   4.258   8.114 -0.6689 -0.9351 -1.0681
 1331SOL    HW215456   2.526   4.159   8.076 -1.3287  0.0135  2.9693
 1332SOL     OW15457   1.408   4.322   2.534 -0.4459  0.4892 -0.5517
 1332SOL    HW115458   1.433   4.337   2.443  0.6172  0.3117 -0.2935
 1332SOL    HW215459   1.320   4.285   2.534 -0.0088 -0.5588 -0.3235
 1333SOL     OW15460   2.369   3.124   1.404 -0.1292  0.2203  0.2795
 1333SOL    HW115461   2.425   3.200   1.422  1.7809 -0.4269 -2.9795
 1333SOL    HW215462   2.353   3.087   1.491  0.7755 -3.5027 -1.1198
 1334SOL     OW15463   4.476   4.088  17.557 -0.3374  0.2586 -0.1095
 1334SOL    HW115464   4.550   4.147  17.565  0.6456 -0.6987 -1.9597
 1334SOL    HW215465   4.471   4.084  17.461  3.3924 -5.3063 -0.1124
 1335SOL     OW15466   2.798   2.139  14.165 -0.3293  0.1843  0.7075
 1335SOL    HW115467   2.729   2.103  14.221  0.0850 -0.5933  0.7060
 1335SOL    HW215468   2.749   2.214  14.128  0.5148  0.2968 -0.1752
 1336SOL     OW15469   0.629   1.794   3.221  0.4585  0.4968 -0.2838
 1336SOL    HW115470   0.703   1.766   3.168  0.1058 -0.6842 -0.1595
 1336SOL    HW215471   0.610   1.706   3.252 -0.9247  1.6279  2.0752
 1337SOL     OW15472   2.438   1.014   0.194  0.1179  0.5060 -0.3682
 1337SOL    HW115473   2.351   1.007   0.232  1.3291  2.9277  2.8034
 1337SOL    HW215474   2.461   1.106   0.206  1.5673  0.1329 -0.2525
 1338SOL     OW15475   2.255   0.688  16.700 -0.1765  0.3533  0.4010
 1338SOL    HW115476   2.218   0.608  16.661  0.1875  0.9043 -1.0772
 1338SOL    HW215477   2.209   0.702  16.783  0.1690  1.6554  0.3616
 1339SOL     OW15478   0.757   3.983   5.453 -0.0685 -0.1721 -0.1262
 1339SOL    HW115479   0.705   4.022   5.523 -0.3918 -0.7612 -0.0380
 1339SOL    HW215480   0.780   3.896   5.486  2.2797  0.9096  1.0585
 1340SOL     OW15481   4.517   2.837   7.280  0.8616 -0.6830  0.2206
 1340SOL    HW115482   4.464   2.815   7.203 -1.7888  1.3654  1.4776
 1340SOL    HW215483   4.607   2.843   7.247  0.2177 -0.1351 -1.4293
 1341SOL     OW15484   1.864   1.168   2.279 -0.1078  0.0132 -0.2778
 1341SOL    HW115485   1.822   1.250   2.304  0.8290  0.1576  0.8189
 1341SOL    HW215486   1.787   1.113   2.266  1.0006 -1.6796  0.2060
 1342SOL     OW15487   2.355   3.055   6.270  0.5108  0.1144 -0.2525
 1342SOL    HW115488   2.436   3.051   6.321 -0.0916  1.1186  0.7678
 1342SOL    HW215489   2.382   3.013   6.188 -1.3328 -0.8224 -0.3871
 1343SOL     OW15490   3.593   1.591   2.836  0.1402  0.3805  0.1436
 1343SOL    HW115491   3.663   1.528   2.816 -1.4951 -1.9324  1.7682
 1343SOL    HW215492   3.574   1.619   2.746 -0.1212  0.2874  0.1714
 1344SOL     OW15493   2.649   0.653   3.988 -0.3773 -0.4030 -0.0045
 1344SOL    HW115494   2.596   0.579   4.019  0.0422  0.3433  2.4849
 1344SOL    HW215495   2.738   0.616   3.995  0.7093  1.8253 -2.1435
 1345SOL     OW15496   3.557   3.294  14.968 -0.3668  0.2151  0.2729
 1345SOL    HW115497   3.641   3.305  14.922 -0.4669  1.4757  0.3805
 1345SOL    HW215498   3.586   3.261  15.053  0.4124 -1.4772 -0.6420
 1346SOL     OW15499   4.081   3.570  15.397 -0.2133  0.3764 -0.5294
 1346SOL    HW115500   4.133   3.490  15.396  0.2539  0.6606  1.4989
 1346SOL    HW215501   4.075   3.589  15.303  0.5984  0.0407 -0.6473
 1347SOL     OW15502   1.704   0.393   2.854  0.1668  0.5946  0.7068
 1347SOL    HW115503   1.723   0.475   2.809  0.0929 -0.1317 -0.6270
 1347SOL    HW215504   1.744   0.329   2.795 -2.9305  1.8164 -2.6558
 1348SOL     OW15505   1.306   3.345   7.013 -0.2719  0.5939 -0.4437
 1348SOL    HW115506   1.311   3.422   6.957  0.6579 -0.5133 -1.8916
 1348SOL    HW215507   1.337   3.378   7.097 -2.1455 -2.6940  1.5673
 1349SOL     OW15508   3.809   0.274   3.299 -0.3556  0.1034 -0.2669
 1349SOL    HW115509   3.719   0.295   3.274  0.0310  1.6301 -0.4320
 1349SOL    HW215510   3.812   0.179   3.289  0.1026  0.1598 -0.6283
 1350SOL     OW15511   0.654   1.121   6.515  0.2801 -0.2760  0.0184
 1350SOL    HW115512   0.632   1.138   6.423 -0.6505  0.6383  0.4125
 1350SOL    HW215513   0.640   1.027   6.503  0.6150  0.2166 -4.4278
 1351SOL     OW15514   1.122   0.048   8.463  0.1857  0.3841  0.0881
 1351SOL    HW115515   1.080   4.690   8.488  1.5022 -0.5360 -0.7054
 1351SOL    HW215516   1.045   0.104   8.453  0.0130 -0.5295 -3.6745
 1352SOL     OW15517   3.014   3.120   3.023 -0.3123 -0.0964 -0.6490
 1352SOL    HW115518   3.099   3.099   2.984  0.6241  0.1885  1.2525
 1352SOL    HW215519   3.037   3.103   3.114  0.0207  1.0717 -0.5156
 1353SOL     OW15520   2.109   0.331  15.866  0.3925  0.2971  0.2835
 1353SOL    HW115521   2.064   0.311  15.949  0.1608 -1.0521 -0.1561
 1353SOL    HW215522   2.039   0.314  15.803  1.6030 -2.3453 -0.3491
 1354SOL     OW15523   4.155   2.386   7.092  0.0287  0.4290 -0.3062
 1354SOL    HW115524   4.076   2.417   7.049  1.0310  1.5970 -1.3241
 1354SOL    HW215525   4.141   2.291   7.096  1.4032  0.0901 -3.8062
 1355SOL     OW15526   4.288   0.882   5.608  0.2243  0.0764 -0.4895
 1355SOL    HW115527   4.221   0.822   5.575 -0.4265 -0.8897  2.5351
 1355SOL    HW215528   4.355   0.816   5.627  0.7959  2.0197  4.2646
 1356SOL     OW15529   3.852   3.450  12.093  0.2140  0.3512  0.3661
 1356SOL    HW115530   3.767   3.426  12.129  0.6787 -0.4386  0.9167
 1356SOL    HW215531   3.915   3.387  12.128 -1.1267 -0.5904  1.0596
 1357SOL     OW15532   4.615   2.960   6.366  0.0100 -0.2231  0.3148
 1357SOL    HW115533   4.690   2.914   6.405  0.8298  0.7550 -0.1199
 1357SOL    HW215534   4.543   2.914   6.410 -1.3027  0.1125 -1.5156
 1358SOL     OW15535   1.794   3.866   4.786  0.2349 -0.2029  0.4207
 1358SOL    HW115536   1.849   3.845   4.711  0.7013 -0.1359  0.7401
 1358SOL    HW215537   1.720   3.900   4.737  0.2012  1.4085  1.5628
 1359SOL     OW15538   2.148   0.290  15.550  0.2569 -0.4273 -0.1176
 1359SOL    HW115539   2.111   0.356  15.491  0.7261 -1.4565 -1.5680
 1359SOL    HW215540   2.067   0.252  15.585  0.0259  0.4603  0.2868
 1360SOL     OW15541   1.186   2.787  13.066 -0.1249 -0.2324  0.0445
 1360SOL    HW115542   1.109   2.745  13.105  0.3775 -1.7210 -0.5836
 1360SOL    HW215543   1.230   2.810  13.147 -2.6612  1.0878  1.0510
 1361SOL     OW15544   0.324   0.178   7.657 -0.1961 -0.2052  0.1062
 1361SOL    HW115545   0.391   0.203   7.721 -2.0684 -0.6086  2.2490
 1361SOL    HW215546   0.239   0.178   7.702  0.3389 -1.1497  1.1334
 1362SOL     OW15547   1.722   3.631  16.159 -0.3701  0.4893 -0.4034
 1362SOL    HW115548   1.724   3.687  16.082  0.8127  0.9133 -0.0548
 1362SOL    HW215549   1.662   3.561  16.133  1.0548 -0.9727  0.2486
 1363SOL     OW15550   0.429   0.588   7.804  0.1417  0.1104 -0.0396
 1363SOL    HW115551   0.368   0.515   7.817 -2.1323  1.6919 -1.6857
 1363SOL    HW215552   0.413   0.610   7.712 -0.4026 -0.2927 -0.0474
 1364SOL     OW15553   3.496   0.068  11.495 -0.2946  0.4467  0.1294
 1364SOL    HW115554   3.473   0.002  11.560  2.5270  0.2112  0.8794
 1364SOL    HW215555   3.532   0.140  11.546  1.6490 -0.0131 -0.6077
 1365SOL     OW15556   1.957   0.689   2.198 -0.3164 -0.1350  0.2580
 1365SOL    HW115557   1.870   0.707   2.160 -1.1702  0.8562  2.7189
 1365SOL    HW215558   2.008   0.762   2.161 -0.3385  0.9346  2.3631
 1366SOL     OW15559   0.128   2.247   3.597 -0.8283 -0.0130  0.4890
 1366SOL    HW115560   0.175   2.297   3.531 -2.1900 -0.4945 -0.8459
 1366SOL    HW215561   0.185   2.170   3.594  1.0468  1.3705  0.8798
 1367SOL     OW15562   2.298   0.196   8.323 -0.0467 -0.2452 -0.3233
 1367SOL    HW115563   2.268   0.230   8.238  0.9852 -0.4809 -0.7808
 1367SOL    HW215564   2.216   0.191   8.372 -0.5308 -1.3904 -1.2363
 1368SOL     OW15565   3.966   3.144   4.989  0.3341 -0.3098  0.0855
 1368SOL    HW115566   3.942   3.210   4.923  0.2074 -2.0532 -1.6278
 1368SOL    HW215567   4.031   3.196   5.035  0.7465  0.0018 -0.8531
 1369SOL     OW15568   0.091   4.710   7.110  0.2846  0.3957  0.2304
 1369SOL    HW115569   0.097   4.636   7.171 -0.7655 -0.4714 -0.7235
 1369SOL    HW215570   0.045   0.051   7.163  1.2445 -0.7491  2.4554
 1370SOL     OW15571   0.056   0.520   8.254  0.2221 -0.3003  0.1688
 1370SOL    HW115572   0.128   0.567   8.296  0.9467 -1.1354 -0.1431
 1370SOL    HW215573   0.041   0.454   8.322 -0.5128 -0.0363  0.2659
 1371SOL     OW15574   0.830   2.804   5.532  0.1936  0.3848 -0.1919
 1371SOL    HW115575   0.795   2.785   5.445  0.8743 -0.0902 -0.3691
 1371SOL    HW215576   0.922   2.781   5.517  0.2838  0.4692  0.2534
 1372SOL     OW15577   2.006   1.647  13.079  0.2158 -0.2301  0.3904
 1372SOL    HW115578   1.923   1.606  13.055  0.1978  0.3359 -0.5187
 1372SOL    HW215579   1.993   1.733  13.040  0.5125  0.6987  2.3471
 1373SOL     OW15580   3.239   3.829   2.454 -0.1314  0.6943 -0.5283
 1373SOL    HW115581   3.290   3.749   2.449 -1.2302 -0.0299  0.0456
 1373SOL    HW215582   3.245   3.851   2.360 -0.2812  0.1298 -0.6671
 1374SOL     OW15583   2.037   3.151   0.862  0.5722  0.0612  0.2359
 1374SOL    HW115584   1.957   3.202   0.873  0.2486 -0.5544  0.7459
 1374SOL    HW215585   2.053   3.104   0.944 -1.4194  2.3195  1.9095
 1375SOL     OW15586   4.121   1.275   5.397  0.0014  0.3184 -0.1902
 1375SOL    HW115587   4.106   1.191   5.440  0.7247 -0.1019 -0.7524
 1375SOL    HW215588   4.033   1.290   5.364  1.6925  3.3907 -3.3040
 1376SOL     OW15589   3.669   1.453   2.359  0.1895 -0.0155 -0.4412
 1376SOL    HW115590   3.578   1.425   2.359  0.2352 -0.1772  1.0041
 1376SOL    HW215591   3.655   1.547   2.352 -1.9200 -0.3644 -0.7926
 1377SOL     OW15592   3.382   0.822   7.223 -0.1647 -0.3316  0.3399
 1377SOL    HW115593   3.468   0.813   7.182  1.2717 -0.8479  3.4669
 1377SOL    HW215594   3.405   0.859   7.309 -0.1767 -1.0703  0.6543
 1378SOL     OW15595   1.742   2.132   9.466 -0.0635  0.5677  0.1673
 1378SOL    HW115596   1.692   2.082   9.531  1.3900  0.0616  0.9034
 1378SOL    HW215597   1.780   2.197   9.526 -0.0109 -1.2546  2.1062
 1379SOL     OW15598   3.119   2.406   3.304 -0.0131  0.6130  0.6436
 1379SOL    HW115599   3.176   2.421   3.379  0.3647 -0.6397  0.6099
 1379SOL    HW215600   3.126   2.487   3.254 -0.1372  0.6464  0.6782
 1380SOL     OW15601   0.181   0.204   0.813  0.1873  0.3050  0.1251
 1380SOL    HW115602   0.260   0.198   0.759 -0.8773 -1.4116 -1.2370
 1380SOL    HW215603   0.227   0.220   0.896 -0.3918  1.5393  0.2082
 1381SOL     OW15604   1.158   0.828   5.017  0.2573  0.7204 -0.4292
 1381SOL    HW115605   1.146   0.910   5.066  1.0774 -0.2932  1.4342
 1381SOL    HW215606   1.228   0.790   5.070 -0.5023  0.4618  0.3911
 1382SOL     OW15607   2.625   2.341   0.223  0.2923  0.1192 -0.3692
 1382SOL    HW115608   2.719   2.345   0.205  0.4278  0.4454  0.4318
 1382SOL    HW215609   2.598   2.409   0.162  0.2333  1.4385  1.1359
 1383SOL     OW15610   3.174   4.280   3.030  0.4719  0.0873  0.4009
 1383SOL    HW115611   3.183   4.190   2.999  1.7427 -0.7878  3.2761
 1383SOL    HW215612   3.145   4.333   2.956  0.7708 -0.3902 -0.0583
 1384SOL     OW15613   2.449   1.116   1.896 -0.5058 -0.4575 -0.2002
 1384SOL    HW115614   2.366   1.151   1.865  0.3047  2.3983  0.8118
 1384SOL    HW215615   2.495   1.200   1.899 -0.9477 -0.2618  1.3113
 1385SOL     OW15616   3.404   4.543   3.333  0.3349  0.3598 -0.3782
 1385SOL    HW115617   3.439   4.630   3.314  0.5846 -0.3599 -3.2094
 1385SOL    HW215618   3.483   4.490   3.344 -1.0649 -1.1674  2.3856
 1386SOL     OW15619   1.979   0.773   1.930  0.0602  0.3189 -0.1840
 1386SOL    HW115620   2.068   0.804   1.948 -1.1242  2.4771  1.8302
 1386SOL    HW215621   1.986   0.688   1.887  2.8930 -0.7289  2.3966
 1387SOL     OW15622   2.375   3.042   2.848  0.5045  1.3151  0.7516
 1387SOL    HW115623   2.442   3.066   2.912  0.4054  0.0167  1.3207
 1387SOL    HW215624   2.372   3.122   2.794 -0.6759  1.2072  0.6639
 1388SOL     OW15625   3.675   2.810   7.964 -0.3648  0.3814 -0.1632
 1388SOL    HW115626   3.732   2.881   7.932  0.3361 -1.4029 -2.8798
 1388SOL    HW215627   3.723   2.791   8.044  0.4295  0.7318 -0.5530
 1389SOL     OW15628   0.275   2.227   9.392 -0.0956 -0.1209 -0.1402
 1389SOL    HW115629   0.351   2.170   9.389  1.2633  1.7458 -1.2128
 1389SOL    HW215630   0.277   2.262   9.481  0.6191  0.6600 -0.4686
 1390SOL     OW15631   1.684   3.929  10.217  0.4722 -0.5420 -0.0599
 1390SOL    HW115632   1.765   3.979  10.216  0.5811 -0.6993  0.7586
 1390SOL    HW215633   1.685   3.905  10.310  0.5752 -1.8837 -0.3995
 1391SOL     OW15634   0.779   1.684   4.290  0.0139 -0.4215  0.3353
 1391SOL    HW115635   0.813   1.636   4.214  1.1460  0.0347  0.5558
 1391SOL    HW215636   0.741   1.616   4.346 -0.4556 -0.5752 -0.1616
 1392SOL     OW15637   3.432   4.499  17.620  0.3585 -0.2618 -0.1321
 1392SOL    HW115638   3.518   4.492  17.578 -0.5965  0.6259 -2.2072
 1392SOL    HW215639   3.411   4.586  17.588  0.5510  0.6589  2.2329
 1393SOL     OW15640   1.635   2.455   5.262 -0.2921  0.1720  0.3926
 1393SOL    HW115641   1.715   2.484   5.219 -2.2094  2.8296 -1.4126
 1393SOL    HW215642   1.574   2.516   5.220 -0.1185  0.9374  1.2553
 1394SOL     OW15643   4.567   1.588   7.593  0.6599 -0.8631  0.4423
 1394SOL    HW115644   4.603   1.633   7.517 -0.0012 -0.6687  0.2374
 1394SOL    HW215645   4.626   1.618   7.662  1.6394 -0.4590 -0.5767
 1395SOL     OW15646   1.326   4.404   0.510 -0.0906  0.1966 -0.2076
 1395SOL    HW115647   1.363   4.328   0.466  1.2226  2.0079 -2.2590
 1395SOL    HW215648   1.402   4.461   0.494 -0.8055  0.7725 -1.6465
 1396SOL     OW15649   3.974   4.489   3.343  0.1419  0.1340 -0.0694
 1396SOL    HW115650   4.029   4.495   3.265 -0.0565 -0.0834 -0.2298
 1396SOL    HW215651   3.955   4.579   3.366 -0.0341 -0.4612  2.1384
 1397SOL     OW15652   0.759   0.093   2.799 -0.0661 -0.0021 -0.7268
 1397SOL    HW115653   0.764   4.722   2.784  0.8059 -0.1357  0.3700
 1397SOL    HW215654   0.807   0.125   2.723 -0.6504 -3.2176 -2.4822
 1398SOL     OW15655   3.915   3.898  16.519 -0.4956 -0.1121  0.1873
 1398SOL    HW115656   3.959   3.905  16.603 -1.2366 -3.9757  0.8946
 1398SOL    HW215657   3.961   3.829  16.471  0.5618  0.8870 -0.2495
 1399SOL     OW15658   3.967   1.623   7.372  0.1816 -0.1415  0.2076
 1399SOL    HW115659   3.976   1.573   7.453  0.2227 -0.3696  0.0609
 1399SOL    HW215660   3.957   1.548   7.314 -1.0469 -0.4491  0.8065
 1400SOL     OW15661   2.652   2.477   1.934  0.5662  0.6386 -0.0334
 1400SOL    HW115662   2.645   2.558   1.884 -2.8239 -0.8770 -1.9569
 1400SOL    HW215663   2.569   2.480   1.981  1.5156  1.2993  1.6219
 1401SOL     OW15664   0.268   1.102   4.394  0.0420 -0.3003  0.1556
 1401SOL    HW115665   0.287   1.178   4.339 -0.2112  0.0183  0.5045
 1401SOL    HW215666   0.260   1.027   4.336 -1.6162  0.2148 -0.2953
 1402SOL     OW15667   1.151   4.572   1.584  0.2592 -0.2208 -0.1287
 1402SOL    HW115668   1.120   4.653   1.624 -1.3074  0.3760 -2.5638
 1402SOL    HW215669   1.157   4.596   1.492  0.0690  0.8095  0.1255
 1403SOL     OW15670   4.208   2.681  15.574  0.0915 -0.2126  0.1160
 1403SOL    HW115671   4.159   2.686  15.656  1.1311 -2.1498  0.8608
 1403SOL    HW215672   4.244   2.769  15.565 -1.0108  0.1780 -0.4220
 1404SOL     OW15673   3.689   2.630   1.896  0.6262  0.0879  0.7652
 1404SOL    HW115674   3.637   2.676   1.962 -0.4049 -2.1283  1.5122
 1404SOL    HW215675   3.717   2.551   1.943  0.0727  0.2803  1.4042
 1405SOL     OW15676   3.497   1.231  13.967 -0.4568  0.4428 -0.3005
 1405SOL    HW115677   3.564   1.256  13.904 -1.2876 -1.5706 -1.9754
 1405SOL    HW215678   3.441   1.171  13.918  2.8378 -1.4089 -1.8160
 1406SOL     OW15679   4.190   1.713  11.798  0.3201 -0.4963 -0.4240
 1406SOL    HW115680   4.163   1.792  11.847  1.2521  0.7675 -1.9569
 1406SOL    HW215681   4.228   1.755  11.721  0.1860 -4.3823 -2.5551
 1407SOL     OW15682   2.115   3.528   8.654 -0.0564 -0.3102 -0.1901
 1407SOL    HW115683   2.114   3.506   8.747 -2.6677  3.0078  0.5796
 1407SOL    HW215684   2.024   3.514   8.627 -0.2011 -2.0014  1.1660
 1408SOL     OW15685   1.870   0.517  11.527  0.1896  0.3250  0.0534
 1408SOL    HW115686   1.961   0.496  11.547  0.4568  2.8935  1.6349
 1408SOL    HW215687   1.876   0.580  11.455  2.4541  1.0269  0.8580
 1409SOL     OW15688   2.939   2.782   9.646  0.1878  0.6365 -0.5956
 1409SOL    HW115689   2.861   2.733   9.671  0.6913 -0.7041 -1.6115
 1409SOL    HW215690   2.902   2.836   9.576 -2.1199 -2.1034 -1.4820
 1410SOL     OW15691   3.627   1.793   7.044  0.4526 -0.3649 -0.4889
 1410SOL    HW115692   3.630   1.875   7.092 -4.0125 -0.5839  0.1536
 1410SOL    HW215693   3.552   1.798   6.985 -0.5189 -1.2358  0.6663
 1411SOL     OW15694   1.986   1.369  16.803  0.2476 -0.2379 -0.4581
 1411SOL    HW115695   1.963   1.461  16.791 -2.1400 -0.8550 -0.8139
 1411SOL    HW215696   1.962   1.334  16.716  2.6392 -1.4570 -0.6093
 1412SOL     OW15697   1.811   3.997  14.640  0.1543 -0.4596 -0.0719
 1412SOL    HW115698   1.732   4.031  14.682  1.0115 -2.2702  3.0388
 1412SOL    HW215699   1.887   4.022  14.692  0.4189  1.4091 -1.3578
 1413SOL     OW15700   4.669   2.474  11.528 -0.1964  0.5756  0.4227
 1413SOL    HW115701   4.703   2.433  11.608  1.3389  0.6347 -0.1921
 1413SOL    HW215702   4.663   2.393  11.477  0.1627  1.2269 -0.6506
 1414SOL     OW15703   3.247   4.692  14.216 -0.2229 -0.2868 -0.0773
 1414SOL    HW115704   3.211   0.024  14.284 -0.0846  1.5490 -1.5305
 1414SOL    HW215705   3.169   4.668  14.166 -0.0673  1.2099 -1.0113
 1415SOL     OW15706   2.570   1.145   4.511 -0.0570 -0.1903  0.5163
 1415SOL    HW115707   2.618   1.219   4.546  2.4103 -0.7811 -1.6057
 1415SOL    HW215708   2.477   1.155   4.533  0.4156  1.8941  1.5031
 1416SOL     OW15709   1.634   1.717   3.888 -0.7255  0.1290 -0.7562
 1416SOL    HW115710   1.687   1.716   3.808  0.6831  0.0508  0.1644
 1416SOL    HW215711   1.635   1.623   3.908 -1.5535  0.4528  0.8468
 1417SOL     OW15712   0.883   3.189   0.678 -0.0399  1.1256 -0.3525
 1417SOL    HW115713   0.973   3.199   0.646 -0.6208  0.4828 -2.1580
 1417SOL    HW215714   0.901   3.171   0.771  2.0006 -1.4697 -1.2450
 1418SOL     OW15715   0.738   1.125   0.546 -0.2295  0.4212 -0.3890
 1418SOL    HW115716   0.752   1.219   0.550  2.0544  0.1396 -1.4019
 1418SOL    HW215717   0.647   1.120   0.573 -0.0052  1.5658  0.5464
 1419SOL     OW15718   0.313   0.268  12.866 -0.3086  0.0776  0.5044
 1419SOL    HW115719   0.358   0.198  12.819 -0.0413  0.7857 -0.3123
 1419SOL    HW215720   0.368   0.285  12.942 -2.3238  1.2846  1.7085
 1420SOL     OW15721   4.697   3.972  12.521  0.0538 -0.0171 -0.3329
 1420SOL    HW115722   4.706   3.897  12.578 -1.8850  0.5315  0.7156
 1420SOL    HW215723   0.061   4.009  12.526 -0.1438  0.8981 -3.4887
 1421SOL     OW15724   0.492   4.564   6.168 -0.3651  0.5376  0.1858
 1421SOL    HW115725   0.404   4.555   6.204 -0.6531  1.0213 -0.3904
 1421SOL    HW215726   0.468   4.592   6.079  0.5971 -1.4359 -0.6791
 1422SOL     OW15727   2.811   0.781   0.881 -0.5646  0.1399  0.0265
 1422SOL    HW115728   2.754   0.816   0.950 -0.1489  1.9469 -0.5311
 1422SOL    HW215729   2.897   0.796   0.919 -0.2449  1.3557 -1.1722
 1423SOL     OW15730   2.277   2.975  11.623  0.0304  0.2767  0.7196
 1423SOL    HW115731   2.198   3.017  11.590  0.8505  2.2248  1.2350
 1423SOL    HW215732   2.244   2.931  11.701 -2.3210  1.2467  0.2737
 1424SOL     OW15733   4.287   2.044   5.870  0.3356  0.6526  0.5375
 1424SOL    HW115734   4.353   2.004   5.813 -1.7442 -0.4837 -1.0807
 1424SOL    HW215735   4.257   2.124   5.828 -0.0407 -0.4516 -1.2732
 1425SOL     OW15736   0.314   2.278   3.167 -0.7322 -0.4852  0.3904
 1425SOL    HW115737   0.222   2.306   3.165 -0.1527  1.5796  2.7973
 1425SOL    HW215738   0.314   2.204   3.228  0.9259  1.6591  2.9989
 1426SOL     OW15739   1.655   3.415  13.189  0.0804 -0.2034 -0.1507
 1426SOL    HW115740   1.703   3.421  13.107  0.4773 -1.2479  0.0147
 1426SOL    HW215741   1.662   3.326  13.223  0.3510 -0.6140 -1.2964
 1427SOL     OW15742   2.681   2.372  14.139  1.2924 -0.3850  0.6444
 1427SOL    HW115743   2.711   2.462  14.140  0.0513  0.0317 -0.0701
 1427SOL    HW215744   2.623   2.381  14.064  0.0163  1.3416  1.8535
 1428SOL     OW15745   0.574   3.404  10.611  0.2432 -0.6140 -0.4381
 1428SOL    HW115746   0.634   3.469  10.649 -1.7076  0.4520  0.8104
 1428SOL    HW215747   0.600   3.395  10.520  0.5815 -0.9808 -0.3058
 1429SOL     OW15748   0.058   3.470   2.340  0.4424  0.9520  0.2729
 1429SOL    HW115749   0.101   3.455   2.424 -2.0726 -0.6236  1.2656
 1429SOL    HW215750   0.080   3.394   2.286  0.8534  0.7306  0.7558
 1430SOL     OW15751   0.757   1.429   5.429  0.5185  0.6594  0.2103
 1430SOL    HW115752   0.818   1.458   5.497 -0.9571 -0.9957  2.2829
 1430SOL    HW215753   0.812   1.421   5.352 -1.7695 -3.7140 -0.9706
 1431SOL     OW15754   3.739   1.425   1.420 -0.2018  0.3175  0.1669
 1431SOL    HW115755   3.738   1.490   1.350 -1.9350 -1.0459 -1.0356
 1431SOL    HW215756   3.806   1.461   1.479  2.5474 -0.0834 -2.7434
 1432SOL     OW15757   4.627   1.089  14.892 -0.5432  0.2418 -0.7214
 1432SOL    HW115758   4.603   1.028  14.962  0.6083  0.9341  0.2805
 1432SOL    HW215759   4.692   1.038  14.844  0.4053 -0.2812  1.1195
 1433SOL     OW15760   4.359   1.698  14.450 -0.3312  0.3482  0.1754
 1433SOL    HW115761   4.414   1.712  14.373  0.0424  1.7946  0.6961
 1433SOL    HW215762   4.311   1.620  14.424 -1.3376  1.3438 -0.9697
 1434SOL     OW15763   1.556   0.079   2.987  0.4717 -0.5205 -0.6034
 1434SOL    HW115764   1.475   0.027   2.994  0.5872 -0.2368  2.6199
 1434SOL    HW215765   1.514   0.159   2.954  0.2056  0.5758  2.4309
 1435SOL     OW15766   0.794   1.877   3.926 -0.3392  0.1514  0.0585
 1435SOL    HW115767   0.878   1.912   3.895  0.7538 -1.9339  0.6607
 1435SOL    HW215768   0.820   1.788   3.951  0.5854  1.2132  2.9386
 1436SOL     OW15769   3.350   1.773   4.803 -0.1440 -0.4708 -0.7491
 1436SOL    HW115770   3.308   1.789   4.719  0.7000  1.3873 -0.8146
 1436SOL    HW215771   3.342   1.858   4.846  1.4935 -0.3221 -0.7032
 1437SOL     OW15772   0.093   1.381   7.419  0.9214 -0.1163 -0.2241
 1437SOL    HW115773   0.034   1.317   7.459  0.4814  0.6685  0.3804
 1437SOL    HW215774   0.070   1.367   7.327 -1.2219 -0.7582  0.4083
 1438SOL     OW15775   0.138   0.025  17.394  0.5578 -0.2413  0.1071
 1438SOL    HW115776   0.233   0.030  17.407  0.4982  2.0630 -0.4119
 1438SOL    HW215777   0.124   0.110  17.436 -0.3060  0.5175 -1.7343
 1439SOL     OW15778   1.259   2.106   5.303  0.5081 -0.6918  0.0670
 1439SOL    HW115779   1.302   2.161   5.369 -1.6343  1.4358 -0.3154
 1439SOL    HW215780   1.168   2.134   5.314  0.6617 -0.0162 -0.3645
 1440SOL     OW15781   2.526   0.593  15.878 -0.0494  0.0641  0.4693
 1440SOL    HW115782   2.556   0.656  15.944 -1.6379 -0.1819  1.4245
 1440SOL    HW215783   2.537   0.632  15.791 -0.3206  0.2246  0.5091
 1441SOL     OW15784   0.505   4.266  11.885  0.1406 -0.3533 -0.1719
 1441SOL    HW115785   0.560   4.336  11.919  0.9189 -1.6064  1.1399
 1441SOL    HW215786   0.422   4.290  11.928  0.9466  0.5905  0.8583
 1442SOL     OW15787   0.162   0.790   9.280 -0.6949 -1.1210  0.5549
 1442SOL    HW115788   0.075   0.831   9.282  0.5490  1.4272  1.8166
 1442SOL    HW215789   0.148   0.718   9.218 -1.2013 -0.0142 -0.6180
 1443SOL     OW15790   0.530   3.390  16.747  0.5057  0.1353  0.1379
 1443SOL    HW115791   0.559   3.302  16.770 -0.4934  0.4547  2.5165
 1443SOL    HW215792   0.513   3.370  16.655  0.2628 -1.4299  0.5316
 1444SOL     OW15793   4.534   1.243  13.589 -0.1713  0.2245 -0.1975
 1444SOL    HW115794   4.459   1.283  13.634  1.0998  3.4843 -0.9930
 1444SOL    HW215795   4.545   1.295  13.509  1.1804  0.4642  0.1379
 1445SOL     OW15796   3.065   4.662   3.583  0.2907  0.4659 -0.3445
 1445SOL    HW115797   3.099   4.585   3.539  0.6128  1.3636 -1.6555
 1445SOL    HW215798   3.136   0.001   3.576  1.3522 -0.7817 -0.6180
 1446SOL     OW15799   0.705   1.944   7.404  0.5640 -0.9469  0.2890
 1446SOL    HW115800   0.616   1.920   7.377  0.5044  1.0871 -1.2740
 1446SOL    HW215801   0.735   1.998   7.331  1.1181 -0.7116  0.6873
 1447SOL     OW15802   1.210   1.565   7.824 -0.4211 -0.5227 -0.0374
 1447SOL    HW115803   1.175   1.527   7.744 -1.6920 -0.3399  0.4300
 1447SOL    HW215804   1.165   1.510   7.887  0.8986 -1.0596  0.4312
 1448SOL     OW15805   4.181   0.196  16.195 -0.2669  0.6159 -0.0064
 1448SOL    HW115806   4.135   0.226  16.273 -0.2494 -0.9897  0.6398
 1448SOL    HW215807   4.120   0.234  16.133 -0.1225 -0.9180 -1.0995
 1449SOL     OW15808   3.617   2.215   6.305 -0.7042 -0.4058 -0.0503
 1449SOL    HW115809   3.676   2.279   6.345 -0.2079 -0.2320 -1.0641
 1449SOL    HW215810   3.666   2.147   6.260 -0.5935  1.1656 -2.2900
 1450SOL     OW15811   2.119   4.067   4.635 -0.6243 -0.0140 -0.0391
 1450SOL    HW115812   2.203   4.106   4.611 -0.8163 -0.1812 -1.0014
 1450SOL    HW215813   2.103   4.010   4.560 -0.3808 -0.1570  0.0186
 1451SOL     OW15814   2.492   0.678   8.727 -0.0998 -0.5188  0.4027
 1451SOL    HW115815   2.462   0.724   8.649  0.3226  2.1815  1.8182
 1451SOL    HW215816   2.490   0.747   8.794  0.1588  0.3018 -0.4344
 1452SOL     OW15817   1.011   0.729   8.580  0.7858 -0.5086 -0.0996
 1452SOL    HW115818   1.021   0.822   8.558  0.3575 -0.0529  1.6225
 1452SOL    HW215819   1.016   0.694   8.492  1.0096  0.1826 -0.3645
 1453SOL     OW15820   3.237   3.971  15.050  0.1829 -0.1222  0.3479
 1453SOL    HW115821   3.177   3.901  15.074  1.2927 -1.0469  0.4190
 1453SOL    HW215822   3.302   3.913  15.012 -1.2790 -1.4166 -0.1407
 1454SOL     OW15823   2.201   1.150  15.062  0.1784 -0.0157 -0.2876
 1454SOL    HW115824   2.106   1.157  15.063  0.0384 -1.6439 -1.6657
 1454SOL    HW215825   2.221   1.088  15.132 -1.9249 -0.7348 -0.3221
 1455SOL     OW15826   0.424   0.481   3.651  0.1729  0.5927  0.4637
 1455SOL    HW115827   0.349   0.496   3.593 -0.0679  2.5477  1.2633
 1455SOL    HW215828   0.396   0.538   3.723 -0.6784  0.9477 -0.1480
 1456SOL     OW15829   0.079   0.966   4.622 -0.2808  0.1285  0.2802
 1456SOL    HW115830   0.081   0.953   4.527  0.1553 -1.7392  0.5485
 1456SOL    HW215831   0.169   0.997   4.631  0.0535 -1.4350  2.0692
 1457SOL     OW15832   2.947   1.314  14.342  0.5592 -0.4444 -0.4145
 1457SOL    HW115833   3.017   1.373  14.369 -0.4530 -0.4550  2.2809
 1457SOL    HW215834   2.981   1.261  14.270  1.1254 -1.7600  0.8225
 1458SOL     OW15835   0.959   4.287   4.025 -0.0492 -0.3866 -0.3517
 1458SOL    HW115836   1.047   4.310   3.994 -1.0980 -0.9502 -3.8212
 1458SOL    HW215837   0.933   4.216   3.965 -0.8337  0.1088 -0.5871
 1459SOL     OW15838   4.073   2.818  17.600 -0.0505 -0.0274 -0.2760
 1459SOL    HW115839   4.022   2.899  17.604  1.7240  1.2015 -2.2197
 1459SOL    HW215840   4.118   2.831  17.516  0.6880 -1.5474 -0.1122
 1460SOL     OW15841   1.610   2.378   4.763  0.6450  0.1555 -0.1274
 1460SOL    HW115842   1.641   2.468   4.751  0.2416  0.2790 -0.2319
 1460SOL    HW215843   1.677   2.336   4.708  1.7884 -0.0055  1.3781
 1461SOL     OW15844   0.134   3.761   1.566 -0.9090 -0.1275 -0.3451
 1461SOL    HW115845   0.188   3.726   1.637 -0.5915  0.1727 -0.4393
 1461SOL    HW215846   0.196   3.792   1.500 -0.2035 -1.0429 -0.1245
 1462SOL     OW15847   1.541   0.495   7.566  0.6985 -0.3847  0.2332
 1462SOL    HW115848   1.485   0.527   7.494 -1.0979  2.4371  2.8759
 1462SOL    HW215849   1.546   0.571   7.624 -1.9041  0.6241 -0.8307
 1463SOL     OW15850   1.238   0.757   5.580 -0.2297  0.8146 -0.2044
 1463SOL    HW115851   1.174   0.807   5.530  1.1542 -0.7373 -3.4844
 1463SOL    HW215852   1.289   0.723   5.507  0.6879  0.3421  0.6610
 1464SOL     OW15853   0.693   2.182  14.541  0.1757 -1.0546 -0.5320
 1464SOL    HW115854   0.761   2.227  14.591 -1.9244  0.5346  0.8712
 1464SOL    HW215855   0.670   2.112  14.602 -0.8397  1.4082  1.8980
 1465SOL     OW15856   3.235   1.685   7.034  0.7966  0.6036  0.8012
 1465SOL    HW115857   3.234   1.655   6.943 -1.0400 -1.8978  1.6620
 1465SOL    HW215858   3.205   1.617   7.095 -1.0320  0.9575  0.3135
 1466SOL     OW15859   3.307   0.709   8.507 -0.1386  0.1673  0.2513
 1466SOL    HW115860   3.252   0.669   8.574  0.1645 -1.6328 -0.5607
 1466SOL    HW215861   3.394   0.691   8.543  0.2734 -1.1881 -1.3786
 1467SOL     OW15862   2.354   3.671   2.684  0.1393 -0.5264  0.1184
 1467SOL    HW115863   2.390   3.663   2.596  0.7641 -0.0476  0.3259
 1467SOL    HW215864   2.310   3.755   2.677  1.5821  0.2715  0.5172
 1468SOL     OW15865   0.342   0.431   7.453 -0.0960 -0.7490  0.3998
 1468SOL    HW115866   0.283   0.372   7.500  1.8182 -4.2040 -1.5573
 1468SOL    HW215867   0.412   0.367   7.446  1.2693  0.7352  0.5582
 1469SOL     OW15868   3.921   0.402   5.207  0.1890  0.2270 -0.1300
 1469SOL    HW115869   3.971   0.462   5.151 -1.6930  1.4593 -0.4960
 1469SOL    HW215870   3.973   0.325   5.186  0.5527  0.2516  0.6978
 1470SOL     OW15871   3.613   4.524   2.481  0.0309  0.5652  0.1082
 1470SOL    HW115872   3.529   4.480   2.494  0.0341  0.4502 -0.2541
 1470SOL    HW215873   3.655   4.470   2.414 -0.8823 -1.5569  1.2059
 1471SOL     OW15874   3.797   1.895   3.341  0.6944  0.1234 -1.0838
 1471SOL    HW115875   3.796   1.908   3.246  1.7513 -1.1792 -1.2813
 1471SOL    HW215876   3.831   1.805   3.343 -2.3323 -1.0394 -2.1585
 1472SOL     OW15877   2.774   3.848   2.354 -0.0225 -0.0587 -0.2142
 1472SOL    HW115878   2.710   3.859   2.284 -0.8202 -0.7536  0.4095
 1472SOL    HW215879   2.726   3.834   2.435  1.7305 -2.7254  0.3563
 1473SOL     OW15880   2.584   0.729   9.589  0.2132  0.4237 -0.1571
 1473SOL    HW115881   2.610   0.640   9.562  2.1781  0.5221  1.3695
 1473SOL    HW215882   2.670   0.770   9.586 -0.9917  3.0358  0.8277
 1474SOL     OW15883   0.987   2.326   0.180 -0.4176  0.1366 -0.0348
 1474SOL    HW115884   1.050   2.291   0.243  1.7922 -0.7989 -2.7743
 1474SOL    HW215885   0.911   2.355   0.230 -2.1216 -4.3290  0.0070
 1475SOL     OW15886   3.333   2.159   9.635  0.0353  0.0593  0.2066
 1475SOL    HW115887   3.383   2.183   9.713  1.4608 -2.5895  0.0856
 1475SOL    HW215888   3.409   2.165   9.576  0.0796 -0.9947  0.1546
 1476SOL     OW15889   0.226   2.863   7.382 -0.2005  0.1034  0.1465
 1476SOL    HW115890   0.267   2.874   7.468  2.0736 -2.3817 -0.6425
 1476SOL    HW215891   0.303   2.839   7.332 -0.5157  0.8250 -0.6800
 1477SOL     OW15892   1.039   0.901   2.912 -0.7090  0.7970  0.6591
 1477SOL    HW115893   1.094   0.963   2.864 -0.9014 -0.0545 -0.6723
 1477SOL    HW215894   1.057   0.941   2.996  1.9152 -0.0850  0.5465
 1478SOL     OW15895   1.903   4.635   8.054  0.0979  1.3661  0.0869
 1478SOL    HW115896   1.960   4.600   8.122  0.2974  0.9521 -0.2891
 1478SOL    HW215897   1.847   4.686   8.111  2.7956  2.8372  1.4264
 1479SOL     OW15898   2.522   2.465   9.618  0.2523 -0.0824  0.1256
 1479SOL    HW115899   2.501   2.448   9.525  1.3640 -0.9271  0.0284
 1479SOL    HW215900   2.474   2.388   9.649 -1.2865  1.1750  0.8404
 1480SOL     OW15901   0.252   0.563  16.557  0.1727  0.0151 -0.2715
 1480SOL    HW115902   0.347   0.550  16.564 -0.1832 -3.0894 -0.9403
 1480SOL    HW215903   0.225   0.526  16.641 -0.7040  0.8100 -0.2074
 1481SOL     OW15904   4.604   3.655   1.593  0.5018 -0.4935 -0.7350
 1481SOL    HW115905   4.693   3.689   1.597  0.3957 -0.3112  0.0859
 1481SOL    HW215906   4.567   3.718   1.531  0.2114  1.8809  1.8650
 1482SOL     OW15907   2.106   3.399   1.416 -0.3088 -0.1794  0.0110
 1482SOL    HW115908   2.085   3.334   1.483  0.6342  1.8872  2.3318
 1482SOL    HW215909   2.036   3.464   1.421 -0.7911 -0.5283 -2.4957
 1483SOL     OW15910   3.889   0.124   4.498 -0.2211 -0.2267  0.4181
 1483SOL    HW115911   3.883   0.218   4.517 -1.5151 -0.1745 -0.2394
 1483SOL    HW215912   3.928   0.118   4.411 -0.2561  2.5268  0.2057
 1484SOL     OW15913   1.596   2.832   3.660  0.4152 -0.0803  0.3094
 1484SOL    HW115914   1.503   2.821   3.679  0.5970 -0.1425  1.1551
 1484SOL    HW215915   1.593   2.785   3.576 -1.7335 -1.5986  1.2041
 1485SOL     OW15916   3.634   4.239   9.806 -0.3438 -0.5700 -0.1258
 1485SOL    HW115917   3.552   4.213   9.846  0.1671 -1.0254  0.6176
 1485SOL    HW215918   3.688   4.180   9.858  2.1691  0.6212 -1.3666
 1486SOL     OW15919   0.599   3.245   8.900 -0.2760  0.3633  0.3625
 1486SOL    HW115920   0.562   3.188   8.967 -1.5524  0.2318 -0.4381
 1486SOL    HW215921   0.657   3.180   8.861 -0.8977  0.3233 -0.5032
 1487SOL     OW15922   0.256   0.724  14.888 -0.1032 -0.5653  0.1208
 1487SOL    HW115923   0.328   0.672  14.922 -1.6289 -0.4874  3.4095
 1487SOL    HW215924   0.205   0.658  14.842 -1.6046  0.1804  0.7326
 1488SOL     OW15925   3.880   0.133  10.227 -0.0097  0.4658  0.4331
 1488SOL    HW115926   3.803   0.086  10.195  0.3807 -0.3202  0.6479
 1488SOL    HW215927   3.840   0.208  10.270 -1.2480 -0.5469  1.0222
 1489SOL     OW15928   1.725   2.229   9.016  0.5064 -0.4582  0.6339
 1489SOL    HW115929   1.650   2.288   9.020 -1.3670 -2.6637 -1.3821
 1489SOL    HW215930   1.778   2.250   9.093  2.0418 -0.3065 -0.4583
 1490SOL     OW15931   2.166   2.822   5.106  0.3745 -0.0856 -0.2373
 1490SOL    HW115932   2.240   2.826   5.167  0.7171 -0.8471 -0.6150
 1490SOL    HW215933   2.188   2.746   5.053  0.6050 -0.7840  0.8541
 1491SOL     OW15934   1.888   2.415  13.030 -0.0330 -0.8311 -0.0246
 1491SOL    HW115935   1.949   2.481  13.063 -0.9652 -0.6696  1.3918
 1491SOL    HW215936   1.869   2.367  13.111 -2.5974 -1.7642 -1.1704
 1492SOL     OW15937   1.845   1.109   9.166  0.1348 -0.1109 -0.1684
 1492SOL    HW115938   1.772   1.057   9.132 -0.7761  1.5237 -0.6917
 1492SOL    HW215939   1.813   1.134   9.253 -2.8431 -3.8730 -0.1615
 1493SOL     OW15940   0.590   3.609  14.493  0.2455  0.2736  0.7117
 1493SOL    HW115941   0.501   3.642  14.484  1.0852  1.7149 -2.4584
 1493SOL    HW215942   0.580   3.550  14.568 -1.8996 -1.1481 -0.6910
 1494SOL     OW15943   2.400   3.120  16.999  0.5620  0.6403  0.4213
 1494SOL    HW115944   2.323   3.176  16.984  0.4270  0.0623 -1.0976
 1494SOL    HW215945   2.393   3.072  16.916 -2.9145  1.2251  0.3623
 1495SOL     OW15946   0.295   3.132  15.684  0.1611 -0.2807  0.1625
 1495SOL    HW115947   0.384   3.139  15.650  0.5974 -3.1038  0.8001
 1495SOL    HW215948   0.285   3.221  15.717 -2.5487 -1.0307  1.3001
 1496SOL     OW15949   2.978   4.063   4.509  0.2188  0.1335  0.0556
 1496SOL    HW115950   2.954   3.993   4.570  2.4732 -1.2682 -0.6475
 1496SOL    HW215951   2.904   4.123   4.520 -0.9376 -1.2490 -0.2338
 1497SOL     OW15952   3.881   2.507   0.198  0.0765  0.0508  0.4516
 1497SOL    HW115953   3.914   2.439   0.140  2.2630  1.8064 -0.3653
 1497SOL    HW215954   3.955   2.520   0.257  0.1978 -2.8445  0.9444
 1498SOL     OW15955   0.053   3.101  11.116 -0.6222  0.2857  0.1090
 1498SOL    HW115956   0.040   3.058  11.031  0.9919  1.1842 -0.6053
 1498SOL    HW215957   0.142   3.135  11.104 -0.8076  0.4941 -0.6480
 1499SOL     OW15958   3.685   1.065   1.202 -0.3213 -0.3548 -0.1931
 1499SOL    HW115959   3.737   1.049   1.281 -0.1875  1.4244  0.0810
 1499SOL    HW215960   3.646   1.147   1.232 -2.0385 -1.0752 -0.4497
 1500SOL     OW15961   4.045   4.700   6.853  0.2466  0.0172  0.0269
 1500SOL    HW115962   4.048   0.063   6.894 -0.9159  1.0470 -2.1220
 1500SOL    HW215963   3.956   4.670   6.870  0.2367 -0.7363 -1.3536
 1501SOL     OW15964   0.809   0.373  12.312  0.3629  0.0276  0.5938
 1501SOL    HW115965   0.878   0.356  12.248 -0.8646 -0.3324 -0.6074
 1501SOL    HW215966   0.752   0.422  12.253 -0.0266  0.7723  1.5867
 1502SOL     OW15967   2.770   2.719   4.672 -0.2453 -0.1901  0.6309
 1502SOL    HW115968   2.826   2.785   4.713 -0.7081  0.4123  0.2944
 1502SOL    HW215969   2.834   2.651   4.655  0.7633  0.5427  1.5316
 1503SOL     OW15970   0.321   3.790   2.080 -0.2317 -0.0640  0.0392
 1503SOL    HW115971   0.261   3.850   2.035  0.4557  0.2838 -0.4259
 1503SOL    HW215972   0.403   3.839   2.088  0.6354 -0.8726 -3.6658
 1504SOL     OW15973   4.100   0.279  11.491 -0.3007 -0.0023 -0.1058
 1504SOL    HW115974   4.140   0.215  11.432  3.2514  3.0037 -0.9991
 1504SOL    HW215975   4.090   0.251  11.581 -1.3902  1.4726  0.2302
 1505SOL     OW15976   1.160   4.494   8.069  0.2307  0.0778  0.1900
 1505SOL    HW115977   1.118   4.577   8.052 -1.3563 -0.7934 -0.0788
 1505SOL    HW215978   1.100   4.446   8.126 -2.1768 -0.0413 -2.4799
 1506SOL     OW15979   0.792   0.176   9.735 -0.3165 -0.3788 -0.0035
 1506SOL    HW115980   0.772   0.085   9.717 -0.2735 -0.5916  0.9922
 1506SOL    HW215981   0.847   0.157   9.812  1.9567 -0.7046 -1.7044
 1507SOL     OW15982   0.858   4.673   3.902 -0.0520  0.0489 -0.1052
 1507SOL    HW115983   0.821   0.033   3.874 -3.5486 -0.3400  3.3174
 1507SOL    HW215984   0.775   4.639   3.936  1.9539 -2.6946  1.9910
 1508SOL     OW15985   0.831   3.159   7.279  0.1835 -0.2578  0.1449
 1508SOL    HW115986   0.802   3.159   7.188 -3.0795 -0.9007  1.1844
 1508SOL    HW215987   0.914   3.117   7.257  1.3335  1.1008  1.8997
 1509SOL     OW15988   4.520   4.518   2.445  0.0698  0.4996  0.3772
 1509SOL    HW115989   4.469   4.593   2.475  0.9241  0.7594  1.1487
 1509SOL    HW215990   4.592   4.514   2.508  0.6974 -1.1457 -0.4391
 1510SOL     OW15991   4.253   3.673   7.509 -0.1606  0.2189  0.4924
 1510SOL    HW115992   4.180   3.735   7.498  0.4094  0.9839  1.0328
 1510SOL    HW215993   4.207   3.589   7.507  0.4418 -0.0561 -2.1201
 1511SOL     OW15994   4.356   1.805  10.656  0.4153 -0.2778  0.4265
 1511SOL    HW115995   4.390   1.794  10.567 -1.3331 -2.2229  0.0045
 1511SOL    HW215996   4.341   1.712  10.674 -1.3911  0.2072  1.4468
 1512SOL     OW15997   2.466   4.297   3.758 -0.3390 -0.1152 -0.5616
 1512SOL    HW115998   2.415   4.269   3.683 -0.7091 -3.5604  0.9848
 1512SOL    HW215999   2.536   4.347   3.715  0.7405  0.1325  1.4698
 1513SOL     OW16000   2.340   4.290  15.533 -0.0657 -0.3702  0.5226
 1513SOL    HW116001   2.419   4.243  15.505 -0.2803 -0.4177  0.0188
 1513SOL    HW216002   2.338   4.360  15.468 -0.2132  0.0322  0.9570
 1514SOL     OW16003   1.173   4.227   5.616 -0.9003 -0.3068 -0.0029
 1514SOL    HW116004   1.113   4.233   5.542  0.0119 -1.4788 -0.8402
 1514SOL    HW216005   1.137   4.161   5.674  1.4528 -2.9434 -1.5341
 1515SOL     OW16006   0.178   2.960   1.095  0.1595 -0.1006  0.0480
 1515SOL    HW116007   0.205   2.896   1.161  0.1500  0.2606  0.3945
 1515SOL    HW216008   0.266   2.980   1.064  1.3697 -3.1177  1.4552
 1516SOL     OW16009   0.771   1.791   8.100 -0.2067 -0.0436 -0.4781
 1516SOL    HW116010   0.853   1.837   8.081 -0.4640  0.8846  0.6539
 1516SOL    HW216011   0.756   1.836   8.183 -2.2233 -1.8374  0.1447
 1517SOL     OW16012   0.925   0.651   4.942 -0.5292 -0.4148  0.0741
 1517SOL    HW116013   0.964   0.728   4.983  2.7093 -1.6709 -0.6860
 1517SOL    HW216014   0.984   0.586   4.979  1.0724 -0.0895 -1.9584
 1518SOL     OW16015   1.253   0.139   2.969 -0.5469 -0.2132  0.2134
 1518SOL    HW116016   1.214   0.051   2.971 -0.4668 -0.2701 -0.6295
 1518SOL    HW216017   1.198   0.195   3.024 -3.9054  0.4814 -3.8785
 1519SOL     OW16018   0.278   1.711   3.936  0.1117 -0.1219  0.5175
 1519SOL    HW116019   0.316   1.760   3.863 -3.2714 -0.2347 -1.2737
 1519SOL    HW216020   0.244   1.778   3.996  0.7521  0.7389 -0.0797
 1520SOL     OW16021   1.934   2.704   7.576  0.0208 -0.0092 -0.3403
 1520SOL    HW116022   1.883   2.785   7.577 -0.1238 -0.0962 -0.7386
 1520SOL    HW216023   1.871   2.637   7.553 -1.4190  1.5318 -0.8981
 1521SOL     OW16024   0.035   1.869   9.069  0.1365  0.5900 -0.5318
 1521SOL    HW116025   4.685   1.838   9.122  0.8852  1.2592  0.9048
 1521SOL    HW216026   0.033   1.959   9.101  1.9341  0.1418  0.7939
 1522SOL     OW16027   0.222   3.812  15.045 -0.2884  0.3543  0.2930
 1522SOL    HW116028   0.139   3.773  15.018 -0.1837  0.8997 -0.8414
 1522SOL    HW216029   0.234   3.879  14.978  0.1471 -1.0968 -1.1000
 1523SOL     OW16030   3.831   2.781   8.172  0.1148  0.5137  0.3283
 1523SOL    HW116031   3.811   2.829   8.253  1.7889  3.0474 -0.7749
 1523SOL    HW216032   3.892   2.717   8.208 -0.3723 -0.8329 -1.2395
 1524SOL     OW16033   3.598   2.740   2.144  0.3560 -0.0707 -0.2019
 1524SOL    HW116034   3.547   2.693   2.210  2.0112  0.6050  1.5473
 1524SOL    HW216035   3.549   2.820   2.126 -0.2782 -0.7813 -1.7131
 1525SOL     OW16036   2.793   3.693   0.574 -0.5088 -0.1149  0.3313
 1525SOL    HW116037   2.810   3.746   0.652  0.1213 -1.2518  0.9676
 1525SOL    HW216038   2.877   3.649   0.562 -0.8884 -0.8643  0.4307
 1526SOL     OW16039   1.135   3.880   7.987 -0.0445  0.3271 -0.4767
 1526SOL    HW116040   1.048   3.896   7.950 -0.1658 -0.1281 -0.3949
 1526SOL    HW216041   1.200   3.921   7.930  1.3115 -1.6249 -0.3096
 1527SOL     OW16042   2.471   0.156   2.106 -0.2680  0.7547  0.7529
 1527SOL    HW116043   2.417   0.078   2.116 -0.7057  1.2485  2.2159
 1527SOL    HW216044   2.550   0.135   2.156 -0.6769  1.1427  1.5595
 1528SOL     OW16045   3.143   1.395   8.858 -0.0492 -0.7415 -0.0868
 1528SOL    HW116046   3.122   1.400   8.765  0.0379 -0.3105 -0.0832
 1528SOL    HW216047   3.058   1.407   8.902 -0.0923  0.0127 -0.3752
 1529SOL     OW16048   4.187   0.197   7.183 -0.4317  0.4473 -0.4615
 1529SOL    HW116049   4.188   0.174   7.276  2.2989  0.2753 -0.5495
 1529SOL    HW216050   4.195   0.293   7.181 -0.8856  0.4904 -0.2858
 1530SOL     OW16051   2.934   4.187  17.352 -0.1296  0.3541 -0.0696
 1530SOL    HW116052   3.030   4.194  17.345  0.1414 -2.0510  1.2120
 1530SOL    HW216053   2.926   4.154  17.441  0.4446  0.7831  0.1419
 1531SOL     OW16054   2.947   1.500   6.436 -0.6484 -0.0262  0.1133
 1531SOL    HW116055   2.955   1.558   6.511 -0.6953  1.5038 -1.0721
 1531SOL    HW216056   2.908   1.555   6.368 -0.8257 -0.1998  0.0757
 1532SOL     OW16057   0.802   2.574   6.374 -0.3486  0.3050 -0.2978
 1532SOL    HW116058   0.771   2.499   6.425  0.4034 -0.1038 -0.4436
 1532SOL    HW216059   0.738   2.574   6.303 -2.8117 -2.5279  1.9068
 1533SOL     OW16060   3.165   3.470   7.714 -0.2564  0.1460 -0.9444
 1533SOL    HW116061   3.224   3.401   7.744 -0.7472 -0.9809 -2.6036
 1533SOL    HW216062   3.156   3.534   7.785 -1.9437  1.1177 -2.0358
 1534SOL     OW16063   2.764   1.029  15.519 -0.1687  0.4601  0.0272
 1534SOL    HW116064   2.817   1.082  15.579  0.6996  0.8409 -1.0734
 1534SOL    HW216065   2.793   0.942  15.546 -2.1968 -0.7409 -1.7526
 1535SOL     OW16066   3.723   3.051   2.960 -0.1408 -0.1916 -0.1051
 1535SOL    HW116067   3.751   3.116   2.895 -0.7645  1.6237  1.4235
 1535SOL    HW216068   3.631   3.079   2.969 -0.2401 -0.5378 -0.0592
 1536SOL     OW16069   3.416   0.233   6.742  0.4664 -0.3521  0.1803
 1536SOL    HW116070   3.372   0.214   6.658 -0.1057  2.6555 -0.2022
 1536SOL    HW216071   3.364   0.183   6.804 -1.2384  0.2753 -0.7488
 1537SOL     OW16072   3.083   1.545  14.424  0.0761  0.0822 -0.4651
 1537SOL    HW116073   3.153   1.604  14.451 -1.1070  1.2342  0.1023
 1537SOL    HW216074   3.061   1.585  14.340  0.9084  0.4820 -0.4902
 1538SOL     OW16075   0.800   1.377  11.341 -0.3097  0.1828 -0.3614
 1538SOL    HW116076   0.849   1.412  11.267  1.2670  0.2331  0.7285
 1538SOL    HW216077   0.863   1.352  11.408 -1.0716  0.6653  0.5514
 1539SOL     OW16078   2.358   0.234   3.630  0.5229  0.1791 -0.4052
 1539SOL    HW116079   2.331   0.266   3.716 -0.9998 -2.2197  0.0369
 1539SOL    HW216080   2.381   0.320   3.595 -0.8413  1.6870  2.3699
 1540SOL     OW16081   3.381   4.516   6.579  0.4607 -0.2973  0.4756
 1540SOL    HW116082   3.296   4.536   6.620 -0.6705  0.8670 -2.4568
 1540SOL    HW216083   3.361   4.431   6.540 -1.4916  1.4311 -2.2839
 1541SOL     OW16084   3.050   2.766   6.025  0.1764  0.3358  0.0278
 1541SOL    HW116085   3.017   2.850   6.056 -0.2101 -0.5594  2.0725
 1541SOL    HW216086   3.119   2.806   5.973 -0.8549  4.5645  1.9566
 1542SOL     OW16087   2.258   3.663   3.891  0.0398  0.4526 -0.2482
 1542SOL    HW116088   2.296   3.581   3.923 -1.0109  0.3098  0.6124
 1542SOL    HW216089   2.197   3.646   3.819 -0.8083 -2.0914  1.0996
 1543SOL     OW16090   0.925   3.094   7.954 -0.4077  0.2171  0.6255
 1543SOL    HW116091   1.016   3.091   7.982 -0.0079  1.6281 -0.5570
 1543SOL    HW216092   0.886   3.023   8.006  0.3592  0.8392  2.0648
 1544SOL     OW16093   3.041   1.678   0.654 -0.3275 -0.5624  0.3528
 1544SOL    HW116094   2.987   1.635   0.720 -0.8386 -2.3542 -1.2169
 1544SOL    HW216095   3.034   1.774   0.657 -2.2006 -0.6901  0.5168
 1545SOL     OW16096   4.104   0.680   9.703  0.2442  0.5419  0.0245
 1545SOL    HW116097   4.041   0.722   9.761 -0.2641  0.5427 -0.5287
 1545SOL    HW216098   4.154   0.631   9.768 -0.6049 -1.8559 -1.1206
 1546SOL     OW16099   2.035   2.246  12.854  0.6897  0.8803 -0.0980
 1546SOL    HW116100   1.985   2.304  12.912  1.0785  0.1820  0.9270
 1546SOL    HW216101   2.092   2.209  12.921  1.0015  1.0482 -0.2736
 1547SOL     OW16102   2.050   0.797   1.540  0.3217  0.1758  0.2112
 1547SOL    HW116103   2.053   0.744   1.619  1.2677  0.2935  0.2608
 1547SOL    HW216104   2.070   0.886   1.571 -0.2386  1.0492 -1.9004
 1548SOL     OW16105   3.167   3.796   1.116 -0.4385  0.0353  0.0151
 1548SOL    HW116106   3.085   3.838   1.144 -0.2086  0.9700 -0.7298
 1548SOL    HW216107   3.236   3.842   1.164 -0.4498  0.7501 -0.6613
 1549SOL     OW16108   3.861   1.072   3.973 -0.2915  0.4547  0.3172
 1549SOL    HW116109   3.869   1.032   4.059 -2.7550 -2.5651 -0.8601
 1549SOL    HW216110   3.767   1.064   3.960 -0.3156  0.9587  0.1811
 1550SOL     OW16111   2.233   3.992  16.407 -0.1209  0.0325 -0.4116
 1550SOL    HW116112   2.257   3.903  16.381  1.5197  0.2436  0.4080
 1550SOL    HW216113   2.197   4.028  16.325 -0.8450 -1.0725 -0.5957
 1551SOL     OW16114   2.542   2.616   2.872  0.0819 -0.1633 -0.6035
 1551SOL    HW116115   2.447   2.625   2.881  0.4163  0.3185  2.3900
 1551SOL    HW216116   2.569   2.672   2.944  1.2920 -2.7604  0.9707
 1552SOL     OW16117   4.265   1.665  15.549  0.1385 -0.1492 -0.5938
 1552SOL    HW116118   4.290   1.576  15.571  2.3636  0.7704  0.6327
 1552SOL    HW216119   4.198   1.640  15.486 -1.6533 -0.2010  1.3419
 1553SOL     OW16120   3.176   0.516   0.536  0.1562 -0.2463  0.3238
 1553SOL    HW116121   3.082   0.502   0.548  0.4665 -0.8106  2.1504
 1553SOL    HW216122   3.212   0.427   0.542 -1.1044 -0.7078  1.0391
 1554SOL     OW16123   1.430   0.964  11.018 -0.5407 -0.5491  0.0652
 1554SOL    HW116124   1.367   1.012  10.964 -0.6725 -0.9322 -0.1294
 1554SOL    HW216125   1.489   0.928  10.951 -2.5299 -0.3179 -1.8217
 1555SOL     OW16126   4.619   1.999   8.547 -0.3229  0.3125 -0.4478
 1555SOL    HW116127   4.636   1.960   8.462 -0.3812 -0.8513  0.0711
 1555SOL    HW216128   4.625   1.930   8.614 -1.3401  1.9466  1.3269
 1556SOL     OW16129   1.546   0.254   5.714  0.6676  0.3774 -0.0623
 1556SOL    HW116130   1.580   0.164   5.711 -0.4825 -0.0630  0.1096
 1556SOL    HW216131   1.494   0.255   5.794  1.6542  1.6392  0.5557
 1557SOL     OW16132   3.968   3.819   1.075 -0.1614  0.0530 -0.2565
 1557SOL    HW116133   3.892   3.814   1.133 -0.4721 -3.3850 -0.9729
 1557SOL    HW216134   3.920   3.848   0.997 -0.3471  1.8906  0.5425
 1558SOL     OW16135   3.859   1.057   4.497  0.1233  0.4429 -0.2699
 1558SOL    HW116136   3.788   1.121   4.498 -0.7294 -0.5361  1.4965
 1558SOL    HW216137   3.798   0.984   4.510 -0.6508  0.8812 -1.3555
 1559SOL     OW16138   1.519   0.212   3.541  0.2817  0.0271 -0.2313
 1559SOL    HW116139   1.551   0.157   3.469 -0.7465  0.0817 -0.7324
 1559SOL    HW216140   1.428   0.208   3.513  0.4851  0.3675 -0.9543
 1560SOL     OW16141   3.510   1.333   5.245  0.5061  0.1799 -0.5584
 1560SOL    HW116142   3.512   1.429   5.246 -1.1792  0.1949  1.6830
 1560SOL    HW216143   3.584   1.312   5.302 -0.4388  3.7574  2.0086
 1561SOL     OW16144   3.768   1.439  10.735  0.6311  0.6574 -0.4562
 1561SOL    HW116145   3.687   1.483  10.762  1.9445  1.9243  1.3940
 1561SOL    HW216146   3.808   1.411  10.817 -0.0867 -0.0070 -0.3275
 1562SOL     OW16147   1.256   2.000   2.377  0.1972 -0.7501  0.2569
 1562SOL    HW116148   1.280   2.019   2.286  3.3948 -2.7153  0.7171
 1562SOL    HW216149   1.313   1.931   2.410  0.6078 -0.1400  0.8206
 1563SOL     OW16150   0.167   2.064   5.454 -0.1540  0.5201  0.1656
 1563SOL    HW116151   0.131   2.145   5.489 -0.9127  0.9743 -1.6584
 1563SOL    HW216152   0.171   2.012   5.534 -1.4212  1.0678  0.5736
 1564SOL     OW16153   1.568   0.050   8.655 -0.2246 -0.2751 -0.3048
 1564SOL    HW116154   1.568   0.144   8.642  0.6583  0.1290  2.5739
 1564SOL    HW216155   1.515   0.017   8.582  0.2753  1.1247 -1.2732
 1565SOL     OW16156   2.586   1.942   8.844  0.2695 -0.3458  0.2597
 1565SOL    HW116157   2.572   1.861   8.794  0.0860  0.1974 -0.5569
 1565SOL    HW216158   2.574   2.008   8.776 -2.1008 -1.0203  0.0372
 1566SOL     OW16159   3.310   2.899  12.358 -0.3332  0.4123  0.0614
 1566SOL    HW116160   3.219   2.889  12.388  0.5483  0.4835  2.7516
 1566SOL    HW216161   3.351   2.819  12.390 -0.0222  1.5653  2.4975
 1567SOL     OW16162   0.031   2.542   0.913 -0.0051  0.6317 -0.2888
 1567SOL    HW116163   4.715   2.569   0.995  1.5602  0.9864  0.3463
 1567SOL    HW216164   4.704   2.463   0.895 -0.8424  0.7967  1.4380
 1568SOL     OW16165   2.829   4.359   8.975  0.2095  0.0559  0.5181
 1568SOL    HW116166   2.850   4.309   9.055 -1.1183 -0.7539  0.3552
 1568SOL    HW216167   2.772   4.430   9.005 -0.4754 -0.9604  1.6216
 1569SOL     OW16168   1.456   2.341   4.980 -0.0182 -0.8022  0.7671
 1569SOL    HW116169   1.524   2.346   4.912 -1.9274 -4.1676 -1.3703
 1569SOL    HW216170   1.441   2.435   4.978 -1.1964 -1.0470 -1.0028
 1570SOL     OW16171   0.573   1.508  14.420 -0.0386  0.0730  0.1717
 1570SOL    HW116172   0.504   1.574  14.423  0.9150  1.0025  1.8405
 1570SOL    HW216173   0.648   1.568  14.419 -0.6407  0.8053 -1.8976
 1571SOL     OW16174   2.513   2.719   8.750  0.0223 -0.0337  0.0051
 1571SOL    HW116175   2.509   2.690   8.841 -0.0424  0.0997  0.0435
 1571SOL    HW216176   2.522   2.813   8.762  1.8041 -0.2838  0.7121
 1572SOL     OW16177   1.598   2.604  16.450 -0.0270 -0.1775  0.4330
 1572SOL    HW116178   1.611   2.696  16.475 -0.3614  0.1161 -0.4850
 1572SOL    HW216179   1.606   2.563  16.536  0.3373  1.2544  1.0776
 1573SOL     OW16180   2.914   3.369   4.124 -0.3961  0.8486 -0.0001
 1573SOL    HW116181   2.951   3.290   4.084  1.0201  0.6752  1.6706
 1573SOL    HW216182   2.822   3.374   4.097 -0.8338  0.5670  1.4783
 1574SOL     OW16183   0.515   2.158   5.374  0.4852  0.1859 -0.0095
 1574SOL    HW116184   0.420   2.151   5.382  0.4700  0.9562  0.4734
 1574SOL    HW216185   0.527   2.235   5.318  1.4418 -0.3382 -0.5246
 1575SOL     OW16186   2.092   2.209   7.639 -0.0922 -0.4676 -0.3963
 1575SOL    HW116187   2.175   2.167   7.661 -0.1378 -1.7552 -2.6679
 1575SOL    HW216188   2.056   2.190   7.726  1.4487 -0.5532  0.2265
 1576SOL     OW16189   1.356   1.648  15.869  0.0089  0.2559  0.8539
 1576SOL    HW116190   1.339   1.673  15.960 -0.4581 -1.0825  1.1327
 1576SOL    HW216191   1.388   1.558  15.869 -0.5963  0.0420 -1.4700
 1577SOL     OW16192   2.548   4.010   7.319  0.2467  0.4816 -0.2860
 1577SOL    HW116193   2.606   3.966   7.380  0.8053 -0.7809 -1.7359
 1577SOL    HW216194   2.541   4.089   7.373  0.4018 -1.7172  2.9512
 1578SOL     OW16195   4.568   1.079  17.298  0.3494  0.5120 -0.2582
 1578SOL    HW116196   4.514   1.003  17.276 -1.1739  1.4186  0.3609
 1578SOL    HW216197   4.563   1.066  17.393  2.1367  0.2404 -0.1943
 1579SOL     OW16198   1.179   3.065   5.583  0.5149 -0.2018 -0.8282
 1579SOL    HW116199   1.161   3.017   5.502  0.0768  1.3122 -1.6170
 1579SOL    HW216200   1.181   3.002   5.656  0.5483  0.6370 -0.1093
 1580SOL     OW16201   0.371   2.285  12.943  0.0577  0.1974 -0.0592
 1580SOL    HW116202   0.452   2.288  12.892  1.2076  1.9946  1.8945
 1580SOL    HW216203   0.346   2.193  12.943 -0.6478  0.3885 -0.5646
 1581SOL     OW16204   2.544   3.391   6.871 -0.8094 -0.3255  0.0598
 1581SOL    HW116205   2.458   3.415   6.838 -0.6237 -2.4303 -1.8974
 1581SOL    HW216206   2.582   3.476   6.893 -2.3506  0.2165  0.6143
 1582SOL     OW16207   4.610   0.562   8.879 -0.5269 -0.2421  0.2928
 1582SOL    HW116208   4.598   0.468   8.865 -0.7584 -0.1863  0.1218
 1582SOL    HW216209   4.671   0.582   8.808 -0.6788  0.3727  0.3379
 1583SOL     OW16210   2.040   1.614  12.345 -0.3418 -0.6568  0.1690
 1583SOL    HW116211   1.953   1.640  12.314  0.6170  3.0319  0.6462
 1583SOL    HW216212   2.061   1.686  12.403 -1.3232  0.5533 -0.9857
 1584SOL     OW16213   2.972   2.652   3.965 -0.9852  0.2385  0.7717
 1584SOL    HW116214   2.999   2.596   3.892 -1.5857  0.6723  0.2267
 1584SOL    HW216215   2.999   2.600   4.042  2.4327  1.7525  0.6108
 1585SOL     OW16216   1.470   2.133   7.285 -0.3998  0.1575 -0.3699
 1585SOL    HW116217   1.514   2.050   7.267 -0.8027  0.2798 -1.9255
 1585SOL    HW216218   1.380   2.101   7.283 -0.4320  0.3740 -2.6937
 1586SOL     OW16219   1.194   4.458  17.475 -0.2576  0.5165 -0.3934
 1586SOL    HW116220   1.167   4.508  17.552 -0.9503  0.3334 -0.5191
 1586SOL    HW216221   1.117   4.404  17.458  0.8636 -1.0339 -0.5181
 1587SOL     OW16222   0.142   4.438   5.320 -0.1798 -0.5014 -0.0822
 1587SOL    HW116223   0.163   4.531   5.311  0.3795 -0.5752  0.5410
 1587SOL    HW216224   0.068   4.428   5.259 -1.3025 -0.3969  1.2667
 1588SOL     OW16225   3.514   3.411  13.579 -0.4757  0.2453  0.2697
 1588SOL    HW116226   3.518   3.350  13.653  0.8689 -0.7463 -0.6367
 1588SOL    HW216227   3.476   3.490  13.617  1.1122  0.8424  0.6066
 1589SOL     OW16228   2.220   1.237   4.798  0.0068  0.3699 -0.5260
 1589SOL    HW116229   2.240   1.214   4.707  0.7077 -1.6491  0.1428
 1589SOL    HW216230   2.301   1.274   4.831 -0.6874  1.6348 -0.2262
 1590SOL     OW16231   2.224   3.265   6.153  0.1220  0.0463  0.5291
 1590SOL    HW116232   2.319   3.280   6.157  0.0189  0.3852  1.5972
 1590SOL    HW216233   2.222   3.191   6.215  1.2207  0.1480  0.6847
 1591SOL     OW16234   1.379   0.934  11.285 -0.5904 -0.4825 -0.3474
 1591SOL    HW116235   1.285   0.953  11.281 -0.2438  1.5264  0.9139
 1591SOL    HW216236   1.408   0.925  11.195 -2.5432 -3.1578 -0.7219
 1592SOL     OW16237   3.802   0.282   2.899  0.1685 -0.3508 -0.2245
 1592SOL    HW116238   3.815   0.353   2.962 -0.2763 -0.6214  0.1681
 1592SOL    HW216239   3.891   0.268   2.865  0.7846  0.2647  1.1452
 1593SOL     OW16240   0.202   3.434   7.014 -0.1226 -0.1492 -0.1382
 1593SOL    HW116241   0.222   3.456   7.105 -0.1018  4.2184 -1.1970
 1593SOL    HW216242   0.143   3.359   7.027 -0.1641 -0.1068 -0.0816
 1594SOL     OW16243   1.330   1.736  12.845  0.0744  0.2667 -0.3408
 1594SOL    HW116244   1.334   1.768  12.935  1.4517  0.5735 -0.5168
 1594SOL    HW216245   1.249   1.685  12.849 -0.2266  0.6432 -1.6102
 1595SOL     OW16246   4.429   1.609   2.050 -0.4045 -0.1198  0.9866
 1595SOL    HW116247   4.502   1.570   2.003 -0.6359 -0.8907  1.2719
 1595SOL    HW216248   4.365   1.540   2.066  0.3218 -1.3776 -1.5581
 1596SOL     OW16249   1.893   4.164   7.545 -0.3459 -0.1808  0.8764
 1596SOL    HW116250   1.809   4.132   7.513 -0.3973 -0.3118  1.1455
 1596SOL    HW216251   1.930   4.082   7.580 -1.9298 -1.4545 -0.4339
 1597SOL     OW16252   3.377   4.679   4.375 -0.3773 -0.0778  0.0172
 1597SOL    HW116253   3.396   0.043   4.344  2.3029 -0.5359  0.3808
 1597SOL    HW216254   3.357   4.624   4.299 -3.0477  0.0515  0.6363
 1598SOL     OW16255   0.128   0.362   4.928  0.2395  0.4023  0.6287
 1598SOL    HW116256   0.200   0.394   4.873 -0.5081  1.9044  0.5369
 1598SOL    HW216257   0.143   0.267   4.923 -0.7160  0.2016  1.7578
 1599SOL     OW16258   4.485   2.069  14.703  0.1585 -0.3067  0.1976
 1599SOL    HW116259   4.477   2.019  14.784  0.5336 -2.5792 -1.1689
 1599SOL    HW216260   4.471   2.006  14.632 -0.2735 -0.2074  0.1931
 1600SOL     OW16261   0.098   3.743  12.328 -0.2627 -0.3876  0.1302
 1600SOL    HW116262   0.029   3.773  12.269 -1.7481 -0.1886  1.9520
 1600SOL    HW216263   0.174   3.801  12.323 -0.7806  0.5609  2.8497
 1601SOL     OW16264   0.995   4.085   9.138 -0.4104  0.5291  0.2880
 1601SOL    HW116265   1.037   4.055   9.218 -1.1182 -1.5976 -0.1490
 1601SOL    HW216266   0.967   4.003   9.097  3.1808 -0.0327 -1.0582
 1602SOL     OW16267   1.827   4.064   4.997 -0.7663  0.1820 -0.4547
 1602SOL    HW116268   1.845   3.997   4.931  0.5606 -0.3388  0.4387
 1602SOL    HW216269   1.897   4.050   5.061 -1.8593 -2.4299  0.1684
 1603SOL     OW16270   4.399   0.256   7.619  0.5974  0.8818  0.1637
 1603SOL    HW116271   4.450   0.245   7.539  0.5740 -2.3643  0.5804
 1603SOL    HW216272   4.433   0.336   7.661 -2.3566  2.4516 -0.4404
 1604SOL     OW16273   3.063   1.500   7.487  0.0606 -0.7023 -0.3813
 1604SOL    HW116274   2.972   1.528   7.501  0.3598 -1.2542  2.5556
 1604SOL    HW216275   3.104   1.568   7.433 -2.7498 -0.3456 -2.0897
 1605SOL     OW16276   3.064   1.688   4.111 -0.1417  0.1331 -0.2649
 1605SOL    HW116277   3.074   1.741   4.190  1.3100  0.3639 -0.6080
 1605SOL    HW216278   3.092   1.747   4.041 -2.9707  1.0969 -0.6057
 1606SOL     OW16279   3.363   0.664  15.310 -0.3240 -0.5069  0.0432
 1606SOL    HW116280   3.400   0.748  15.336  1.0690 -1.5490  1.4620
 1606SOL    HW216281   3.392   0.660  15.218  0.0791 -1.2529  0.2050
 1607SOL     OW16282   2.919   2.087   6.353  0.3819  0.0239 -0.4178
 1607SOL    HW116283   2.888   2.004   6.387 -1.4231 -0.1871 -2.5557
 1607SOL    HW216284   2.963   2.047   6.278  0.7113  0.5677 -0.5206
 1608SOL     OW16285   2.264   1.953   9.074  0.2473 -0.0719  0.3802
 1608SOL    HW116286   2.240   1.871   9.116  0.0396  1.1379  2.6167
 1608SOL    HW216287   2.357   1.942   9.092 -0.0886 -0.9715  1.5842
 1609SOL     OW16288   3.151   1.098  13.216 -0.1803  0.2417  0.1577
 1609SOL    HW116289   3.159   1.154  13.139 -1.4823 -0.0542 -0.1947
 1609SOL    HW216290   3.056   1.102  13.229 -0.0354 -1.8803  1.8569
 1610SOL     OW16291   1.032   1.030   7.638  0.6138  0.5438  0.3283
 1610SOL    HW116292   0.944   0.994   7.643  0.4498  1.0162  0.8309
 1610SOL    HW216293   1.071   0.986   7.714 -0.3424  0.1626  0.5996
 1611SOL     OW16294   0.586   2.443   4.622  0.5585  0.3816  0.0640
 1611SOL    HW116295   0.529   2.501   4.572  0.2575 -1.3448 -1.5950
 1611SOL    HW216296   0.525   2.410   4.689  2.6176  1.5972  2.5247
 1612SOL     OW16297   0.876   0.682  11.524  0.0167  0.3688 -0.2996
 1612SOL    HW116298   0.787   0.690  11.558 -0.5335  2.2200 -2.2025
 1612SOL    HW216299   0.869   0.599  11.478 -0.1976  0.2664 -0.0794
 1613SOL     OW16300   3.104   4.370   5.256  0.3746 -0.0961  0.3009
 1613SOL    HW116301   3.061   4.333   5.334 -0.1240 -0.7551 -0.2774
 1613SOL    HW216302   3.035   4.386   5.192  0.5413  0.2090  0.1983
 1614SOL     OW16303   3.914   2.252  17.075  0.4184 -0.3276  0.2554
 1614SOL    HW116304   3.964   2.312  17.020  0.8406 -0.9889 -0.0791
 1614SOL    HW216305   3.951   2.168  17.047 -1.6505 -0.6702 -1.4215
 1615SOL     OW16306   1.942   1.727   2.320 -0.3709  0.5499  0.1027
 1615SOL    HW116307   1.937   1.823   2.325 -1.9152  0.4557  0.4800
 1615SOL    HW216308   1.874   1.702   2.383 -0.7887 -0.8449 -0.8944
 1616SOL     OW16309   1.721   1.923   1.102 -0.1236  1.1221  0.2126
 1616SOL    HW116310   1.810   1.956   1.105 -0.6934  2.5743  1.0178
 1616SOL    HW216311   1.674   1.969   1.172 -1.8874  1.4199 -1.1659
 1617SOL     OW16312   3.920   4.024  11.605  0.0518 -0.2628 -0.0356
 1617SOL    HW116313   3.998   3.994  11.651  0.9730  3.4324  0.7928
 1617SOL    HW216314   3.859   4.021  11.679 -0.8016  3.1307 -0.5850
 1618SOL     OW16315   2.428   2.368   1.125  0.1508  0.2212 -0.2732
 1618SOL    HW116316   2.375   2.357   1.046  1.1370 -2.9745 -0.5058
 1618SOL    HW216317   2.370   2.411   1.187  0.5215 -0.5328  0.5923
 1619SOL     OW16318   1.501   2.504   0.405 -0.1644  0.2566 -0.2814
 1619SOL    HW116319   1.565   2.435   0.393 -1.0570 -1.0971  2.6340
 1619SOL    HW216320   1.467   2.517   0.317 -0.9020 -1.4962 -0.2555
 1620SOL     OW16321   0.641   2.575   7.940  0.7024  0.3629  0.4385
 1620SOL    HW116322   0.724   2.537   7.912  0.4465 -0.8123  1.2842
 1620SOL    HW216323   0.660   2.667   7.921 -0.8543  0.5876 -0.0270
 1621SOL     OW16324   0.734   2.734  16.378 -0.0887 -0.1801  0.0034
 1621SOL    HW116325   0.677   2.688  16.439 -0.0857 -3.6391 -2.5795
 1621SOL    HW216326   0.716   2.828  16.381 -0.0319 -0.1975  1.0719
 1622SOL     OW16327   2.744   2.634   0.143 -1.0590 -1.0445  0.0534
 1622SOL    HW116328   2.752   2.638   0.048  0.6385 -0.1211  0.2318
 1622SOL    HW216329   2.811   2.567   0.154 -1.0122 -0.8631  0.9201
 1623SOL     OW16330   0.120   1.169   5.211 -0.0242 -0.5499  0.1549
 1623SOL    HW116331   0.088   1.110   5.280 -1.2790 -0.8926 -0.7248
 1623SOL    HW216332   0.178   1.117   5.156 -0.8672  0.0678 -1.3195
 1624SOL     OW16333   0.256   2.814   3.677  0.5915  0.0631  0.0552
 1624SOL    HW116334   0.333   2.804   3.621  0.6283  1.1993 -0.1018
 1624SOL    HW216335   0.245   2.722   3.703 -0.4241  0.4342  0.9642
 1625SOL     OW16336   2.028   2.438   6.597 -0.1320  0.5563 -0.1855
 1625SOL    HW116337   2.057   2.351   6.569 -0.8356  0.7824 -1.6378
 1625SOL    HW216338   2.104   2.490   6.568  1.9266 -3.1562 -1.4618
 1626SOL     OW16339   0.529   0.897  14.915 -0.3303  0.1970  0.2832
 1626SOL    HW116340   0.581   0.852  14.849 -0.3774  2.5226 -1.3226
 1626SOL    HW216341   0.473   0.956  14.865  1.8880  0.3095 -2.0697
 1627SOL     OW16342   0.540   4.535   2.117  0.5177  0.3239 -0.2459
 1627SOL    HW116343   0.445   4.543   2.108  0.5117 -1.6459 -1.9756
 1627SOL    HW216344   0.559   4.558   2.207 -1.8980  0.3223  0.2561
 1628SOL     OW16345   4.620   0.843   4.014 -0.3554  0.0160 -0.1841
 1628SOL    HW116346   4.594   0.804   3.930 -1.4001  3.9195 -1.6665
 1628SOL    HW216347   4.701   0.797   4.034  0.6458  1.6299 -0.5696
 1629SOL     OW16348   4.697   0.197   3.912 -0.0461  0.2737  0.1669
 1629SOL    HW116349   4.632   0.243   3.966 -1.4449 -0.7826 -0.6314
 1629SOL    HW216350   4.655   0.185   3.827 -1.2727 -1.3183  0.9915
 1630SOL     OW16351   3.668   2.721   3.887 -0.5759  0.4157 -0.6473
 1630SOL    HW116352   3.610   2.665   3.937  1.0974  0.7684  1.7033
 1630SOL    HW216353   3.671   2.673   3.804 -0.0508  2.0283 -1.5830
 1631SOL     OW16354   2.486   2.672   6.007 -0.5690 -0.1139  0.4752
 1631SOL    HW116355   2.437   2.614   6.065  1.3042 -0.6055  1.5629
 1631SOL    HW216356   2.445   2.646   5.925  1.2213  0.9021 -0.7364
 1632SOL     OW16357   0.916   3.023   8.426  0.3905  0.2798  0.0971
 1632SOL    HW116358   0.953   2.939   8.455  1.4571 -0.1548 -2.5371
 1632SOL    HW216359   0.981   3.092   8.444  2.2071 -2.1814  2.9991
 1633SOL     OW16360   1.981   3.392   2.187 -0.2805 -0.9691  0.0540
 1633SOL    HW116361   1.927   3.470   2.176 -0.2606 -0.9423  0.1409
 1633SOL    HW216362   1.933   3.319   2.148 -1.8270 -0.9778  1.9742
 1634SOL     OW16363   1.459   4.236   0.336  0.0932 -0.4187  0.0944
 1634SOL    HW116364   1.549   4.232   0.305  0.0940  2.9510 -0.3386
 1634SOL    HW216365   1.462   4.151   0.381 -1.0264 -0.5011  0.0234
 1635SOL     OW16366   1.043   2.202   3.348  0.4291 -0.0157 -0.2029
 1635SOL    HW116367   1.105   2.269   3.377 -1.1817  1.2201  0.3634
 1635SOL    HW216368   1.081   2.190   3.260  0.2696  1.8094 -0.5241
 1636SOL     OW16369   4.286   3.478   1.795 -0.5316  0.4787 -0.1663
 1636SOL    HW116370   4.238   3.404   1.835 -0.4090  1.0804  1.1074
 1636SOL    HW216371   4.252   3.547   1.852 -1.8586  0.4524 -0.9200
 1637SOL     OW16372   3.527   3.626  12.911  0.0818  0.2203  0.0079
 1637SOL    HW116373   3.620   3.644  12.928  0.4349  0.3454 -2.0713
 1637SOL    HW216374   3.510   3.551  12.967  1.3489 -1.0603 -1.3038
 1638SOL     OW16375   1.500   3.074   2.391 -0.2049  0.3048  0.0479
 1638SOL    HW116376   1.435   3.093   2.324 -1.0701 -2.2041  0.1781
 1638SOL    HW216377   1.509   2.982   2.366 -0.6374 -0.5792  3.1303
 1639SOL     OW16378   4.221   1.526   6.079  0.1017  0.0337 -0.0708
 1639SOL    HW116379   4.232   1.600   6.019  3.1797  0.4198  0.9893
 1639SOL    HW216380   4.126   1.530   6.078  0.0875 -0.1755  3.0958
 1640SOL     OW16381   1.721   3.745  15.907  0.3719 -0.2763 -0.0820
 1640SOL    HW116382   1.784   3.786  15.848  1.1340 -2.3101 -0.6987
 1640SOL    HW216383   1.635   3.763  15.869 -1.1826 -2.1140  2.5566
 1641SOL     OW16384   3.101   3.916   8.023 -0.8929  0.1220  0.3588
 1641SOL    HW116385   3.013   3.936   8.054 -0.8482  0.7010  0.1129
 1641SOL    HW216386   3.104   3.917   7.927 -0.0523  2.1744  0.4111
 1642SOL     OW16387   2.482   1.487   1.525  0.2996 -0.2296 -0.1035
 1642SOL    HW116388   2.506   1.549   1.594 -0.0861  0.7183 -0.8077
 1642SOL    HW216389   2.388   1.472   1.539  0.5058  1.2525  2.9146
 1643SOL     OW16390   3.918   1.824   5.219 -0.0357 -0.4039 -0.1586
 1643SOL    HW116391   3.999   1.822   5.168 -0.7961  1.2798 -1.4351
 1643SOL    HW216392   3.875   1.746   5.183 -1.7576  0.7140 -0.5174
 1644SOL     OW16393   0.211   3.857   4.282  0.3592 -0.1682  0.1761
 1644SOL    HW116394   0.254   3.916   4.220 -1.3900  0.9767  0.0563
 1644SOL    HW216395   0.231   3.896   4.367  1.4026 -1.6448  0.6033
 1645SOL     OW16396   4.363   1.689  16.710 -0.3603  0.5100 -0.1363
 1645SOL    HW116397   4.344   1.715  16.800 -1.9383 -0.3031 -0.2378
 1645SOL    HW216398   4.444   1.737  16.691 -0.0846  0.0147 -0.2163
 1646SOL     OW16399   3.371   2.506   3.413 -0.2740 -0.2249  0.1782
 1646SOL    HW116400   3.456   2.544   3.390 -0.6779  1.8673  2.1325
 1646SOL    HW216401   3.395   2.433   3.469  0.0827  1.2428  1.9431
 1647SOL     OW16402   2.091   1.355   3.350 -0.6778 -0.0262  0.4181
 1647SOL    HW116403   2.010   1.404   3.361  0.3992  2.3168 -1.9990
 1647SOL    HW216404   2.070   1.265   3.375 -0.1821  0.0339  1.0500
 1648SOL     OW16405   1.696   0.525   4.080  0.0222  0.7741 -0.2301
 1648SOL    HW116406   1.771   0.556   4.029  1.0029 -0.8858  0.2281
 1648SOL    HW216407   1.634   0.556   4.013 -1.0524  2.1971  1.4295
 1649SOL     OW16408   1.004   4.112   0.708 -0.6291 -0.0304 -0.1488
 1649SOL    HW116409   1.035   4.202   0.701  2.7015 -0.9933  1.7278
 1649SOL    HW216410   1.068   4.062   0.658 -0.3820  0.9166 -0.7750
 1650SOL     OW16411   3.685   1.009  14.922  0.4062 -0.4568 -0.1707
 1650SOL    HW116412   3.664   1.101  14.911 -4.0810 -1.4660 -0.0090
 1650SOL    HW216413   3.609   0.977  14.971 -0.1362  1.2298  0.0825
 1651SOL     OW16414   2.855   4.351   6.548 -0.4154  0.2335  0.1609
 1651SOL    HW116415   2.939   4.310   6.568 -1.0895 -0.3890  1.7634
 1651SOL    HW216416   2.844   4.317   6.459  1.7808 -1.9415  0.7154
 1652SOL     OW16417   2.861   3.058   1.946 -0.3416  0.1448  0.3149
 1652SOL    HW116418   2.907   3.133   1.984 -0.8525  1.6212 -1.9725
 1652SOL    HW216419   2.872   2.985   2.006 -0.9025 -0.1058  0.1155
 1653SOL     OW16420   2.701   2.579  13.409  0.1445  0.3372  0.2111
 1653SOL    HW116421   2.775   2.558  13.351  1.3347 -0.8777  2.1694
 1653SOL    HW216422   2.741   2.588  13.495  0.4996  3.2835 -0.2701
 1654SOL     OW16423   1.752   2.165   5.537  0.1300 -0.2384 -0.2130
 1654SOL    HW116424   1.738   2.140   5.446  0.1756  1.0326 -0.5677
 1654SOL    HW216425   1.661   2.186   5.559  0.0785  0.0281 -0.6961
 1655SOL     OW16426   4.247   2.094   7.793  0.1043 -0.1484 -0.1964
 1655SOL    HW116427   4.286   2.180   7.775 -2.2846  0.8714 -0.5017
 1655SOL    HW216428   4.168   2.128   7.835 -0.0059  0.4993 -0.9051
 1656SOL     OW16429   2.231   1.152   4.264 -0.3189 -0.2543  0.0022
 1656SOL    HW116430   2.240   1.061   4.237  0.6041 -0.9253  2.5090
 1656SOL    HW216431   2.205   1.199   4.185 -1.7365 -0.9868  0.0372
 1657SOL     OW16432   4.011   0.945  16.895 -0.2716 -0.3361 -0.0918
 1657SOL    HW116433   3.983   0.878  16.832  2.1817 -0.2482 -1.2790
 1657SOL    HW216434   3.926   0.958  16.937  0.4746 -0.0248  1.3013
 1658SOL     OW16435   4.251   2.922   2.521 -0.1002 -0.2285 -0.0323
 1658SOL    HW116436   4.228   2.908   2.613  0.5173  1.8032  0.4155
 1658SOL    HW216437   4.342   2.892   2.523  1.0766  3.4354  0.4830
 1659SOL     OW16438   3.317   4.185   5.569 -0.0648  0.3138  0.2853
 1659SOL    HW116439   3.255   4.226   5.630  0.4177  0.6308  0.5607
 1659SOL    HW216440   3.299   4.249   5.500  0.2818  3.0373  2.7503
 1660SOL     OW16441   3.129   0.374   9.525 -1.3245  0.0858  0.1032
 1660SOL    HW116442   3.122   0.381   9.620  1.1585 -1.4325  0.4164
 1660SOL    HW216443   3.057   0.431   9.499 -0.2125  1.5167  0.1830
 1661SOL     OW16444   2.848   2.896   0.879  0.6750  0.3120 -0.3287
 1661SOL    HW116445   2.854   2.978   0.929 -3.3502  0.3659  0.0855
 1661SOL    HW216446   2.847   2.936   0.791 -1.7487 -1.1151 -0.9326
 1662SOL     OW16447   3.471   2.407  11.933 -0.3288  0.3545  0.1136
 1662SOL    HW116448   3.470   2.331  11.874  2.0629  0.7782 -0.4812
 1662SOL    HW216449   3.476   2.361  12.017 -0.0646  1.5167  0.7213
 1663SOL     OW16450   1.768   0.285  16.889 -0.0937  0.4170  0.0011
 1663SOL    HW116451   1.809   0.206  16.854  0.6997 -0.2987  2.5329
 1663SOL    HW216452   1.849   0.336  16.897  1.8624 -2.7858  0.8445
 1664SOL     OW16453   2.913   2.148   8.757  0.0343  0.3930  0.6023
 1664SOL    HW116454   2.960   2.112   8.832  0.6889  0.4447  0.2174
 1664SOL    HW216455   2.875   2.066   8.723  3.7278 -1.8505  1.8585
 1665SOL     OW16456   2.751   4.518  17.322 -0.2658 -0.3685  0.0049
 1665SOL    HW116457   2.681   4.453  17.324 -1.7954  1.2061 -2.1816
 1665SOL    HW216458   2.765   4.543  17.414 -1.2131  1.3254 -0.3037
 1666SOL     OW16459   1.164   3.840   1.437 -0.0679  0.5180  0.2948
 1666SOL    HW116460   1.093   3.779   1.415 -0.6432  1.4886 -0.4932
 1666SOL    HW216461   1.246   3.801   1.409 -0.6539  0.0024 -0.6933
 1667SOL     OW16462   4.665   1.288   5.783  0.3294 -0.0048 -0.2849
 1667SOL    HW116463   0.015   1.348   5.775  3.1849 -3.8848 -2.5535
 1667SOL    HW216464   4.669   1.231   5.707  0.5275  1.6851 -1.5400
 1668SOL     OW16465   0.740   4.080   3.147 -0.3680 -0.3100  0.2185
 1668SOL    HW116466   0.714   4.011   3.086  2.3996  0.2783 -1.6219
 1668SOL    HW216467   0.669   4.144   3.148  3.6296  4.1137  1.3601
 1669SOL     OW16468   3.537   0.265  16.029 -0.4395  0.3213  0.2228
 1669SOL    HW116469   3.519   0.173  16.009  0.0305  0.2473  0.1224
 1669SOL    HW216470   3.498   0.278  16.115 -0.4810 -0.4980  0.3333
 1670SOL     OW16471   3.691   2.816   4.186  0.4918  0.4222  0.1308
 1670SOL    HW116472   3.730   2.734   4.154  0.1941  1.0775 -1.9195
 1670SOL    HW216473   3.695   2.788   4.278 -1.0021  0.6361  0.2688
 1671SOL     OW16474   1.645   3.982   2.082  0.7468  0.7564 -0.2494
 1671SOL    HW116475   1.613   4.012   1.997  1.8242  1.6459 -0.3425
 1671SOL    HW216476   1.721   3.927   2.063  0.8044  0.9793 -0.6847
 1672SOL     OW16477   3.299   0.284   0.911 -0.3197 -0.2020 -0.0191
 1672SOL    HW116478   3.374   0.242   0.953 -1.8189 -1.4909  1.3836
 1672SOL    HW216479   3.269   0.344   0.980  1.9605 -0.7879  1.4736
 1673SOL     OW16480   0.324   0.827  16.879  0.1980 -0.4567  0.1050
 1673SOL    HW116481   0.325   0.887  16.954  1.3780 -0.3536  0.0099
 1673SOL    HW216482   0.249   0.771  16.899  0.1929 -0.2320  0.7272
 1674SOL     OW16483   2.890   2.216   0.616 -0.0600 -0.1184  0.1526
 1674SOL    HW116484   2.865   2.251   0.701  1.3893  0.8050  0.1891
 1674SOL    HW216485   2.804   2.180   0.594  0.4163 -1.6006  0.6754
 1675SOL     OW16486   3.472   0.083   9.489 -0.0825  0.1040  0.3946
 1675SOL    HW116487   3.545   0.062   9.430  0.8208 -1.5517  2.0903
 1675SOL    HW216488   3.481   4.723   9.533  0.9996  0.6589  1.2386
 1676SOL     OW16489   0.692   1.502   4.760 -0.1844 -0.4505  0.2468
 1676SOL    HW116490   0.690   1.531   4.851  0.2636  1.1295 -0.2445
 1676SOL    HW216491   0.602   1.480   4.738 -0.1910  1.0912 -1.3016
 1677SOL     OW16492   3.332   2.737   4.031 -0.0649 -0.3723 -0.1361
 1677SOL    HW116493   3.374   2.686   3.961  1.1984  0.7719 -0.2097
 1677SOL    HW216494   3.327   2.825   3.994 -1.8300 -0.6635 -0.6005
 1678SOL     OW16495   2.077   3.445   4.195 -0.1198  0.2814  0.1545
 1678SOL    HW116496   2.166   3.451   4.159  0.1045  1.2695  0.8572
 1678SOL    HW216497   2.080   3.358   4.234 -2.1818  0.3383  0.4137
 1679SOL     OW16498   1.371   3.771  11.568  0.0505 -0.3957 -0.2844
 1679SOL    HW116499   1.421   3.729  11.499 -1.5091 -1.1961 -0.9316
 1679SOL    HW216500   1.405   3.860  11.570  0.6354 -0.6483  0.8385
 1680SOL     OW16501   4.510   1.107   0.780 -0.5318  0.1450 -0.4325
 1680SOL    HW116502   4.528   1.015   0.760  1.6482  0.6376 -0.6553
 1680SOL    HW216503   4.503   1.097   0.875 -1.2806  2.5269 -0.2256
 1681SOL     OW16504   3.603   4.091   5.016 -0.0933 -0.1067 -0.4748
 1681SOL    HW116505   3.606   4.012   5.071  0.1815  0.6296  0.5763
 1681SOL    HW216506   3.689   4.078   4.975 -0.9968 -0.0004 -2.3979
 1682SOL     OW16507   2.351   0.086  13.496  0.3279 -0.1694 -0.2645
 1682SOL    HW116508   2.292   0.100  13.422 -1.1432 -0.9873  0.7695
 1682SOL    HW216509   2.405   0.166  13.496  0.4078 -0.2252  0.7126
 1683SOL     OW16510   3.157   0.922   2.447 -0.5427  0.1679  0.1654
 1683SOL    HW116511   3.129   0.970   2.369  0.9353  1.0666  0.1844
 1683SOL    HW216512   3.115   0.968   2.521 -0.9611 -0.1036  0.0948
 1684SOL     OW16513   0.780   4.229   9.402  0.4400  0.3561 -0.1092
 1684SOL    HW116514   0.701   4.182   9.427 -1.2211  2.2921 -1.7018
 1684SOL    HW216515   0.830   4.150   9.384 -0.6406 -0.3754  0.1465
 1685SOL     OW16516   1.138   2.819   7.843 -0.6716  0.1063  0.3439
 1685SOL    HW116517   1.122   2.852   7.754  2.0346 -0.4108 -0.3164
 1685SOL    HW216518   1.231   2.836   7.858 -0.6728 -0.3320  0.8147
 1686SOL     OW16519   3.058   4.195  10.461  0.1092 -0.4490  0.1563
 1686SOL    HW116520   2.973   4.154  10.443 -0.5010  1.6093 -1.7812
 1686SOL    HW216521   3.044   4.219  10.552 -1.6816 -2.2206  0.3342
 1687SOL     OW16522   4.386   2.940   2.111  0.0464 -0.0654  0.2085
 1687SOL    HW116523   4.440   2.956   2.188  2.7470  1.1770 -1.9847
 1687SOL    HW216524   4.309   2.888   2.137 -0.7197  0.7666 -0.4285
 1688SOL     OW16525   1.890   1.838   5.860 -0.1438 -0.1299  0.1518
 1688SOL    HW116526   1.868   1.921   5.819 -0.5441 -0.5799 -0.5415
 1688SOL    HW216527   1.912   1.864   5.949  0.2741 -0.8380  0.2581
 1689SOL     OW16528   3.726   0.788   6.821 -0.0665  0.4042 -0.6455
 1689SOL    HW116529   3.728   0.832   6.735  4.0191  1.4089 -0.0118
 1689SOL    HW216530   3.630   0.785   6.828 -0.2349 -0.7358 -3.1928
 1690SOL     OW16531   3.871   4.295  11.684  0.6243 -0.2134  0.5939
 1690SOL    HW116532   3.832   4.236  11.749  0.8847 -1.4321 -0.3513
 1690SOL    HW216533   3.920   4.233  11.630  0.5724  1.6550 -1.6148
 1691SOL     OW16534   3.362   3.884   1.276  0.0467  0.2297 -0.0848
 1691SOL    HW116535   3.311   3.891   1.357  0.9508 -1.6388  0.6430
 1691SOL    HW216536   3.434   3.943   1.302 -0.3634  0.3908  0.6790
 1692SOL     OW16537   3.622   3.706   8.774  0.0041  0.3016 -0.1820
 1692SOL    HW116538   3.539   3.690   8.730  0.7118 -0.2112 -1.3428
 1692SOL    HW216539   3.650   3.792   8.742  0.3534 -0.3418 -1.6274
 1693SOL     OW16540   3.576   0.129   6.160  0.3544 -0.6441  0.4273
 1693SOL    HW116541   3.656   0.090   6.127  1.1938  1.5890 -0.1920
 1693SOL    HW216542   3.547   0.062   6.222 -1.3373 -0.7170 -0.4481
 1694SOL     OW16543   4.649   2.109  12.501 -1.1038  0.5659 -0.2036
 1694SOL    HW116544   4.647   2.020  12.464 -2.6461  0.3187  0.4691
 1694SOL    HW216545   4.586   2.139  12.435 -1.2061  1.5824  0.3547
 1695SOL     OW16546   4.392   4.120  14.467  0.1317  0.0717  0.4606
 1695SOL    HW116547   4.316   4.130  14.410  1.0011 -3.2815 -1.2759
 1695SOL    HW216548   4.361   4.109  14.557 -0.8036 -1.4680 -0.0566
 1696SOL     OW16549   1.006   1.998   4.102  0.0101 -0.0069  0.1911
 1696SOL    HW116550   1.099   1.983   4.087 -0.1028 -0.5464  0.0176
 1696SOL    HW216551   0.958   1.917   4.086  0.7772 -0.7570  1.7173
 1697SOL     OW16552   2.536   0.259  17.369 -0.4220  0.3771 -0.4325
 1697SOL    HW116553   2.580   0.326  17.421 -0.0428 -1.2456  1.3471
 1697SOL    HW216554   2.615   0.218  17.335  0.5452  2.5254 -0.7645
 1698SOL     OW16555   3.330   2.711  17.330  0.1233  0.6928 -0.4455
 1698SOL    HW116556   3.284   2.761  17.263 -1.3403  1.8045  1.3987
 1698SOL    HW216557   3.272   2.636  17.338 -1.6609  2.2732  1.3148
 1699SOL     OW16558   2.143   3.266   6.695  0.2082 -0.1132  0.2747
 1699SOL    HW116559   2.206   3.330   6.727  0.9721 -0.6665 -0.1366
 1699SOL    HW216560   2.073   3.332   6.696 -0.0756 -0.4147  0.3461
 1700SOL     OW16561   4.180   2.670   3.561 -0.4458 -0.8731 -0.0965
 1700SOL    HW116562   4.234   2.681   3.639 -0.8460 -1.0191  0.2014
 1700SOL    HW216563   4.201   2.579   3.539 -0.6124 -0.8850 -0.2045
 1701SOL     OW16564   2.551   2.841  17.062 -0.2258 -0.6429 -0.2965
 1701SOL    HW116565   2.522   2.826  16.972  1.4782 -0.2562 -0.9077
 1701SOL    HW216566   2.553   2.936  17.072  1.1430 -0.7944  0.9454
 1702SOL     OW16567   0.303   4.314  16.908  0.4832 -0.3700 -0.6188
 1702SOL    HW116568   0.239   4.369  16.864  0.1575 -0.6427 -0.4895
 1702SOL    HW216569   0.333   4.251  16.841  0.2875 -1.9413  0.7673
 1703SOL     OW16570   3.583   1.199  11.331 -0.3708  0.0368  0.2105
 1703SOL    HW116571   3.664   1.243  11.357 -1.5975  2.1111  0.5858
 1703SOL    HW216572   3.537   1.280  11.308 -2.6542 -1.4201 -0.3504
 1704SOL     OW16573   0.710   3.483   6.803  0.4855  0.2363  0.4112
 1704SOL    HW116574   0.688   3.576   6.815 -0.7934  0.0337 -0.4074
 1704SOL    HW216575   0.764   3.494   6.725 -3.0544 -1.8235 -2.2802
 1705SOL     OW16576   1.286   2.003   3.459 -0.7037  0.2178 -0.0096
 1705SOL    HW116577   1.203   2.051   3.465 -1.9074 -1.9934  1.0550
 1705SOL    HW216578   1.279   1.965   3.372 -0.7560  0.8666 -0.2921
 1706SOL     OW16579   2.370   1.609  14.541 -0.6288 -0.3073 -0.6514
 1706SOL    HW116580   2.321   1.548  14.596  1.8354 -1.3608  0.3867
 1706SOL    HW216581   2.412   1.670  14.601 -0.4591  0.1522 -1.2351
 1707SOL     OW16582   4.389   3.571  13.367  0.3931  0.1905 -0.2665
 1707SOL    HW116583   4.447   3.647  13.363 -1.9919  1.8994 -1.9990
 1707SOL    HW216584   4.361   3.560  13.276  0.1232  0.9792 -0.2838
 1708SOL     OW16585   4.285   2.716   4.122 -0.2955 -0.1758 -0.7935
 1708SOL    HW116586   4.356   2.656   4.098  0.6876  0.1519  1.3332
 1708SOL    HW216587   4.312   2.739   4.211  0.2713  2.2128 -1.5857
 1709SOL     OW16588   0.586   1.664   5.610  0.5658 -0.2595 -0.3721
 1709SOL    HW116589   0.513   1.657   5.672  1.5005  2.5590  1.0287
 1709SOL    HW216590   0.556   1.732   5.550  1.8519 -0.1790 -0.9092
 1710SOL     OW16591   2.861   3.344   5.135 -0.0304 -0.4991 -0.0251
 1710SOL    HW116592   2.794   3.279   5.115  0.7680 -1.3130 -0.0285
 1710SOL    HW216593   2.868   3.397   5.056 -0.7700 -0.4330 -0.0428
 1711SOL     OW16594   2.418   2.301  10.322  0.0045  0.5487  0.1407
 1711SOL    HW116595   2.500   2.321  10.278 -0.2336 -0.6905 -0.8737
 1711SOL    HW216596   2.373   2.385  10.312  2.2178  1.7509  0.3752
 1712SOL     OW16597   2.896   3.713   4.127 -0.4107 -0.8371  0.3013
 1712SOL    HW116598   2.916   3.703   4.034 -0.5709  2.1791 -0.0492
 1712SOL    HW216599   2.964   3.773   4.156 -1.5622 -0.6414  2.5570
 1713SOL     OW16600   2.255   3.224   3.062 -0.3765  0.0719 -0.1891
 1713SOL    HW116601   2.203   3.183   2.994 -1.1608  2.2830 -0.9261
 1713SOL    HW216602   2.313   3.270   3.002 -1.8459 -0.6455 -2.1556
 1714SOL     OW16603   0.044   1.394   7.117  0.5071  0.7554 -0.0931
 1714SOL    HW116604   0.087   1.339   7.051  0.5963 -0.0312  0.6114
 1714SOL    HW216605   4.705   1.324   7.137 -0.0156  1.0104 -0.8837
 1715SOL     OW16606   3.232   4.329   7.320 -0.0105  0.3192  0.5712
 1715SOL    HW116607   3.263   4.242   7.341 -3.0606 -1.4225 -2.0348
 1715SOL    HW216608   3.146   4.318   7.362  0.5228  0.0749  1.5757
 1716SOL     OW16609   3.681   0.846   4.570  0.1246  0.2551 -0.1947
 1716SOL    HW116610   3.614   0.813   4.629 -1.4140  1.2485 -1.3929
 1716SOL    HW216611   3.640   0.829   4.485 -2.0291  1.2352  0.6472
 1717SOL     OW16612   3.642   3.035   3.544 -0.3251  0.5997  0.0456
 1717SOL    HW116613   3.624   3.069   3.631  0.1894  0.1267  0.3358
 1717SOL    HW216614   3.715   3.088   3.512  0.5606 -0.5453  0.1834
 1718SOL     OW16615   2.673   2.994  12.749  0.6646 -0.6005  0.0094
 1718SOL    HW116616   2.583   2.985  12.780  0.2448  1.5674 -0.6302
 1718SOL    HW216617   2.716   2.933  12.810 -2.2807 -2.1324  0.5622
 1719SOL     OW16618   0.037   0.409   0.585  0.3285  0.1841 -0.1140
 1719SOL    HW116619   0.132   0.400   0.578  0.1590  0.5068 -3.1653
 1719SOL    HW216620   0.023   0.355   0.662 -2.0883 -0.2510 -0.8602
 1720SOL     OW16621   2.147   2.458  14.609 -0.3196 -0.2539 -0.1106
 1720SOL    HW116622   2.127   2.476  14.518 -1.1367  0.8778  0.2916
 1720SOL    HW216623   2.197   2.532  14.643 -1.0340  0.5059 -0.7220
 1721SOL     OW16624   4.155   0.147   8.421  0.0216  0.2895  0.7083
 1721SOL    HW116625   4.124   0.057   8.430 -1.8040  0.4816 -3.3171
 1721SOL    HW216626   4.081   0.184   8.468 -0.8333 -0.1226 -0.3085
 1722SOL     OW16627   4.491   3.080  11.079 -0.6382 -0.6022  0.0854
 1722SOL    HW116628   4.492   2.994  11.038 -2.7354  1.4343 -4.2645
 1722SOL    HW216629   4.462   3.138  11.008  1.0146  0.6475  0.4334
 1723SOL     OW16630   3.543   3.160  15.206 -0.8072  0.3049  0.1427
 1723SOL    HW116631   3.471   3.099  15.222  0.5166 -1.7243 -1.6241
 1723SOL    HW216632   3.611   3.121  15.261 -0.8724 -1.0944 -0.7705
 1724SOL     OW16633   2.374   4.655   8.167  0.1359 -0.1236 -0.3215
 1724SOL    HW116634   2.388   0.007   8.223  1.7451 -0.0973 -0.7692
 1724SOL    HW216635   2.345   4.697   8.086 -1.1090 -0.2931  0.0325
 1725SOL     OW16636   0.386   4.077   2.679 -0.0279 -0.3911  0.2561
 1725SOL    HW116637   0.308   4.129   2.698  0.6327  0.4255  0.7131
 1725SOL    HW216638   0.435   4.084   2.760 -0.9735  0.5237  0.7528
 1726SOL     OW16639   2.884   3.774   9.049  0.3075 -0.5243  0.0321
 1726SOL    HW116640   2.978   3.760   9.059  0.3613 -0.6334 -0.6339
 1726SOL    HW216641   2.893   3.866   9.071  1.7260 -1.2744  2.5988
 1727SOL     OW16642   2.660   4.682   8.254 -0.0627  0.2968 -0.3907
 1727SOL    HW116643   2.573   4.650   8.231  0.6194 -2.0341  0.2876
 1727SOL    HW216644   2.672   4.641   8.340 -2.3108 -1.0186 -0.7080
 1728SOL     OW16645   4.102   4.261   3.439  0.1454 -0.5811  0.9662
 1728SOL    HW116646   4.059   4.219   3.514 -0.3782 -0.7601  0.5620
 1728SOL    HW216647   4.039   4.331   3.419 -0.9803 -1.0069  2.9484
 1729SOL     OW16648   2.574   2.335   5.079 -0.1270 -0.2201 -0.1632
 1729SOL    HW116649   2.513   2.299   5.014  1.2128 -0.3796 -1.3187
 1729SOL    HW216650   2.536   2.305   5.162  1.9448  1.6662  1.4436
 1730SOL     OW16651   0.793   3.714   7.720 -0.5172  0.5152 -0.5666
 1730SOL    HW116652   0.824   3.794   7.679 -0.9955  1.5322  1.0558
 1730SOL    HW216653   0.709   3.705   7.675 -0.3229  0.3792 -0.9022
 1731SOL     OW16654   1.142   3.963   9.411  0.2087 -0.0845  0.0350
 1731SOL    HW116655   1.072   3.904   9.439 -0.4512  0.1998 -1.0012
 1731SOL    HW216656   1.163   4.016   9.487 -1.8805  0.1909  0.4040
 1732SOL     OW16657   2.490   0.022   8.616  0.1271 -0.1383 -0.1293
 1732SOL    HW116658   2.581   0.042   8.594 -0.0745  0.7224 -0.1807
 1732SOL    HW216659   2.464   0.114   8.618 -1.6398 -0.6431 -0.4795
 1733SOL     OW16660   2.065   0.673   7.476 -0.0167  0.4695  0.2268
 1733SOL    HW116661   2.045   0.714   7.392  0.0088 -2.1421 -1.0408
 1733SOL    HW216662   1.991   0.616   7.494  0.7233 -1.0229 -1.4434
 1734SOL     OW16663   4.664   2.077  15.349 -0.7051  0.0249 -0.2922
 1734SOL    HW116664   4.653   1.982  15.342 -1.1244 -0.0678  1.4907
 1734SOL    HW216665   4.683   2.100  15.258  0.7220 -1.1661 -0.2939
 1735SOL     OW16666   0.451   0.321   5.093  0.0865  0.1644  0.1096
 1735SOL    HW116667   0.442   0.404   5.140 -2.0378  0.1103 -0.1838
 1735SOL    HW216668   0.381   0.277   5.140  0.2949  0.5623  0.7943
 1736SOL     OW16669   0.605   3.716   6.889 -0.3482  0.1371  0.3019
 1736SOL    HW116670   0.533   3.778   6.898  0.6612  1.4376 -0.3761
 1736SOL    HW216671   0.677   3.776   6.867 -0.5707 -0.1446 -1.2036
 1737SOL     OW16672   1.318   4.147   1.688 -0.4480 -0.4189 -0.0400
 1737SOL    HW116673   1.300   4.053   1.684  1.7123 -0.8455 -0.1099
 1737SOL    HW216674   1.236   4.196   1.691 -0.5420 -0.5607 -0.2722
 1738SOL     OW16675   1.277   3.936   2.815 -0.5080 -0.3320 -0.3548
 1738SOL    HW116676   1.274   3.908   2.723 -0.2692 -0.6315 -0.2735
 1738SOL    HW216677   1.199   3.991   2.819 -0.2372  0.0051  0.2142
 1739SOL     OW16678   0.352   3.008   8.738 -0.1749 -0.0607  0.3443
 1739SOL    HW116679   0.306   3.024   8.820 -0.3842 -0.7571  0.3667
 1739SOL    HW216680   0.334   3.088   8.688  0.2571  1.1415  2.1254
 1740SOL     OW16681   2.305   1.752   2.221 -0.0612 -0.5851  0.2027
 1740SOL    HW116682   2.253   1.779   2.145  0.6680  1.6216  0.4913
 1740SOL    HW216683   2.371   1.687   2.197  0.5900  0.0372  0.3142
 1741SOL     OW16684   1.762   4.711   3.153  0.2850  0.2893 -0.1887
 1741SOL    HW116685   1.693   0.048   3.127  0.0073 -0.3148 -0.8427
 1741SOL    HW216686   1.844   0.016   3.114  1.1577  1.9227  2.7999
 1742SOL     OW16687   3.298   4.084   7.436  0.0600  0.0413 -0.0676
 1742SOL    HW116688   3.379   4.058   7.481  0.3501  1.1466  0.0446
 1742SOL    HW216689   3.242   4.006   7.446  1.8557 -1.5452 -2.5147
 1743SOL     OW16690   2.526   0.713   0.741  0.0801  0.3677 -0.5179
 1743SOL    HW116691   2.561   0.709   0.652  0.9658 -0.7643 -0.1197
 1743SOL    HW216692   2.609   0.706   0.788 -0.1101 -1.8372 -0.4933
 1744SOL     OW16693   1.031   2.513   6.555  0.0756  0.2934 -0.0470
 1744SOL    HW116694   1.030   2.591   6.611  0.5824 -0.6031  1.2189
 1744SOL    HW216695   0.996   2.556   6.477 -0.0651 -1.5146 -0.9695
 1745SOL     OW16696   2.738   0.195   8.177  0.5469  0.0303 -0.3031
 1745SOL    HW116697   2.700   0.114   8.211  0.7663  0.3341  0.6727
 1745SOL    HW216698   2.710   0.259   8.242  1.6716  0.0115  0.1948
 1746SOL     OW16699   1.796   1.552  10.538 -0.6524  0.7089  0.3674
 1746SOL    HW116700   1.778   1.499  10.460  2.7316  2.4398 -1.5936
 1746SOL    HW216701   1.805   1.484  10.605 -1.6562 -0.8640 -1.0967
 1747SOL     OW16702   0.145   1.929   5.667  0.4396 -0.1705 -0.9335
 1747SOL    HW116703   0.116   1.848   5.624 -0.1779  1.0919 -2.8907
 1747SOL    HW216704   0.058   1.959   5.691 -0.3313 -2.1134 -1.3141
 1748SOL     OW16705   2.007   3.454  10.563  0.1138 -0.1263 -0.3010
 1748SOL    HW116706   2.001   3.387  10.494 -2.1297  1.3035 -1.4943
 1748SOL    HW216707   1.971   3.410  10.640 -1.3152  1.2596 -0.1802
 1749SOL     OW16708   3.293   1.581   1.434 -0.1734 -0.3997 -0.5053
 1749SOL    HW116709   3.302   1.522   1.509 -1.0059  2.3148  1.7485
 1749SOL    HW216710   3.222   1.643   1.451 -1.4893 -2.3630  1.2032
 1750SOL     OW16711   2.693   1.316   7.992  0.4942  0.0155 -0.6678
 1750SOL    HW116712   2.780   1.347   8.017 -0.2474  1.2792  0.3800
 1750SOL    HW216713   2.641   1.396   7.989  1.7512  0.9500  1.8812
 1751SOL     OW16714   3.280   0.645   4.902 -0.2815 -0.4743 -0.1375
 1751SOL    HW116715   3.211   0.709   4.921 -1.3429 -1.5328 -0.4259
 1751SOL    HW216716   3.261   0.576   4.965 -0.6034 -0.7046 -0.4849
 1752SOL     OW16717   0.689   0.976  14.293  0.0933  0.5099 -0.4255
 1752SOL    HW116718   0.761   1.006  14.349  2.0724 -2.4610 -1.3798
 1752SOL    HW216719   0.741   0.977  14.212 -0.1094  0.1529 -0.5582
 1753SOL     OW16720   2.319   2.027   3.095 -0.7281  0.6819  0.2778
 1753SOL    HW116721   2.278   2.053   3.178 -2.2717  0.1233 -0.3096
 1753SOL    HW216722   2.412   2.038   3.114 -0.4118 -2.0390  0.2952
 1754SOL     OW16723   1.494   2.370   3.032  0.0351  0.2957  0.0367
 1754SOL    HW116724   1.487   2.326   2.947 -1.4447  2.0284 -0.7291
 1754SOL    HW216725   1.587   2.376   3.055  0.6655  0.2974 -2.4601
 1755SOL     OW16726   1.956   0.723  16.784  0.0389  0.0368  0.0848
 1755SOL    HW116727   1.932   0.703  16.875 -0.6279 -1.8820 -0.5255
 1755SOL    HW216728   1.983   0.815  16.791 -0.9958  0.5038 -2.1552
 1756SOL     OW16729   0.021   4.574   6.855  0.2046 -0.1774 -0.1528
 1756SOL    HW116730   0.066   4.622   6.786  0.1540  0.2730  0.1253
 1756SOL    HW216731   0.011   4.633   6.930 -0.7894  0.1532 -0.5342
 1757SOL     OW16732   2.107   3.986   7.927 -0.2413 -0.4731  0.0496
 1757SOL    HW116733   2.149   4.064   7.962 -0.5961  0.7889 -2.3479
 1757SOL    HW216734   2.115   3.932   8.006  0.9589  0.6390  0.6780
 1758SOL     OW16735   3.658   1.313  13.730  0.0064  0.5909 -0.2110
 1758SOL    HW116736   3.735   1.344  13.682  0.5858  0.8365  0.8906
 1758SOL    HW216737   3.596   1.293  13.659 -1.6464  2.9300  0.5490
 1759SOL     OW16738   4.244   3.103   1.916  0.1352 -0.3756  0.1716
 1759SOL    HW116739   4.298   3.037   1.960  0.7007 -1.6770 -2.4740
 1759SOL    HW216740   4.168   3.044   1.913  1.5598 -2.2274  0.4297
 1760SOL     OW16741   4.303   1.833   7.751 -0.0109 -0.0606  0.0677
 1760SOL    HW116742   4.282   1.925   7.766 -0.9589 -0.3562  0.5391
 1760SOL    HW216743   4.353   1.834   7.669  0.6483 -1.3705  0.4505
 1761SOL     OW16744   1.990   4.215   3.511 -0.4203 -0.0078  0.2414
 1761SOL    HW116745   1.951   4.153   3.573  2.9042 -2.1859  0.1930
 1761SOL    HW216746   1.975   4.173   3.427  0.5657  0.3596 -0.1133
 1762SOL     OW16747   0.171   0.842   9.699  0.2043 -0.1096  0.2365
 1762SOL    HW116748   0.079   0.865   9.687  0.0480 -0.7851  0.1331
 1762SOL    HW216749   0.156   0.762   9.749 -0.8433  0.1598  0.3521
 1763SOL     OW16750   0.705   2.755   9.343 -0.4387 -0.0551 -0.4173
 1763SOL    HW116751   0.664   2.804   9.414  0.5611  0.4174 -0.1678
 1763SOL    HW216752   0.626   2.703   9.327 -1.1747  1.3155 -1.2684
 1764SOL     OW16753   4.658   0.213  14.090  0.1798 -0.5947  0.3224
 1764SOL    HW116754   4.581   0.269  14.078  0.5921 -0.2935 -0.9234
 1764SOL    HW216755   4.714   0.273  14.140 -2.1437  2.2411 -0.4446
 1765SOL     OW16756   3.867   1.102   7.284 -0.4150 -0.0643  0.4994
 1765SOL    HW116757   3.780   1.092   7.247  0.3485 -1.1840 -1.0277
 1765SOL    HW216758   3.847   1.081   7.375 -0.5509  1.5954  0.8523
 1766SOL     OW16759   2.675   2.172   1.387 -0.0321 -0.1192 -0.0990
 1766SOL    HW116760   2.649   2.163   1.479  0.9884 -1.1838  0.0791
 1766SOL    HW216761   2.590   2.149   1.350  0.9250 -2.9379 -0.5035
 1767SOL     OW16762   4.456   4.449   4.144  0.1326 -0.1433 -0.0299
 1767SOL    HW116763   4.380   4.393   4.134 -0.8457  0.7696  2.2781
 1767SOL    HW216764   4.425   4.526   4.096 -1.6523  0.5629  2.2441
 1768SOL     OW16765   1.178   4.140   3.842  0.6609  0.5211 -0.1514
 1768SOL    HW116766   1.171   4.217   3.785  1.3688  1.1461  0.6101
 1768SOL    HW216767   1.097   4.093   3.826  0.5082  0.4950  0.7078
 1769SOL     OW16768   1.257   2.806  12.789 -0.1063 -0.0786  0.1631
 1769SOL    HW116769   1.295   2.892  12.773 -0.4209  0.2852  1.3281
 1769SOL    HW216770   1.255   2.808  12.885 -1.8815  3.0194  0.0561
 1770SOL     OW16771   1.355   3.082   9.061 -0.8694  0.4577 -0.1394
 1770SOL    HW116772   1.287   3.062   8.996 -0.4121 -1.0374 -0.1492
 1770SOL    HW216773   1.350   3.178   9.064  1.7766  0.6115 -0.7524
 1771SOL     OW16774   1.527   1.703   6.001  0.2178  0.0398 -0.4269
 1771SOL    HW116775   1.537   1.657   6.084 -0.0004 -1.1929 -1.0957
 1771SOL    HW216776   1.529   1.796   6.025  2.5130 -0.4913  1.4335
 1772SOL     OW16777   1.768   4.340  13.941 -0.1279  0.6032 -0.6575
 1772SOL    HW116778   1.763   4.407  13.873  0.8190  0.7337 -0.6052
 1772SOL    HW216779   1.833   4.279  13.904 -2.4839  0.0552 -3.8574
 1773SOL     OW16780   3.455   0.538   6.835  0.6375 -0.0997  0.3312
 1773SOL    HW116781   3.366   0.510   6.855  0.5833 -0.8786 -1.0092
 1773SOL    HW216782   3.468   0.614   6.892  0.4103 -0.5599  1.0034
 1774SOL     OW16783   0.063   1.325   8.966 -0.4860  0.1546  0.3382
 1774SOL    HW116784   0.097   1.392   8.906 -0.3169  0.2820  0.5742
 1774SOL    HW216785   0.085   1.251   8.910  0.9126 -0.3185  1.5119
 1775SOL     OW16786   3.572   1.760   9.421  0.4550  0.0176 -0.4863
 1775SOL    HW116787   3.610   1.846   9.437 -2.6164  1.0259  1.3170
 1775SOL    HW216788   3.607   1.709   9.494  2.3442  1.3921 -0.4656
 1776SOL     OW16789   0.045   4.386   0.509  0.0005  0.1078 -0.7230
 1776SOL    HW116790   0.052   4.377   0.604  0.6068 -1.2538 -0.8967
 1776SOL    HW216791   4.674   4.395   0.501  0.0067  1.6962  1.0499
 1777SOL     OW16792   1.706   3.779   1.196 -0.6522 -0.7295  0.3232
 1777SOL    HW116793   1.782   3.825   1.232 -0.3576  1.3408 -2.9017
 1777SOL    HW216794   1.659   3.773   1.279 -1.1036 -2.1213 -0.0348
 1778SOL     OW16795   4.279   2.560   5.060  0.6745  0.1880 -0.0632
 1778SOL    HW116796   4.315   2.622   4.997 -0.1096  0.6087 -0.0882
 1778SOL    HW216797   4.185   2.561   5.043  0.8044  1.2485 -0.6690
 1779SOL     OW16798   4.006   1.724   8.899 -0.1845  0.5215  0.4265
 1779SOL    HW116799   4.052   1.642   8.883  0.6236  0.9006  0.8286
 1779SOL    HW216800   4.016   1.737   8.993  2.2454  2.8428 -0.1709
 1780SOL     OW16801   3.460   4.512   7.340 -0.2664  0.0834 -0.0139
 1780SOL    HW116802   3.376   4.467   7.332  0.2666 -0.5556 -2.1470
 1780SOL    HW216803   3.440   4.603   7.319 -1.3346 -0.2485 -0.4003
 1781SOL     OW16804   0.215   3.048   6.602 -0.3917 -0.1722 -0.3198
 1781SOL    HW116805   0.210   3.093   6.517  1.9558 -1.0458 -0.9238
 1781SOL    HW216806   0.299   3.003   6.587  0.0218 -0.1408  1.9921
 1782SOL     OW16807   2.141   0.478  16.582 -0.0079  0.1692 -0.3072
 1782SOL    HW116808   2.141   0.383  16.566 -1.3455  0.1635 -0.2569
 1782SOL    HW216809   2.056   0.491  16.540 -0.0462  1.6844  0.2264
 1783SOL     OW16810   1.894   2.099   6.946 -1.2192  0.5083  0.2126
 1783SOL    HW116811   1.942   2.016   6.956 -0.3635  1.3360  2.9210
 1783SOL    HW216812   1.804   2.065   6.940 -1.3175  1.0560 -1.2813
 1784SOL     OW16813   3.776   1.033  15.683  0.0877 -0.1871  0.5597
 1784SOL    HW116814   3.689   1.009  15.716 -0.4170  0.1358 -0.5284
 1784SOL    HW216815   3.765   1.126  15.662 -0.3164 -0.5286 -0.7882
 1785SOL     OW16816   4.541   0.027   4.604  0.0346 -0.3313  0.0426
 1785SOL    HW116817   4.496   4.688   4.549 -0.4696 -0.9670  1.1950
 1785SOL    HW216818   4.626   0.040   4.562 -0.6674  0.7511 -1.0246
 1786SOL     OW16819   1.716   2.044   4.618 -0.4019  0.3887 -0.0972
 1786SOL    HW116820   1.694   2.040   4.711  0.0091 -2.3902 -0.1255
 1786SOL    HW216821   1.738   2.135   4.599  0.3582  0.2798  0.2487
 1787SOL     OW16822   0.116   0.203  11.388  0.1037 -0.5500  0.3809
 1787SOL    HW116823   0.194   0.173  11.342  0.4854  0.8795  0.0742
 1787SOL    HW216824   0.153   0.242  11.468 -0.3580 -0.0752  0.3652
 1788SOL     OW16825   0.874   1.259  13.481 -0.3395 -0.0911 -0.5342
 1788SOL    HW116826   0.924   1.308  13.547 -0.8449 -1.1592  0.6355
 1788SOL    HW216827   0.788   1.251  13.522 -0.8776  1.4614 -1.3483
 1789SOL     OW16828   2.344   4.514   6.528 -0.8584  0.7284  0.3634
 1789SOL    HW116829   2.250   4.516   6.547 -0.5272 -0.1506  2.0431
 1789SOL    HW216830   2.377   4.435   6.569 -2.2456  0.6204  1.2714
 1790SOL     OW16831   0.914   4.044   7.321  0.2178  0.2461  0.2999
 1790SOL    HW116832   0.907   4.000   7.406 -0.3454 -1.3554 -0.5782
 1790SOL    HW216833   1.008   4.036   7.305  0.4337 -0.5412  1.9824
 1791SOL     OW16834   3.638   4.136   2.185 -0.1483  0.0403  0.2537
 1791SOL    HW116835   3.556   4.164   2.145 -0.9804 -1.7100  0.7333
 1791SOL    HW216836   3.670   4.075   2.118  0.6287  0.6176  0.0965
 1792SOL     OW16837   0.056   2.005   6.600  0.3413  0.1507 -0.1747
 1792SOL    HW116838   0.053   1.921   6.645 -0.6386  0.0541 -0.4129
 1792SOL    HW216839   0.001   2.057   6.659  0.9055  1.6629 -0.9695
 1793SOL     OW16840   0.288   2.032   3.646 -0.0179  0.1484 -0.4737
 1793SOL    HW116841   0.353   1.982   3.596 -1.4403 -1.9682 -0.2278
 1793SOL    HW216842   0.328   2.025   3.733  2.5242  0.2261 -1.6261
 1794SOL     OW16843   0.959   3.308   6.982  0.1328  0.2758 -0.4722
 1794SOL    HW116844   0.879   3.257   6.987 -0.4850  1.4469  1.6160
 1794SOL    HW216845   0.941   3.402   6.990  0.1177  0.1442  1.1717
 1795SOL     OW16846   0.959   3.595   0.933  0.7643  0.0242 -1.1321
 1795SOL    HW116847   0.876   3.550   0.914  0.2262 -0.4291  2.1794
 1795SOL    HW216848   0.987   3.610   0.843  0.8893 -1.1178 -1.2870
 1796SOL     OW16849   4.151   4.177   5.959  0.6285  0.3869  0.8135
 1796SOL    HW116850   4.103   4.095   5.956  0.6521  0.3911  0.3050
 1796SOL    HW216851   4.225   4.177   5.898 -1.0499 -1.7921 -1.1704
 1797SOL     OW16852   0.612   1.785   4.636 -0.1441  0.4949 -0.1108
 1797SOL    HW116853   0.636   1.703   4.592 -2.2777  0.3477 -0.9806
 1797SOL    HW216854   0.522   1.770   4.665 -0.2402 -2.5743 -1.9785
 1798SOL     OW16855   3.655   3.229   6.228 -0.0304 -0.5400 -0.7546
 1798SOL    HW116856   3.617   3.263   6.310 -1.2607 -1.9095 -0.7507
 1798SOL    HW216857   3.579   3.244   6.171 -0.4249  0.4372  0.0169
 1799SOL     OW16858   3.387   2.339   6.709  0.2160  0.1192  0.1657
 1799SOL    HW116859   3.367   2.390   6.631  1.6124 -0.4220 -0.5614
 1799SOL    HW216860   3.403   2.256   6.663 -2.4938 -0.0441 -0.4442
 1800SOL     OW16861   3.653   3.073   6.682 -0.4815  0.4057 -0.4542
 1800SOL    HW116862   3.675   3.074   6.589  0.9862  0.3761 -0.1045
 1800SOL    HW216863   3.630   2.981   6.692 -2.0871  0.7902 -0.6662
 1801SOL     OW16864   2.095   2.279  13.378  0.6212 -0.1889  0.1562
 1801SOL    HW116865   2.158   2.351  13.384  0.6137 -0.2862  1.3495
 1801SOL    HW216866   2.016   2.318  13.341  0.0686 -1.3501  0.1148
 1802SOL     OW16867   1.006   4.053   3.090 -0.6096 -0.1168 -0.0978
 1802SOL    HW116868   1.026   3.962   3.068  2.7750  0.3506  1.0571
 1802SOL    HW216869   0.911   4.045   3.105 -0.1110 -3.2595  1.3033
 1803SOL     OW16870   2.013   4.396   7.597 -0.5874  0.2153  0.5187
 1803SOL    HW116871   1.953   4.322   7.604 -1.5904  0.9926  0.0419
 1803SOL    HW216872   2.075   4.357   7.536 -0.6937  0.0889  0.4922
 1804SOL     OW16873   0.607   4.204   1.979  0.7669  1.0556 -0.5321
 1804SOL    HW116874   0.517   4.234   1.992  1.9896  2.4803  4.8019
 1804SOL    HW216875   0.649   4.232   2.060 -0.9476  1.6790  0.1332
 1805SOL     OW16876   0.641   0.409   0.987  0.0141  0.0493 -0.3739
 1805SOL    HW116877   0.686   0.377   1.065  0.6588  2.3471  0.2065
 1805SOL    HW216878   0.687   0.493   0.977  2.1548 -0.7045  3.4267
 1806SOL     OW16879   2.332   0.153   7.555  0.1955  0.4770  0.0804
 1806SOL    HW116880   2.309   0.220   7.491  2.6139  0.6250 -0.6347
 1806SOL    HW216881   2.284   0.079   7.517  1.3751 -0.0288 -0.4222
 1807SOL     OW16882   1.512   2.701  16.881 -0.0060  0.0922  0.0141
 1807SOL    HW116883   1.422   2.698  16.914  0.1885  2.0040  0.7027
 1807SOL    HW216884   1.515   2.792  16.851  2.2997  0.1188  0.3559
 1808SOL     OW16885   3.989   0.018   7.830  0.1481 -0.5228 -0.1508
 1808SOL    HW116886   4.029   4.693   7.902 -0.3602 -0.3239  0.2637
 1808SOL    HW216887   4.003   4.683   7.756  0.5025 -1.1829  0.4460
 1809SOL     OW16888   0.127   4.068   2.445  0.8658 -0.1923  0.2052
 1809SOL    HW116889   0.099   4.029   2.362 -0.0613  1.1991 -0.1351
 1809SOL    HW216890   0.186   4.134   2.409 -1.2185  1.3188 -0.4599
 1810SOL     OW16891   3.875   3.946   0.876 -0.2528 -0.1924 -0.4004
 1810SOL    HW116892   3.890   4.041   0.874  0.0133 -0.2504 -1.2936
 1810SOL    HW216893   3.829   3.940   0.793 -1.3046 -2.3135  0.3566
 1811SOL     OW16894   0.661   3.748   3.277 -0.4199  0.2026  0.1753
 1811SOL    HW116895   0.650   3.655   3.258  0.8530 -0.2385  1.6176
 1811SOL    HW216896   0.727   3.777   3.214 -1.5018 -1.4022 -1.7275
 1812SOL     OW16897   3.228   4.169   9.178 -0.1305 -0.3644  0.1139
 1812SOL    HW116898   3.188   4.183   9.264 -2.2016 -1.1646 -0.7082
 1812SOL    HW216899   3.233   4.256   9.138  1.9129 -0.1380  0.8619
 1813SOL     OW16900   1.218   4.030  14.816  0.1468 -0.6667  0.6537
 1813SOL    HW116901   1.240   4.010  14.907  2.6377 -2.2855 -0.3106
 1813SOL    HW216902   1.133   3.988  14.802  1.0242 -1.6398 -1.8077
 1814SOL     OW16903   1.333   2.820   3.704  0.3298 -0.1585 -0.3663
 1814SOL    HW116904   1.301   2.736   3.737  1.3865 -0.6710 -0.6640
 1814SOL    HW216905   1.283   2.826   3.622 -1.5429 -0.0816  0.7711
 1815SOL     OW16906   1.897   4.129   0.695  0.4101  0.7639  0.4240
 1815SOL    HW116907   1.871   4.206   0.745 -0.0977  0.5347  0.5151
 1815SOL    HW216908   1.826   4.067   0.714 -0.6905  1.0182 -2.8311
 1816SOL     OW16909   3.413   3.435   7.993  0.4039 -0.1520  0.5123
 1816SOL    HW116910   3.363   3.382   8.055  1.6740  0.8652  2.3981
 1816SOL    HW216911   3.351   3.493   7.948 -0.1847 -0.3270  1.0947
 1817SOL     OW16912   2.010   0.175   7.567  0.7509  0.0589 -0.1591
 1817SOL    HW116913   2.042   0.252   7.519 -1.0655  0.9587  0.0923
 1817SOL    HW216914   1.926   0.215   7.587 -0.3440 -3.3466  2.0073
 1818SOL     OW16915   2.157   1.588   6.078  0.1973  0.1628  0.0627
 1818SOL    HW116916   2.169   1.637   5.997  0.9161 -0.8708 -0.4640
 1818SOL    HW216917   2.244   1.610   6.112  0.3788  0.2353 -0.4504
 1819SOL     OW16918   2.847   3.037   2.331 -0.3056 -0.2823 -0.6113
 1819SOL    HW116919   2.848   3.131   2.310 -0.7269 -0.0750  0.2909
 1819SOL    HW216920   2.939   3.015   2.345 -0.1046  0.8146 -0.1980
 1820SOL     OW16921   3.879   4.372   7.179 -0.1648  0.2208 -0.0483
 1820SOL    HW116922   3.957   4.413   7.217  0.6843 -0.4416 -1.0828
 1820SOL    HW216923   3.808   4.407   7.234 -0.9420  1.2059 -1.6936
 1821SOL     OW16924   0.269   2.436   5.214  0.5753  0.3162  0.1837
 1821SOL    HW116925   0.243   2.344   5.218 -1.9883  1.1391  1.9202
 1821SOL    HW216926   0.275   2.459   5.306 -1.1117 -0.8608  0.5886
 1822SOL     OW16927   1.654   3.402   8.699  0.0409  0.5059  0.3272
 1822SOL    HW116928   1.684   3.312   8.684 -3.6263 -0.8553  1.2353
 1822SOL    HW216929   1.564   3.387   8.728  0.4061 -1.9635  0.2101
 1823SOL     OW16930   4.478   1.958  14.425  0.2053 -0.1722  0.3108
 1823SOL    HW116931   4.520   1.922  14.347 -0.4601  2.3040 -1.2176
 1823SOL    HW216932   4.419   1.888  14.452 -0.2474 -0.0947 -0.4670
 1824SOL     OW16933   4.372   4.159   5.797 -0.2874 -0.4887  0.5860
 1824SOL    HW116934   4.350   4.142   5.705 -1.9335  2.9452  0.3254
 1824SOL    HW216935   4.462   4.128   5.791  0.1511  1.3303 -2.5499
 1825SOL     OW16936   4.698   4.320   5.807 -0.4019 -0.2788 -0.2944
 1825SOL    HW116937   0.027   4.334   5.729 -1.1881 -1.2571 -0.9989
 1825SOL    HW216938   4.651   4.240   5.784 -0.5048  0.1534 -1.5564
 1826SOL     OW16939   0.229   3.067   4.877 -0.4199 -0.5420 -0.1164
 1826SOL    HW116940   0.290   3.007   4.919 -0.2556 -0.3884 -0.1390
 1826SOL    HW216941   0.168   3.076   4.950  0.3757 -2.4059  0.7662
 1827SOL     OW16942   2.030   4.589   3.221 -0.0691 -0.1360 -0.0425
 1827SOL    HW116943   2.043   4.579   3.127  2.6083 -1.5990  0.4631
 1827SOL    HW216944   2.110   4.546   3.250 -0.7054 -2.5153 -1.7871
 1828SOL     OW16945   0.702   3.114   8.250 -0.1947 -0.4355 -0.3586
 1828SOL    HW116946   0.768   3.068   8.303 -0.6923 -0.6108  0.0997
 1828SOL    HW216947   0.743   3.087   8.168  3.1863 -0.6302  1.3887
 1829SOL     OW16948   3.638   2.848  14.409  0.2591 -0.0677 -0.0924
 1829SOL    HW116949   3.553   2.892  14.421 -0.0014 -1.0220  1.4495
 1829SOL    HW216950   3.654   2.815  14.497  1.1766  3.2803  0.9690
 1830SOL     OW16951   0.484   4.400   4.619 -0.6585 -0.2766  0.2754
 1830SOL    HW116952   0.549   4.442   4.675  0.0140  0.2486 -0.8830
 1830SOL    HW216953   0.405   4.434   4.659 -0.8072  2.6954 -2.4923
 1831SOL     OW16954   0.165   1.904   4.087  0.8850 -0.2474 -0.4861
 1831SOL    HW116955   0.123   1.855   4.158  2.2532  1.3525  1.4582
 1831SOL    HW216956   0.100   1.975   4.085 -0.5052 -1.5253 -0.7160
 1832SOL     OW16957   1.706   1.339   7.436  0.0487  0.5111 -0.1946
 1832SOL    HW116958   1.727   1.429   7.411 -0.7981  1.2862  1.9078
 1832SOL    HW216959   1.724   1.343   7.530  3.5770  0.8254 -0.8736
 1833SOL     OW16960   2.244   1.959   8.803  0.0754 -0.1217 -0.5665
 1833SOL    HW116961   2.253   1.921   8.891  0.7793 -0.8038 -0.9311
 1833SOL    HW216962   2.151   1.980   8.797 -0.4687 -2.0221  1.2821
 1834SOL     OW16963   2.817   0.920  16.012  0.2866 -0.2646 -0.1661
 1834SOL    HW116964   2.729   0.895  15.982  0.1173 -0.4704  0.4893
 1834SOL    HW216965   2.845   0.840  16.056 -0.8037 -1.7308 -2.1150
 1835SOL     OW16966   2.049   3.229   1.618 -0.1932  0.0113 -0.0506
 1835SOL    HW116967   1.995   3.285   1.674 -3.3088 -0.1687 -2.8679
 1835SOL    HW216968   2.076   3.162   1.680 -0.0463  0.6266  0.5420
 1836SOL     OW16969   0.030   2.782   0.774  0.1693 -0.3321  0.0102
 1836SOL    HW116970   0.032   2.695   0.815 -1.7012 -0.3444  0.1008
 1836SOL    HW216971   0.015   2.841   0.847 -2.2258  0.0262 -0.7637
 1837SOL     OW16972   4.091   1.658  17.092 -0.2108  0.1272 -0.1445
 1837SOL    HW116973   4.058   1.656  17.182 -0.4778 -0.6938 -0.2580
 1837SOL    HW216974   4.016   1.690  17.042 -1.8493 -2.3518  0.7322
 1838SOL     OW16975   4.720   1.202   5.521  0.3783  0.0138 -0.8140
 1838SOL    HW116976   4.695   1.123   5.472 -2.2211  0.7285 -0.6670
 1838SOL    HW216977   0.087   1.175   5.530  1.1861  3.1425  0.0104
 1839SOL     OW16978   3.114   0.412  10.963 -0.0425  0.0534 -0.1241
 1839SOL    HW116979   3.032   0.362  10.964  1.3040 -2.1357  4.4919
 1839SOL    HW216980   3.146   0.371  10.882  2.0536 -0.4497  0.9651
 1840SOL     OW16981   2.008   0.591   3.004  0.3329  0.0545  0.5509
 1840SOL    HW116982   2.041   0.533   3.073  2.1705 -0.9627 -1.1979
 1840SOL    HW216983   2.086   0.622   2.958 -0.9335 -0.6055 -2.0369
 1841SOL     OW16984   3.544   0.381   7.019 -0.1318 -0.4468  0.1442
 1841SOL    HW116985   3.612   0.329   6.976  0.2873  0.2253 -0.0020
 1841SOL    HW216986   3.495   0.421   6.948  1.1019 -0.3608 -0.6703
 1842SOL     OW16987   4.584   1.867  12.254 -0.0910 -0.3965  0.0471
 1842SOL    HW116988   4.667   1.857  12.301 -0.9528  0.8589  1.8332
 1842SOL    HW216989   4.529   1.804  12.300 -1.3413  0.2233 -0.6105
 1843SOL     OW16990   2.202   0.707  16.291  0.5162 -0.4722  0.3296
 1843SOL    HW116991   2.243   0.713  16.204  1.4837 -0.0475  0.8175
 1843SOL    HW216992   2.126   0.654  16.269  1.5517 -1.7757 -0.0818
 1844SOL     OW16993   1.959   2.312  14.729 -0.5976 -0.0567  0.6485
 1844SOL    HW116994   2.018   2.290  14.801  0.3193 -1.1197 -0.4162
 1844SOL    HW216995   2.011   2.381  14.687 -1.0371  0.4334  0.9220
 1845SOL     OW16996   2.707   2.132   8.466 -0.3579  0.1075 -0.3638
 1845SOL    HW116997   2.739   2.073   8.534 -2.7339  0.0410  0.6767
 1845SOL    HW216998   2.782   2.182   8.435  1.9071 -1.9702  1.7457
 1846SOL     OW16999   3.730   1.757   4.486 -0.0126  0.6229  0.0608
 1846SOL    HW117000   3.752   1.794   4.572  0.8656 -0.3802  0.2630
 1846SOL    HW217001   3.814   1.716   4.466  0.8338  2.9207 -1.0094
 1847SOL     OW17002   0.302   2.929  12.921 -0.8241 -0.1212 -0.7096
 1847SOL    HW117003   0.231   2.936  12.857 -1.5312 -3.2091 -0.2738
 1847SOL    HW217004   0.271   2.990  12.988 -2.1104 -2.2510  0.6417
 1848SOL     OW17005   1.311   1.440   7.294  0.2647 -0.4377 -0.2449
 1848SOL    HW117006   1.311   1.386   7.373  0.9174 -2.0584 -1.3518
 1848SOL    HW217007   1.245   1.504   7.322  0.8124 -0.6366  1.4551
 1849SOL     OW17008   3.950   0.206  15.029 -0.2579  0.1865  0.3453
 1849SOL    HW117009   3.912   0.156  15.101 -0.5025 -1.1754 -0.7329
 1849SOL    HW217010   3.925   0.297  15.043 -0.7324  0.2258 -0.7471
 1850SOL     OW17011   2.220   0.506   3.965  0.1443 -0.1837 -0.4358
 1850SOL    HW117012   2.258   0.500   3.877 -2.0253 -0.4420 -1.3427
 1850SOL    HW217013   2.279   0.567   4.009  0.0691 -0.8235  0.5516
 1851SOL     OW17014   2.333   0.630   9.016  0.1374  0.4561 -0.1987
 1851SOL    HW117015   2.365   0.547   8.980 -1.7953 -0.2529 -0.2991
 1851SOL    HW217016   2.240   0.609   9.024  0.5159 -0.7294  1.0221
 1852SOL     OW17017   2.010   3.722  14.113  0.0475 -0.0230 -0.3443
 1852SOL    HW117018   2.062   3.646  14.087 -1.9132 -1.5524  0.2281
 1852SOL    HW217019   2.074   3.760  14.173  0.9301 -2.4077  0.2245
 1853SOL     OW17020   2.489   4.493   2.363  0.1437 -0.3516 -0.1768
 1853SOL    HW117021   2.470   4.587   2.362 -1.2930 -0.6390  0.8321
 1853SOL    HW217022   2.570   4.486   2.312 -0.8704 -0.7723 -1.7178
 1854SOL     OW17023   3.617   1.645  12.946 -0.1113 -0.1508 -0.0486
 1854SOL    HW117024   3.634   1.711  12.879 -1.0958 -2.0866 -2.2346
 1854SOL    HW217025   3.655   1.568  12.903 -1.3530 -0.0476 -1.3371
 1855SOL     OW17026   1.744   3.504   3.606  0.1797 -0.5046 -0.2632
 1855SOL    HW117027   1.702   3.464   3.682 -1.7559  1.4999 -0.2676
 1855SOL    HW217028   1.783   3.585   3.638  3.0749 -1.4600 -1.3255
 1856SOL     OW17029   3.963   0.522   0.434 -0.0230 -0.3121  0.4106
 1856SOL    HW117030   3.936   0.464   0.362  2.0507 -0.0820 -0.5436
 1856SOL    HW217031   4.015   0.463   0.488 -0.2681  0.0116  0.9967
 1857SOL     OW17032   1.869   3.338   4.710  0.1383 -0.3046  0.4577
 1857SOL    HW117033   1.789   3.328   4.658 -0.7488 -0.0406  1.7880
 1857SOL    HW217034   1.836   3.369   4.794 -1.4593  2.3505 -1.1533
 1858SOL     OW17035   1.587   2.655   8.202 -0.1149 -0.4219 -0.3844
 1858SOL    HW117036   1.504   2.608   8.193 -0.2993  0.0544 -1.1325
 1858SOL    HW217037   1.565   2.724   8.265  2.0257  0.7524 -0.9166
 1859SOL     OW17038   1.226   4.308   0.204  0.8050  0.2277  0.0040
 1859SOL    HW117039   1.314   4.281   0.228 -0.2598 -2.1941  1.2074
 1859SOL    HW217040   1.238   4.403   0.206  0.1245  0.3044  0.4724
 1860SOL     OW17041   4.574   2.465   8.877 -0.1974 -0.0463 -0.0142
 1860SOL    HW117042   4.559   2.410   8.800  1.4853 -0.4232 -0.0718
 1860SOL    HW217043   4.669   2.459   8.865  0.0323  1.5578  1.0732
 1861SOL     OW17044   4.127   3.902   5.368  0.2321  0.1767 -0.3859
 1861SOL    HW117045   4.140   3.973   5.304  0.8344  0.2606 -0.1708
 1861SOL    HW217046   4.169   3.833   5.317  0.5530  1.8803 -2.4424
 1862SOL     OW17047   0.541   3.641   0.666  0.5927 -0.4645  0.2488
 1862SOL    HW117048   0.447   3.637   0.683  0.7736  0.4627  1.5427
 1862SOL    HW217049   0.533   3.642   0.571 -0.4162  2.0496  0.3702
 1863SOL     OW17050   2.632   2.989   1.279  0.2497  0.2340  0.3627
 1863SOL    HW117051   2.557   3.038   1.246  0.9213 -0.3821 -2.0990
 1863SOL    HW217052   2.592   2.932   1.344  1.9257 -0.3024  0.9173
 1864SOL     OW17053   0.315   3.510  16.938  0.5409  0.2267 -0.7012
 1864SOL    HW117054   0.364   3.485  16.860  0.6076 -2.3936  0.1679
 1864SOL    HW217055   0.392   3.531  16.992  0.8568 -1.0634 -0.6395
 1865SOL     OW17056   1.127   0.124   5.616  0.1781 -0.1858  0.5093
 1865SOL    HW117057   1.064   0.162   5.555  1.2255 -1.0360 -1.1033
 1865SOL    HW217058   1.165   0.206   5.650 -0.9740  0.1356  1.0060
 1866SOL     OW17059   0.000   0.312  13.382  0.0502  0.5698  0.4520
 1866SOL    HW117060   0.022   0.295  13.290  0.0798  0.6476  0.4445
 1866SOL    HW217061   4.675   0.234  13.408  0.5733  0.3595  0.8099
 1867SOL     OW17062   0.418   0.505   3.018 -0.2181 -0.3065  0.0826
 1867SOL    HW117063   0.453   0.553   3.093  0.6802  0.0336 -0.5670
 1867SOL    HW217064   0.349   0.455   3.063  0.0688 -0.1922  0.6458
 1868SOL     OW17065   2.916   1.117   4.779 -0.4812  0.2483 -0.4910
 1868SOL    HW117066   2.987   1.165   4.821  0.0128  1.6542 -2.9182
 1868SOL    HW217067   2.945   1.127   4.688 -0.1584 -0.9226 -0.5132
 1869SOL     OW17068   0.332   4.037   3.626  0.4550 -0.2474 -0.0306
 1869SOL    HW117069   0.329   3.982   3.548  0.2215  1.2571 -1.0717
 1869SOL    HW217070   0.424   4.064   3.629 -0.3296  2.6083 -1.7325
 1870SOL     OW17071   3.674   1.213   5.958  0.2662  0.0573 -0.3776
 1870SOL    HW117072   3.619   1.284   5.925  1.0253 -0.8373 -3.5114
 1870SOL    HW217073   3.760   1.255   5.964 -0.2137  1.2142 -1.7052
 1871SOL     OW17074   2.781   2.841  13.526  0.0759 -0.6690  0.3116
 1871SOL    HW117075   2.805   2.756  13.561  0.3580 -0.2822  1.0665
 1871SOL    HW217076   2.837   2.899  13.578  1.2681 -0.8724 -0.7483
 1872SOL     OW17077   4.042   3.661   7.214  0.5512  0.0947  0.2899
 1872SOL    HW117078   3.974   3.713   7.255 -1.6967 -0.7211 -2.3871
 1872SOL    HW217079   4.029   3.577   7.258 -0.8829  1.2000  1.9804
 1873SOL     OW17080   3.826   1.784  17.054 -0.2977  0.0715 -0.1833
 1873SOL    HW117081   3.760   1.723  17.022 -0.2650  0.7308 -1.5016
 1873SOL    HW217082   3.828   1.862  16.998 -0.6718 -0.5318 -1.0322
 1874SOL     OW17083   1.066   2.161  17.149  0.0874 -0.1625 -0.2109
 1874SOL    HW117084   1.080   2.182  17.056 -1.3220 -0.9917 -0.6133
 1874SOL    HW217085   1.097   2.071  17.141 -1.2982 -0.5040 -1.7347
 1875SOL     OW17086   2.595   2.074   3.165  0.7267 -0.3506 -0.0655
 1875SOL    HW117087   2.658   2.010   3.197  0.1856  0.2162  2.1009
 1875SOL    HW217088   2.658   2.134   3.124  0.1043  0.1307 -0.3239
 1876SOL     OW17089   3.160   4.634   2.351  0.4057  0.0050  0.6611
 1876SOL    HW117090   3.230   4.696   2.333  0.2110 -0.2574 -0.9513
 1876SOL    HW217091   3.085   4.691   2.337  0.9303  0.3194 -0.8432
 1877SOL     OW17092   0.334   2.301   3.800 -0.5609  0.3792  0.2571
 1877SOL    HW117093   0.293   2.291   3.886  0.6414 -2.7570  0.4677
 1877SOL    HW217094   0.283   2.234   3.754  0.4251 -0.3392  0.2029
 1878SOL     OW17095   3.552   3.150  14.518 -0.0684  0.4020  0.0605
 1878SOL    HW117096   3.565   3.128  14.611  0.0876 -2.0747 -0.5496
 1878SOL    HW217097   3.503   3.070  14.500  2.3652 -0.3021 -3.3685
 1879SOL     OW17098   0.906   0.578   3.948 -0.4269  0.2942  0.1050
 1879SOL    HW117099   0.856   0.505   3.984 -0.1415 -0.8140 -1.7112
 1879SOL    HW217100   0.924   0.537   3.863  0.6750 -1.5837  1.2613
 1880SOL     OW17101   1.180   1.321   8.823 -0.4625  0.5631 -0.0435
 1880SOL    HW117102   1.143   1.234   8.810  2.8433 -1.0080  1.1800
 1880SOL    HW217103   1.105   1.377   8.844  0.0635  1.6397 -1.0176
 1881SOL     OW17104   4.522   1.051   3.392 -0.5389  0.2508  0.0990
 1881SOL    HW117105   4.493   1.060   3.301  1.0500  1.7634 -0.2701
 1881SOL    HW217106   4.612   1.021   3.392 -1.3946 -2.2385  1.7824
 1882SOL     OW17107   4.097   3.282  15.620  0.0298 -0.2395  0.2547
 1882SOL    HW117108   4.152   3.325  15.555 -1.0215  1.4592  0.4877
 1882SOL    HW217109   4.009   3.314  15.599 -0.1190 -0.5442  0.4071
 1883SOL     OW17110   3.021   0.796   6.437  0.2697  0.2509  0.3936
 1883SOL    HW117111   3.053   0.886   6.438  2.5471 -0.5278 -0.4556
 1883SOL    HW217112   2.930   0.812   6.462  0.3016  0.4858  0.3515
 1884SOL     OW17113   2.460   1.655   7.759 -0.1872  0.2155  0.1485
 1884SOL    HW117114   2.366   1.645   7.773 -0.0567  0.3992  1.1799
 1884SOL    HW217115   2.469   1.742   7.720 -1.1515  0.4072  0.3483
 1885SOL     OW17116   3.097   0.726   7.519 -0.1956 -0.4529 -0.1008
 1885SOL    HW117117   3.168   0.674   7.481  1.6114  0.2053  2.3059
 1885SOL    HW217118   3.045   0.726   7.439 -1.2065  1.1421  0.5609
 1886SOL     OW17119   0.846   2.957  15.190  0.6377 -0.2277  0.1963
 1886SOL    HW117120   0.848   2.868  15.224 -2.5938  0.5832  2.4620
 1886SOL    HW217121   0.759   2.986  15.216  0.9132  0.5692  0.2535
 1887SOL     OW17122   2.151   0.606  10.486  0.3069  0.0403  0.4152
 1887SOL    HW117123   2.118   0.682  10.533  2.5101  0.5475  1.1330
 1887SOL    HW217124   2.139   0.631  10.394  0.2594 -0.9048  0.1566
 1888SOL     OW17125   0.353   1.486   7.388 -0.3837 -0.2080  0.4501
 1888SOL    HW117126   0.264   1.451   7.400 -0.5523  0.8942  2.4144
 1888SOL    HW217127   0.379   1.431   7.314  1.6840  0.3674  0.7657
 1889SOL     OW17128   2.211   0.801   4.204 -0.4813  0.4513 -0.3492
 1889SOL    HW117129   2.123   0.827   4.175 -1.1025 -0.7469  0.4951
 1889SOL    HW217130   2.242   0.763   4.122  2.0088  0.0224  0.8149
 1890SOL     OW17131   2.997   3.086   7.443  0.2340  0.6503 -0.0350
 1890SOL    HW117132   3.016   3.138   7.365 -0.6707  0.5486 -0.3210
 1890SOL    HW217133   3.033   3.001   7.416 -1.1797 -0.2564  0.9516
 1891SOL     OW17134   0.898   1.244   1.271  0.1199 -0.5763 -0.2570
 1891SOL    HW117135   0.825   1.202   1.225  0.6876 -2.7129  0.8301
 1891SOL    HW217136   0.914   1.321   1.215  1.7822  1.2513  2.7539
 1892SOL     OW17137   0.799   1.480   9.046 -0.2228 -0.0953 -0.2781
 1892SOL    HW117138   0.848   1.498   8.966  0.5077  3.2998  0.9632
 1892SOL    HW217139   0.864   1.468   9.115 -0.7895  2.0786  0.6325
 1893SOL     OW17140   0.533   2.906   5.857 -0.7919  0.2994  0.5767
 1893SOL    HW117141   0.510   2.820   5.820  0.9149  0.7037 -1.4184
 1893SOL    HW217142   0.614   2.893   5.908 -1.5207  1.9247  2.1489
 1894SOL     OW17143   0.542   0.760   6.158  0.6416 -0.1294  0.1604
 1894SOL    HW117144   0.534   0.706   6.079  0.6631 -0.6648  0.5254
 1894SOL    HW217145   0.599   0.702   6.209  1.3842 -0.0510 -0.5750
 1895SOL     OW17146   3.519   0.043   2.629  0.3189 -0.0830  0.4837
 1895SOL    HW117147   3.483   0.092   2.555 -0.5972 -1.9574 -0.3155
 1895SOL    HW217148   3.529   4.685   2.581  0.6584 -0.9719  2.0724
 1896SOL     OW17149   3.169   4.335   0.963 -0.0628  0.2599  0.9223
 1896SOL    HW117150   3.099   4.397   0.941 -0.0024 -0.8036 -2.2518
 1896SOL    HW217151   3.167   4.321   1.058  0.5229  0.8793  1.0306
 1897SOL     OW17152   3.830   2.045   6.679 -0.0607  0.8906  0.9937
 1897SOL    HW117153   3.772   2.116   6.650 -0.5655 -0.3863 -1.0868
 1897SOL    HW217154   3.768   1.972   6.674 -0.1491  0.9133  1.7717
 1898SOL     OW17155   3.044   0.900   5.305 -0.1039 -0.4028 -0.2436
 1898SOL    HW117156   3.023   0.966   5.371  0.5927 -1.3779  0.9685
 1898SOL    HW217157   2.985   0.932   5.237 -0.8670  1.9238  1.5163
 1899SOL     OW17158   2.944   2.502   4.718 -0.4689  0.0275  0.3027
 1899SOL    HW117159   2.950   2.425   4.775  1.5540  0.2817  0.4331
 1899SOL    HW217160   3.033   2.509   4.683 -0.5118 -1.1659 -0.0527
 1900SOL     OW17161   0.878   0.917  16.098  0.3844 -0.0313  0.1353
 1900SOL    HW117162   0.930   0.983  16.143 -0.1261  1.0157 -0.8153
 1900SOL    HW217163   0.892   0.837  16.149 -1.4500 -0.6801 -0.4084
 1901SOL     OW17164   3.409   1.285   4.254 -0.3571 -0.2754  0.3490
 1901SOL    HW117165   3.450   1.368   4.228 -0.9652  0.0009  0.2683
 1901SOL    HW217166   3.337   1.277   4.191 -0.9067 -1.5871  1.1587
 1902SOL     OW17167   1.229   4.428   3.924  0.8228 -0.0448  0.1542
 1902SOL    HW117168   1.270   4.504   3.882 -1.0380  2.1097  2.2444
 1902SOL    HW217169   1.298   4.362   3.916  0.0593 -0.7468 -0.5711
 1903SOL     OW17170   1.999   3.944   8.487  0.4029 -0.3978  0.0656
 1903SOL    HW117171   2.082   3.973   8.525 -0.1540 -0.2411  1.1651
 1903SOL    HW217172   1.990   4.013   8.422  1.9554 -0.4341 -0.1915
 1904SOL     OW17173   0.594   2.998   3.117 -0.0505 -0.4085 -0.9747
 1904SOL    HW117174   0.666   2.935   3.106  0.3422 -0.0133 -0.6621
 1904SOL    HW217175   0.537   2.964   3.186 -0.7576 -0.2098 -1.4686
 1905SOL     OW17176   1.615   0.141   7.950  0.2520  0.0789 -0.4772
 1905SOL    HW117177   1.600   0.051   7.978  2.3918  0.2280  1.2061
 1905SOL    HW217178   1.551   0.140   7.879  0.2785  3.4455 -0.5463
 1906SOL     OW17179   1.044   0.266  13.532  0.0538  0.3650 -0.0690
 1906SOL    HW117180   1.114   0.201  13.529  0.6604  0.9718  0.9045
 1906SOL    HW217181   1.090   0.346  13.506 -0.2719  0.5956  0.0616
 1907SOL     OW17182   3.299   3.392   2.908  0.1069  0.3620  0.2679
 1907SOL    HW117183   3.289   3.397   3.003  2.4818  1.2577  0.4739
 1907SOL    HW217184   3.285   3.480   2.872 -0.9267  0.5416  1.0941
 1908SOL     OW17185   2.117   0.635   4.604 -0.2465  0.0781  0.0473
 1908SOL    HW117186   2.163   0.576   4.663  1.8948  1.0681 -0.6039
 1908SOL    HW217187   2.080   0.576   4.539 -0.9242  0.7348 -0.1609
 1909SOL     OW17188   2.953   4.407   3.335  0.4295  0.1052 -0.6321
 1909SOL    HW117189   3.033   4.430   3.381 -1.5730  0.6842  2.5732
 1909SOL    HW217190   2.947   4.314   3.357  4.5461 -0.0621 -0.3810
 1910SOL     OW17191   0.617   0.857   4.116  0.3579 -0.3632 -0.5453
 1910SOL    HW117192   0.525   0.868   4.139  1.1342 -0.5352  2.5508
 1910SOL    HW217193   0.658   0.930   4.162 -0.9622  1.0004 -1.5401
 1911SOL     OW17194   0.159   3.611   4.166 -0.0669 -0.6537 -0.2656
 1911SOL    HW117195   0.217   3.656   4.228 -0.6332 -1.8920  1.1905
 1911SOL    HW217196   0.123   3.686   4.120 -1.2824 -2.6160 -2.4942
 1912SOL     OW17197   4.139   4.473   4.201 -0.4838 -0.1339  0.0317
 1912SOL    HW117198   4.131   4.382   4.173 -2.7138  0.0562  0.0892
 1912SOL    HW217199   4.048   4.481   4.229 -0.0387  3.6670  0.4128
 1913SOL     OW17200   2.296   3.647   2.050 -0.1469 -1.0502  0.2507
 1913SOL    HW117201   2.257   3.702   2.118  0.0186  0.9312 -1.2749
 1913SOL    HW217202   2.388   3.673   2.049 -0.1204 -1.1606 -0.0444
 1914SOL     OW17203   2.736   1.822   5.920  0.3317  0.5981  0.4674
 1914SOL    HW117204   2.702   1.910   5.905 -1.0403  0.1559  0.9603
 1914SOL    HW217205   2.760   1.790   5.833 -0.9062  0.7640  0.0763
 1915SOL     OW17206   0.197   4.197   3.809 -0.0278  0.2297 -0.4072
 1915SOL    HW117207   0.250   4.164   3.737 -1.0193  0.1086 -1.0712
 1915SOL    HW217208   0.195   4.290   3.790  1.0576  0.0918 -1.1793
 1916SOL     OW17209   3.822   1.722  17.320 -0.2099  0.5618  0.9757
 1916SOL    HW117210   3.728   1.715  17.305  0.0792 -2.0627  0.4308
 1916SOL    HW217211   3.838   1.753  17.231  0.8979 -0.0882  0.9459
 1917SOL     OW17212   4.165   3.804   6.178 -0.1179 -0.5635  0.7583
 1917SOL    HW117213   4.241   3.810   6.235  2.2607 -2.0232 -2.2429
 1917SOL    HW217214   4.118   3.885   6.198  0.0697 -0.3468  0.3128
 1918SOL     OW17215   1.079   0.862   1.820  0.7837 -0.5980  0.1316
 1918SOL    HW117216   1.160   0.844   1.772  0.9621 -4.2182  1.8116
 1918SOL    HW217217   1.076   0.779   1.867 -0.1243  0.9661  2.7777
 1919SOL     OW17218   1.795   3.752   3.714  0.2455 -0.0311 -0.3143
 1919SOL    HW117219   1.710   3.736   3.757  1.6646 -0.0014  2.4917
 1919SOL    HW217220   1.844   3.770   3.794 -0.3336  1.5856 -0.3306
 1920SOL     OW17221   3.572   4.139   7.784 -0.3677  0.2949 -0.0124
 1920SOL    HW117222   3.637   4.168   7.720  1.0688 -1.1935  0.7684
 1920SOL    HW217223   3.545   4.224   7.819  1.0631  0.3059  1.0798
 1921SOL     OW17224   4.597   3.626   9.238  0.0862  0.3329 -0.3083
 1921SOL    HW117225   4.636   3.572   9.170  1.8602 -0.3425  1.2430
 1921SOL    HW217226   4.663   3.693   9.256 -0.0707  0.6071 -0.7501
 1922SOL     OW17227   3.861   2.146   9.712 -0.1838 -0.1385 -0.1249
 1922SOL    HW117228   3.805   2.103   9.777 -0.3955  1.2340  0.6120
 1922SOL    HW217229   3.847   2.239   9.730 -4.0058 -1.0260  1.5102
 1923SOL     OW17230   4.243   1.874   3.131  0.2512 -0.1629  0.2560
 1923SOL    HW117231   4.273   1.800   3.078 -3.2415 -0.2716 -1.5693
 1923SOL    HW217232   4.319   1.914   3.171 -0.1651  0.3533  0.5245
 1924SOL     OW17233   1.819   1.761   3.694  0.4452 -0.1037  0.4632
 1924SOL    HW117234   1.810   1.857   3.698  0.2238 -0.1448  0.9442
 1924SOL    HW217235   1.910   1.736   3.677  0.7305  0.3414  1.3466
 1925SOL     OW17236   1.341   0.202   7.507 -0.6299 -0.4349  0.1675
 1925SOL    HW117237   1.366   0.136   7.442 -2.7490  0.3548 -1.4541
 1925SOL    HW217238   1.259   0.238   7.474 -1.2332 -0.9027  1.1632
 1926SOL     OW17239   0.127   3.933   5.961  0.0614 -0.4810  0.3095
 1926SOL    HW117240   0.192   3.951   5.893  1.5661  1.0692  2.1919
 1926SOL    HW217241   0.155   4.002   6.021 -0.6812 -0.8331  1.0625
 1927SOL     OW17242   1.308   4.721   5.307 -0.2761 -0.0966 -0.1152
 1927SOL    HW117243   1.272   4.653   5.364 -0.6319 -0.2132 -0.4789
 1927SOL    HW217244   1.236   0.059   5.320  0.3855  0.2831  1.6435
 1928SOL     OW17245   2.548   1.136   2.201 -0.4960  0.0381  0.3731
 1928SOL    HW117246   2.525   1.087   2.122 -1.0803  1.9079 -0.6277
 1928SOL    HW217247   2.463   1.178   2.216 -0.4995 -0.0800  0.6832
 1929SOL     OW17248   3.902   2.094  13.819  0.1092 -0.5045  0.1514
 1929SOL    HW117249   3.878   2.172  13.768  0.2282 -1.1043 -0.8383
 1929SOL    HW217250   3.828   2.094  13.879  0.4138 -0.9430  0.5211
 1930SOL     OW17251   3.602   0.452   2.839  0.4445  0.2934  0.0768
 1930SOL    HW117252   3.586   0.437   2.746  0.0290 -2.7782  0.6424
 1930SOL    HW217253   3.674   0.389   2.852  0.0550 -0.2416 -0.3532
 1931SOL     OW17254   3.375   2.121  10.510  0.8757  0.0205  0.2709
 1931SOL    HW117255   3.422   2.173  10.576  2.7019 -0.5158 -0.6155
 1931SOL    HW217256   3.319   2.188  10.471 -1.3014 -0.5732  2.3678
 1932SOL     OW17257   0.891   1.930  15.536  0.4362  0.1026  0.2285
 1932SOL    HW117258   0.963   1.989  15.513  0.6391  0.0506  0.7341
 1932SOL    HW217259   0.944   1.856  15.564  1.3213  0.1541 -1.3103
 1933SOL     OW17260   1.607   0.810   1.593  0.5953 -0.1030  0.5655
 1933SOL    HW117261   1.671   0.831   1.661  0.4391 -0.2313  0.7539
 1933SOL    HW217262   1.563   0.731   1.625  0.3935 -0.5988 -0.9392
 1934SOL     OW17263   4.165   4.343   5.368  0.1846  0.2822 -0.6682
 1934SOL    HW117264   4.254   4.368   5.394 -0.0117 -0.7577  1.0186
 1934SOL    HW217265   4.123   4.429   5.365  2.2719  1.3738  1.3614
 1935SOL     OW17266   4.312   0.867   7.215 -0.9220 -0.7627  0.0520
 1935SOL    HW117267   4.259   0.910   7.283 -1.3488 -0.0010 -0.7639
 1935SOL    HW217268   4.259   0.882   7.137  0.7337  1.7525 -0.5742
 1936SOL     OW17269   0.908   1.155   5.411 -0.2894 -0.1819 -0.2195
 1936SOL    HW117270   0.923   1.205   5.492  2.9828  0.2320 -1.1049
 1936SOL    HW217271   0.904   1.216   5.337 -0.3955 -1.0152 -0.8976
 1937SOL     OW17272   0.602   0.920   5.510 -0.4681  0.1090 -0.5221
 1937SOL    HW117273   0.651   0.889   5.434 -0.1614  2.3342 -1.2452
 1937SOL    HW217274   0.667   0.917   5.580  1.1956 -1.9397 -2.1500
 1938SOL     OW17275   1.552   3.299   7.605  0.2202 -0.6334 -0.3456
 1938SOL    HW117276   1.497   3.369   7.641  0.0819 -1.0028  0.1675
 1938SOL    HW217277   1.629   3.318   7.659 -0.7356 -1.3920  1.3096
 1939SOL     OW17278   2.042   4.677   2.356  0.2563  0.3091 -0.1454
 1939SOL    HW117279   1.994   4.608   2.401 -1.1641  0.7600 -0.9402
 1939SOL    HW217280   1.997   4.666   2.272 -1.3898 -2.9843  1.2038
 1940SOL     OW17281   2.758   0.673   6.492  0.3420  0.2339 -0.2662
 1940SOL    HW117282   2.747   0.589   6.536  1.3619 -0.6283 -1.6413
 1940SOL    HW217283   2.703   0.679   6.414  2.4094 -1.0649 -1.8107
 1941SOL     OW17284   1.670   2.341   3.516  0.1588 -0.2939 -0.1992
 1941SOL    HW117285   1.682   2.433   3.539 -0.4367 -0.1431 -0.4877
 1941SOL    HW217286   1.582   2.326   3.481  0.3275 -2.5988  0.3687
 1942SOL     OW17287   1.299   0.835   1.690 -0.1109  0.1779 -0.9891
 1942SOL    HW117288   1.303   0.743   1.663 -0.1425 -1.0741  3.3237
 1942SOL    HW217289   1.318   0.878   1.606 -0.5611 -0.5482 -1.4640
 1943SOL     OW17290   1.054   4.436   4.950  0.1140  0.6254  0.4940
 1943SOL    HW117291   1.014   4.432   4.864 -0.8585  1.0428  0.9255
 1943SOL    HW217292   1.095   4.523   4.950 -0.5128  0.9110 -1.1680
 1944SOL     OW17293   0.199   0.875  17.348 -0.2034 -0.2764 -0.6085
 1944SOL    HW117294   0.118   0.912  17.385  0.2782 -0.6854  0.8436
 1944SOL    HW217295   0.215   0.805  17.411  0.5615 -0.2694 -0.8044
 1945SOL     OW17296   3.668   2.115   2.173 -0.1650 -0.4784  0.1040
 1945SOL    HW117297   3.711   2.134   2.089 -2.0859 -0.3578 -0.8400
 1945SOL    HW217298   3.674   2.203   2.211  0.5595 -0.7476  0.6322
 1946SOL     OW17299   4.048   0.635  13.371 -0.4113  0.0258  0.1813
 1946SOL    HW117300   4.068   0.717  13.416 -0.2535 -0.8149  1.6466
 1946SOL    HW217301   3.972   0.646  13.314 -0.9974 -2.3193  0.5057
 1947SOL     OW17302   0.375   1.177   8.906 -0.0235  0.1063 -0.1475
 1947SOL    HW117303   0.356   1.116   8.977 -1.1233  0.8824  0.2263
 1947SOL    HW217304   0.309   1.174   8.838 -0.8337  1.8698  0.5350
 1948SOL     OW17305   2.399   0.522   0.489 -0.2851 -0.0200  0.0399
 1948SOL    HW117306   2.385   0.513   0.394  1.2869  0.4353 -0.2328
 1948SOL    HW217307   2.464   0.454   0.502  2.5199  2.4111 -1.3296
 1949SOL     OW17308   4.555   4.210   9.165 -0.6856  0.3341  0.0910
 1949SOL    HW117309   4.628   4.155   9.193 -1.5080 -0.1828  1.2301
 1949SOL    HW217310   4.536   4.263   9.243 -3.7107 -0.5122 -0.0888
 1950SOL     OW17311   3.224   2.396   5.089  0.9029  0.6479 -0.3026
 1950SOL    HW117312   3.149   2.376   5.147  0.1137  1.3035 -1.1114
 1950SOL    HW217313   3.289   2.338   5.129  0.5509 -0.7094 -1.7174
 1951SOL     OW17314   3.505   0.606   2.081 -0.0996 -0.0813  0.0266
 1951SOL    HW117315   3.596   0.603   2.052  0.2236  0.8389  0.9255
 1951SOL    HW217316   3.458   0.588   1.999  1.5507 -0.7996 -0.7681
 1952SOL     OW17317   1.972   3.931   2.635  0.4538 -0.4419 -0.4553
 1952SOL    HW117318   1.918   3.887   2.570  0.0185  1.0111 -1.0646
 1952SOL    HW217319   1.951   4.022   2.615  2.2010  0.1237  0.2585
 1953SOL     OW17320   2.861   1.959   1.545  0.3299 -0.0567  0.0281
 1953SOL    HW117321   2.828   1.983   1.458 -2.3225  0.7650  1.2677
 1953SOL    HW217322   2.855   2.042   1.592  2.5116  0.7985 -1.2152
 1954SOL     OW17323   2.129   2.353   3.337 -0.3208 -0.3396 -0.6905
 1954SOL    HW117324   2.209   2.370   3.287 -1.3884 -0.7180 -2.5521
 1954SOL    HW217325   2.066   2.409   3.291 -2.6551 -2.4465 -0.0270
 1955SOL     OW17326   0.287   1.334   6.295  0.5235 -0.1112  0.2357
 1955SOL    HW117327   0.267   1.313   6.387 -0.1354 -1.9842 -0.3400
 1955SOL    HW217328   0.373   1.294   6.284  1.0517  0.8818  0.6923
 1956SOL     OW17329   0.917   4.240  10.020  0.0395  0.3976  0.1850
 1956SOL    HW117330   0.926   4.157  10.067  1.0014 -1.2672 -2.9355
 1956SOL    HW217331   0.891   4.216   9.931 -2.0885  0.6038  0.7375
 1957SOL     OW17332   2.386   0.482   7.416  0.0647 -0.3220 -0.0823
 1957SOL    HW117333   2.396   0.572   7.449  0.7996  1.0338 -3.9696
 1957SOL    HW217334   2.423   0.486   7.328 -0.4676 -0.2237 -0.3000
 1958SOL     OW17335   4.414   2.446   4.701 -0.6824 -0.6931 -0.2532
 1958SOL    HW117336   4.488   2.472   4.756  0.3228  1.5721 -2.6483
 1958SOL    HW217337   4.461   2.448   4.617 -0.6415 -1.0147 -0.2372
 1959SOL     OW17338   3.528   3.809   4.569  0.5386  0.4877 -0.3526
 1959SOL    HW117339   3.611   3.768   4.595 -0.6652 -0.7338  1.5422
 1959SOL    HW217340   3.555   3.835   4.481 -1.3095  0.6547 -0.8634
 1960SOL     OW17341   4.342   4.382   1.902  0.3974  0.1561 -0.4447
 1960SOL    HW117342   4.362   4.470   1.935 -2.3872  0.3582  0.6382
 1960SOL    HW217343   4.380   4.331   1.974  1.0640  1.3798  0.0798
 1961SOL     OW17344   0.773   4.032  17.030 -0.6497 -0.2948  0.7821
 1961SOL    HW117345   0.840   4.047  17.097 -0.4694  0.2566  0.4860
 1961SOL    HW217346   0.812   3.975  16.964 -1.9357  0.6899 -0.8180
 1962SOL     OW17347   0.416   1.875   8.866  0.5243  0.3141  0.7206
 1962SOL    HW117348   0.424   1.792   8.912  0.0176  0.9914  2.0298
 1962SOL    HW217349   0.405   1.939   8.937 -0.9606  2.0823 -1.1057
 1963SOL     OW17350   0.772   0.508   9.229 -0.2099 -0.3615 -0.3649
 1963SOL    HW117351   0.784   0.423   9.186 -1.9829 -0.1753 -1.2432
 1963SOL    HW217352   0.756   0.473   9.317  1.9930  1.1895  0.6300
 1964SOL     OW17353   0.758   3.482   6.054 -0.5052 -0.7852 -0.1359
 1964SOL    HW117354   0.850   3.454   6.047  0.3372  1.4102  2.6447
 1964SOL    HW217355   0.743   3.517   5.966 -1.9029 -0.3872  0.2607
 1965SOL     OW17356   2.208   3.148  14.629 -0.3367 -0.0312  0.2854
 1965SOL    HW117357   2.265   3.217  14.665  0.5791 -0.2595 -0.7576
 1965SOL    HW217358   2.176   3.103  14.707  2.0999 -1.3179  0.5566
 1966SOL     OW17359   2.463   2.981   8.772 -0.1684 -0.6004 -0.2096
 1966SOL    HW117360   2.518   2.995   8.849 -2.1714  0.0192  1.0881
 1966SOL    HW217361   2.431   3.071   8.768 -0.4729 -0.6854  0.3357
 1967SOL     OW17362   4.195   0.523   2.652 -0.2554  0.9516 -0.4407
 1967SOL    HW117363   4.272   0.466   2.650 -0.6699  0.3671  0.1799
 1967SOL    HW217364   4.168   0.526   2.561  0.2685  2.0987 -0.5649
 1968SOL     OW17365   0.449   1.521  10.070  0.2680 -0.3846  0.2809
 1968SOL    HW117366   0.493   1.450  10.117 -0.1649 -1.1060 -0.4118
 1968SOL    HW217367   0.359   1.490  10.078  0.4498 -0.4598  2.1114
 1969SOL     OW17368   4.164   2.048   6.294  0.5885  0.2333 -0.3125
 1969SOL    HW117369   4.165   1.983   6.364 -0.7950 -0.9981 -1.4236
 1969SOL    HW217370   4.253   2.080   6.304 -0.6540  3.7415 -0.3243
 1970SOL     OW17371   1.384   0.698   5.131  0.5312 -0.5902 -0.1322
 1970SOL    HW117372   1.465   0.685   5.083  0.1395 -1.1822 -0.6377
 1970SOL    HW217373   1.418   0.715   5.219 -1.9272 -0.7464  0.8733
 1971SOL     OW17374   3.071   0.962   7.969 -0.9679  0.0768 -0.4708
 1971SOL    HW117375   3.107   1.043   7.933  0.9868 -1.2476 -1.4904
 1971SOL    HW217376   3.097   0.898   7.903 -1.8305 -0.0059 -0.7264
 1972SOL     OW17377   2.456   4.594  16.773  0.1665  0.0293 -0.5594
 1972SOL    HW117378   2.362   4.612  16.778  0.1642 -0.4318  1.0892
 1972SOL    HW217379   2.491   4.611  16.860 -1.7009  0.3511  0.1402
 1973SOL     OW17380   0.035   1.694   6.816  0.9425 -0.1465 -0.6624
 1973SOL    HW117381   0.060   1.672   6.726  0.7026 -0.1240 -0.7330
 1973SOL    HW217382   0.063   1.784   6.829  0.5719 -0.1041 -0.1604
 1974SOL     OW17383   2.553   3.182   4.546 -0.3275 -0.1875  0.1908
 1974SOL    HW117384   2.548   3.102   4.598 -1.6740  1.3697  2.4029
 1974SOL    HW217385   2.600   3.140   4.473 -1.8795  0.1401 -0.9963
 1975SOL     OW17386   1.152   0.714   3.539 -0.3967  0.2116  0.1599
 1975SOL    HW117387   1.073   0.700   3.590 -0.0539 -2.3030 -0.0305
 1975SOL    HW217388   1.203   0.637   3.565  0.9182  1.2452  0.6581
 1976SOL     OW17389   1.427   3.647   8.467 -0.3513 -0.1316 -0.3828
 1976SOL    HW117390   1.353   3.709   8.462  0.1214  0.6383  2.1080
 1976SOL    HW217391   1.475   3.690   8.396 -0.7691  0.5487 -0.2575
 1977SOL     OW17392   1.429   2.636   6.561  0.7444  0.2413 -0.1336
 1977SOL    HW117393   1.412   2.680   6.645 -1.4848  0.0908 -0.5077
 1977SOL    HW217394   1.418   2.704   6.495  0.8900  1.2611  0.8952
 1978SOL     OW17395   2.160   0.828  14.813 -0.2331 -0.3104  0.8017
 1978SOL    HW117396   2.252   0.816  14.791 -0.1260  1.3388  0.3430
 1978SOL    HW217397   2.142   0.897  14.749 -0.8652 -0.9564  0.2927
 1979SOL     OW17398   0.899   1.181   5.903 -0.2438 -0.6123 -0.4003
 1979SOL    HW117399   0.899   1.089   5.928 -4.7242 -0.3880  0.3915
 1979SOL    HW217400   0.921   1.224   5.986  1.8403 -0.5949 -0.9808
 1980SOL     OW17401   2.560   1.558   7.981  0.0089 -0.2450  0.3751
 1980SOL    HW117402   2.534   1.574   7.890  2.5287 -0.7999 -0.4218
 1980SOL    HW217403   2.493   1.608   8.028  0.2447 -0.3320  0.7973
 1981SOL     OW17404   4.663   2.362  12.619 -0.2164 -0.0992  0.1758
 1981SOL    HW117405   0.033   2.362  12.637 -0.4826  0.3035  1.6443
 1981SOL    HW217406   4.661   2.277  12.575  0.6723 -0.1331  0.2029
 1982SOL     OW17407   0.974   2.185   7.435  0.2170  0.3248 -0.3059
 1982SOL    HW117408   0.936   2.244   7.499  0.2149 -2.4252  2.2498
 1982SOL    HW217409   0.902   2.122   7.424  0.7748 -0.1947 -1.0126
 1983SOL     OW17410   0.376   0.981   5.352 -0.1743  0.1141  0.1283
 1983SOL    HW117411   0.427   1.062   5.355  1.8476 -1.0525 -1.8252
 1983SOL    HW217412   0.449   0.932   5.392 -2.2655 -0.9471  2.6327
 1984SOL     OW17413   1.035   2.538  17.628  0.2355  0.2518  0.4901
 1984SOL    HW117414   0.975   2.609  17.650  1.0830  1.0973  0.1074
 1984SOL    HW217415   1.112   2.595  17.630 -0.4046  1.1135  0.7500
 1985SOL     OW17416   1.953   3.564   2.867  0.1480 -0.2991  0.3098
 1985SOL    HW117417   1.885   3.497   2.854 -0.7844  0.5853  0.6147
 1985SOL    HW217418   1.983   3.565   2.776  0.0057  0.8657  0.2824
 1986SOL     OW17419   3.668   1.301   4.594  0.0392  0.3001  0.2103
 1986SOL    HW117420   3.607   1.356   4.544  2.0373 -0.7100 -3.3630
 1986SOL    HW217421   3.611   1.231   4.625  1.5367 -1.6883 -1.5247
 1987SOL     OW17422   2.747   2.620   5.988  0.1584  0.6157  0.3427
 1987SOL    HW117423   2.658   2.647   6.010  0.0352  0.2697  0.2755
 1987SOL    HW217424   2.798   2.691   6.025 -1.7047  1.8490  0.5373
 1988SOL     OW17425   3.648   0.768   2.475  0.1182  0.0542  0.5015
 1988SOL    HW117426   3.592   0.789   2.399  1.4288  0.6405 -0.2988
 1988SOL    HW217427   3.645   0.673   2.479  0.7300 -0.0205 -0.9227
 1989SOL     OW17428   1.363   4.400   5.541  0.0409 -0.2349  0.1596
 1989SOL    HW117429   1.295   4.347   5.583 -0.9203  0.4882 -0.4957
 1989SOL    HW217430   1.327   4.487   5.556  0.3412  0.3092 -2.3461
 1990SOL     OW17431   2.847   3.263   6.268 -0.7691  0.1922  0.0617
 1990SOL    HW117432   2.762   3.280   6.227 -0.3228 -1.0245 -1.3704
 1990SOL    HW217433   2.840   3.240   6.360  1.4683  1.8290  0.6418
 1991SOL     OW17434   2.682   4.327   5.818 -0.0130  0.5653 -0.2971
 1991SOL    HW117435   2.674   4.421   5.838  0.9254  1.0138 -2.0252
 1991SOL    HW217436   2.736   4.339   5.740  1.6196  1.9535  1.0255
 1992SOL     OW17437   4.090   2.911  12.980 -0.4646 -0.3838  0.3305
 1992SOL    HW117438   4.043   2.833  12.950 -0.9132  0.0989 -0.2185
 1992SOL    HW217439   4.026   2.945  13.042  0.3539  2.7671 -0.5739
 1993SOL     OW17440   2.962   4.654   1.669 -0.1872  0.1334 -0.2543
 1993SOL    HW117441   2.910   4.722   1.712 -0.5614 -0.9193  0.9980
 1993SOL    HW217442   2.930   4.668   1.580  1.4764  1.7306 -0.5847
 1994SOL     OW17443   4.410   2.181  15.362  0.1903 -0.4918  0.1143
 1994SOL    HW117444   4.367   2.100  15.389 -0.5658 -1.3768 -3.6777
 1994SOL    HW217445   4.502   2.165  15.378  0.3967 -0.1648 -0.7054
 1995SOL     OW17446   0.966   2.020   9.597 -0.2204 -0.6221  0.8944
 1995SOL    HW117447   0.956   2.003   9.503 -1.8189 -1.1130  1.1382
 1995SOL    HW217448   1.061   2.015   9.607  0.2553  0.8118 -2.9928
 1996SOL     OW17449   1.326   1.638   8.274  0.1517  0.1942 -0.4062
 1996SOL    HW117450   1.255   1.582   8.304  0.0841  2.3902  3.4882
 1996SOL    HW217451   1.362   1.659   8.360 -2.2746  0.8497  0.4486
 1997SOL     OW17452   4.141   1.783   7.968  0.1864 -0.2777  0.6873
 1997SOL    HW117453   4.061   1.761   7.921  0.2224  0.7030  0.1514
 1997SOL    HW217454   4.195   1.790   7.889 -0.1156 -2.1925  0.3242
 1998SOL     OW17455   0.136   4.421   1.262 -0.5532  0.1020 -0.4835
 1998SOL    HW117456   0.051   4.464   1.263  0.2427  1.6352  0.6507
 1998SOL    HW217457   0.142   4.386   1.173  1.6312  0.3642 -0.4449
 1999SOL     OW17458   2.857   1.723   2.849 -0.4585 -0.1251  0.2341
 1999SOL    HW117459   2.860   1.628   2.848 -3.1700 -0.2650  2.8041
 1999SOL    HW217460   2.765   1.739   2.872 -0.1044  0.6852  1.1167
 2000SOL     OW17461   3.233   1.592   6.355 -0.3660  0.2248  0.2103
 2000SOL    HW117462   3.208   1.664   6.298  0.4643  1.9512  2.0357
 2000SOL    HW217463   3.146   1.571   6.387 -0.5127 -0.3967 -0.5847
 2001SOL     OW17464   1.679   2.277   7.697 -0.3992  0.3037  0.3877
 2001SOL    HW117465   1.667   2.357   7.747  1.3852  0.4711  0.5654
 2001SOL    HW217466   1.645   2.300   7.611 -0.2675  0.2849  0.3296
 2002SOL     OW17467   0.937   1.661   1.742  0.6802 -0.2607 -0.1568
 2002SOL    HW117468   0.890   1.692   1.819  1.0947 -1.0364  0.4160
 2002SOL    HW217469   0.964   1.575   1.774  0.0160  0.0113  1.1202
 2003SOL     OW17470   2.550   3.709   5.527  0.2039  0.0417 -0.3908
 2003SOL    HW117471   2.517   3.799   5.532 -0.0956  0.1001 -3.1673
 2003SOL    HW217472   2.633   3.732   5.484 -0.7080  0.4597 -1.9379
 2004SOL     OW17473   1.138   3.682  11.701 -0.2397 -0.0308 -0.7582
 2004SOL    HW117474   1.216   3.715  11.656 -1.0004  0.7110 -1.5235
 2004SOL    HW217475   1.176   3.612  11.754  1.6647  0.9988 -0.7549
 2005SOL     OW17476   2.747   1.369  12.726 -0.2664 -0.0987  0.2587
 2005SOL    HW117477   2.667   1.326  12.756 -0.3126 -0.9693 -1.1192
 2005SOL    HW217478   2.725   1.411  12.642 -1.2605  2.0610  1.5995
 2006SOL     OW17479   2.561   3.396  17.623  0.6573  0.0189  0.2074
 2006SOL    HW117480   2.582   3.321  17.679  1.9617  1.1961  1.3070
 2006SOL    HW217481   2.496   3.347  17.572  0.8057  1.7117 -1.5878
 2007SOL     OW17482   3.619   0.509  10.055  0.0275 -0.1384  0.0925
 2007SOL    HW117483   3.699   0.499  10.004 -0.4163  0.2508 -0.6737
 2007SOL    HW217484   3.605   0.603  10.051 -2.9676 -0.5868 -0.2195
 2008SOL     OW17485   2.820   0.961   5.117  0.0391  0.6102 -0.1969
 2008SOL    HW117486   2.821   1.053   5.091  2.2166  0.2354 -1.4305
 2008SOL    HW217487   2.727   0.944   5.125  0.0047 -0.1798 -2.3521
 2009SOL     OW17488   1.000   4.401   8.333 -0.1351 -0.0507 -0.3126
 2009SOL    HW117489   1.082   4.436   8.368 -0.0964  0.3649 -0.8255
 2009SOL    HW217490   0.952   4.387   8.415 -1.1438 -2.0115 -1.2318
 2010SOL     OW17491   3.676   4.433   6.433 -0.5344 -0.1041 -0.2446
 2010SOL    HW117492   3.678   4.361   6.497  2.2755  0.4897  0.3424
 2010SOL    HW217493   3.701   4.509   6.486 -0.0623  0.4465 -1.2562
 2011SOL     OW17494   0.476   3.497   1.600  0.4939 -0.1132  0.1066
 2011SOL    HW117495   0.491   3.575   1.653  2.1366  1.0403 -2.0501
 2011SOL    HW217496   0.552   3.442   1.614  0.5228 -0.1749 -0.3099
 2012SOL     OW17497   4.008   2.897   4.896 -0.6732  0.0070 -0.4904
 2012SOL    HW117498   3.996   2.985   4.931  2.1043  1.0247 -2.0846
 2012SOL    HW217499   3.937   2.846   4.936  1.0337 -0.5114  1.8977
 2013SOL     OW17500   0.132   1.885  12.313 -0.7566 -0.2414 -0.3918
 2013SOL    HW117501   0.187   1.835  12.373 -2.2471 -2.9973 -1.3171
 2013SOL    HW217502   0.191   1.955  12.284 -0.0187 -1.1811 -1.1603
 2014SOL     OW17503   2.686   2.449   4.076  0.5579 -0.4569  0.0887
 2014SOL    HW117504   2.727   2.515   4.132 -0.7218  0.1804  0.2762
 2014SOL    HW217505   2.756   2.391   4.046  1.3189  0.2346  0.5069
 2015SOL     OW17506   4.073   1.896  14.926  1.0204 -0.2974 -0.5499
 2015SOL    HW117507   4.039   1.816  14.966 -0.7060  0.8254  0.1704
 2015SOL    HW217508   4.097   1.950  15.001 -0.6975 -1.1395  0.6031
 2016SOL     OW17509   1.576   3.749   2.350  0.0001 -0.4713  0.4369
 2016SOL    HW117510   1.496   3.800   2.333  1.6917  2.3760  1.0849
 2016SOL    HW217511   1.544   3.659   2.361  0.7278 -0.7298  0.4547
 2017SOL     OW17512   3.576   0.388   4.908  0.1490 -0.3013 -0.1129
 2017SOL    HW117513   3.499   0.404   4.962  1.9869  1.8988  1.8417
 2017SOL    HW217514   3.622   0.468   4.933  0.1838 -0.3276 -0.0940
 2018SOL     OW17515   2.045   1.027  17.427 -0.1802  0.0896 -0.1344
 2018SOL    HW117516   1.958   1.067  17.436 -0.6297 -1.2104  1.4623
 2018SOL    HW217517   2.098   1.094  17.470  1.7861 -1.3164 -0.3727
 2019SOL     OW17518   3.401   3.907   2.001 -0.0951 -0.0007  0.1505
 2019SOL    HW117519   3.323   3.907   1.944 -1.4536  0.8796  2.0177
 2019SOL    HW217520   3.466   3.942   1.940  0.3546  1.4804  1.4737
 2020SOL     OW17521   3.157   4.252   4.407 -0.6359  0.2975  0.1431
 2020SOL    HW117522   3.187   4.296   4.486  0.7041 -1.4548  0.5820
 2020SOL    HW217523   3.107   4.177   4.439 -0.5970 -0.1460 -0.8212
 2021SOL     OW17524   2.880   2.281  12.933  0.1338  0.1247  0.3000
 2021SOL    HW117525   2.961   2.283  12.881 -0.1239  1.0022 -0.0744
 2021SOL    HW217526   2.811   2.252  12.873 -1.6795  0.2603  2.3470
 2022SOL     OW17527   3.197   3.266   8.251 -0.0275 -0.2488  0.8761
 2022SOL    HW117528   3.258   3.305   8.314 -0.2735 -1.3964  1.8177
 2022SOL    HW217529   3.125   3.222   8.296  0.6872  0.9653  3.1997
 2023SOL     OW17530   3.592   0.140   3.721  0.1537 -0.4499  0.4847
 2023SOL    HW117531   3.685   0.116   3.723  0.6124  1.2839 -0.4633
 2023SOL    HW217532   3.588   0.206   3.652 -1.9957 -1.4302 -0.3184
 2024SOL     OW17533   4.524   0.536   4.037 -0.6506 -0.3196  0.2174
 2024SOL    HW117534   4.458   0.473   4.007 -2.0019  1.2087 -0.0627
 2024SOL    HW217535   4.580   0.555   3.962  0.8285  0.3298  1.4785
 2025SOL     OW17536   1.930   0.183  15.630  0.6336  0.2228 -0.3940
 2025SOL    HW117537   1.916   0.092  15.603  0.8593  1.0563 -3.4043
 2025SOL    HW217538   1.852   0.235  15.608  1.6212  1.1499 -1.6882
 2026SOL     OW17539   4.178   0.158  11.723 -0.0349 -0.1433  0.0703
 2026SOL    HW117540   4.200   0.101  11.796 -0.8430  0.2577  0.6307
 2026SOL    HW217541   4.262   0.186  11.686  0.7559  0.4257  2.2697
 2027SOL     OW17542   0.085   2.993  14.423  0.0410 -0.2991 -0.4170
 2027SOL    HW117543   0.018   2.969  14.359 -1.3852  2.0646  0.1924
 2027SOL    HW217544   0.122   3.069  14.377 -0.3015  1.1517  1.7234
 2028SOL     OW17545   1.599   2.935   8.677  0.3823 -0.2455 -0.3144
 2028SOL    HW117546   1.588   2.859   8.734  0.6828 -0.5577 -0.6720
 2028SOL    HW217547   1.690   2.928   8.649 -0.6214 -1.4678 -3.2511
 2029SOL     OW17548   4.038   4.500   9.617 -0.3625 -0.5825  0.1680
 2029SOL    HW117549   4.010   4.413   9.589 -2.8806  0.5997 -1.0130
 2029SOL    HW217550   4.005   4.513   9.706  2.2395 -0.1476  1.0952
 2030SOL     OW17551   1.086   3.471   8.417 -0.1338  0.2835  0.4812
 2030SOL    HW117552   1.130   3.554   8.401 -2.1161  0.8685 -2.0301
 2030SOL    HW217553   1.021   3.473   8.346  1.0416 -0.4593 -0.6134
 2031SOL     OW17554   3.283   1.614   0.344  0.1651 -0.1011  0.0181
 2031SOL    HW117555   3.199   1.571   0.363  0.4790  0.0251  1.7697
 2031SOL    HW217556   3.246   1.697   0.314  0.6450  0.1688  0.1756
 2032SOL     OW17557   4.403   3.975   2.863  0.6979 -0.0540 -0.4928
 2032SOL    HW117558   4.417   4.064   2.830 -0.2414  0.9943  1.9628
 2032SOL    HW217559   4.444   3.989   2.948 -1.4543  0.5348  0.4410
 2033SOL     OW17560   3.517   3.646   1.251  0.3246 -0.5550  0.3254
 2033SOL    HW117561   3.511   3.605   1.336 -1.8738  0.7502  0.8167
 2033SOL    HW217562   3.457   3.720   1.263  2.5868  1.0129  1.9729
 2034SOL     OW17563   4.701   0.126   6.081  0.9859 -0.0691 -0.0393
 2034SOL    HW117564   4.716   0.045   6.033  2.5853  0.3102 -0.1560
 2034SOL    HW217565   4.617   0.103   6.121  0.1748 -1.2219 -2.3837
 2035SOL     OW17566   3.585   1.131   5.655  0.1435 -0.1891  0.1003
 2035SOL    HW117567   3.674   1.153   5.682  0.5723 -2.3220  0.4765
 2035SOL    HW217568   3.552   1.091   5.736 -0.0609 -0.4977 -0.1374
 2036SOL     OW17569   0.798   1.741   2.653 -0.0871 -0.2554  0.5525
 2036SOL    HW117570   0.718   1.763   2.700  0.9913 -1.4857  2.9984
 2036SOL    HW217571   0.776   1.671   2.591 -2.4913  0.4303  0.6401
 2037SOL     OW17572   1.951   0.285  12.555 -1.1450  0.2982 -0.1024
 2037SOL    HW117573   2.038   0.274  12.592 -2.5974  0.0663  3.2081
 2037SOL    HW217574   1.948   0.232  12.475 -1.2123 -0.5118  0.4494
 2038SOL     OW17575   1.068   0.889   6.533  0.6226 -0.5858 -0.3229
 2038SOL    HW117576   1.005   0.900   6.462  2.1771  0.0443 -1.5920
 2038SOL    HW217577   1.105   0.818   6.479  0.8232  1.0674 -2.3531
 2039SOL     OW17578   1.211   0.206  11.101  0.7204  0.0275 -0.1363
 2039SOL    HW117579   1.169   0.222  11.185 -0.5579  1.4706 -1.0525
 2039SOL    HW217580   1.300   0.217  11.136 -0.6124  0.8752  2.9898
 2040SOL     OW17581   1.982   3.098   3.140 -0.0407 -0.3034 -0.1874
 2040SOL    HW117582   2.007   3.078   3.050 -3.3667  0.2482 -1.2090
 2040SOL    HW217583   1.891   3.121   3.125 -0.0069  0.5013  0.8280
 2041SOL     OW17584   4.057   2.130  14.219 -0.1366 -0.0441  0.0939
 2041SOL    HW117585   4.025   2.215  14.187  0.6268 -0.0913 -0.7950
 2041SOL    HW217586   3.981   2.073  14.213 -0.9557  1.1117 -0.4872
 2042SOL     OW17587   4.015   3.809   6.862  0.7422  0.2771 -0.6510
 2042SOL    HW117588   4.027   3.806   6.957 -2.1368  0.8781 -0.2736
 2042SOL    HW217589   4.061   3.730   6.834 -1.8777 -1.2763 -0.5544
 2043SOL     OW17590   3.467   4.616   7.993 -0.2288  0.3095  0.4150
 2043SOL    HW117591   3.408   4.691   7.986  0.7893  0.8013 -3.2347
 2043SOL    HW217592   3.517   4.637   8.071 -0.1887 -0.6179  0.6372
 2044SOL     OW17593   4.689   3.015   3.014 -0.1521 -0.0781  0.2632
 2044SOL    HW117594   4.599   3.032   3.043 -0.7221 -1.6709 -0.5818
 2044SOL    HW217595   0.020   3.021   3.092  0.6830  1.0253 -0.4106
 2045SOL     OW17596   2.111   4.468   2.854  0.2552  0.1070 -0.6908
 2045SOL    HW117597   2.049   4.478   2.781 -0.5202  1.0142  0.0923
 2045SOL    HW217598   2.144   4.556   2.873  2.1942 -1.0931  1.4591
 2046SOL     OW17599   3.217   3.700   3.944  0.4045 -0.1322 -0.1017
 2046SOL    HW117600   3.279   3.649   3.891  0.7160 -0.9633  1.0677
 2046SOL    HW217601   3.188   3.639   4.012  0.1349  0.1576  0.0440
 2047SOL     OW17602   4.400   0.913  13.287 -0.4718 -1.0365 -0.1415
 2047SOL    HW117603   4.378   0.829  13.328  1.2300 -0.9366  0.9740
 2047SOL    HW217604   4.431   0.955  13.368  0.0966  0.0680 -0.9290
 2048SOL     OW17605   1.252   1.093   7.815  0.2028 -0.1267  0.1142
 2048SOL    HW117606   1.286   1.102   7.904 -1.2908 -0.1580  0.6756
 2048SOL    HW217607   1.204   1.011   7.826  2.6546 -2.2075 -4.6091
 2049SOL     OW17608   2.208   1.974   8.043  0.3326  0.0118  0.3140
 2049SOL    HW117609   2.192   2.015   8.128  0.8879  1.6815 -0.3956
 2049SOL    HW217610   2.265   2.035   7.998  1.3127  0.4572  2.1530
 2050SOL     OW17611   2.202   0.539   6.156  0.1877  0.0288 -0.0031
 2050SOL    HW117612   2.283   0.547   6.106 -0.7319 -0.2306 -1.5370
 2050SOL    HW217613   2.143   0.516   6.084 -1.9087 -1.7517  2.3044
 2051SOL     OW17614   0.593   0.002   7.711 -0.3795  0.5342  0.3194
 2051SOL    HW117615   0.638   0.087   7.711 -1.5993  1.1613  3.1366
 2051SOL    HW217616   0.537   0.017   7.787 -0.0915  0.2810  0.5834
 2052SOL     OW17617   3.945   2.013   3.555  0.1716  0.3622  0.9647
 2052SOL    HW117618   4.032   2.030   3.520 -0.0243 -1.6639 -0.5448
 2052SOL    HW217619   3.893   1.999   3.476 -1.8528 -0.6467  2.4701
 2053SOL     OW17620   4.257   4.611  17.280  0.0859 -1.0321  0.1401
 2053SOL    HW117621   4.292   4.606  17.191 -2.1167 -1.9359 -0.6807
 2053SOL    HW217622   4.324   4.563  17.329  1.7834  1.1163 -0.1090
 2054SOL     OW17623   4.550   3.180  15.661  0.2094  0.6447 -0.2958
 2054SOL    HW117624   4.522   3.235  15.734 -1.8895  0.9372 -1.3091
 2054SOL    HW217625   4.469   3.172  15.610  0.5227  0.7655 -0.8134
 2055SOL     OW17626   1.528   2.063   3.381  0.2680  0.1438 -0.3083
 2055SOL    HW117627   1.448   2.032   3.423  0.5787  1.4029  1.2267
 2055SOL    HW217628   1.594   1.999   3.407 -1.8707 -0.7413  2.8085
 2056SOL     OW17629   1.805   2.485   4.026  0.2093  0.2110  0.1931
 2056SOL    HW117630   1.848   2.534   3.956  1.4096  1.0482  1.5320
 2056SOL    HW217631   1.714   2.509   4.007 -0.2188  0.8486  3.0745
 2057SOL     OW17632   3.702   0.555   4.532 -0.1283  0.0201  0.0507
 2057SOL    HW117633   3.719   0.647   4.512  0.4323 -0.2082 -0.5083
 2057SOL    HW217634   3.783   0.511   4.507  0.4723  0.3286  1.4500
 2058SOL     OW17635   4.183   0.251  16.844  0.4038  0.8288  0.1775
 2058SOL    HW117636   4.225   0.336  16.858  0.3631  1.1594 -1.6562
 2058SOL    HW217637   4.229   0.214  16.768 -0.4762  0.0300  0.0390
 2059SOL     OW17638   4.356   3.041   2.822  0.3306  0.1435 -0.2762
 2059SOL    HW117639   4.288   3.106   2.841  0.9031  0.4780  0.6403
 2059SOL    HW217640   4.434   3.094   2.806  1.6196 -1.2955  1.1651
 2060SOL     OW17641   3.224   3.232   0.729 -0.6040 -0.3732  0.0579
 2060SOL    HW117642   3.241   3.294   0.799  0.2692 -0.0652 -0.4320
 2060SOL    HW217643   3.194   3.160   0.785 -1.0757 -0.1264  0.1240
 2061SOL     OW17644   1.341   2.130   3.827  0.3320 -0.1803 -0.4677
 2061SOL    HW117645   1.272   2.184   3.866 -0.3974 -2.6530  1.6486
 2061SOL    HW217646   1.285   2.060   3.795  0.1492  0.6411 -1.9536
 2062SOL     OW17647   4.620   2.222  11.430 -0.1319 -0.8021  0.0757
 2062SOL    HW117648   4.559   2.171  11.377  0.1993 -0.9616 -0.1458
 2062SOL    HW217649   4.628   2.155  11.498  2.0098 -0.7161 -0.0963
 2063SOL     OW17650   2.651   3.841   4.230  0.3259 -0.1841  0.2543
 2063SOL    HW117651   2.612   3.755   4.214 -1.2857  0.7293 -0.7119
 2063SOL    HW217652   2.739   3.810   4.210  0.0374 -1.2632  0.6314
 2064SOL     OW17653   2.647   1.487   3.915 -0.3270  0.0432 -0.5990
 2064SOL    HW117654   2.627   1.578   3.892  3.9001  1.5807  1.9224
 2064SOL    HW217655   2.601   1.488   3.999  2.2212  1.8195  0.7603
 2065SOL     OW17656   2.290   3.244  11.726  0.2510 -0.0314  0.0231
 2065SOL    HW117657   2.301   3.160  11.681 -2.1020  1.5641 -3.5736
 2065SOL    HW217658   2.267   3.212  11.813 -0.4812  2.5878  0.8005
 2066SOL     OW17659   4.543   0.111  13.321 -0.6078  0.3246 -0.1276
 2066SOL    HW117660   4.504   0.151  13.244 -0.2687  0.4749 -0.2239
 2066SOL    HW217661   4.470   0.104  13.382  0.0299  1.1368  0.7190
 2067SOL     OW17662   2.043   2.903   0.509  0.1605 -0.3506  0.3612
 2067SOL    HW117663   2.011   2.817   0.481  0.2675 -1.6111  4.2011
 2067SOL    HW217664   2.033   2.948   0.425  1.2130 -0.6639  0.0673
 2068SOL     OW17665   2.603   3.640   2.019  0.8436  0.2022  0.0541
 2068SOL    HW117666   2.602   3.544   2.025  0.7362  0.1934 -0.0958
 2068SOL    HW217667   2.694   3.656   2.044  0.3102  2.7002  0.3342
 2069SOL     OW17668   1.927   3.387   5.352  0.1485  0.2898  0.2157
 2069SOL    HW117669   1.982   3.459   5.384 -0.4998  1.0572 -0.4242
 2069SOL    HW217670   1.936   3.393   5.257 -1.0332  1.1735  0.1619
 2070SOL     OW17671   4.592   2.604   1.499  0.1245  0.2105 -0.3647
 2070SOL    HW117672   4.584   2.541   1.428  0.6167  0.2135 -0.4233
 2070SOL    HW217673   4.639   2.680   1.463  0.5983 -0.6520 -1.5720
 2071SOL     OW17674   0.891   1.622   2.166  0.4934  0.2587 -0.3916
 2071SOL    HW117675   0.804   1.589   2.186  0.0938  1.2164 -0.5489
 2071SOL    HW217676   0.889   1.649   2.074 -0.0445 -0.6302 -0.6448
 2072SOL     OW17677   1.944   2.614   6.782  0.1841 -0.1469  0.2209
 2072SOL    HW117678   1.974   2.571   6.702  0.1961 -2.5592  1.5300
 2072SOL    HW217679   1.851   2.608   6.759  0.9449  0.2360 -2.8980
 2073SOL     OW17680   1.213   1.206   1.719  0.2600 -0.3365  0.2832
 2073SOL    HW117681   1.287   1.265   1.706 -0.9553  1.7632  2.8582
 2073SOL    HW217682   1.190   1.177   1.631  1.7622 -2.1257  0.4597
 2074SOL     OW17683   1.850   1.197  14.585  0.3731  0.1806 -0.6732
 2074SOL    HW117684   1.784   1.194  14.654  0.1134  1.9455 -0.8467
 2074SOL    HW217685   1.922   1.154  14.630  0.8466  0.7093 -0.9226
 2075SOL     OW17686   1.371   1.573   6.615  0.3369 -0.5859  0.1748
 2075SOL    HW117687   1.356   1.480   6.601 -0.7331 -0.1807 -1.3074
 2075SOL    HW217688   1.397   1.591   6.525 -0.8944  1.5507  0.2565
 2076SOL     OW17689   3.035   0.151   2.758 -0.3214 -0.4932  0.4319
 2076SOL    HW117690   2.973   0.188   2.694  2.5280  1.6352 -1.0979
 2076SOL    HW217691   3.111   0.208   2.747 -0.7875  0.0665  0.0529
 2077SOL     OW17692   0.328   4.630   9.125  0.3078  0.2092 -0.1908
 2077SOL    HW117693   0.393   4.626   9.195 -0.6987 -0.2982  0.7156
 2077SOL    HW217694   0.259   4.567   9.145 -0.5326  1.1735 -0.0591
 2078SOL     OW17695   0.903   0.514   4.568 -0.4496  0.0844 -0.3302
 2078SOL    HW117696   0.887   0.571   4.643  3.5264  1.8783 -0.8419
 2078SOL    HW217697   0.863   0.561   4.495 -0.6228  2.2008  1.1536
 2079SOL     OW17698   4.328   2.173   8.184 -0.3026 -0.5347  0.1173
 2079SOL    HW117699   4.339   2.113   8.257  0.0894 -0.2303  0.3167
 2079SOL    HW217700   4.384   2.132   8.117 -3.1558  0.1248 -2.6721
 2080SOL     OW17701   2.180   1.570  15.456 -0.1986 -0.0454  0.5504
 2080SOL    HW117702   2.127   1.538  15.529 -0.4837 -0.0014  0.3619
 2080SOL    HW217703   2.231   1.491  15.437  1.2843  0.7993  1.0287
 2081SOL     OW17704   1.615   0.169  16.544  0.1723  0.0597 -0.2689
 2081SOL    HW117705   1.644   0.083  16.575  1.8949  0.4829 -0.7548
 2081SOL    HW217706   1.555   0.193  16.615  0.1483 -1.8161  0.3406
 2082SOL     OW17707   2.989   2.306  17.334 -0.4366 -0.6447 -0.2230
 2082SOL    HW117708   3.001   2.362  17.256 -1.4597  1.5222  1.1641
 2082SOL    HW217709   2.983   2.218  17.297 -1.1870 -0.5728 -0.2749
 2083SOL     OW17710   3.175   2.895  11.736 -0.0642  0.2903  0.1591
 2083SOL    HW117711   3.187   2.973  11.682  2.4805 -1.1840 -1.3792
 2083SOL    HW217712   3.259   2.854  11.717 -1.3646 -1.5877 -1.6254
 2084SOL     OW17713   3.340   1.692   0.663  0.0679 -0.1331 -0.0375
 2084SOL    HW117714   3.249   1.675   0.688 -0.1457  2.8102  1.2268
 2084SOL    HW217715   3.385   1.642   0.731 -0.4086 -1.6726 -0.8643
 2085SOL     OW17716   0.085   1.208  10.337 -0.6957  0.3676  0.0870
 2085SOL    HW117717   4.714   1.219  10.333 -0.9951 -2.3050  0.4563
 2085SOL    HW217718   0.104   1.181  10.427  0.0643 -0.8639 -0.4534
 2086SOL     OW17719   1.113   0.635   1.989 -0.1484 -0.0731 -0.2412
 2086SOL    HW117720   1.171   0.560   2.001 -1.2207 -0.4120  2.7551
 2086SOL    HW217721   1.027   0.595   2.000  0.6265 -1.6876 -0.1601
 2087SOL     OW17722   2.620   2.105   3.911  0.4883 -0.1222 -0.0827
 2087SOL    HW117723   2.565   2.072   3.983  0.4017  0.7846  0.2691
 2087SOL    HW217724   2.708   2.086   3.942 -0.4439 -2.8523  0.9593
 2088SOL     OW17725   4.511   2.415   5.806 -0.0337 -0.2110 -0.0103
 2088SOL    HW117726   4.526   2.454   5.720 -1.9494 -1.0805 -0.7239
 2088SOL    HW217727   4.605   2.403   5.817  0.4743  2.0916 -1.7489
 2089SOL     OW17728   3.279   1.277   3.160 -0.0137  0.2055  0.3495
 2089SOL    HW117729   3.300   1.300   3.069  0.8155  0.5704  0.6326
 2089SOL    HW217730   3.329   1.196   3.166  1.8369  1.1849 -1.4430
 2090SOL     OW17731   4.228   1.194   9.165  0.0783 -0.6870 -0.0923
 2090SOL    HW117732   4.167   1.173   9.237 -0.9308 -1.8345 -1.2867
 2090SOL    HW217733   4.293   1.123   9.163  1.3677  0.5542 -1.6725
 2091SOL     OW17734   1.204   1.421  12.468 -0.1988  0.7752 -0.0858
 2091SOL    HW117735   1.266   1.455  12.403 -0.0247  1.7744  0.6181
 2091SOL    HW217736   1.205   1.327  12.448  2.6823  0.7171  0.2794
 2092SOL     OW17737   1.871   4.358   2.316 -0.2759  0.5325  0.5070
 2092SOL    HW117738   1.922   4.395   2.245  0.3285 -3.1797 -0.9960
 2092SOL    HW217739   1.800   4.319   2.265  0.8932  0.4455 -1.0415
 2093SOL     OW17740   2.738   1.332   2.111 -0.2991 -0.5530 -0.1842
 2093SOL    HW117741   2.773   1.410   2.154 -0.1133 -0.6539 -0.1547
 2093SOL    HW217742   2.703   1.282   2.185 -1.4806  0.9244  0.2631
 2094SOL     OW17743   0.065   1.799   6.283  0.0331 -0.4578 -0.1918
 2094SOL    HW117744   0.120   1.768   6.211 -0.5012 -1.4222 -0.1823
 2094SOL    HW217745   0.008   1.723   6.287  0.3846 -0.7210 -0.1731
 2095SOL     OW17746   3.405   4.711   9.873 -0.1251  0.0721  0.2890
 2095SOL    HW117747   3.477   4.650   9.858  0.1845 -0.0538  2.3260
 2095SOL    HW217748   3.336   4.655   9.908 -0.8469  0.6833 -0.1457
 2096SOL     OW17749   4.371   1.470   8.091 -0.7724  0.2130 -0.4167
 2096SOL    HW117750   4.385   1.539   8.155 -1.1615  0.2020 -0.3240
 2096SOL    HW217751   4.360   1.524   8.012 -2.6504  0.6915  0.1717
 2097SOL     OW17752   0.296   4.116   1.556  0.1390  0.2800  0.2191
 2097SOL    HW117753   0.335   4.203   1.570  1.3480 -0.5535  2.1084
 2097SOL    HW217754   0.203   4.132   1.569 -0.6526 -3.2706 -1.1753
 2098SOL     OW17755   1.208   3.222   4.518  0.3780 -0.1766 -0.0151
 2098SOL    HW117756   1.209   3.151   4.454 -0.8236 -0.9285  0.8063
 2098SOL    HW217757   1.128   3.263   4.484  0.9690  0.5163 -0.5584
 2099SOL     OW17758   3.798   3.793   7.311 -0.4165 -0.3283 -0.1139
 2099SOL    HW117759   3.787   3.777   7.218  0.6015 -1.3704 -0.0545
 2099SOL    HW217760   3.710   3.762   7.333 -1.1661  0.4746 -1.9883
 2100SOL     OW17761   2.234   4.111   1.694  0.0087  0.1469  0.3636
 2100SOL    HW117762   2.214   4.076   1.781  2.1733  0.0674  0.8149
 2100SOL    HW217763   2.329   4.098   1.692 -0.5064 -3.6158 -0.9661
 2101SOL     OW17764   2.068   1.743  12.722 -0.5384 -0.5387 -0.6963
 2101SOL    HW117765   2.088   1.782  12.637 -0.9553 -0.3651 -0.7139
 2101SOL    HW217766   2.153   1.752  12.766 -0.5511 -0.6297 -0.6530
 2102SOL     OW17767   2.570   4.138   9.973 -0.3994 -0.3335  0.2985
 2102SOL    HW117768   2.502   4.108  10.034 -0.6545 -1.3078 -0.4655
 2102SOL    HW217769   2.533   4.225   9.959 -1.6903 -0.7623  1.0312
 2103SOL     OW17770   0.199   0.297  11.600 -0.1336  0.1382 -1.1085
 2103SOL    HW117771   0.284   0.294  11.643  0.3058  1.7383 -1.8342
 2103SOL    HW217772   0.131   0.318  11.665 -1.4257 -1.5297 -1.9382
 2104SOL     OW17773   1.648   1.415   3.850  0.0214  0.4117 -0.0033
 2104SOL    HW117774   1.719   1.367   3.806 -0.5073  0.0911 -0.5104
 2104SOL    HW217775   1.593   1.347   3.889 -1.1102  1.3314 -0.0268
 2105SOL     OW17776   4.624   2.646   4.296  0.9576  0.1307  0.0648
 2105SOL    HW117777   4.576   2.729   4.287  1.8878  0.7203  0.6220
 2105SOL    HW217778   4.591   2.589   4.227 -1.1650  0.2395  0.9889
 2106SOL     OW17779   2.615   2.108   7.811 -0.3023 -0.2735  0.2015
 2106SOL    HW117780   2.684   2.077   7.870 -0.2810  0.5926  0.6193
 2106SOL    HW217781   2.673   2.158   7.754  0.6889  2.3597  3.5838
 2107SOL     OW17782   3.666   0.262  10.773  0.0186 -0.5107  0.1910
 2107SOL    HW117783   3.719   0.193  10.733 -0.1742 -0.7740  0.3903
 2107SOL    HW217784   3.724   0.281  10.847 -0.7716  0.2360  0.6240
 2108SOL     OW17785   2.061   1.806   3.361 -0.0575  0.1380 -0.1505
 2108SOL    HW117786   2.070   1.899   3.381 -2.3704  0.1600  0.8263
 2108SOL    HW217787   1.974   1.802   3.320  0.4310 -3.5595 -0.7984
 2109SOL     OW17788   3.591   1.485  12.508  0.2603  0.4765 -0.1917
 2109SOL    HW117789   3.532   1.537  12.453  1.6106  1.5535 -0.6111
 2109SOL    HW217790   3.591   1.393  12.479 -1.1421  0.3969  0.0645
 2110SOL     OW17791   1.552   2.567   4.004  0.1824  0.3351 -0.5988
 2110SOL    HW117792   1.457   2.553   3.998  0.5377 -1.9095 -1.0754
 2110SOL    HW217793   1.561   2.640   4.064 -0.4105 -0.0078 -0.0858
 2111SOL     OW17794   2.600   3.061  13.728 -0.2362 -0.2296 -0.2368
 2111SOL    HW117795   2.627   3.123  13.796  0.0195 -0.1619 -0.4010
 2111SOL    HW217796   2.553   2.993  13.776 -2.0127 -0.3747 -2.1639
 2112SOL     OW17797   4.096   1.099   6.038 -0.6942  0.4067  0.7672
 2112SOL    HW117798   4.096   1.167   6.105 -0.6503 -0.2280  1.4086
 2112SOL    HW217799   4.165   1.129   5.978  0.1326  0.1992  1.6244
 2113SOL     OW17800   0.438   4.289   4.360 -0.3589 -0.0717 -0.3165
 2113SOL    HW117801   0.433   4.362   4.421 -0.8156  0.5495 -1.0821
 2113SOL    HW217802   0.510   4.240   4.398 -0.6108 -0.8591 -0.8357
 2114SOL     OW17803   3.388   2.045   4.185 -0.1846  0.1949  0.4475
 2114SOL    HW117804   3.379   1.982   4.256 -0.1602  0.1302  0.3929
 2114SOL    HW217805   3.429   2.118   4.232 -1.1531  0.9908  0.0543
 2115SOL     OW17806   0.530   4.557   7.215 -0.2083  0.1769 -0.2573
 2115SOL    HW117807   0.579   4.577   7.295 -1.3232  1.5757  0.0770
 2115SOL    HW217808   0.477   4.487   7.254  1.4291 -0.8593  0.1095
 2116SOL     OW17809   3.795   2.565   4.204  0.1972  0.1624  0.3222
 2116SOL    HW117810   3.795   2.492   4.265  0.1436 -0.6025 -0.5866
 2116SOL    HW217811   3.884   2.594   4.222  0.3176 -0.9208  1.4080
 2117SOL     OW17812   4.565   2.693   8.283  0.2884 -0.2372 -0.5269
 2117SOL    HW117813   4.643   2.748   8.278 -0.4416  0.7775 -0.6011
 2117SOL    HW217814   4.549   2.670   8.192  0.1131  0.6043 -0.7042
 2118SOL     OW17815   0.003   1.314   6.738  0.6085  0.0677 -0.1656
 2118SOL    HW117816   4.699   1.250   6.803  1.2002  0.3198  0.3372
 2118SOL    HW217817   4.660   1.300   6.672 -0.8218 -0.3531  1.3741
 2119SOL     OW17818   2.060   4.111  10.024 -0.4679  0.1631 -0.4800
 2119SOL    HW117819   2.085   4.019  10.025 -0.4756  0.1719  0.2896
 2119SOL    HW217820   2.120   4.139   9.955 -0.3642 -0.1429 -0.5141
 2120SOL     OW17821   2.602   0.488  17.491  0.2903 -0.3555  0.0309
 2120SOL    HW117822   2.670   0.548  17.463  1.0721 -0.0155  2.6248
 2120SOL    HW217823   2.580   0.524  17.577  1.8750 -1.9087  1.0971
 2121SOL     OW17824   2.863   1.359  11.591  0.3557 -0.1697 -0.5079
 2121SOL    HW117825   2.941   1.351  11.646  0.4442 -1.4147 -0.8064
 2121SOL    HW217826   2.883   1.433  11.534 -3.0749 -0.7915 -2.5463
 2122SOL     OW17827   1.448   1.494   8.763  0.1450  0.3070  0.3924
 2122SOL    HW117828   1.496   1.437   8.824 -0.0953 -1.6257 -1.2179
 2122SOL    HW217829   1.356   1.467   8.769  0.7379 -1.6993  0.5448
 2123SOL     OW17830   1.755   4.441   7.056  0.2382  0.5718  0.0350
 2123SOL    HW117831   1.744   4.358   7.009  2.7294  0.4091 -0.2699
 2123SOL    HW217832   1.802   4.418   7.136 -1.2426  0.0250  0.7457
 2124SOL     OW17833   1.955   3.703   4.259 -0.6908  0.2814  0.1346
 2124SOL    HW117834   1.995   3.617   4.269 -0.1735  0.6033  0.8548
 2124SOL    HW217835   1.865   3.672   4.269  0.0250 -2.6635 -2.5507
 2125SOL     OW17836   3.435   1.958   7.359  0.1451 -0.1271 -0.1683
 2125SOL    HW117837   3.437   2.020   7.286 -0.1798  1.4079  1.1155
 2125SOL    HW217838   3.460   2.018   7.430 -0.3164 -0.6673  0.4577
 2126SOL     OW17839   3.555   3.712   7.388 -0.1062  0.6779 -0.2649
 2126SOL    HW117840   3.499   3.699   7.465  1.1774 -1.5968  0.2875
 2126SOL    HW217841   3.539   3.804   7.367 -1.8381  0.2645 -0.7350
 2127SOL     OW17842   2.742   2.587  11.420  0.2625 -0.4723  0.8473
 2127SOL    HW117843   2.693   2.604  11.340  1.2703  0.6332  0.4767
 2127SOL    HW217844   2.669   2.590  11.483  0.3638 -0.3746  0.9609
 2128SOL     OW17845   4.437   2.300   7.862  0.0404  0.2050  0.3314
 2128SOL    HW117846   4.497   2.269   7.794 -0.3907  2.0922 -0.9144
 2128SOL    HW217847   4.478   2.275   7.945  0.2864  1.2867  0.5386
 2129SOL     OW17848   2.414   4.683   3.580 -0.0529  0.7974  0.4367
 2129SOL    HW117849   2.429   4.681   3.675 -0.4520 -1.1939  0.4637
 2129SOL    HW217850   2.377   0.047   3.576  1.2888  1.4059  1.6707
 2130SOL     OW17851   1.969   0.797   9.213 -0.3822  0.3953  0.4151
 2130SOL    HW117852   2.005   0.871   9.260 -0.2446  1.6704 -1.6820
 2130SOL    HW217853   1.943   0.829   9.126 -2.4420 -2.2262  0.0574
 2131SOL     OW17854   1.848   1.224   8.307  0.4737  0.2028  0.4144
 2131SOL    HW117855   1.764   1.268   8.293 -0.4561 -2.4979 -2.6236
 2131SOL    HW217856   1.905   1.269   8.244 -0.8511  0.9476 -0.2450
 2132SOL     OW17857   2.556   3.119   6.977 -0.4862 -0.2669  0.6309
 2132SOL    HW117858   2.515   3.194   6.933  1.4248  0.3725 -0.0389
 2132SOL    HW217859   2.538   3.045   6.919  1.0771 -0.6455  0.6328
 2133SOL     OW17860   1.563   0.349   4.592  0.0435 -0.1206 -0.3378
 2133SOL    HW117861   1.500   0.286   4.557 -1.8995  0.6914  1.6821
 2133SOL    HW217862   1.515   0.417   4.640 -0.7472 -1.0855  0.2485
 2134SOL     OW17863   4.572   4.049  12.008 -0.5907  0.2860 -0.1103
 2134SOL    HW117864   4.577   3.954  12.000  1.9243  0.2446  1.6777
 2134SOL    HW217865   4.581   4.058  12.103 -0.6149 -0.6621 -0.0240
 2135SOL     OW17866   1.985   1.592   8.400  0.3058  0.2639  0.1992
 2135SOL    HW117867   2.029   1.509   8.382  2.1081  1.6227 -1.7126
 2135SOL    HW217868   1.952   1.576   8.488  3.5961  0.8599  1.5444
 2136SOL     OW17869   3.936   4.254   5.614  0.4161 -0.5674  0.6592
 2136SOL    HW117870   3.983   4.260   5.531 -0.9128  2.6250  0.1194
 2136SOL    HW217871   3.986   4.314   5.670 -0.5882  0.6006  0.3170
 2137SOL     OW17872   0.619   4.078   4.499  0.3491  0.0328 -0.0827
 2137SOL    HW117873   0.639   4.050   4.588  3.0194  2.5268  0.1114
 2137SOL    HW217874   0.596   3.998   4.452  0.0043 -0.4350  0.8737
 2138SOL     OW17875   1.103   3.156   8.841 -0.4993  0.3579 -0.2738
 2138SOL    HW117876   1.096   3.066   8.809  3.2248  0.4234 -1.2735
 2138SOL    HW217877   1.030   3.156   8.903  1.0973  0.8349  1.6211
 2139SOL     OW17878   4.527   0.917   6.877  0.0557  0.2872  0.0654
 2139SOL    HW117879   4.500   0.926   6.786 -1.9060 -0.0628  0.6019
 2139SOL    HW217880   4.483   1.001   6.892 -1.0963 -0.5420  1.3714
 2140SOL     OW17881   1.806   1.078   6.286 -0.0681 -0.0229 -0.5588
 2140SOL    HW117882   1.776   0.997   6.246 -0.8317 -0.0100 -0.0173
 2140SOL    HW217883   1.761   1.148   6.237 -2.3891 -0.9964  0.1739
 2141SOL     OW17884   0.531   3.279   5.840  0.2675  0.3492  0.4248
 2141SOL    HW117885   0.491   3.313   5.920 -0.6259  0.8160 -0.2258
 2141SOL    HW217886   0.617   3.251   5.871  0.2497 -0.4313 -0.2357
 2142SOL     OW17887   2.789   0.128   7.535 -0.3915  0.1408  0.8781
 2142SOL    HW117888   2.847   0.191   7.577 -0.0935  0.7882 -0.4903
 2142SOL    HW217889   2.709   0.175   7.511 -1.0622 -1.1522  0.5538
 2143SOL     OW17890   3.103   3.543   5.324 -0.2613 -0.1002  0.4804
 2143SOL    HW117891   3.007   3.538   5.320 -0.2764  0.1993  0.4980
 2143SOL    HW217892   3.118   3.563   5.231  2.6029 -1.6833  0.6091
 2144SOL     OW17893   2.443   3.687  14.082  0.6817  0.2986 -0.5992
 2144SOL    HW117894   2.481   3.774  14.071  2.0289  0.0490  2.1056
 2144SOL    HW217895   2.385   3.684  14.005  0.8371  0.4515 -0.7226
 2145SOL     OW17896   2.711   2.163  15.646 -0.2435  0.3171 -0.7786
 2145SOL    HW117897   2.654   2.177  15.720 -0.2937  1.3370 -1.0174
 2145SOL    HW217898   2.713   2.248  15.602 -0.4397  2.0337  2.5638
 2146SOL     OW17899   0.153   0.816  12.945  0.2012  0.1174  0.7921
 2146SOL    HW117900   0.165   0.729  12.981  0.3428 -0.8637 -1.5877
 2146SOL    HW217901   0.075   0.855  12.984 -0.3430  2.8286 -2.9072
 2147SOL     OW17902   1.878   2.175   3.575 -0.0451  0.0707  0.2330
 2147SOL    HW117903   1.789   2.209   3.568  0.2009  1.0600  1.8014
 2147SOL    HW217904   1.875   2.120   3.653  2.5866 -0.6855 -0.1785
 2148SOL     OW17905   1.513   1.590  14.458 -0.2096  0.4883  0.2089
 2148SOL    HW117906   1.477   1.517  14.508  0.0747  0.6562  0.6602
 2148SOL    HW217907   1.598   1.546  14.452 -0.8399 -0.9915  1.7104
 2149SOL     OW17908   2.697   4.464   8.425 -0.0053  0.4708  0.5019
 2149SOL    HW117909   2.613   4.419   8.417  0.1331 -0.1597  2.6829
 2149SOL    HW217910   2.718   4.438   8.514  1.2700  0.9740  0.3479
 2150SOL     OW17911   1.993   0.867   5.682 -0.0646 -0.0298 -0.0291
 2150SOL    HW117912   1.946   0.784   5.670  1.3596 -0.8686  0.2488
 2150SOL    HW217913   2.014   0.861   5.775 -1.9720 -1.9186  0.2884
 2151SOL     OW17914   0.378   3.893   0.870  0.3877  0.0994 -0.3357
 2151SOL    HW117915   0.301   3.909   0.815  0.1836 -0.0574 -0.0944
 2151SOL    HW217916   0.444   3.936   0.815 -0.9464  0.8469 -1.3719
 2152SOL     OW17917   2.688   0.230   3.600 -0.4773 -0.0552  0.0732
 2152SOL    HW117918   2.782   0.225   3.613 -0.5812 -2.4478 -0.0006
 2152SOL    HW217919   2.672   0.311   3.648 -3.4876  0.3469 -1.5679
 2153SOL     OW17920   3.763   1.292  15.657  0.4083 -0.3021  0.8320
 2153SOL    HW117921   3.712   1.344  15.719 -1.0008  2.3025 -2.5443
 2153SOL    HW217922   3.812   1.362  15.615 -0.1710  0.0561  0.7551
 2154SOL     OW17923   4.454   3.522   4.638 -0.0174 -0.3838 -0.3360
 2154SOL    HW117924   4.387   3.463   4.672  0.1980  0.5513  1.7004
 2154SOL    HW217925   4.471   3.590   4.703 -0.6128  1.2033 -1.8402
 2155SOL     OW17926   1.889   0.974   6.725  0.2823  0.1764  0.2546
 2155SOL    HW117927   1.916   0.931   6.644  1.6182 -0.9707  1.3122
 2155SOL    HW217928   1.886   0.895   6.779  1.3282 -0.0967 -0.0966
 2156SOL     OW17929   0.624   4.069   4.086 -0.0955 -0.4859  0.0171
 2156SOL    HW117930   0.662   4.020   4.159  0.8496  1.9279  1.1564
 2156SOL    HW217931   0.529   4.073   4.093  0.1129  1.0119  1.8947
 2157SOL     OW17932   2.593   3.824   1.598 -0.3282  0.2661 -0.4164
 2157SOL    HW117933   2.549   3.762   1.656 -0.8305  0.9550 -0.0596
 2157SOL    HW217934   2.634   3.766   1.533 -1.7217 -1.1579 -0.0352
 2158SOL     OW17935   3.966   2.729  11.394 -0.5325  0.3615 -0.1758
 2158SOL    HW117936   3.936   2.639  11.387 -0.7355  0.3038  1.5302
 2158SOL    HW217937   3.966   2.747  11.488 -0.0362  1.2339 -0.3394
 2159SOL     OW17938   2.085   2.992   8.788  0.5872 -0.0442 -0.2782
 2159SOL    HW117939   2.098   2.898   8.794  0.4638 -0.0908 -0.7670
 2159SOL    HW217940   2.151   3.023   8.725 -0.5892 -1.8550 -2.3651
 2160SOL     OW17941   2.844   4.663  10.015  0.0290 -0.5539  0.1456
 2160SOL    HW117942   2.929   4.706  10.020 -0.5462  0.4524  1.3707
 2160SOL    HW217943   2.798   4.715   9.948  0.9356  1.2243  0.8866
 2161SOL     OW17944   0.360   1.318   4.234  0.3455 -0.2332  0.0849
 2161SOL    HW117945   0.398   1.397   4.197  0.6671  1.0415  3.1316
 2161SOL    HW217946   0.271   1.327   4.200  0.7303  0.2470 -0.8067
 2162SOL     OW17947   4.186   2.888   0.881  0.3329  0.0104  0.1027
 2162SOL    HW117948   4.143   2.865   0.799  0.1929  0.2155  0.1197
 2162SOL    HW217949   4.277   2.878   0.851  0.8262  1.5617  1.0552
 2163SOL     OW17950   0.723   4.138   6.927 -0.2686  0.1344  0.5214
 2163SOL    HW117951   0.675   4.206   6.880 -2.1973 -1.8770 -0.4306
 2163SOL    HW217952   0.680   4.146   7.013  0.9588  1.2369  1.0340
 2164SOL     OW17953   1.003   0.088   3.545 -0.3290  0.0019 -0.0619
 2164SOL    HW117954   1.023   0.029   3.617 -1.4453 -0.0152  0.2283
 2164SOL    HW217955   0.969   0.034   3.473  1.0005 -0.5220 -0.2987
 2165SOL     OW17956   4.000   4.209   1.067  0.2069 -0.1273 -0.5752
 2165SOL    HW117957   3.939   4.201   0.994 -0.4936  2.3135 -0.2478
 2165SOL    HW217958   4.071   4.242   1.011 -1.1254 -1.3197 -2.9440
 2166SOL     OW17959   2.480   2.807  17.690  0.0142 -0.3607  0.0554
 2166SOL    HW117960   2.531   2.750  17.631  1.1280  0.4605  0.2182
 2166SOL    HW217961   2.532   2.821   0.071 -1.0970 -1.7216  1.0148
 2167SOL     OW17962   2.955   1.776   6.963 -0.0322  0.4074  0.5473
 2167SOL    HW117963   2.942   1.684   6.984  1.2574 -0.3101 -1.8454
 2167SOL    HW217964   2.871   1.817   6.985  0.0893 -0.2900  2.2991
 2168SOL     OW17965   4.325   3.506  15.888  0.3299 -0.1447  0.0685
 2168SOL    HW117966   4.357   3.592  15.861 -4.2713  1.0291 -1.5667
 2168SOL    HW217967   4.252   3.533  15.943  0.0732  0.0472 -0.3602
 2169SOL     OW17968   0.753   4.103   2.731  0.0499  0.0921  0.0176
 2169SOL    HW117969   0.739   4.179   2.788  1.2134  0.1243  0.2588
 2169SOL    HW217970   0.824   4.131   2.673 -0.1811  1.0246  0.1815
 2170SOL     OW17971   1.618   3.988  12.768 -0.5292  0.1549  0.0917
 2170SOL    HW117972   1.633   3.993  12.673  0.3811 -1.6625  0.1367
 2170SOL    HW217973   1.627   3.893  12.777  1.8647  0.2423 -1.3660
 2171SOL     OW17974   3.568   3.663   2.832 -0.2243 -1.1183 -0.2675
 2171SOL    HW117975   3.540   3.747   2.869 -0.4946 -1.0084 -0.7155
 2171SOL    HW217976   3.517   3.662   2.751 -2.0536 -1.0024  0.8887
 2172SOL     OW17977   3.682   3.365   3.097 -0.3693 -1.2581  0.4239
 2172SOL    HW117978   3.616   3.417   3.051  1.9652  0.0573 -1.3992
 2172SOL    HW217979   3.634   3.345   3.178  1.4622 -2.8532  1.1248
 2173SOL     OW17980   4.504   1.667  11.637  0.0032 -0.0902 -0.1804
 2173SOL    HW117981   4.501   1.586  11.687  0.8501 -1.3826 -2.2275
 2173SOL    HW217982   4.511   1.739  11.701 -0.9257 -0.1947  0.0336
 2174SOL     OW17983   0.981   2.352   9.215 -0.4288 -0.6106  0.1637
 2174SOL    HW117984   0.951   2.438   9.245  0.0136 -1.2039  2.2889
 2174SOL    HW217985   0.979   2.366   9.120 -1.1842  0.8808  0.3959
 2175SOL     OW17986   2.899   2.315   4.040  0.0211 -0.1635 -0.3394
 2175SOL    HW117987   2.908   2.222   4.021 -0.1982 -0.3596  0.5158
 2175SOL    HW217988   2.988   2.332   4.071  0.0059 -0.5089 -0.1106
 2176SOL     OW17989   4.338   4.690  12.668 -0.1660  0.2396 -0.3212
 2176SOL    HW117990   4.246   4.669  12.685 -0.4767  2.0094  0.1921
 2176SOL    HW217991   4.366   4.711  12.757 -0.8139 -1.6131  0.3352
 2177SOL     OW17992   1.543   0.061   2.140  0.5268 -0.5728 -0.6263
 2177SOL    HW117993   1.470   0.073   2.079 -0.9006  0.6502  1.3374
 2177SOL    HW217994   1.587   4.713   2.096  0.3230 -0.5659 -0.8422
 2178SOL     OW17995   3.818   4.022  15.052  0.1675 -0.7661 -0.7090
 2178SOL    HW117996   3.782   3.945  15.007  1.3576 -0.7140 -1.7654
 2178SOL    HW217997   3.794   4.003  15.143 -0.8852  0.1296 -0.8060
 2179SOL     OW17998   1.149   1.222   6.789 -0.0614 -0.9564 -0.0322
 2179SOL    HW117999   1.138   1.127   6.799 -0.1747 -0.7522  1.8970
 2179SOL    HW218000   1.166   1.247   6.880 -0.1441 -1.7019  0.1837
 2180SOL     OW18001   1.447   4.519   8.027 -0.2179  0.3276 -0.1874
 2180SOL    HW118002   1.496   4.533   8.107 -1.2199  0.0129  0.4853
 2180SOL    HW218003   1.355   4.510   8.052  0.3303 -1.3408  1.2061
 2181SOL     OW18004   3.127   1.960   0.047  0.5652  0.3681  0.1674
 2181SOL    HW118005   3.176   2.020  17.690  0.5649  0.6952  0.5234
 2181SOL    HW218006   3.057   1.920  17.693  0.2204  2.1676 -0.7520
 2182SOL     OW18007   2.991   0.835   4.175  0.5195 -0.2231 -0.4627
 2182SOL    HW118008   2.970   0.925   4.198  1.4931 -0.4351  1.3287
 2182SOL    HW218009   2.968   0.832   4.082  4.6169 -0.8840 -1.4771
 2183SOL     OW18010   4.568   2.666   9.052 -0.0700  0.4547  0.1259
 2183SOL    HW118011   4.588   2.744   9.000  0.0427 -1.5077 -2.7562
 2183SOL    HW218012   4.537   2.613   8.979 -1.1230 -0.5562  1.3088
 2184SOL     OW18013   1.630   2.192   8.431  0.2143 -0.5845 -0.6202
 2184SOL    HW118014   1.563   2.248   8.391 -1.2097 -0.9752  1.2134
 2184SOL    HW218015   1.674   2.261   8.480  0.7256 -1.7045  0.4966
 2185SOL     OW18016   4.047   0.051   1.624  0.1954  0.1217 -0.6096
 2185SOL    HW118017   4.138   0.050   1.653  0.3053 -0.3919 -0.9801
 2185SOL    HW218018   4.028   0.140   1.656  1.1731 -0.1081  0.6126
 2186SOL     OW18019   3.832   1.946  14.168  0.0477  0.4345  0.6072
 2186SOL    HW118020   3.743   1.956  14.201  0.1442  2.2853  0.3086
 2186SOL    HW218021   3.848   1.855  14.194 -3.1164 -0.2071  0.2524
 2187SOL     OW18022   3.563   0.712   6.332  0.0855 -0.9999 -0.3441
 2187SOL    HW118023   3.546   0.706   6.426  3.9986 -1.1445  0.3729
 2187SOL    HW218024   3.493   0.776   6.321 -0.3959 -1.3433  0.6757
 2188SOL     OW18025   1.787   4.510   9.094 -0.4495 -0.0521  0.2835
 2188SOL    HW118026   1.873   4.552   9.096  0.5499 -2.0880  0.8096
 2188SOL    HW218027   1.736   4.557   9.160  1.4487  0.8271  1.1036
 2189SOL     OW18028   4.019   0.897   2.600 -0.4543 -0.0117  0.3091
 2189SOL    HW118029   3.970   0.949   2.536  1.0507 -0.5638 -1.2943
 2189SOL    HW218030   3.999   0.806   2.577  0.5243 -0.3843  0.9336
 2190SOL     OW18031   4.020   4.356  17.190 -0.4486 -0.5859 -0.3219
 2190SOL    HW118032   4.047   4.379  17.279 -1.4205  1.2444 -0.4924
 2190SOL    HW218033   3.982   4.269  17.204 -4.1651  0.9924 -0.5128
 2191SOL     OW18034   0.100   1.738   1.598 -0.0345  0.1647 -0.6479
 2191SOL    HW118035   0.128   1.797   1.668  2.7847 -0.1604 -1.4808
 2191SOL    HW218036   0.011   1.721   1.628  0.5019  0.8886  1.3564
 2192SOL     OW18037   1.120   2.755   4.074  0.2319  0.0019 -0.2344
 2192SOL    HW118038   1.056   2.700   4.029 -1.9587  1.8867  0.5958
 2192SOL    HW218039   1.179   2.685   4.103  0.4910  0.3202  0.0153
 2193SOL     OW18040   4.696   0.163  11.168 -0.6334  0.0935 -0.2933
 2193SOL    HW118041   0.024   0.216  11.107 -0.9692  1.4976  0.6333
 2193SOL    HW218042   0.013   0.185  11.251 -2.6493 -0.6689  0.8949
 2194SOL     OW18043   0.649   1.027   1.957 -0.2938 -0.0410 -0.8515
 2194SOL    HW118044   0.619   1.016   2.047  2.1731 -2.6050 -0.3321
 2194SOL    HW218045   0.683   1.116   1.954  2.4266 -1.1378 -2.3018
 2195SOL     OW18046   1.320   4.545   6.259 -0.1567 -0.4272 -0.4942
 2195SOL    HW118047   1.400   4.505   6.224  0.1755  0.9652 -1.3109
 2195SOL    HW218048   1.315   4.521   6.351 -1.7265  0.3135 -0.3949
 2196SOL     OW18049   0.796   1.031   7.120  0.2725  0.1384 -0.4587
 2196SOL    HW118050   0.789   1.066   7.032  1.2063  0.8359 -0.2486
 2196SOL    HW218051   0.761   1.092   7.185  1.1092  1.0799 -0.8979
 2197SOL     OW18052   3.976   3.019   5.450  0.0171  0.4633  0.6315
 2197SOL    HW118053   3.992   2.925   5.447 -0.1211  0.4507  0.2625
 2197SOL    HW218054   3.959   3.028   5.544 -1.3943  2.2175  0.2057
 2198SOL     OW18055   2.000   1.319   1.528  0.3685 -0.0081  0.2479
 2198SOL    HW118056   1.953   1.391   1.486  0.3754 -0.5387 -0.6522
 2198SOL    HW218057   1.961   1.313   1.615  1.4536 -1.5829  0.6137
 2199SOL     OW18058   2.332   1.288   5.940  0.0955  0.3576  0.2679
 2199SOL    HW118059   2.424   1.293   5.967  0.1455  2.1125 -0.2504
 2199SOL    HW218060   2.302   1.215   5.996  0.9640 -1.8888 -2.2022
 2200SOL     OW18061   1.099   1.716   5.084  0.8074 -0.3789 -0.3271
 2200SOL    HW118062   1.131   1.801   5.052  0.7529 -0.5613 -0.8683
 2200SOL    HW218063   1.140   1.727   5.170  1.4413 -0.3143 -0.6375
 2201SOL     OW18064   3.600   1.174  15.460 -0.9355 -0.1469 -0.3284
 2201SOL    HW118065   3.680   1.124  15.444  0.3940  1.4793  1.2577
 2201SOL    HW218066   3.629   1.235  15.528 -0.3117 -1.3749  0.4974
 2202SOL     OW18067   2.546   1.024   6.696 -0.4215  0.4226  0.3438
 2202SOL    HW118068   2.507   1.064   6.774 -0.3585 -0.2082  0.6966
 2202SOL    HW218069   2.525   0.932   6.711  3.4425 -0.5415 -0.2425
 2203SOL     OW18070   2.454   0.137   2.515  0.4049 -0.0142  0.0781
 2203SOL    HW118071   2.420   0.101   2.432 -0.8158 -0.9553  0.9945
 2203SOL    HW218072   2.516   0.068   2.536 -0.1600 -0.6568 -0.3488
 2204SOL     OW18073   1.244   0.977   4.797 -0.3879  0.2284  0.0685
 2204SOL    HW118074   1.223   0.926   4.876  1.2986 -2.3710 -1.1416
 2204SOL    HW218075   1.320   0.929   4.763 -1.7714 -1.2863 -0.8867
 2205SOL     OW18076   4.653   1.079   6.538 -0.6212  0.8516  0.0218
 2205SOL    HW118077   4.628   1.167   6.512  0.1478  1.6827  2.0793
 2205SOL    HW218078   4.580   1.031   6.500 -1.9145  2.0004  1.0337
 2206SOL     OW18079   2.929   2.026   5.708 -0.1362  0.3233 -0.8092
 2206SOL    HW118080   2.849   2.031   5.760 -0.4067 -0.2677 -1.1569
 2206SOL    HW218081   2.899   1.992   5.623  0.0971  1.0536 -1.1860
 2207SOL     OW18082   0.159   0.564  13.067 -0.0203  0.1474  0.2202
 2207SOL    HW118083   0.088   0.501  13.064  0.7164 -0.7475  1.8125
 2207SOL    HW218084   0.196   0.531  13.149  0.6501 -1.1815 -0.6121
 2208SOL     OW18085   3.642   4.233  16.575 -0.2946  0.5925 -0.7445
 2208SOL    HW118086   3.660   4.317  16.618  2.5976 -0.1974 -0.4520
 2208SOL    HW218087   3.596   4.189  16.646 -1.6486 -0.0323 -1.9914
 2209SOL     OW18088   4.263   3.701  10.384 -0.4719 -0.1411  0.5387
 2209SOL    HW118089   4.171   3.687  10.406 -0.2166  1.0403  2.4049
 2209SOL    HW218090   4.267   3.796  10.374 -0.9106 -0.3421 -1.4116
 2210SOL     OW18091   1.768   1.215   6.535 -0.1541  0.0902 -0.1645
 2210SOL    HW118092   1.802   1.150   6.596 -1.1539 -0.1376  0.1646
 2210SOL    HW218093   1.760   1.175   6.449 -0.4595 -0.6615  0.2183
 2211SOL     OW18094   0.394   3.625   2.478  0.1741 -0.5118 -0.8921
 2211SOL    HW118095   0.323   3.612   2.541  1.3922  0.0751  0.5855
 2211SOL    HW218096   0.400   3.720   2.475  0.4160 -0.5557 -1.8477
 2212SOL     OW18097   0.251   0.337   4.258  0.0177 -0.5030  0.2298
 2212SOL    HW118098   0.295   0.341   4.343  1.4979  1.2374 -0.6035
 2212SOL    HW218099   0.164   0.367   4.284  0.2826  0.0758  0.4437
 2213SOL     OW18100   0.150   1.571  16.014  0.2917  0.3795 -0.2781
 2213SOL    HW118101   0.095   1.649  16.007 -0.3305 -0.0335  0.0664
 2213SOL    HW218102   0.154   1.545  15.922  2.5168  0.8813 -0.3324
 2214SOL     OW18103   0.718   1.672  10.062  0.4068 -0.3753 -0.3305
 2214SOL    HW118104   0.694   1.765  10.058  0.5936 -0.3028  0.2182
 2214SOL    HW218105   0.747   1.641   9.976  3.5250 -1.0194  0.9697
 2215SOL     OW18106   2.348   3.549   1.412 -0.0742 -0.3149 -0.5699
 2215SOL    HW118107   2.331   3.604   1.335  1.3602 -1.5950 -1.8004
 2215SOL    HW218108   2.267   3.497   1.411 -1.7929  2.3193 -0.8349
 2216SOL     OW18109   4.642   2.254  13.671 -0.0952 -0.6814  0.1825
 2216SOL    HW118110   4.689   2.171  13.679  0.6802  0.0230  2.7793
 2216SOL    HW218111   4.694   2.312  13.725  0.0407  1.5947 -2.4175
 2217SOL     OW18112   0.481   0.056   9.895 -0.4108 -0.1825 -0.2962
 2217SOL    HW118113   0.496   0.148   9.917  0.1897 -0.3359 -0.0532
 2217SOL    HW218114   0.519   0.014   9.972  0.1988  1.3700  0.2528
 2218SOL     OW18115   0.217   3.220   8.307 -0.4828 -0.2038 -0.3654
 2218SOL    HW118116   0.160   3.226   8.383  1.8462  0.9065  1.2910
 2218SOL    HW218117   0.267   3.144   8.337 -2.1645 -0.7541  1.0031
 2219SOL     OW18118   0.428   1.524   6.912 -0.0603 -0.2456  0.4298
 2219SOL    HW118119   0.378   1.584   6.968  0.3479  0.9078 -0.4538
 2219SOL    HW218120   0.368   1.509   6.839 -0.8198 -0.1526  1.0376
 2220SOL     OW18121   1.409   2.831   6.393  0.3100  0.3918 -0.6131
 2220SOL    HW118122   1.457   2.903   6.436  1.8542 -1.7883  1.3076
 2220SOL    HW218123   1.402   2.865   6.304  1.4409 -2.9104 -1.9547
 2221SOL     OW18124   3.435   2.538  16.296 -0.1553  0.2242  0.3102
 2221SOL    HW118125   3.493   2.468  16.325  0.7682 -0.3093 -2.7913
 2221SOL    HW218126   3.351   2.512  16.332 -0.5213  3.9401  2.1756
 2222SOL     OW18127   2.912   3.614   1.727  0.4762  0.4913  0.7771
 2222SOL    HW118128   2.836   3.556   1.725  0.2051  0.9494 -2.1051
 2222SOL    HW218129   2.978   3.545   1.730  0.9214  0.8989  0.5046
 2223SOL     OW18130   1.936   2.644   9.258  0.1572  0.0740  0.3075
 2223SOL    HW118131   1.862   2.700   9.280  0.6703  1.4184 -1.3802
 2223SOL    HW218132   1.915   2.640   9.165 -0.5788 -1.5127  0.5371
 2224SOL     OW18133   2.696   3.348   2.197  0.7490  0.2767 -0.5857
 2224SOL    HW118134   2.730   3.389   2.118 -2.0850  2.2591 -0.7305
 2224SOL    HW218135   2.770   3.357   2.258  1.1075  1.8946 -1.2769
 2225SOL     OW18136   2.803   3.993  12.617  0.2876 -0.4592  0.1221
 2225SOL    HW118137   2.848   3.995  12.533 -0.8838  2.0547 -0.4468
 2225SOL    HW218138   2.750   3.915  12.600 -1.6730  0.7994  0.4513
 2226SOL     OW18139   2.030   0.396  11.266 -0.2151  0.2495 -0.5579
 2226SOL    HW118140   2.094   0.335  11.229 -0.1171 -0.4019  0.6795
 2226SOL    HW218141   2.065   0.419  11.352  0.9286 -0.6460 -0.7807
 2227SOL     OW18142   2.268   2.721   8.028  0.1026  0.0704  0.0536
 2227SOL    HW118143   2.235   2.649   8.083  1.5665 -0.9773 -0.4558
 2227SOL    HW218144   2.362   2.707   8.041  0.2447  0.5883 -0.4122
 2228SOL     OW18145   4.166   1.545  13.307 -0.0663  0.7374  0.1958
 2228SOL    HW118146   4.126   1.586  13.230 -0.6479  0.1996  0.2074
 2228SOL    HW218147   4.130   1.457  13.293 -0.7924  1.1330 -0.4247
 2229SOL     OW18148   0.769   0.893  10.349  0.4427 -0.6967 -0.0127
 2229SOL    HW118149   0.832   0.826  10.322  2.3426  1.0076  0.1813
 2229SOL    HW218150   0.713   0.852  10.414  0.3381 -0.0276  0.3126
 2230SOL     OW18151   0.686   4.042   8.625 -0.0018 -0.1649 -0.8359
 2230SOL    HW118152   0.670   4.002   8.711  2.0920  1.7992  0.4865
 2230SOL    HW218153   0.746   4.116   8.635 -1.4672  1.0059 -0.7482
 2231SOL     OW18154   0.243   2.938   0.647 -0.4617  0.0818 -0.5181
 2231SOL    HW118155   0.176   2.886   0.693 -2.0017  2.1061 -0.4744
 2231SOL    HW218156   0.320   2.895   0.683  0.0320 -0.5839 -2.3397
 2232SOL     OW18157   3.986   3.632   2.539 -0.4308  0.7733 -0.1017
 2232SOL    HW118158   4.057   3.697   2.548  0.8455 -0.6641  0.1764
 2232SOL    HW218159   3.975   3.611   2.632  1.6968  1.2331  0.2562
 2233SOL     OW18160   4.357   3.910   7.898  0.0076 -0.3434  0.1941
 2233SOL    HW118161   4.345   3.855   7.975  1.0718 -0.6452  0.1448
 2233SOL    HW218162   4.353   3.848   7.825 -0.3350  1.2701 -1.1333
 2234SOL     OW18163   1.314   1.774   9.084 -0.3701  0.0896  0.0636
 2234SOL    HW118164   1.343   1.688   9.113  0.4118  0.1289 -0.6078
 2234SOL    HW218165   1.304   1.759   8.990  0.8243 -0.0829 -0.0302
 2235SOL     OW18166   4.231   3.192   5.085 -0.6749  0.1854 -0.1500
 2235SOL    HW118167   4.203   3.279   5.058  2.5846  0.2842 -3.1936
 2235SOL    HW218168   4.315   3.189   5.040 -0.5450 -1.3726  0.1715
 2236SOL     OW18169   1.318   3.900   5.398 -0.1156 -0.3247 -0.3236
 2236SOL    HW118170   1.294   3.877   5.488 -0.0576 -1.4505 -0.5860
 2236SOL    HW218171   1.377   3.971   5.421  1.8592 -2.0561 -0.0231
 2237SOL     OW18172   4.118   2.071   2.106  0.1978  0.3268  0.1480
 2237SOL    HW118173   4.108   1.989   2.154 -0.3240 -0.8007 -1.8884
 2237SOL    HW218174   4.186   2.119   2.152  0.5827  0.8485 -0.9572
 2238SOL     OW18175   1.121   1.011  11.252  0.1204  0.3197  0.2515
 2238SOL    HW118176   1.042   0.984  11.297  1.2508  1.3023  2.8329
 2238SOL    HW218177   1.126   1.097  11.295 -1.4454 -0.4228  1.9090
 2239SOL     OW18178   4.322   1.616   3.018  1.1042  0.0308  0.4721
 2239SOL    HW118179   4.261   1.549   3.049 -0.1680  1.9098  1.9813
 2239SOL    HW218180   4.299   1.615   2.925  0.7122  1.8330  0.5691
 2240SOL     OW18181   3.430   4.444  15.307 -0.3038 -0.1375 -0.1529
 2240SOL    HW118182   3.388   4.365  15.339  1.0405 -1.3845 -1.4842
 2240SOL    HW218183   3.507   4.412  15.260 -2.5509 -2.8901 -1.8809
 2241SOL     OW18184   3.987   4.360  12.962  0.2948 -0.2550 -0.2900
 2241SOL    HW118185   3.984   4.411  13.043 -2.4355 -2.2303  0.8563
 2241SOL    HW218186   4.081   4.368  12.945  0.7671 -0.6479  2.1486
 2242SOL     OW18187   4.694   4.342   4.048  0.2888 -0.4494 -0.7828
 2242SOL    HW118188   4.626   4.368   4.110 -0.5416  0.8938 -2.2466
 2242SOL    HW218189   4.670   4.396   3.973  0.8522  2.2070  0.9018
 2243SOL     OW18190   0.556   1.288   4.953  0.3112  0.2084 -0.0948
 2243SOL    HW118191   0.580   1.213   4.898 -0.7765 -0.8426  0.8652
 2243SOL    HW218192   0.530   1.250   5.036  1.5270  0.5021  0.4236
 2244SOL     OW18193   2.338   2.928   1.173  0.1608  0.4910  0.0205
 2244SOL    HW118194   2.306   2.998   1.230  0.3431  1.0075 -0.5126
 2244SOL    HW218195   2.353   2.855   1.234 -0.3674 -1.2530 -1.9371
 2245SOL     OW18196   1.813   3.945   8.081 -0.1014  0.2622  0.8061
 2245SOL    HW118197   1.828   3.941   7.986 -0.8736  0.0911  0.6861
 2245SOL    HW218198   1.839   3.857   8.109  0.0822  0.1312  0.2143
 2246SOL     OW18199   0.674   0.249   7.370  0.1149  0.4899 -0.7952
 2246SOL    HW118200   0.688   0.324   7.312 -0.4486  0.7513 -0.5976
 2246SOL    HW218201   0.762   0.214   7.357  0.3007  0.5338  0.3427
 2247SOL     OW18202   3.828   0.498   3.075 -0.8755 -0.8490 -0.0436
 2247SOL    HW118203   3.774   0.574   3.051  0.9381  0.8758  1.2848
 2247SOL    HW218204   3.787   0.479   3.159  0.1885 -0.5681  0.5310
 2248SOL     OW18205   0.339   4.083   4.200 -0.1585  0.0517  0.2418
 2248SOL    HW118206   0.371   4.126   4.280 -0.1096 -2.9430  1.8140
 2248SOL    HW218207   0.305   4.162   4.157 -1.5438 -0.4566  0.4290
 2249SOL     OW18208   2.081   4.366   9.619  0.7702 -0.1829  0.5741
 2249SOL    HW118209   2.010   4.355   9.681  0.1022  1.6780  0.1427
 2249SOL    HW218210   2.043   4.304   9.557  0.1992 -0.4497  1.1945
 2250SOL     OW18211   3.409   2.455  12.250 -0.0662 -0.6238  0.1152
 2250SOL    HW118212   3.363   2.397  12.310  0.9513 -2.1295 -0.5777
 2250SOL    HW218213   3.470   2.389  12.217 -2.1150 -1.3413 -2.1875
 2251SOL     OW18214   0.025   3.811   6.730  0.1651 -0.7276 -1.2200
 2251SOL    HW118215   0.007   3.859   6.649  1.0589 -0.7110 -1.4061
 2251SOL    HW218216   0.038   3.888   6.785  0.8975 -0.1093 -2.2682
 2252SOL     OW18217   4.094   1.470   7.958 -0.0377 -0.5423 -0.0857
 2252SOL    HW118218   4.160   1.528   7.922 -1.5635 -0.1127 -2.1861
 2252SOL    HW218219   4.115   1.465   8.051  1.6982  1.0020 -0.4133
 2253SOL     OW18220   2.995   2.355   7.541 -0.2774 -0.0123 -0.0475
 2253SOL    HW118221   3.078   2.326   7.504 -0.3662  0.2455 -0.4444
 2253SOL    HW218222   3.009   2.372   7.634 -2.2707 -1.4776  0.5324
 2254SOL     OW18223   0.955   1.461  12.581  0.7119  0.5457 -0.3494
 2254SOL    HW118224   1.042   1.461  12.542  1.3199  2.1560  0.9742
 2254SOL    HW218225   0.902   1.469  12.501 -0.6938 -0.6681  0.4611
 2255SOL     OW18226   1.791   0.187   7.295  0.4150 -0.2134  0.4533
 2255SOL    HW118227   1.784   0.167   7.388  0.1156  2.3882  0.9854
 2255SOL    HW218228   1.721   0.251   7.284  0.1132 -0.6887 -0.3775
 2256SOL     OW18229   1.985   0.012   9.109  0.7161 -0.1178 -0.2592
 2256SOL    HW118230   1.901   0.051   9.086  1.0071  0.6303 -0.0644
 2256SOL    HW218231   2.026   0.082   9.161  0.8848 -0.5872  0.2458
 2257SOL     OW18232   0.015   1.627   8.612 -0.1615  0.6701  0.4232
 2257SOL    HW118233   0.034   1.697   8.673  0.9705 -0.6910  1.6309
 2257SOL    HW218234   4.646   1.616   8.633 -0.4989  1.6525 -0.5691
 2258SOL     OW18235   1.862   3.900  15.725  0.2674  0.4151  0.2813
 2258SOL    HW118236   1.947   3.916  15.684  0.1939  2.1491  0.8281
 2258SOL    HW218237   1.804   3.973  15.706 -0.4989 -0.3283 -0.2380
 2259SOL     OW18238   0.308   2.068  15.869 -0.0159 -0.2293 -0.1217
 2259SOL    HW118239   0.356   2.033  15.943  2.9076  2.5197 -0.6919
 2259SOL    HW218240   0.227   2.089  15.914  0.1490 -0.7122  0.3948
 2260SOL     OW18241   2.588   3.377   4.248 -0.1292 -0.7323 -0.3023
 2260SOL    HW118242   2.545   3.461   4.267  0.0318 -0.3464 -1.6729
 2260SOL    HW218243   2.601   3.351   4.340 -0.3115  2.6121  0.6892
 2261SOL     OW18244   3.289   4.404  10.438  1.0084  0.0936 -0.0652
 2261SOL    HW118245   3.278   4.338  10.370 -1.4171  1.1123 -0.6904
 2261SOL    HW218246   3.226   4.374  10.504  0.2099  3.1878  0.6130
 2262SOL     OW18247   0.907   0.559   5.572  0.2245  0.0096 -0.5332
 2262SOL    HW118248   0.861   0.512   5.642  0.4313 -0.9624 -1.0454
 2262SOL    HW218249   0.912   0.644   5.615  1.7095  0.2727 -1.2415
 2263SOL     OW18250   0.094   0.034   8.501  0.2196 -0.0886  0.1548
 2263SOL    HW118251   0.031   4.697   8.464 -0.6124 -0.1178  1.6041
 2263SOL    HW218252   0.149   4.700   8.554 -1.1795  0.2250  1.9725
 2264SOL     OW18253   4.033   1.918  10.062 -0.5378 -0.3103  0.4899
 2264SOL    HW118254   4.046   2.006  10.025  0.9692 -1.1216 -0.8953
 2264SOL    HW218255   3.937   1.914  10.056 -0.3870 -0.6178 -1.8764
 2265SOL     OW18256   1.905   1.805  17.298 -0.7709  0.1948  0.5642
 2265SOL    HW118257   1.818   1.764  17.300 -0.4735 -0.5811 -2.1924
 2265SOL    HW218258   1.946   1.791  17.383 -1.1693 -2.1723  0.3731
 2266SOL     OW18259   3.475   0.245   3.077  0.1632 -0.0668 -0.3022
 2266SOL    HW118260   3.428   0.252   2.993 -1.5269 -2.4318  0.4444
 2266SOL    HW218261   3.550   0.301   3.060  0.4266 -0.7618 -1.4281
 2267SOL     OW18262   3.006   1.396   4.089  0.1895 -0.1953  0.1522
 2267SOL    HW118263   3.012   1.318   4.033 -2.2798 -0.0163 -0.3515
 2267SOL    HW218264   3.069   1.451   4.042  1.4424 -0.8103  1.0900
 2268SOL     OW18265   1.850   0.682  16.523 -0.1140  0.1822  0.0161
 2268SOL    HW118266   1.839   0.590  16.545 -0.6349  0.1100 -0.5411
 2268SOL    HW218267   1.877   0.718  16.608 -1.9567 -1.1213  1.1568
 2269SOL     OW18268   0.330   1.255   0.844  0.2376 -0.1917 -0.6140
 2269SOL    HW118269   0.246   1.241   0.801  1.2712  0.4448 -2.8600
 2269SOL    HW218270   0.300   1.319   0.909 -2.7842 -1.9770 -0.2590
 2270SOL     OW18271   0.490   1.893  11.371  0.3751 -0.6376 -0.0872
 2270SOL    HW118272   0.571   1.914  11.324 -0.1800 -2.0658 -1.6502
 2270SOL    HW218273   0.523   1.831  11.436  1.7340 -0.7699 -0.8851
 2271SOL     OW18274   4.506   3.959  16.054 -0.3582 -0.1072 -0.2404
 2271SOL    HW118275   4.417   3.990  16.073 -0.6951 -0.0241 -1.9683
 2271SOL    HW218276   4.490   3.876  16.008 -0.6551  0.3613 -0.9815
 2272SOL     OW18277   4.640   2.429   7.486  0.1911  0.1496  0.3477
 2272SOL    HW118278   4.686   2.432   7.570 -0.5891 -2.4450  0.8659
 2272SOL    HW218279   4.554   2.461   7.514  0.8871  0.4916  2.1136
 2273SOL     OW18280   2.633   2.658   4.454 -0.0294 -0.3550 -0.5138
 2273SOL    HW118281   2.670   2.670   4.542  0.8720 -2.9188 -0.5638
 2273SOL    HW218282   2.697   2.594   4.423  0.9178 -0.0312  0.7423
 2274SOL     OW18283   1.922   1.601   4.114 -0.3531 -0.1203  0.0448
 2274SOL    HW118284   1.912   1.594   4.019  0.6685  0.3141 -0.0934
 2274SOL    HW218285   1.891   1.692   4.120 -1.1490 -0.3870 -0.0581
 2275SOL     OW18286   0.968   3.691   1.739 -0.3821  0.3960 -0.1908
 2275SOL    HW118287   1.041   3.746   1.765  0.3255 -0.5962 -0.0612
 2275SOL    HW218288   0.922   3.754   1.684 -0.0185  1.0133  0.2269
 2276SOL     OW18289   2.727   1.352   6.508 -0.7358  0.4351 -0.2014
 2276SOL    HW118290   2.741   1.323   6.598  2.4224  0.5983 -0.6346
 2276SOL    HW218291   2.798   1.411   6.482 -0.8641 -0.3647 -2.3196
 2277SOL     OW18292   0.799   4.677   0.651 -0.0685  0.1970  0.2808
 2277SOL    HW118293   0.833   4.619   0.719  0.7071  2.1366  1.5732
 2277SOL    HW218294   0.835   4.634   0.574  0.8298 -0.3320  1.0035
 2278SOL     OW18295   2.132   2.393   0.094 -0.1022 -0.1676  0.1533
 2278SOL    HW118296   2.225   2.397   0.113 -0.2660  1.3841  0.6149
 2278SOL    HW218297   2.104   2.361   0.180 -1.0689 -1.1684 -0.5305
 2279SOL     OW18298   2.526   4.507  13.920 -0.1499  0.0807  0.0834
 2279SOL    HW118299   2.437   4.493  13.953  0.2904  0.7716  1.5678
 2279SOL    HW218300   2.507   4.566  13.848 -0.8245  1.5082  1.4290
 2280SOL     OW18301   3.799   1.568   2.072 -0.6633  0.4384 -0.1561
 2280SOL    HW118302   3.787   1.515   2.151 -1.8005  0.0663 -0.5778
 2280SOL    HW218303   3.711   1.578   2.036 -0.0427  2.5644 -1.0665
 2281SOL     OW18304   0.078   2.824   8.270 -0.1899 -0.2263 -0.2382
 2281SOL    HW118305   0.118   2.868   8.195  1.9139 -0.5143  0.6934
 2281SOL    HW218306   0.148   2.762   8.289 -0.4285  0.0355  1.5014
 2282SOL     OW18307   3.662   0.316   6.334 -0.0527 -0.1825  0.2944
 2282SOL    HW118308   3.641   0.291   6.244  0.2497 -1.5288  0.6033
 2282SOL    HW218309   3.582   0.360   6.365 -0.2181  0.7459 -1.4343
 2283SOL     OW18310   2.776   3.306   2.545  0.1325 -0.3177  0.1357
 2283SOL    HW118311   2.737   3.393   2.538 -0.2683 -0.6969 -2.4661
 2283SOL    HW218312   2.787   3.287   2.638 -0.4914 -0.1890  0.2365
 2284SOL     OW18313   4.476   0.881   3.085 -0.2005  0.3449 -0.0516
 2284SOL    HW118314   4.546   0.941   3.060  0.2865 -0.1663  0.0818
 2284SOL    HW218315   4.400   0.915   3.037  0.0512 -1.2192 -1.5492
 2285SOL     OW18316   2.875   2.988   0.607  0.4416  0.4911  0.1999
 2285SOL    HW118317   2.875   3.073   0.563 -3.8312  0.0071 -0.7234
 2285SOL    HW218318   2.961   2.952   0.584 -0.7158 -1.5023 -1.0470
 2286SOL     OW18319   2.312   0.688   8.511 -0.4304  0.4115  0.4147
 2286SOL    HW118320   2.363   0.643   8.444 -1.1291 -1.7471  1.3094
 2286SOL    HW218321   2.224   0.668   8.479  0.6589 -0.1074 -2.2599
 2287SOL     OW18322   1.531   3.790  13.156  0.2106 -0.7414  0.3988
 2287SOL    HW118323   1.611   3.771  13.108  0.7248  0.2767  0.8705
 2287SOL    HW218324   1.562   3.858  13.215 -0.1971 -1.9404  2.0196
 2288SOL     OW18325   0.026   2.114  15.091 -0.1249 -0.3132 -0.7946
 2288SOL    HW118326   0.068   2.038  15.051 -0.7946 -1.3498  0.4957
 2288SOL    HW218327   0.065   2.189  15.046  1.3547 -0.6258 -0.0343
 2289SOL     OW18328   2.822   1.441   7.750  0.0420 -0.0052  0.3228
 2289SOL    HW118329   2.728   1.424   7.748 -0.9057  5.2760 -0.0774
 2289SOL    HW218330   2.836   1.491   7.669  2.8484 -1.6669 -0.2156
 2290SOL     OW18331   1.475   4.482  10.154 -0.2885  1.0223  0.4736
 2290SOL    HW118332   1.436   4.526  10.230 -1.5755  1.5344 -0.4798
 2290SOL    HW218333   1.544   4.430  10.194 -1.1012 -0.1770  0.3178
 2291SOL     OW18334   0.168   0.184   9.704  0.4985  0.4170 -0.1925
 2291SOL    HW118335   0.089   0.220   9.744 -0.3880  1.6517 -3.0649
 2291SOL    HW218336   0.203   0.267   9.671  0.1704 -0.9609 -3.9467
 2292SOL     OW18337   0.761   1.818  16.357 -0.2265 -0.5218 -0.0911
 2292SOL    HW118338   0.842   1.780  16.392 -0.9088  1.3973  3.5916
 2292SOL    HW218339   0.793   1.892  16.306  0.2286 -3.1885 -3.7079
 2293SOL     OW18340   4.048   0.123   6.108  0.0120  0.4728 -1.0778
 2293SOL    HW118341   4.104   0.085   6.040  0.5245  0.0958 -0.4433
 2293SOL    HW218342   4.008   0.199   6.067 -0.4356 -0.2201 -1.9251
 2294SOL     OW18343   1.904   3.032   7.845 -0.3553 -0.1617 -0.2607
 2294SOL    HW118344   1.958   2.958   7.873 -0.4220  0.2376  0.9333
 2294SOL    HW218345   1.833   2.997   7.790 -2.4349  0.6904  1.8641
 2295SOL     OW18346   1.523   3.128   4.303 -0.2437 -0.1336 -0.1368
 2295SOL    HW118347   1.478   3.191   4.247 -0.4557  0.6169  0.8794
 2295SOL    HW218348   1.486   3.044   4.274  0.0833  0.0794 -1.1876
 2296SOL     OW18349   3.181   1.203  13.672  0.0932  0.5246 -0.1819
 2296SOL    HW118350   3.111   1.246  13.623 -2.0598 -1.2997  1.2754
 2296SOL    HW218351   3.261   1.243  13.638  0.2243  0.0699 -0.4196
 2297SOL     OW18352   1.399   0.161   1.676  0.3178  0.5288 -0.1735
 2297SOL    HW118353   1.384   0.255   1.687  1.3247  0.5803  0.7786
 2297SOL    HW218354   1.443   0.167   1.591  0.7138  0.1951  0.0117
 2298SOL     OW18355   1.313   0.854  10.525  0.0672 -0.2421 -0.6731
 2298SOL    HW118356   1.218   0.862  10.513 -0.4147 -0.1847  3.2602
 2298SOL    HW218357   1.323   0.820  10.436 -3.8321 -1.4231 -0.6446
 2299SOL     OW18358   0.051   0.673   9.886 -0.6965  0.1308  1.0779
 2299SOL    HW118359   0.013   0.587   9.902 -0.0109 -0.5142 -0.7807
 2299SOL    HW218360   0.122   0.676   9.950  0.5277  0.8587 -0.3191
 2300SOL     OW18361   0.708   0.442   8.480 -0.3427  0.1931  0.5282
 2300SOL    HW118362   0.681   0.487   8.560  1.0348  1.3265  0.3424
 2300SOL    HW218363   0.784   0.401   8.520 -0.0490 -0.2301 -0.4677
 2301SOL     OW18364   3.874   4.204   0.819 -0.4071 -0.3210  0.4697
 2301SOL    HW118365   3.917   4.247   0.745 -0.8539 -2.5006 -1.0400
 2301SOL    HW218366   3.788   4.212   0.778 -0.3661  0.1015  0.4597
 2302SOL     OW18367   4.014   0.871   8.408  0.1700 -0.2857  0.1010
 2302SOL    HW118368   3.979   0.884   8.496  1.1172 -0.8558  0.5571
 2302SOL    HW218369   4.105   0.846   8.424  0.6424  1.0419 -0.5640
 2303SOL     OW18370   4.269   1.967   3.736 -0.0580 -0.2427  0.2104
 2303SOL    HW118371   4.295   1.904   3.669  0.5352 -1.6749  1.7978
 2303SOL    HW218372   4.225   1.911   3.800  1.4044  0.7264  2.0710
 2304SOL     OW18373   3.770   0.676  11.614  0.4713 -0.3226 -0.0424
 2304SOL    HW118374   3.775   0.589  11.652 -1.3767 -0.7747 -0.8164
 2304SOL    HW218375   3.705   0.663  11.544  1.4595 -2.1193 -0.6229
 2305SOL     OW18376   3.028   0.179   8.868 -0.2097  0.2097 -0.0153
 2305SOL    HW118377   2.966   0.151   8.936  0.5302  1.4494  1.1637
 2305SOL    HW218378   3.061   0.103   8.820 -4.4882 -1.7503  0.0529
 2306SOL     OW18379   2.608   0.042   0.927 -0.3875  0.3825  0.0333
 2306SOL    HW118380   2.569   0.087   1.001  3.3270  0.1498  2.1367
 2306SOL    HW218381   2.573   0.104   0.863  0.7890  2.8808  1.8149
 2307SOL     OW18382   0.124   4.514  10.712 -0.7553  0.1930  0.0223
 2307SOL    HW118383   0.145   4.607  10.705  0.9166 -0.3160 -1.9018
 2307SOL    HW218384   0.043   4.505  10.662 -1.8029  1.2080  1.5388
 2308SOL     OW18385   0.678   0.385  16.716  0.0469  0.3850 -0.0569
 2308SOL    HW118386   0.762   0.395  16.670 -1.1485  1.6601 -1.9451
 2308SOL    HW218387   0.689   0.448  16.788 -0.0736  0.5279 -0.1624
 2309SOL     OW18388   4.441   3.998   3.975  0.3564 -0.3973 -0.0157
 2309SOL    HW118389   4.474   3.938   3.907  0.4647  0.5713 -0.8193
 2309SOL    HW218390   4.517   4.057   3.974  0.5833 -0.6812  0.4758
 2310SOL     OW18391   4.562   1.288   7.646  0.1360  0.1899 -0.5358
 2310SOL    HW118392   4.587   1.380   7.635 -1.4332  0.5473 -1.1462
 2310SOL    HW218393   4.548   1.277   7.740  2.2116  1.6343 -0.0490
 2311SOL     OW18394   3.491   1.860   8.281  0.0146  0.2049 -0.1130
 2311SOL    HW118395   3.422   1.840   8.218  1.2883 -3.0589 -0.4928
 2311SOL    HW218396   3.566   1.831   8.229  0.4423  1.3550 -0.1409
 2312SOL     OW18397   1.139   1.696  15.102 -0.5512  0.3254 -0.2069
 2312SOL    HW118398   1.198   1.693  15.026 -2.1148  0.7212 -1.4509
 2312SOL    HW218399   1.088   1.619  15.075 -0.8764 -0.1777  1.8569
 2313SOL     OW18400   3.384   1.966   2.113 -0.0502 -0.5303  0.1215
 2313SOL    HW118401   3.469   1.968   2.157 -0.2496 -2.4040  0.5960
 2313SOL    HW218402   3.379   2.059   2.092 -2.2520 -0.7110 -0.1581
 2314SOL     OW18403   3.178   3.539   6.673 -0.3742 -0.5285  0.0453
 2314SOL    HW118404   3.140   3.521   6.587 -0.0486 -2.0479  0.2136
 2314SOL    HW218405   3.264   3.575   6.655 -1.2413  0.4189 -2.1788
 2315SOL     OW18406   0.975   1.662   9.383 -0.3290 -0.0399 -0.1716
 2315SOL    HW118407   0.882   1.663   9.358 -0.7642  0.1103  1.4867
 2315SOL    HW218408   1.001   1.747   9.347 -2.9191  0.9972  0.4213
 2316SOL     OW18409   2.348   2.574   5.793 -0.5355 -0.1772 -0.2312
 2316SOL    HW118410   2.368   2.500   5.736  3.4168  2.2156 -1.9486
 2316SOL    HW218411   2.254   2.566   5.807 -0.4091 -0.2085  0.5814
 2317SOL     OW18412   4.214   0.475   7.166  0.1364 -0.0378  0.1076
 2317SOL    HW118413   4.236   0.514   7.081  1.1474 -0.8536  0.0040
 2317SOL    HW218414   4.266   0.534   7.220  0.8776 -0.4476 -0.1562
 2318SOL     OW18415   3.291   4.134   1.787  0.6893 -0.3678 -0.1167
 2318SOL    HW118416   3.253   4.222   1.781  0.0319 -0.5984  0.6820
 2318SOL    HW218417   3.360   4.145   1.722 -0.4332 -0.4323 -1.3169
 2319SOL     OW18418   2.397   2.409   7.135 -0.5544  0.0516 -0.3598
 2319SOL    HW118419   2.463   2.478   7.140 -1.8936  1.2950  0.2731
 2319SOL    HW218420   2.323   2.440   7.188  0.8978  0.9622  1.1223
 2320SOL     OW18421   1.801   4.401  16.532 -0.3862 -0.3703  0.8334
 2320SOL    HW118422   1.884   4.375  16.493  0.0258  2.1409  0.0447
 2320SOL    HW218423   1.737   4.353  16.480  0.9459 -0.5458 -0.6370
 2321SOL     OW18424   1.500   2.730   0.564  0.3933  0.1515 -0.2130
 2321SOL    HW118425   1.498   2.644   0.524  2.0084 -0.7182  1.6111
 2321SOL    HW218426   1.539   2.772   0.487  1.2231  2.5043  1.4814
 2322SOL     OW18427   2.219   2.632   3.797 -0.3550  0.0900 -0.2488
 2322SOL    HW118428   2.309   2.661   3.809 -0.8300  0.8097  1.6089
 2322SOL    HW218429   2.234   2.540   3.818  1.5769  0.0760 -1.7092
 2323SOL     OW18430   3.374   1.211   5.065  0.0511  0.0191 -0.3214
 2323SOL    HW118431   3.404   1.263   4.991 -0.5251 -0.8926 -1.2084
 2323SOL    HW218432   3.433   1.250   5.128  0.0044 -0.2900 -0.0853
 2324SOL     OW18433   0.528   1.841   5.394  0.0167  0.0555  0.0115
 2324SOL    HW118434   0.581   1.822   5.316  0.0569 -1.8521  0.5166
 2324SOL    HW218435   0.549   1.934   5.409  3.2109  0.1051 -4.6879
 2325SOL     OW18436   1.725   2.824   9.235  0.0099 -0.0190 -0.3815
 2325SOL    HW118437   1.711   2.885   9.308  1.9985 -0.4884  0.3878
 2325SOL    HW218438   1.761   2.875   9.163  0.9724 -0.3537 -0.1446
 2326SOL     OW18439   4.675   4.097   4.655  0.7950  0.3412  0.3794
 2326SOL    HW118440   0.039   4.088   4.620  0.7028 -1.6283  0.6334
 2326SOL    HW218441   4.697   4.121   4.745 -0.4449 -1.6228  1.2033
 2327SOL     OW18442   0.490   2.822   0.034  0.6842  0.8339 -0.0142
 2327SOL    HW118443   0.485   2.759   0.105  0.1787  2.9245  1.8179
 2327SOL    HW218444   0.397   2.841   0.021  0.4562  1.0445  1.9806
 2328SOL     OW18445   2.657   2.512   8.594 -0.2295 -0.3639 -0.3615
 2328SOL    HW118446   2.610   2.585   8.633  0.4985 -1.2655  2.1933
 2328SOL    HW218447   2.696   2.468   8.670 -1.2350 -0.3965  0.1310
 2329SOL     OW18448   0.212   4.468   3.724  0.1727  0.0311 -0.2411
 2329SOL    HW118449   0.251   4.451   3.638 -0.4600  0.0181 -0.5283
 2329SOL    HW218450   0.265   4.538   3.762 -1.2658  0.8152  0.3459
 2330SOL     OW18451   2.867   1.358   6.111  0.2959 -0.1600 -0.3587
 2330SOL    HW118452   2.889   1.299   6.183  2.5964  1.0969 -0.0491
 2330SOL    HW218453   2.824   1.297   6.050 -0.9552  1.1856 -0.8157
 2331SOL     OW18454   1.653   1.837   3.451 -0.2119 -0.0330  0.1540
 2331SOL    HW118455   1.654   1.749   3.489  2.7941 -1.4085 -3.1182
 2331SOL    HW218456   1.718   1.830   3.381  1.3135 -1.0280  1.6442
 2332SOL     OW18457   1.134   0.459   2.546 -0.1058  0.3955  0.1770
 2332SOL    HW118458   1.152   0.545   2.585 -2.5267  1.9980 -2.2979
 2332SOL    HW218459   1.188   0.405   2.604 -0.7989 -0.0659  0.3970
 2333SOL     OW18460   2.040   0.122   7.205 -0.3226 -0.2287  0.0514
 2333SOL    HW118461   2.104   0.149   7.270 -1.5439  0.5063  0.9514
 2333SOL    HW218462   1.960   0.161   7.241 -1.5841 -2.2311 -0.5740
 2334SOL     OW18463   0.080   4.655  11.042  0.2707  0.5675  0.0915
 2334SOL    HW118464   0.002   4.638  10.990  0.9575  2.5272 -1.5849
 2334SOL    HW218465   0.059   0.020  11.070 -1.2419  0.1983  0.1275
 2335SOL     OW18466   4.559   1.815  15.285  0.4710 -0.2923 -0.3146
 2335SOL    HW118467   4.489   1.842  15.225  0.5505 -0.9454 -0.7102
 2335SOL    HW218468   4.562   1.720  15.275  0.7191 -0.4705  1.5397
 2336SOL     OW18469   3.393   3.179   1.802  0.3746  0.3219 -0.0314
 2336SOL    HW118470   3.316   3.169   1.746 -0.5060 -0.4943  1.3404
 2336SOL    HW218471   3.409   3.085   1.806  1.1746  0.4580 -0.0431
 2337SOL     OW18472   3.998   1.673   6.074 -0.1725 -0.8684 -0.3863
 2337SOL    HW118473   3.931   1.718   6.022  0.2321  0.5488  0.3054
 2337SOL    HW218474   4.073   1.730   6.055  0.5431 -2.0755 -1.1089
 2338SOL     OW18475   0.845   1.666   5.715  0.5409 -0.4368  0.2233
 2338SOL    HW118476   0.753   1.666   5.689  0.6822  0.3243 -0.3024
 2338SOL    HW218477   0.880   1.590   5.669  1.4968  1.4240 -2.1602
 2339SOL     OW18478   2.942   3.928   2.948  0.4225  0.2542  0.6709
 2339SOL    HW118479   2.873   3.891   2.892  1.9525  0.6457 -1.4859
 2339SOL    HW218480   2.957   3.855   3.008  1.4974  0.0437  0.1389
 2340SOL     OW18481   0.275   2.796   6.858 -0.3024  0.1954  0.0237
 2340SOL    HW118482   0.258   2.750   6.940  1.5491  1.8948  1.3747
 2340SOL    HW218483   0.338   2.862   6.887  1.7159 -1.4240 -0.6612
 2341SOL     OW18484   1.035   1.430   1.876  0.2126 -0.0786 -1.0367
 2341SOL    HW118485   1.098   1.377   1.827  1.0457 -0.7251  0.7119
 2341SOL    HW218486   1.080   1.432   1.961 -0.6131  2.5953 -0.6654
 2342SOL     OW18487   3.019   1.660  16.911 -0.7188  0.0769  0.1196
 2342SOL    HW118488   3.003   1.625  16.823 -0.4719 -1.6184  0.7466
 2342SOL    HW218489   3.075   1.736  16.894 -1.2361  0.5478  0.5238
 2343SOL     OW18490   3.872   3.317   3.773  0.0556 -0.4549  0.5651
 2343SOL    HW118491   3.865   3.233   3.726 -3.5681 -1.0475  2.1841
 2343SOL    HW218492   3.921   3.282   3.847  1.8234 -1.1445 -0.9344
 2344SOL     OW18493   1.151   0.027   0.393  0.2441  0.2386 -0.3321
 2344SOL    HW118494   1.100   0.006   0.471  0.4802 -1.4808 -0.6258
 2344SOL    HW218495   1.151   0.122   0.398 -0.9164  0.1418  1.3294
 2345SOL     OW18496   4.419   2.547   0.456  0.3233  0.0789  0.4683
 2345SOL    HW118497   4.357   2.530   0.527 -0.6785 -0.4655 -0.5468
 2345SOL    HW218498   4.477   2.606   0.505  0.5574 -1.5956  2.2249
 2346SOL     OW18499   4.433   4.521   7.107  0.1326  0.0370  0.2058
 2346SOL    HW118500   4.493   4.551   7.176 -1.3238 -1.9377  2.3452
 2346SOL    HW218501   4.358   4.489   7.156  1.0484 -1.7104  0.4561
 2347SOL     OW18502   1.525   1.241   4.028 -0.2718  0.1483  0.3703
 2347SOL    HW118503   1.455   1.181   4.003 -1.3405  1.1616  0.8938
 2347SOL    HW218504   1.575   1.182   4.083  0.0229 -0.2184 -0.2944
 2348SOL     OW18505   2.649   0.440   3.757  0.5631 -0.5428  0.0591
 2348SOL    HW118506   2.696   0.522   3.764  0.1983 -0.0553 -3.1131
 2348SOL    HW218507   2.614   0.425   3.844 -1.2859  0.7204 -0.4815
 2349SOL     OW18508   1.338   3.343   9.030 -0.0722 -0.5263  1.0124
 2349SOL    HW118509   1.398   3.396   9.083  0.5489 -0.6358  0.4113
 2349SOL    HW218510   1.381   3.348   8.945  0.7753 -1.0286  1.4084
 2350SOL     OW18511   3.514   0.235   8.684  0.0537  0.0204 -0.2224
 2350SOL    HW118512   3.473   0.221   8.770 -0.9236  1.4947 -0.4419
 2350SOL    HW218513   3.537   0.326   8.705  0.5232 -0.2521  0.4203
 2351SOL     OW18514   0.455   2.034   7.601 -0.3687 -0.1625 -0.7552
 2351SOL    HW118515   0.403   1.968   7.554 -2.1364  2.0865 -1.9573
 2351SOL    HW218516   0.536   1.988   7.622 -0.2915 -0.0394 -0.7818
 2352SOL     OW18517   2.527   1.113   2.858 -0.2484 -0.4413  0.7595
 2352SOL    HW118518   2.604   1.115   2.915 -0.1417 -3.3436  0.6853
 2352SOL    HW218519   2.535   1.038   2.799  2.9718  0.1530  0.4747
 2353SOL     OW18520   0.456   1.287  15.468 -0.0478 -0.2994  0.6981
 2353SOL    HW118521   0.516   1.278  15.395 -1.2682  0.3246 -0.3854
 2353SOL    HW218522   0.521   1.281  15.538 -0.4326 -0.4044  1.0516
 2354SOL     OW18523   2.470   0.050   5.508  0.2897 -0.3307  0.0047
 2354SOL    HW118524   2.465   0.112   5.580 -1.7616 -2.7328  1.9337
 2354SOL    HW218525   2.520   0.108   5.452  2.1899 -1.9842 -0.0060
 2355SOL     OW18526   1.392   0.562   4.654 -0.2201  0.0616  0.2058
 2355SOL    HW118527   1.354   0.486   4.698  0.8607  0.2315  1.4377
 2355SOL    HW218528   1.310   0.594   4.618  0.2063 -0.5874 -1.3594
 2356SOL     OW18529   0.593   0.164  16.575 -0.7229  0.5969 -0.1822
 2356SOL    HW118530   0.516   0.164  16.631  0.0812  0.4607  0.9197
 2356SOL    HW218531   0.637   0.241  16.611 -0.6223  0.3126  0.2925
 2357SOL     OW18532   3.026   3.233  12.094  0.2489 -0.2033 -1.0245
 2357SOL    HW118533   3.079   3.153  12.095 -4.6923 -3.4563  0.2112
 2357SOL    HW218534   3.084   3.294  12.049  1.0130  0.2969  0.6300
 2358SOL     OW18535   0.506   3.575   1.045 -0.3822  0.3895 -0.1077
 2358SOL    HW118536   0.429   3.600   0.994  0.6668  0.6533 -1.5654
 2358SOL    HW218537   0.559   3.654   1.047  1.3159 -0.7689  0.5052
 2359SOL     OW18538   2.132   2.472   8.461 -0.0711 -0.2043  0.0910
 2359SOL    HW118539   2.190   2.426   8.401 -0.9058 -0.3859 -0.5774
 2359SOL    HW218540   2.107   2.397   8.516 -1.5690  0.0906 -0.1839
 2360SOL     OW18541   0.754   3.534   5.789 -0.7304  0.0656  0.2308
 2360SOL    HW118542   0.792   3.452   5.755 -1.1387 -0.5890  1.3634
 2360SOL    HW218543   0.677   3.550   5.735  0.0252 -0.0535 -0.8829
 2361SOL     OW18544   4.105   3.221   7.001  0.5115  0.2774  0.3660
 2361SOL    HW118545   4.193   3.192   7.023  0.2966 -1.3761 -0.9436
 2361SOL    HW218546   4.102   3.209   6.906  1.3319 -0.6305  0.4601
 2362SOL     OW18547   1.103   3.329   1.588  0.1453  0.3445 -0.3908
 2362SOL    HW118548   1.028   3.340   1.646 -0.9984 -1.5336 -1.5165
 2362SOL    HW218549   1.133   3.240   1.602 -0.0413  0.5426  1.2344
 2363SOL     OW18550   1.631   2.661   3.407  0.5707  0.1941 -0.2263
 2363SOL    HW118551   1.634   2.587   3.347  0.0332 -1.5077  1.8561
 2363SOL    HW218552   1.573   2.722   3.361  1.5297  0.6419 -0.8416
 2364SOL     OW18553   0.114   2.462   8.827  0.6146  0.4224 -0.6371
 2364SOL    HW118554   0.178   2.408   8.873 -0.1998  1.5018  1.7517
 2364SOL    HW218555   0.169   2.511   8.766  1.7604 -1.2490 -0.9360
 2365SOL     OW18556   3.188   2.005  13.987  0.1936  0.0418  0.1316
 2365SOL    HW118557   3.200   1.947  14.062 -2.6431  0.1347  0.6524
 2365SOL    HW218558   3.124   1.946  13.948 -0.8851 -0.6023  2.8760
 2366SOL     OW18559   0.567   2.430  13.096  0.4863 -0.3072 -0.1771
 2366SOL    HW118560   0.527   2.515  13.078  0.7865  0.1122  1.1600
 2366SOL    HW218561   0.511   2.364  13.054 -0.1990  1.3434 -1.8597
 2367SOL     OW18562   4.315   1.131   4.329  0.1607  0.3041 -0.2472
 2367SOL    HW118563   4.352   1.085   4.253 -1.6835 -2.0085  0.2590
 2367SOL    HW218564   4.292   1.060   4.389 -0.6423  1.9572  1.3689
 2368SOL     OW18565   1.341   1.339   6.502  0.1171 -0.2756 -0.4292
 2368SOL    HW118566   1.394   1.294   6.437 -0.7689 -1.5708 -0.2381
 2368SOL    HW218567   1.258   1.297   6.481  0.2394 -0.3431 -0.7626
 2369SOL     OW18568   0.196   1.126   6.078  0.8868  0.1342  0.5900
 2369SOL    HW118569   0.225   1.206   6.123  1.8449 -0.0558  0.3151
 2369SOL    HW218570   0.169   1.079   6.157 -0.6312 -0.9588 -0.5988
 2370SOL     OW18571   1.980   0.521   7.203  0.5751 -0.5004 -0.3213
 2370SOL    HW118572   1.929   0.602   7.212 -0.4955 -1.1443 -0.5689
 2370SOL    HW218573   1.954   0.483   7.120 -1.2430 -1.1344  0.5306
 2371SOL     OW18574   3.769   1.041   7.514  0.7062  0.3338  0.1850
 2371SOL    HW118575   3.727   1.118   7.551  2.6591 -0.2158  3.4959
 2371SOL    HW218576   3.820   1.005   7.587  2.5934  0.8838 -0.8664
 2372SOL     OW18577   3.653   1.606  16.943 -0.1038 -0.5323  0.3164
 2372SOL    HW118578   3.707   1.531  16.916  1.8843  0.8710  0.4557
 2372SOL    HW218579   3.572   1.564  16.973  0.7039 -0.8464  2.0462
 2373SOL     OW18580   2.758   2.886   3.100  0.1231 -0.4508  0.2208
 2373SOL    HW118581   2.812   2.939   3.158 -2.0651 -0.2354  2.0492
 2373SOL    HW218582   2.828   2.838   3.055  0.7334  1.2899 -0.6958
 2374SOL     OW18583   3.566   3.696  11.839 -0.0828 -0.5469  0.0813
 2374SOL    HW118584   3.588   3.788  11.832  0.2359 -0.5232  1.3136
 2374SOL    HW218585   3.650   3.666  11.874  0.0629 -2.5570 -2.0059
 2375SOL     OW18586   3.100   4.318   1.254 -0.8095  0.4647 -0.5531
 2375SOL    HW118587   3.050   4.397   1.277  0.3666  0.9258  0.3814
 2375SOL    HW218588   3.126   4.290   1.341 -1.3038  0.9138 -0.2562
 2376SOL     OW18589   3.702   3.570   4.910 -0.0911  0.1120 -0.5039
 2376SOL    HW118590   3.617   3.600   4.941  0.3900 -0.6892  1.5705
 2376SOL    HW218591   3.705   3.490   4.963  2.3652  1.4046  1.3005
 2377SOL     OW18592   2.929   2.863  15.186 -0.0730 -0.2000  0.6114
 2377SOL    HW118593   2.979   2.792  15.228  1.4053  0.4892  0.0122
 2377SOL    HW218594   2.946   2.835  15.096  0.3931  1.3618  0.2243
 2378SOL     OW18595   1.285   1.092   4.324 -0.2904 -0.1621  0.0474
 2378SOL    HW118596   1.314   1.006   4.353  0.8012  0.8007  1.8000
 2378SOL    HW218597   1.242   1.064   4.244  1.4572 -0.4226 -0.7992
 2379SOL     OW18598   1.416   4.045   9.422 -0.1460 -0.5273  0.7313
 2379SOL    HW118599   1.408   4.058   9.327  1.6546  0.4492  0.7126
 2379SOL    HW218600   1.347   3.978   9.429 -1.0054  0.2530 -0.0924
 2380SOL     OW18601   0.077   0.012  13.334 -0.2471 -0.1808 -0.8342
 2380SOL    HW118602   4.717   0.049  13.308  0.3084 -0.1117 -2.5592
 2380SOL    HW218603   0.058   4.723  13.427  0.1468  0.7214 -0.6288
 2381SOL     OW18604   3.857   3.865   3.086 -0.3773 -0.0033 -0.3486
 2381SOL    HW118605   3.893   3.857   3.175 -0.3166  1.5378 -0.2403
 2381SOL    HW218606   3.866   3.775   3.054 -1.0732  0.0750 -0.7596
 2382SOL     OW18607   0.130   2.860  14.104 -0.3152  0.5640  0.1304
 2382SOL    HW118608   0.128   2.765  14.117  0.6848  0.8293  2.2095
 2382SOL    HW218609   0.048   2.883  14.148 -0.9465 -1.3970 -0.0229
 2383SOL     OW18610   3.117   3.002  15.627  0.3656  0.1769  0.6999
 2383SOL    HW118611   3.201   3.046  15.619  1.4240 -2.0396 -0.2239
 2383SOL    HW218612   3.094   3.008  15.534 -0.4602  1.3507  0.9776
 2384SOL     OW18613   2.527   0.038   2.974  0.3553  0.7551 -0.2740
 2384SOL    HW118614   2.572   4.679   2.988 -1.0489  0.1137  0.5000
 2384SOL    HW218615   2.599   0.084   2.931  1.4523 -1.1904 -0.4903
 2385SOL     OW18616   4.012   1.829   1.116  0.1658  0.5864  0.0833
 2385SOL    HW118617   4.032   1.765   1.048  1.8674 -0.3826  1.4865
 2385SOL    HW218618   4.016   1.907   1.062  1.1253 -0.4183 -1.2906
 2386SOL     OW18619   3.470   3.825   0.709 -0.4657 -0.7190 -0.1707
 2386SOL    HW118620   3.427   3.860   0.787  1.8090  1.7819 -0.0303
 2386SOL    HW218621   3.548   3.782   0.743  0.4767 -0.3874 -1.9147
 2387SOL     OW18622   0.634   4.433  14.207  0.1056 -0.3641  0.4352
 2387SOL    HW118623   0.691   4.358  14.192  0.2100  0.2039 -2.0007
 2387SOL    HW218624   0.694   4.507  14.196  0.2894 -0.6517 -0.4932
 2388SOL     OW18625   3.175   3.937   3.757 -0.7011 -0.0633 -0.4855
 2388SOL    HW118626   3.202   3.846   3.766 -1.9194 -0.5781 -1.8967
 2388SOL    HW218627   3.114   3.961   3.827  0.6790 -0.2431  0.7794
 2389SOL     OW18628   1.538   1.773   5.154 -0.2267 -0.2910 -0.0868
 2389SOL    HW118629   1.592   1.827   5.211  0.0069  2.4899 -2.9208
 2389SOL    HW218630   1.506   1.710   5.219  1.9608 -1.9088 -0.5263
 2390SOL     OW18631   4.675   4.526   9.110  0.1346 -0.0015  0.0400
 2390SOL    HW118632   0.026   4.468   9.124 -0.2423 -0.9520 -1.9628
 2390SOL    HW218633   4.643   4.507   9.198  0.0865  1.3030  0.3128
 2391SOL     OW18634   3.256   0.785   3.862  0.3224  0.2546  0.3490
 2391SOL    HW118635   3.186   0.725   3.888 -1.5496  1.3987 -1.9552
 2391SOL    HW218636   3.314   0.726   3.813 -1.6538 -0.1290 -1.5462
 2392SOL     OW18637   3.055   3.900   4.186  0.3770 -0.0535  0.1757
 2392SOL    HW118638   3.131   3.919   4.131 -0.4706  0.2897 -0.8784
 2392SOL    HW218639   3.090   3.928   4.271 -4.5246 -0.0131  2.1572
 2393SOL     OW18640   3.020   1.057   6.659  0.0169 -0.3741  0.1578
 2393SOL    HW118641   3.021   1.018   6.746 -0.7581  1.1013  0.8345
 2393SOL    HW218642   2.936   1.025   6.626 -0.8091  1.1849  0.7125
 2394SOL     OW18643   3.532   1.778  11.294 -0.3171 -0.5343  0.5292
 2394SOL    HW118644   3.598   1.748  11.356 -0.4083 -0.0783  0.8495
 2394SOL    HW218645   3.449   1.761  11.340 -1.6588  3.0060 -0.5732
 2395SOL     OW18646   0.233   4.329   8.036 -0.4842  0.8359  0.0233
 2395SOL    HW118647   0.320   4.359   8.064  0.3351 -1.7243  0.2079
 2395SOL    HW218648   0.241   4.279   7.954 -0.4434  0.6260  0.1561
 2396SOL     OW18649   1.402   0.674   6.772 -0.1124  0.1241  0.5156
 2396SOL    HW118650   1.385   0.696   6.680  2.2711  0.8379  0.2449
 2396SOL    HW218651   1.485   0.627   6.765  0.8663  1.8177  0.7330
 2397SOL     OW18652   1.809   2.215   4.069 -0.3850  0.3361  0.3655
 2397SOL    HW118653   1.741   2.198   4.003  3.5516 -0.1177 -3.5308
 2397SOL    HW218654   1.825   2.308   4.056 -0.0769  0.7693  3.8702
 2398SOL     OW18655   1.402   1.939   5.451  0.2777  0.1501 -0.1865
 2398SOL    HW118656   1.409   2.010   5.515  1.7098 -0.1194 -0.0381
 2398SOL    HW218657   1.346   1.979   5.385 -1.5603 -0.6196  0.8935
 2399SOL     OW18658   3.301   2.647   2.102 -0.1735  0.4274  0.1973
 2399SOL    HW118659   3.360   2.639   2.176  0.2939  1.8305 -0.0216
 2399SOL    HW218660   3.217   2.617   2.137 -1.5757  0.7330 -2.8582
 2400SOL     OW18661   3.893   3.950   4.839  0.1651  0.3929  0.2226
 2400SOL    HW118662   3.925   3.867   4.804 -0.4926  0.4765 -0.5846
 2400SOL    HW218663   3.972   3.980   4.885 -1.4165  2.0923  1.8206
 2401SOL     OW18664   0.849   2.025   6.516  0.2156  0.1899  0.3687
 2401SOL    HW118665   0.811   2.073   6.590 -1.4824  1.8634 -1.5759
 2401SOL    HW218666   0.882   2.097   6.463  1.6864 -2.1727 -1.9185
 2402SOL     OW18667   0.547   3.388   0.283 -0.8872  0.1992  0.1434
 2402SOL    HW118668   0.469   3.430   0.321 -1.3028 -0.6858  0.2774
 2402SOL    HW218669   0.567   3.348   0.368 -0.3131 -0.5575 -0.3563
 2403SOL     OW18670   0.024   1.419   5.175  0.1417  0.0242  0.5750
 2403SOL    HW118671   0.052   1.329   5.187  1.4183  0.1740 -1.0923
 2403SOL    HW218672   0.035   1.454   5.263 -2.2002 -2.2978  1.7652
 2404SOL     OW18673   1.455   1.953  10.765 -0.1044 -0.1349  0.4630
 2404SOL    HW118674   1.527   2.016  10.774 -0.5195  0.1473  1.8345
 2404SOL    HW218675   1.485   1.885  10.706 -1.3012 -0.3510  0.1102
 2405SOL     OW18676   4.619   2.168   9.546  0.4894  0.1267  0.0978
 2405SOL    HW118677   4.633   2.248   9.598  1.3242  0.3345 -0.4533
 2405SOL    HW218678   4.648   2.097   9.603 -0.3438  0.2179  0.6443
 2406SOL     OW18679   1.460   3.028   5.489 -0.5081 -0.0353 -0.3105
 2406SOL    HW118680   1.385   3.041   5.547 -0.2489 -0.7035  0.1660
 2406SOL    HW218681   1.516   3.103   5.511  1.0843 -1.2678 -0.1832
 2407SOL     OW18682   1.432   2.818   9.064 -0.1004  0.5111 -0.3711
 2407SOL    HW118683   1.487   2.797   9.140  1.9667  0.0030 -1.9958
 2407SOL    HW218684   1.388   2.898   9.092  0.5621  0.1453  1.7454
 2408SOL     OW18685   3.913   2.460  17.318  0.0691 -0.5139  0.0932
 2408SOL    HW118686   3.858   2.448  17.241 -0.3556  1.6644  0.0609
 2408SOL    HW218687   3.896   2.375  17.360 -0.5325 -0.1380  0.5997
 2409SOL     OW18688   0.206   0.473   2.200  0.1226 -0.3856 -0.2043
 2409SOL    HW118689   0.169   0.391   2.165 -0.0662  0.4862 -2.0530
 2409SOL    HW218690   0.156   0.526   2.139 -0.6302  0.9690  1.6044
 2410SOL     OW18691   2.777   4.102   1.297  0.8124 -0.3536 -0.2122
 2410SOL    HW118692   2.771   4.164   1.224  0.7160  2.2293  2.0076
 2410SOL    HW218693   2.685   4.075   1.295  0.6349  0.2271  0.1212
 2411SOL     OW18694   3.758   3.084  11.042 -0.3918  0.3962  0.0885
 2411SOL    HW118695   3.680   3.052  11.088  0.9514  1.1857  2.9605
 2411SOL    HW218696   3.789   3.007  10.994 -0.6260 -0.0557  0.6597
 2412SOL     OW18697   4.623   1.432   2.634  0.4787 -0.7467  0.3194
 2412SOL    HW118698   4.637   1.356   2.690  0.6710 -1.7772 -1.1066
 2412SOL    HW218699   4.664   1.506   2.680  2.1366 -2.0015  0.8578
 2413SOL     OW18700   0.643   4.259   3.424 -0.5585  0.0541  0.8348
 2413SOL    HW118701   0.564   4.230   3.378 -0.0162  0.1882 -0.1793
 2413SOL    HW218702   0.620   4.341   3.468  0.1303  1.2816 -1.1307
 2414SOL     OW18703   3.234   0.933   7.012  0.0915  0.0399 -0.5401
 2414SOL    HW118704   3.139   0.938   7.002  0.0772  1.3349  0.3294
 2414SOL    HW218705   3.246   0.890   7.096  1.2539 -0.8636 -1.1622
 2415SOL     OW18706   3.489   4.609  13.734 -0.4804 -0.3465 -0.0549
 2415SOL    HW118707   3.538   4.691  13.743 -0.7883 -0.1792  0.1173
 2415SOL    HW218708   3.481   4.585  13.826 -0.0336  2.6376  0.7750
 2416SOL     OW18709   3.299   2.577  15.530 -0.6450  0.2539 -0.6759
 2416SOL    HW118710   3.341   2.635  15.594 -2.1982 -1.8140  2.2514
 2416SOL    HW218711   3.209   2.607  15.524 -1.0370 -1.1734 -1.9285
 2417SOL     OW18712   2.963   1.217  11.364 -0.9630  0.1729 -0.4634
 2417SOL    HW118713   2.906   1.252  11.295 -0.9275 -0.2932 -0.7275
 2417SOL    HW218714   2.919   1.234  11.448 -0.2601  0.4079 -0.1394
 2418SOL     OW18715   3.480   3.230  16.050  0.2722  0.3121  0.3082
 2418SOL    HW118716   3.507   3.197  15.964 -1.2038  0.2841 -0.1323
 2418SOL    HW218717   3.396   3.269  16.027 -0.0474 -1.5621 -1.6909
 2419SOL     OW18718   0.233   3.340   4.983 -0.4054 -0.0375 -0.1318
 2419SOL    HW118719   0.310   3.303   5.027 -0.5617 -0.0608  0.1221
 2419SOL    HW218720   0.214   3.269   4.922  1.0994 -0.7177  0.1780
 2420SOL     OW18721   4.308   4.189   3.283 -0.3321  0.2120  0.5821
 2420SOL    HW118722   4.258   4.259   3.240 -0.1427  0.4467  0.7502
 2420SOL    HW218723   4.247   4.171   3.355 -0.6680 -0.2855  0.1801
 2421SOL     OW18724   3.583   0.423   0.050 -0.1558  0.5772  0.6069
 2421SOL    HW118725   3.611   0.377   0.129  2.9835  0.2628 -0.6715
 2421SOL    HW218726   3.506   0.466   0.086 -0.5095  0.1160  0.4028
 2422SOL     OW18727   2.234   0.997   8.883 -0.3468 -0.0077  0.1621
 2422SOL    HW118728   2.200   0.933   8.820  0.6686 -0.5681  0.1723
 2422SOL    HW218729   2.313   0.962   8.924 -0.2920 -0.4768 -0.3495
 2423SOL     OW18730   3.995   4.578   5.198  0.3355  0.1508 -0.2700
 2423SOL    HW118731   4.060   4.517   5.163  0.3115  0.9027 -1.6447
 2423SOL    HW218732   3.916   4.546   5.155 -0.2543  0.6940  0.4040
 2424SOL     OW18733   3.936   4.428  14.735 -0.2436  0.0667  0.3710
 2424SOL    HW118734   3.953   4.508  14.684 -1.8897 -0.5006 -1.0891
 2424SOL    HW218735   3.936   4.466  14.823 -0.1049 -1.8332  1.1822
 2425SOL     OW18736   2.079   2.641   7.010  0.0398 -0.3226  0.1065
 2425SOL    HW118737   2.030   2.634   6.928 -1.7996  0.0311  1.1868
 2425SOL    HW218738   2.034   2.590   7.078  1.2524 -0.1922  1.0146
 2426SOL     OW18739   0.808   0.881   4.444 -0.6597  0.0185 -0.4092
 2426SOL    HW118740   0.828   0.798   4.400  0.0456  1.1339 -2.1929
 2426SOL    HW218741   0.872   0.885   4.515  1.0993 -0.2625 -1.9478
 2427SOL     OW18742   2.439   1.705   5.810  0.3428  0.1181  0.3366
 2427SOL    HW118743   2.366   1.731   5.865  0.2140  2.6736 -1.0315
 2427SOL    HW218744   2.506   1.705   5.878  1.3660 -0.9598 -0.6707
 2428SOL     OW18745   4.194   4.663   4.838  0.1044 -0.5654 -0.1743
 2428SOL    HW118746   4.233   4.666   4.750  1.1904  3.3797  0.4434
 2428SOL    HW218747   4.108   4.705   4.833  1.1573  1.4010 -1.7417
 2429SOL     OW18748   2.305   0.152   2.733  0.2831 -0.0759 -0.0642
 2429SOL    HW118749   2.221   0.165   2.689 -0.6196 -0.6703  1.4805
 2429SOL    HW218750   2.364   0.130   2.661 -1.8441 -2.4264 -1.0547
 2430SOL     OW18751   0.161   1.553   4.560 -0.2870 -0.2551  0.2722
 2430SOL    HW118752   0.168   1.457   4.563 -0.9461 -0.3028  0.2783
 2430SOL    HW218753   0.081   1.572   4.511 -1.6555 -1.4215  2.0540
 2431SOL     OW18754   3.434   1.315  16.049 -0.1901  0.3109  0.0038
 2431SOL    HW118755   3.433   1.246  16.115  1.2815  0.3225  0.0430
 2431SOL    HW218756   3.366   1.371  16.087  0.5791  2.3125 -1.5494
 2432SOL     OW18757   3.678   2.453  11.096 -0.4074 -0.3057  0.0581
 2432SOL    HW118758   3.740   2.516  11.132 -0.7541  0.1497 -0.1300
 2432SOL    HW218759   3.621   2.501  11.036  0.6719  0.4925 -0.3256
 2433SOL     OW18760   2.830   2.531  16.419 -0.1263 -0.5955 -0.0763
 2433SOL    HW118761   2.764   2.498  16.359 -0.6304 -3.0511  1.8503
 2433SOL    HW218762   2.778   2.594  16.469  1.7877  0.0974  1.0683
 2434SOL     OW18763   4.472   1.529   8.811 -0.3641  0.3034  0.1889
 2434SOL    HW118764   4.433   1.469   8.874 -0.4808  0.9070  0.6833
 2434SOL    HW218765   4.543   1.471   8.783 -0.5974  0.3396 -0.4931
 2435SOL     OW18766   2.624   2.632   3.472 -0.1878 -1.0792  0.4636
 2435SOL    HW118767   2.616   2.642   3.567 -0.1389  0.0936  0.3347
 2435SOL    HW218768   2.713   2.597   3.470  0.0315 -0.5750  1.5961
 2436SOL     OW18769   0.031   2.280   6.125 -0.5575  0.7360 -0.7033
 2436SOL    HW118770   0.020   2.219   6.197  0.6919  1.1130 -0.2048
 2436SOL    HW218771   0.072   2.226   6.058 -1.8847 -0.3298 -0.6592
 2437SOL     OW18772   3.814   0.812   3.647 -0.2192 -0.3668  0.3768
 2437SOL    HW118773   3.801   0.897   3.605 -0.3152 -0.9315 -0.7270
 2437SOL    HW218774   3.908   0.798   3.640 -0.6512 -1.8050 -2.2856
 2438SOL     OW18775   1.327   3.839   2.565  0.0253 -0.3043  0.3729
 2438SOL    HW118776   1.342   3.744   2.567 -0.5161 -0.4029 -0.1702
 2438SOL    HW218777   1.411   3.881   2.583  1.6187 -2.8287 -1.1336
 2439SOL     OW18778   0.337   0.816  10.379 -0.2641  0.1385 -0.0063
 2439SOL    HW118779   0.296   0.902  10.390  2.5176  1.3519  0.7989
 2439SOL    HW218780   0.259   0.767  10.354 -0.6028  1.1572 -0.9713
 2440SOL     OW18781   0.205   2.780  14.536  0.1261  0.2767  0.0549
 2440SOL    HW118782   0.122   2.756  14.576  0.4500 -0.3008  0.3729
 2440SOL    HW218783   0.172   2.862  14.500 -2.1242 -1.0725 -0.9392
 2441SOL     OW18784   0.068   4.513   8.803  0.7270  0.1636  0.0802
 2441SOL    HW118785   0.020   4.450   8.858 -1.4234  2.0067  0.3118
 2441SOL    HW218786   4.716   4.568   8.786  0.8954 -0.2918 -2.0706
 2442SOL     OW18787   1.787   0.924   7.484  0.6512  0.2777  0.0087
 2442SOL    HW118788   1.714   0.985   7.494  0.0971 -0.1100 -1.5830
 2442SOL    HW218789   1.827   0.959   7.405  1.0906 -0.3094 -0.0294
 2443SOL     OW18790   1.623   0.755   1.307  0.2439  1.1994 -0.1895
 2443SOL    HW118791   1.625   0.805   1.388  0.4453  0.4672  0.2572
 2443SOL    HW218792   1.686   0.800   1.250 -0.9211  0.4249 -2.0970
 2444SOL     OW18793   2.321   3.487   8.469  0.0836  0.0753  0.0986
 2444SOL    HW118794   2.258   3.478   8.541 -1.4142  0.5372 -1.1480
 2444SOL    HW218795   2.365   3.569   8.487 -0.4291  0.5419 -0.7652
 2445SOL     OW18796   2.999   1.299   2.309 -0.5360 -0.0297  0.3148
 2445SOL    HW118797   2.917   1.346   2.317  0.3512  1.5406  0.0967
 2445SOL    HW218798   3.066   1.367   2.303  0.9054 -1.7289 -2.9896
 2446SOL     OW18799   3.456   0.637  15.063  0.2711  0.4428 -0.1025
 2446SOL    HW118800   3.547   0.617  15.040  0.2850  0.2392  0.1343
 2446SOL    HW218801   3.411   0.597  14.988 -0.1144  1.6151 -0.5017
 2447SOL     OW18802   0.822   1.249   3.583 -0.1167 -0.1706  0.6616
 2447SOL    HW118803   0.740   1.207   3.608 -1.0844  1.4623  0.1660
 2447SOL    HW218804   0.875   1.226   3.660 -0.6027 -2.0529  0.4255
 2448SOL     OW18805   3.220   2.659   2.687 -0.1975  0.1547 -0.3691
 2448SOL    HW118806   3.158   2.625   2.622 -0.0285 -1.9431  0.5610
 2448SOL    HW218807   3.209   2.753   2.677  1.3521  0.4530  0.7093
 2449SOL     OW18808   2.787   4.382  16.907  0.5050  0.3424 -0.2636
 2449SOL    HW118809   2.843   4.459  16.895  0.6187  0.6542  2.3061
 2449SOL    HW218810   2.818   4.353  16.992 -3.1274 -1.4523  0.4382
 2450SOL     OW18811   3.449   1.274   7.390  0.5346  0.6977 -0.4847
 2450SOL    HW118812   3.389   1.293   7.318  0.0212  0.2480 -0.1771
 2450SOL    HW218813   3.478   1.189   7.357 -1.9137 -0.7526  1.0317
 2451SOL     OW18814   0.797   1.525  12.798 -0.1007 -0.3192  0.1330
 2451SOL    HW118815   0.844   1.500  12.719 -0.3730  0.0329 -0.1387
 2451SOL    HW218816   0.826   1.458  12.860  1.1368 -1.6893 -1.9261
 2452SOL     OW18817   1.434   3.138  16.073  0.5608 -0.4592 -0.1165
 2452SOL    HW118818   1.489   3.105  16.002 -0.7284 -1.1849 -0.7870
 2452SOL    HW218819   1.397   3.055  16.103 -2.5693  0.8571 -0.3649
 2453SOL     OW18820   2.014   3.031   6.650 -0.0571 -0.3273  0.2805
 2453SOL    HW118821   1.944   3.038   6.715 -1.3037  1.1973 -1.2275
 2453SOL    HW218822   2.051   3.120   6.653 -0.1474 -0.2842  0.0978
 2454SOL     OW18823   3.950   2.872  12.017 -0.8365  0.4974 -0.7204
 2454SOL    HW118824   3.902   2.931  12.075 -0.2071  1.4223 -1.1497
 2454SOL    HW218825   3.938   2.788  12.063  1.1457 -0.7511 -2.5139
 2455SOL     OW18826   2.138   4.124  17.415  0.2290  0.3007  0.1130
 2455SOL    HW118827   2.060   4.081  17.451  0.7806 -0.6222  0.2310
 2455SOL    HW218828   2.146   4.202  17.469  0.0019  0.9276 -0.7760
 2456SOL     OW18829   0.078   4.535  15.139  1.0089 -0.1184 -0.5178
 2456SOL    HW118830   0.121   4.529  15.054  1.1791 -1.0708 -0.3654
 2456SOL    HW218831   0.135   4.486  15.198  0.2703 -0.0793  0.2419
 2457SOL     OW18832   2.018   1.404   8.165  0.1539  0.5294  0.5860
 2457SOL    HW118833   1.968   1.443   8.093  0.1451  0.4507  0.5488
 2457SOL    HW218834   2.109   1.422   8.144 -0.3084  0.9946 -1.0039
 2458SOL     OW18835   1.248   2.046  12.861 -0.3018 -0.1911  0.2049
 2458SOL    HW118836   1.256   1.954  12.885  0.5452 -0.2119 -0.1553
 2458SOL    HW218837   1.188   2.045  12.787 -0.2808  0.0858  0.1830
 2459SOL     OW18838   0.087   3.014   2.649  0.1568 -0.2397  0.0523
 2459SOL    HW118839   0.083   3.028   2.555 -0.4047 -1.2088 -0.0627
 2459SOL    HW218840   0.180   2.997   2.665  0.2586 -0.2160 -0.5197
 2460SOL     OW18841   0.063   3.856  15.649  0.1702 -0.0969  0.2884
 2460SOL    HW118842   0.007   3.905  15.710 -1.0919  0.4912 -1.3304
 2460SOL    HW218843   0.026   3.770  15.666 -1.2045  0.2642 -0.8755
 2461SOL     OW18844   2.117   2.240   2.866 -0.1334  0.2248  0.5340
 2461SOL    HW118845   2.121   2.162   2.921 -1.6501 -1.1007 -1.2311
 2461SOL    HW218846   2.044   2.296   2.893 -1.3131 -0.6845 -0.7752
 2462SOL     OW18847   2.694   0.926   3.879  0.0910  0.4403  0.2051
 2462SOL    HW118848   2.636   0.916   3.804 -1.0509 -0.7290  1.2469
 2462SOL    HW218849   2.677   0.839   3.914 -2.4512  0.7164 -0.3624
 2463SOL     OW18850   1.692   3.606   4.284 -0.0779  0.2445  0.0625
 2463SOL    HW118851   1.735   3.533   4.329  2.0644  1.7784  0.4822
 2463SOL    HW218852   1.643   3.557   4.218  1.7393 -1.8667  0.2683
 2464SOL     OW18853   4.621   1.792   5.898  0.1302 -0.1072 -0.1465
 2464SOL    HW118854   4.564   1.775   5.974  0.8149 -1.4123  0.0694
 2464SOL    HW218855   4.701   1.754   5.933 -2.1641 -2.9636  2.0288
 2465SOL     OW18856   0.295   2.619   3.148  0.1270 -1.0841 -0.2232
 2465SOL    HW118857   0.209   2.635   3.109 -0.6034  0.0411  1.8698
 2465SOL    HW218858   0.346   2.587   3.073  1.8225  1.0063  0.0354
 2466SOL     OW18859   0.272   0.683   1.699  0.5414 -0.6094 -0.0723
 2466SOL    HW118860   0.219   0.620   1.650  0.6196  0.7373 -1.8783
 2466SOL    HW218861   0.334   0.625   1.744  1.1490  0.6799  0.7563
 2467SOL     OW18862   3.918   1.374   7.253 -0.1339  0.0306 -0.1330
 2467SOL    HW118863   3.917   1.278   7.249  0.7484  0.0232 -0.2378
 2467SOL    HW218864   3.871   1.388   7.335  0.8134  0.2527  0.3696
 2468SOL     OW18865   1.522   2.769   4.877  0.1143 -0.1898  0.2063
 2468SOL    HW118866   1.442   2.797   4.833  0.6295 -0.8311 -1.1027
 2468SOL    HW218867   1.594   2.820   4.840  0.8323 -1.7352 -0.4998
 2469SOL     OW18868   3.429   4.224   4.829  0.5291  0.1220 -0.0773
 2469SOL    HW118869   3.491   4.158   4.859  0.7284 -1.3947 -3.8443
 2469SOL    HW218870   3.488   4.288   4.789 -0.4542  0.5251 -0.8918
 2470SOL     OW18871   0.456   1.506   7.957 -0.0226 -0.1493 -0.5037
 2470SOL    HW118872   0.486   1.564   7.886 -1.1583 -0.7091 -1.4544
 2470SOL    HW218873   0.377   1.554   7.984 -0.1415 -0.8059  0.3178
 2471SOL     OW18874   1.763   0.164  12.722  0.2542 -0.0210  0.3517
 2471SOL    HW118875   1.755   0.107  12.645 -1.7962  0.3774  0.2577
 2471SOL    HW218876   1.802   0.243  12.686 -1.3737  0.3879 -0.5235
 2472SOL     OW18877   4.075   2.823   8.660 -0.8708 -0.1432 -0.2647
 2472SOL    HW118878   4.046   2.752   8.602 -1.7067  0.1323 -0.1864
 2472SOL    HW218879   4.019   2.807   8.736 -0.1921  3.0524  0.8786
 2473SOL     OW18880   3.652   4.009   4.725 -0.6435  0.2299  0.6312
 2473SOL    HW118881   3.735   3.977   4.762  0.0430  0.4684 -0.6973
 2473SOL    HW218882   3.607   3.932   4.689  1.8664 -0.7687 -0.4053
 2474SOL     OW18883   3.128   2.929  16.713  0.0275  0.4704  0.1353
 2474SOL    HW118884   3.219   2.930  16.743  0.9276 -1.4652 -2.4551
 2474SOL    HW218885   3.087   2.968  16.790 -0.3932  3.1616 -1.4550
 2475SOL     OW18886   2.667   0.268  12.400 -0.5838  0.1649  0.8676
 2475SOL    HW118887   2.687   0.357  12.373  1.8293 -0.7586 -0.3903
 2475SOL    HW218888   2.689   0.215  12.324 -2.4939  1.8433 -0.8115
 2476SOL     OW18889   3.737   1.096  13.463  0.3571 -0.0555 -0.1400
 2476SOL    HW118890   3.761   1.028  13.526 -0.0776  0.2453  0.3418
 2476SOL    HW218891   3.823   1.097  13.420  0.2031  0.8671 -0.4136
 2477SOL     OW18892   4.474   2.659   3.128  0.2014 -0.0805 -0.4542
 2477SOL    HW118893   4.443   2.677   3.217 -0.4552  0.1282 -0.7286
 2477SOL    HW218894   4.396   2.683   3.078  1.7541  0.8360 -2.4523
 2478SOL     OW18895   3.053   1.755   1.253  0.3527 -0.0137  0.1438
 2478SOL    HW118896   3.089   1.749   1.164  2.1994 -0.9941  0.9622
 2478SOL    HW218897   2.992   1.683   1.233  0.5938 -0.0950 -0.3022
 2479SOL     OW18898   1.708   0.694   2.094 -0.2547 -0.4337  0.4052
 2479SOL    HW118899   1.644   0.762   2.073  0.3644 -0.1495 -0.5973
 2479SOL    HW218900   1.740   0.664   2.009 -0.7224  0.5823 -0.1368
 2480SOL     OW18901   1.123   2.224   2.899  0.0394 -0.1606 -0.1676
 2480SOL    HW118902   1.037   2.240   2.937  0.3277 -0.5222  0.6546
 2480SOL    HW218903   1.152   2.153   2.957 -2.2194  0.0019  1.1588
 2481SOL     OW18904   3.278   2.673   5.166  0.4124 -0.1933 -0.2495
 2481SOL    HW118905   3.363   2.636   5.193  1.9011  2.9342 -0.6396
 2481SOL    HW218906   3.245   2.589   5.135  0.7088 -0.4177  0.0363
 2482SOL     OW18907   4.177   1.127   2.540  0.3876 -0.2470  0.6856
 2482SOL    HW118908   4.149   1.044   2.579  0.7414 -1.1678 -1.0036
 2482SOL    HW218909   4.108   1.130   2.474  1.3408  0.8246 -0.2580
 2483SOL     OW18910   4.350   1.285  16.023 -0.0970  0.0818 -0.0334
 2483SOL    HW118911   4.427   1.342  16.024 -0.9721  1.2529  1.0042
 2483SOL    HW218912   4.370   1.235  16.102  1.4056  1.8325  0.7120
 2484SOL     OW18913   0.080   4.069  10.339 -0.0898 -0.2423 -0.7231
 2484SOL    HW118914   0.048   3.979  10.352  4.0787 -1.6535 -0.3464
 2484SOL    HW218915   0.064   4.118  10.419  0.2063 -1.0709 -0.1518
 2485SOL     OW18916   4.117   0.736   6.707 -0.5089  0.1044 -0.0812
 2485SOL    HW118917   4.200   0.703   6.673 -1.0164 -1.7633  0.5123
 2485SOL    HW218918   4.070   0.790   6.643  0.9661  0.8567 -0.5210
 2486SOL     OW18919   1.296   1.140   5.350  0.1235 -0.2738  0.3045
 2486SOL    HW118920   1.261   1.228   5.362 -0.9295 -0.6412 -0.0139
 2486SOL    HW218921   1.387   1.158   5.328  0.3840 -1.8581  0.0558
 2487SOL     OW18922   1.575   4.707   1.839 -0.2094 -0.1994  0.1455
 2487SOL    HW118923   1.530   0.050   1.787  0.4557 -1.2106 -1.7331
 2487SOL    HW218924   1.524   4.629   1.816 -0.1427 -0.1484 -0.1860
 2488SOL     OW18925   1.550   0.742   7.739 -0.5148 -1.0077 -0.0174
 2488SOL    HW118926   1.468   0.731   7.787  0.3338 -0.7058  1.4959
 2488SOL    HW218927   1.533   0.814   7.679  2.6699  0.7051  1.1680
 2489SOL     OW18928   3.154   1.768  14.706  0.0861  0.8777  0.2442
 2489SOL    HW118929   3.139   1.719  14.787  0.5813 -1.6465 -1.1972
 2489SOL    HW218930   3.245   1.744  14.689 -0.5432 -1.5840  0.3844
 2490SOL     OW18931   4.035   3.922  17.523  0.3528  0.2321 -0.2962
 2490SOL    HW118932   4.111   3.965  17.563  1.5221 -1.8956 -0.2553
 2490SOL    HW218933   3.963   3.968  17.567  0.9187  0.1414  0.7165
 2491SOL     OW18934   1.757   3.450   0.150 -0.3452  0.3044 -0.1005
 2491SOL    HW118935   1.724   3.478   0.064 -0.1463 -2.1337 -0.9822
 2491SOL    HW218936   1.812   3.374   0.131 -0.9155 -0.2418  0.4548
 2492SOL     OW18937   3.641   4.452   8.328 -0.0299  0.2778 -0.3065
 2492SOL    HW118938   3.633   4.408   8.412  2.4534  1.4237  0.5239
 2492SOL    HW218939   3.549   4.463   8.305  0.2071  1.1039 -0.8764
 2493SOL     OW18940   1.143   0.846   2.193  0.3922 -0.2825 -0.2735
 2493SOL    HW118941   1.215   0.795   2.232 -0.5287 -2.2310 -1.1212
 2493SOL    HW218942   1.109   0.779   2.134  1.4402 -2.3700  1.4491
 2494SOL     OW18943   4.666   0.518  10.870  0.4017  0.3072  0.2371
 2494SOL    HW118944   4.600   0.587  10.864  1.1286  0.7596 -2.5430
 2494SOL    HW218945   0.013   0.566  10.912 -0.3378  1.0585  0.6400
 2495SOL     OW18946   4.598   1.870   2.260  0.7353  0.3916 -0.0395
 2495SOL    HW118947   4.625   1.879   2.168 -2.4282 -1.2406 -1.1139
 2495SOL    HW218948   4.648   1.792   2.283 -0.8328 -0.6987 -0.2995
 2496SOL     OW18949   0.522   1.864  17.238 -0.2372 -0.1521  0.3711
 2496SOL    HW118950   0.441   1.836  17.281 -1.0388  2.3936  0.5094
 2496SOL    HW218951   0.493   1.952  17.213 -0.3430 -0.0552  0.8345
 2497SOL     OW18952   0.673   0.793  12.281  0.3950  0.2104  0.1219
 2497SOL    HW118953   0.665   0.823  12.372  3.7387 -1.8540  1.1007
 2497SOL    HW218954   0.767   0.796  12.265 -0.0701 -0.8058 -2.7645
 2498SOL     OW18955   3.566   1.197   3.424  0.6414 -0.6780  0.0322
 2498SOL    HW118956   3.563   1.287   3.391  1.7224 -0.8563 -0.5534
 2498SOL    HW218957   3.511   1.200   3.502  1.2572 -0.7031  0.4661
 2499SOL     OW18958   2.808   2.617   8.387  0.4439 -0.1206  0.1164
 2499SOL    HW118959   2.747   2.588   8.456  0.0493 -1.4092 -0.7703
 2499SOL    HW218960   2.892   2.624   8.432  0.9262  0.5148 -0.8862
 2500SOL     OW18961   0.821   0.387   4.184 -0.3047  0.5426 -0.2346
 2500SOL    HW118962   0.757   0.380   4.255  0.5714 -2.3006  0.2527
 2500SOL    HW218963   0.879   0.329   4.233 -0.1525  0.8759 -0.0229
 2501SOL     OW18964   1.197   1.996   7.633 -0.1115 -0.7163  0.1346
 2501SOL    HW118965   1.262   1.932   7.662  0.0076 -0.9450 -0.6162
 2501SOL    HW218966   1.211   2.063   7.700  2.5390 -0.4955 -0.6373
 2502SOL     OW18967   4.424   2.973   3.896  0.3623  0.3007  0.0138
 2502SOL    HW118968   4.398   3.062   3.877 -0.9990  0.0540  0.7431
 2502SOL    HW218969   4.516   2.985   3.918  0.0987 -1.2454  1.9663
 2503SOL     OW18970   3.143   2.215   5.698  0.1481  0.1482 -0.1281
 2503SOL    HW118971   3.055   2.180   5.711  0.3623 -0.2554  0.2313
 2503SOL    HW218972   3.193   2.136   5.680 -0.4195 -0.3298  0.4059
 2504SOL     OW18973   0.802   4.533  14.999 -0.5352  0.1428 -0.2968
 2504SOL    HW118974   0.821   4.450  15.043 -2.3157 -0.6084 -0.9240
 2504SOL    HW218975   0.709   4.518  14.981 -0.4172  0.4143 -1.1306
 2505SOL     OW18976   0.321   4.030  10.208  0.3347  0.0220  0.2086
 2505SOL    HW118977   0.366   4.107  10.173  1.7606 -1.4906 -1.2674
 2505SOL    HW218978   0.234   4.066  10.228 -0.4602 -1.1770 -1.0354
 2506SOL     OW18979   4.383   0.281   4.717 -0.5303 -0.4218 -0.1528
 2506SOL    HW118980   4.325   0.292   4.792 -2.5453 -2.1608 -1.4845
 2506SOL    HW218981   4.344   0.199   4.687  0.9769 -1.1658 -0.0647
 2507SOL     OW18982   2.644   1.135  14.010 -0.4548  0.5638  0.5321
 2507SOL    HW118983   2.622   1.065  13.947  2.7456  1.5202 -1.6844
 2507SOL    HW218984   2.568   1.191  13.998 -1.4122 -0.4687  1.7622
 2508SOL     OW18985   2.720   2.787   3.943 -0.7356 -0.1501  0.3010
 2508SOL    HW118986   2.703   2.881   3.944 -0.3521 -0.0910  1.7309
 2508SOL    HW218987   2.814   2.783   3.960 -0.4860  3.2599 -0.3431
 2509SOL     OW18988   0.195   2.328  10.238  0.4244 -0.3182 -0.0814
 2509SOL    HW118989   0.176   2.237  10.262 -0.8900 -0.3585 -1.2775
 2509SOL    HW218990   0.111   2.369  10.257  0.2214 -0.5014 -0.5884
 2510SOL     OW18991   3.725   1.472   7.466 -0.4203 -0.3641 -0.4574
 2510SOL    HW118992   3.712   1.567   7.475  1.0311 -0.4927  2.9824
 2510SOL    HW218993   3.651   1.449   7.410 -1.3276 -0.9053  0.9630
 2511SOL     OW18994   2.114   2.017  13.636  0.1488 -0.3852 -0.6755
 2511SOL    HW118995   2.186   2.040  13.695 -0.7239 -0.8139  0.5663
 2511SOL    HW218996   2.075   1.950  13.693 -1.8346  0.2813 -1.2392
 2512SOL     OW18997   4.243   3.214   2.370 -0.2810  0.7617  0.1917
 2512SOL    HW118998   4.285   3.278   2.427  2.8684 -0.5980 -0.5947
 2512SOL    HW218999   4.260   3.128   2.408  1.0899  1.0065  0.1242
 2513SOL     OW19000   2.661   4.648   4.801  0.0235 -0.0083  0.7930
 2513SOL    HW119001   2.724   4.579   4.778  0.3177  0.1972  0.9765
 2513SOL    HW219002   2.579   4.604   4.821  0.6119 -1.0359  0.9558
 2514SOL     OW19003   3.068   0.232  16.280  0.1606  0.0078  0.5022
 2514SOL    HW119004   2.998   0.226  16.215  0.8568 -1.8729 -0.1157
 2514SOL    HW219005   3.018   0.269  16.352  2.0854  0.0722  1.8152
 2515SOL     OW19006   3.572   4.298   1.749  0.1720  0.1112 -0.2692
 2515SOL    HW119007   3.525   4.348   1.683 -0.0235 -1.5854 -1.3928
 2515SOL    HW219008   3.537   4.342   1.827 -1.2969  1.4774 -1.7015
 2516SOL     OW19009   2.061   0.427   2.213  0.2481  0.3723 -0.2101
 2516SOL    HW119010   2.032   0.515   2.237 -1.3494  0.2017 -1.5139
 2516SOL    HW219011   2.020   0.376   2.283 -0.5995  0.9872 -0.2544
 2517SOL     OW19012   0.437   3.099   0.515 -0.3598 -0.1005  0.3345
 2517SOL    HW119013   0.379   3.160   0.469  0.8661  0.7679 -0.0629
 2517SOL    HW219014   0.375   3.030   0.536  0.1547 -0.2641  1.3407
 2518SOL     OW19015   3.578   4.385   7.924  0.2684  0.2451  0.6593
 2518SOL    HW119016   3.523   4.457   7.956  0.0319 -0.0970  1.0177
 2518SOL    HW219017   3.639   4.437   7.872  0.0704  0.1934  0.3753
 2519SOL     OW19018   0.217   2.936   4.055  0.0747  0.2065  0.1563
 2519SOL    HW119019   0.158   2.904   4.123  1.2005 -1.2492  0.4660
 2519SOL    HW219020   0.176   2.878   3.990  1.1737 -0.8689  0.4188
 2520SOL     OW19021   2.372   2.692   4.348  0.7578  0.2401 -0.5961
 2520SOL    HW119022   2.338   2.732   4.428 -0.2184 -0.4014 -0.6902
 2520SOL    HW219023   2.455   2.660   4.384  0.7238  1.4982  0.6077
 2521SOL     OW19024   0.629   0.092   3.228  0.3781  0.4182 -0.0725
 2521SOL    HW119025   0.715   0.092   3.185  1.2192  0.2186  1.6212
 2521SOL    HW219026   0.591   0.170   3.186  1.2734  1.0636  0.3293
 2522SOL     OW19027   1.201   1.829   5.624 -0.3449  0.3258  0.2434
 2522SOL    HW119028   1.145   1.906   5.638  0.7876  1.4503 -1.3435
 2522SOL    HW219029   1.288   1.860   5.650 -1.0109  1.1779  1.4609
 2523SOL     OW19030   3.094   4.622   7.428  0.5741 -0.0600  0.4577
 2523SOL    HW119031   3.105   4.550   7.491  1.7139 -1.7536 -1.6485
 2523SOL    HW219032   3.181   4.638   7.391 -0.4496  2.0872 -1.0069
 2524SOL     OW19033   0.096   4.149   6.134 -0.3446  0.0443  0.2977
 2524SOL    HW119034   0.123   4.093   6.206 -0.7995  0.3521  0.7123
 2524SOL    HW219035   0.032   4.203   6.180  0.6638  1.1910  0.3573
 2525SOL     OW19036   4.587   4.164   1.838 -0.0260 -0.5692 -0.6031
 2525SOL    HW119037   4.534   4.175   1.917  2.7018  0.5638  1.0409
 2525SOL    HW219038   4.572   4.073   1.812  1.2938 -0.6996 -0.9011
 2526SOL     OW19039   1.182   2.154   8.042  0.2776  0.0318 -0.4352
 2526SOL    HW119040   1.133   2.236   8.040  0.2101 -0.0178 -0.8143
 2526SOL    HW219041   1.225   2.147   7.957 -2.5574 -2.0568 -1.6891
 2527SOL     OW19042   2.679   3.300   3.971  0.1811  0.4224  0.6729
 2527SOL    HW119043   2.624   3.351   3.912  2.1857  1.6846 -0.1108
 2527SOL    HW219044   2.640   3.321   4.056  0.2083 -0.9484  1.0198
 2528SOL     OW19045   2.744   3.186  12.273 -0.1039  0.3652 -0.1512
 2528SOL    HW119046   2.833   3.210  12.247 -0.4993  0.2596 -1.6096
 2528SOL    HW219047   2.760   3.152  12.361  0.5105 -1.0809 -0.8334
 2529SOL     OW19048   1.854   1.937  13.156  0.4926  0.4145 -0.0880
 2529SOL    HW119049   1.939   1.968  13.189  0.7900 -0.1506 -0.3090
 2529SOL    HW219050   1.800   2.015  13.147 -1.2246 -0.8341 -0.5713
 2530SOL     OW19051   4.492   0.031   2.257 -0.8344 -0.2271  0.5617
 2530SOL    HW119052   4.398   0.017   2.246 -1.3249  2.8655  0.8002
 2530SOL    HW219053   4.526   0.015   2.169 -0.6785  0.0978  0.5641
 2531SOL     OW19054   4.341   4.144   5.537 -0.3816  0.3372  0.2713
 2531SOL    HW119055   4.384   4.226   5.512  0.8661  0.2280  2.0500
 2531SOL    HW219056   4.262   4.148   5.484 -1.0295 -1.4023  1.1214
 2532SOL     OW19057   1.164   4.327   3.642  0.0147  0.1830  0.0250
 2532SOL    HW119058   1.075   4.355   3.618  0.2347  1.0481  0.2280
 2532SOL    HW219059   1.223   4.389   3.599 -0.2205  1.2419  1.2319
 2533SOL     OW19060   0.346   0.029   6.984  0.0259  0.5224  0.1319
 2533SOL    HW119061   0.377   0.107   7.030  2.6469 -0.1430 -0.5307
 2533SOL    HW219062   0.252   0.036   7.003  0.2680 -0.7239  1.7114
 2534SOL     OW19063   3.099   1.134   4.055 -0.4770  0.1057 -0.1773
 2534SOL    HW119064   3.042   1.110   3.982  2.2716  0.3170 -2.3862
 2534SOL    HW219065   3.046   1.109   4.131  0.6170  0.7269  0.7857
 2535SOL     OW19066   0.103   2.509   7.283  0.0923 -0.0963 -0.0985
 2535SOL    HW119067   0.022   2.466   7.313 -0.0904  1.1339  1.1538
 2535SOL    HW219068   0.141   2.538   7.366  2.4971  0.1936 -1.3134
 2536SOL     OW19069   1.123   1.728   6.693  0.3215 -0.1444 -0.1337
 2536SOL    HW119070   1.199   1.670   6.688  0.7290  0.3982 -0.3010
 2536SOL    HW219071   1.070   1.704   6.617 -0.2868 -0.0246  0.2569
 2537SOL     OW19072   3.697   3.538  13.143 -0.1467 -0.1024  0.6702
 2537SOL    HW119073   3.765   3.479  13.177  2.2639  0.4927 -3.1426
 2537SOL    HW219074   3.656   3.563  13.226 -0.7912  0.5854  0.1336
 2538SOL     OW19075   3.909   3.441   1.616  0.4340 -0.2193 -0.2543
 2538SOL    HW119076   3.914   3.518   1.672 -1.3297  0.1883 -0.6742
 2538SOL    HW219077   3.848   3.385   1.664 -0.4806  0.6334 -0.4420
 2539SOL     OW19078   1.418   3.266   3.257  0.1535  0.0424 -0.3335
 2539SOL    HW119079   1.343   3.326   3.254 -0.8605 -1.3116 -2.0627
 2539SOL    HW219080   1.483   3.313   3.308  0.7770  0.2583 -1.3223
 2540SOL     OW19081   3.847   1.655   0.469 -0.2965 -0.0122  0.0969
 2540SOL    HW119082   3.774   1.637   0.528  0.3684 -1.1661  0.5715
 2540SOL    HW219083   3.877   1.738   0.505  3.0794 -1.0570 -0.2968
 2541SOL     OW19084   4.390   0.091   7.046  0.0327 -0.5727  0.3109
 2541SOL    HW119085   4.319   0.140   7.087  0.2091 -2.0516  2.3720
 2541SOL    HW219086   4.338   0.010   7.039  0.5671 -0.5662 -3.6603
 2542SOL     OW19087   3.986   3.957  10.472  0.2314 -0.1149  0.1070
 2542SOL    HW119088   4.066   4.007  10.462 -0.4168  0.6564 -1.2223
 2542SOL    HW219089   4.019   3.875  10.507 -0.0125  1.0134  3.0096
 2543SOL     OW19090   0.390   3.854   3.275 -0.1813 -0.2478  0.1530
 2543SOL    HW119091   0.483   3.852   3.299 -0.0066  2.2743 -0.2749
 2543SOL    HW219092   0.355   3.779   3.322  2.0131 -0.7189  1.0512
 2544SOL     OW19093   2.226   3.379   2.022 -0.1637 -0.1772 -0.2628
 2544SOL    HW119094   2.254   3.470   2.035  1.2216 -0.5864 -0.3540
 2544SOL    HW219095   2.225   3.352   2.113 -0.6391 -2.4150 -0.9443
 2545SOL     OW19096   2.630   1.839   7.424 -0.0238  0.1946 -0.2194
 2545SOL    HW119097   2.552   1.857   7.477  1.8016 -0.6635  2.7306
 2545SOL    HW219098   2.622   1.920   7.373 -2.3938 -0.1383 -0.3680
 2546SOL     OW19099   4.199   2.288  10.953 -0.8466  0.5799 -0.2844
 2546SOL    HW119100   4.295   2.291  10.956 -0.7560 -2.5793 -0.8255
 2546SOL    HW219101   4.191   2.372  10.907  0.5126 -0.3614 -2.2418
 2547SOL     OW19102   4.004   1.887   7.318 -0.6757  0.4689  0.0953
 2547SOL    HW119103   3.996   1.868   7.224  1.8373 -1.3049  0.2239
 2547SOL    HW219104   3.992   1.798   7.353  0.1898 -0.0760 -0.9767
 2548SOL     OW19105   4.160   2.533  10.831 -0.5206  0.3080 -0.2165
 2548SOL    HW119106   4.133   2.612  10.783 -1.6541 -0.5402 -0.9872
 2548SOL    HW219107   4.234   2.572  10.877 -0.2409  2.2336 -2.3097
 2549SOL     OW19108   1.206   3.825  10.430  0.1164 -0.1750  0.3751
 2549SOL    HW119109   1.241   3.874  10.355  1.3928  2.2724  2.5663
 2549SOL    HW219110   1.140   3.767  10.390  1.4255 -0.3596 -1.5196
 2550SOL     OW19111   4.381   2.297   7.561 -0.5485  0.5213 -0.3468
 2550SOL    HW119112   4.427   2.213   7.566 -1.6254  0.0077  0.7576
 2550SOL    HW219113   4.320   2.275   7.491  0.2655  1.1521 -1.2446
 2551SOL     OW19114   0.499   3.137   6.227  0.7910  0.4194  0.0595
 2551SOL    HW119115   0.406   3.160   6.225  0.9263  0.9826  0.3034
 2551SOL    HW219116   0.534   3.162   6.312  1.3614  0.2532 -0.1246
 2552SOL     OW19117   4.639   2.794   4.554  0.4685  0.3593  0.0412
 2552SOL    HW119118   4.692   2.717   4.576 -0.2960 -0.3592 -0.6587
 2552SOL    HW219119   4.698   2.868   4.571  1.4623  0.4197 -3.6440
 2553SOL     OW19120   1.405   0.603   2.560 -0.1475 -0.0637 -0.2803
 2553SOL    HW119121   1.418   0.646   2.645 -2.1727  0.5592 -0.2811
 2553SOL    HW219122   1.467   0.531   2.553 -1.0358 -0.8411 -0.1486
 2554SOL     OW19123   1.412   2.475  16.311  0.1593 -0.3920 -0.2900
 2554SOL    HW119124   1.482   2.518  16.359 -0.6195 -0.9086  1.3290
 2554SOL    HW219125   1.454   2.492  16.227 -0.7208  0.3957 -0.5723
 2555SOL     OW19126   1.807   3.727   8.975 -0.4416  0.1562  0.1280
 2555SOL    HW119127   1.893   3.723   9.016 -0.3755 -0.9693 -0.1288
 2555SOL    HW219128   1.832   3.769   8.892  0.3727  0.3863  0.4869
 2556SOL     OW19129   1.984   3.425   9.191  0.4298  0.5067 -0.1566
 2556SOL    HW119130   1.973   3.338   9.227 -1.1864  0.6440 -0.3444
 2556SOL    HW219131   1.894   3.443   9.166  0.4508  0.0125 -0.5883
 2557SOL     OW19132   3.658   2.307  14.309  0.4048 -0.2884  0.2437
 2557SOL    HW119133   3.603   2.229  14.315 -1.4776  1.0051 -0.2465
 2557SOL    HW219134   3.732   2.275  14.361  1.1031  2.0065  0.6814
 2558SOL     OW19135   2.247   2.369   3.808 -0.3443  0.4998 -0.2858
 2558SOL    HW119136   2.208   2.283   3.792  0.4286  0.0293  0.3621
 2558SOL    HW219137   2.341   2.353   3.800 -0.4048  0.0242 -0.0455
 2559SOL     OW19138   1.807   2.330   4.970  0.2350 -0.2603 -0.0275
 2559SOL    HW119139   1.731   2.352   4.916  0.1663 -1.0411 -0.2423
 2559SOL    HW219140   1.805   2.378   5.053  0.7160 -0.3412  0.0267
 2560SOL     OW19141   2.938   1.700   5.479  0.0884 -0.5355 -0.0654
 2560SOL    HW119142   2.876   1.752   5.530 -1.4523 -0.7604 -1.7378
 2560SOL    HW219143   2.907   1.706   5.389 -2.2553  0.0304  0.8008
 2561SOL     OW19144   3.423   1.995   5.862 -0.1691  0.0738  0.0475
 2561SOL    HW119145   3.375   1.952   5.932  0.0737  2.0773  1.4389
 2561SOL    HW219146   3.418   2.088   5.884  3.1762  0.4355 -0.6609
 2562SOL     OW19147   0.380   0.208   3.677  0.2214  0.4519 -0.1260
 2562SOL    HW119148   0.441   0.218   3.604  0.7081  0.2064  0.2392
 2562SOL    HW219149   0.366   0.302   3.676  1.8062  0.6755 -1.9788
 2563SOL     OW19150   0.407   2.080  17.145  0.5813  1.0141 -0.2230
 2563SOL    HW119151   0.311   2.074  17.143  0.4853  2.4196  0.7815
 2563SOL    HW219152   0.433   2.083  17.053  0.3100  0.1079 -0.3377
 2564SOL     OW19153   0.910   3.919   2.220  0.5511  1.0187 -0.0996
 2564SOL    HW119154   0.819   3.895   2.240  1.3265 -0.9359  1.0790
 2564SOL    HW219155   0.956   3.899   2.301  1.5799  0.4603 -0.8231
 2565SOL     OW19156   0.065   0.060   9.065  0.1537  0.5845 -0.1314
 2565SOL    HW119157   4.723   4.715   9.072  3.2338 -2.2050  1.6031
 2565SOL    HW219158   0.147   0.012   9.077 -0.8061 -1.1784 -0.6260
 2566SOL     OW19159   4.584   2.453   4.493 -0.3487  1.0805  0.5805
 2566SOL    HW119160   4.669   2.437   4.534 -1.1938 -1.0224  1.5179
 2566SOL    HW219161   4.613   2.530   4.444 -0.9983  0.9304 -0.0370
 2567SOL     OW19162   2.973   3.810   3.210 -0.5445  0.5419 -0.6274
 2567SOL    HW119163   2.992   3.727   3.166  0.2059  0.3380  0.0636
 2567SOL    HW219164   2.879   3.808   3.226 -0.9347  0.9902 -2.8673
 2568SOL     OW19165   3.104   3.762  15.130 -0.2736  0.2885  0.6688
 2568SOL    HW119166   3.160   3.737  15.203 -0.5512 -2.4024 -0.0566
 2568SOL    HW219167   3.024   3.772  15.182 -1.1344  3.4944 -1.2543
 2569SOL     OW19168   1.328   4.419  12.933 -0.0446  0.3894 -0.3171
 2569SOL    HW119169   1.361   4.336  12.897  0.4351  0.7332 -0.6582
 2569SOL    HW219170   1.380   4.484  12.887 -0.5832  2.4679  1.9830
 2570SOL     OW19171   1.707   2.245  11.337 -0.0018 -0.5401  0.2119
 2570SOL    HW119172   1.705   2.263  11.431 -4.1816 -0.4089  0.1086
 2570SOL    HW219173   1.631   2.187  11.336 -1.0715  0.8612 -0.8802
 2571SOL     OW19174   2.212   1.824   8.569 -0.4427 -0.2840 -0.4247
 2571SOL    HW119175   2.226   1.854   8.659 -0.9325 -1.3957  0.0245
 2571SOL    HW219176   2.152   1.751   8.582 -2.0376  1.0288 -0.5539
 2572SOL     OW19177   4.644   1.697   7.367 -0.0569 -0.4107 -0.2140
 2572SOL    HW119178   4.630   1.790   7.349  1.7408 -0.2501 -0.8264
 2572SOL    HW219179   0.012   1.693   7.342  0.2507 -0.6288  0.9648
 2573SOL     OW19180   3.775   4.180   7.618 -0.1379 -0.0387  0.7447
 2573SOL    HW119181   3.817   4.266   7.618  0.5933 -0.4043  0.8933
 2573SOL    HW219182   3.827   4.133   7.554 -1.0603 -0.5658  0.3817
 2574SOL     OW19183   1.998   1.715   0.630  0.3900 -0.2510  0.3592
 2574SOL    HW119184   1.927   1.775   0.651  1.2514  1.2922 -1.0911
 2574SOL    HW219185   1.999   1.649   0.699  0.0813 -0.6713 -0.0344
 2575SOL     OW19186   3.872   2.115   4.751  0.2145 -0.0257 -0.9040
 2575SOL    HW119187   3.919   2.045   4.797 -1.0905 -0.0846  0.3377
 2575SOL    HW219188   3.787   2.076   4.730  0.3843 -0.7108 -0.3204
 2576SOL     OW19189   2.145   2.119   0.838  0.2845  0.0720 -0.0925
 2576SOL    HW119190   2.164   2.076   0.921  2.0637 -1.8367 -1.4914
 2576SOL    HW219191   2.216   2.182   0.835 -2.2899  3.0065  0.1004
 2577SOL     OW19192   3.339   4.026  12.716  0.4797  0.1679  0.4096
 2577SOL    HW119193   3.410   4.071  12.760  0.8391 -0.3067  0.3113
 2577SOL    HW219194   3.341   4.068  12.630 -1.1711  1.3541  0.9424
 2578SOL     OW19195   0.791   4.196   0.560 -0.0704  0.8867  0.1430
 2578SOL    HW119196   0.848   4.218   0.486 -0.7953  2.5209  0.0700
 2578SOL    HW219197   0.852   4.144   0.613  1.3759  0.7479 -1.6581
 2579SOL     OW19198   3.394   2.356   6.225  0.6036 -0.2127  0.0824
 2579SOL    HW119199   3.354   2.387   6.306  1.4276 -0.6769  0.6667
 2579SOL    HW219200   3.474   2.314   6.257 -0.6356 -2.3491  0.3663
 2580SOL     OW19201   0.358   1.555   9.813 -0.3009 -0.6196 -0.4124
 2580SOL    HW119202   0.402   1.635   9.840 -1.4430  0.0859 -0.6216
 2580SOL    HW219203   0.398   1.498   9.879  0.9234  0.7849  0.0292
 2581SOL     OW19204   1.507   3.635   7.142 -0.1311 -0.6190  0.3807
 2581SOL    HW119205   1.533   3.547   7.171  3.3720  0.7278  1.3893
 2581SOL    HW219206   1.414   3.633   7.163 -0.2304 -0.3311 -0.0409
 2582SOL     OW19207   2.448   0.620   6.037  0.3140 -0.4287 -0.0359
 2582SOL    HW119208   2.410   0.698   5.996 -0.2030  0.0246  1.3130
 2582SOL    HW219209   2.541   0.634   6.019 -0.1905  2.1623 -0.7149
 2583SOL     OW19210   4.645   4.385   0.034  0.2770 -0.8221  0.3274
 2583SOL    HW119211   0.008   4.406   0.068  0.2911  1.2142 -0.9780
 2583SOL    HW219212   4.657   4.347  17.645  0.6394  1.2742 -0.5543
 2584SOL     OW19213   0.636   0.572   6.665  0.2544  0.0949 -0.6298
 2584SOL    HW119214   0.644   0.482   6.697 -0.3095  0.9263  1.8438
 2584SOL    HW219215   0.553   0.573   6.617 -0.3631 -1.5841  0.3836
 2585SOL     OW19216   4.448   1.316   5.405  0.2354 -0.0888 -0.5631
 2585SOL    HW119217   4.496   1.253   5.459 -0.2247  0.9391  1.0593
 2585SOL    HW219218   4.410   1.261   5.337 -2.3979  0.8614  0.1715
 2586SOL     OW19219   0.951   0.039  16.325 -0.3374  0.0942 -0.1705
 2586SOL    HW119220   0.914   4.675  16.318 -0.7768  0.2849 -0.2816
 2586SOL    HW219221   0.973   0.060  16.234 -0.1975 -0.3640 -0.2402
 2587SOL     OW19222   1.167   0.042   9.396 -0.1769 -0.2805  0.8279
 2587SOL    HW119223   1.085   4.716   9.397 -0.7961  0.7078  0.0385
 2587SOL    HW219224   1.144   0.098   9.470 -0.2229  1.4185 -0.4804
 2588SOL     OW19225   0.479   1.160   6.909  0.4263 -0.2762 -0.1104
 2588SOL    HW119226   0.452   1.082   6.860 -2.4881 -0.7403  2.1809
 2588SOL    HW219227   0.538   1.198   6.844  0.1825  0.9444  0.3727
 2589SOL     OW19228   2.120   3.783   8.975 -0.0359 -0.0369  0.3617
 2589SOL    HW119229   2.185   3.841   9.015 -0.1468 -0.1074  0.6419
 2589SOL    HW219230   2.148   3.775   8.884  2.5823  0.0438  1.1515
 2590SOL     OW19231   1.976   0.308  16.112  0.0173 -0.4318  0.1469
 2590SOL    HW119232   1.978   0.269  16.199 -0.4448  0.5765  0.6083
 2590SOL    HW219233   1.893   0.355  16.120  1.0465  1.3653  0.2594
 2591SOL     OW19234   4.507   2.846  16.564  0.6417  0.4151  0.3103
 2591SOL    HW119235   4.533   2.765  16.608 -0.5266  0.5491  1.2370
 2591SOL    HW219236   4.585   2.872  16.515 -0.1315  1.7145 -0.2135
 2592SOL     OW19237   1.467   2.274   1.014  0.0284 -0.2318 -0.3403
 2592SOL    HW119238   1.405   2.222   1.066  0.3299  1.7169  1.9992
 2592SOL    HW219239   1.420   2.355   0.994 -0.2578 -0.5463 -0.9221
 2593SOL     OW19240   0.129   3.575   8.812 -0.7754 -0.3358 -0.0127
 2593SOL    HW119241   0.191   3.502   8.817  1.1276  1.2394 -0.4908
 2593SOL    HW219242   0.160   3.612   8.730  1.2688  2.1151  1.8450
 2594SOL     OW19243   4.495   4.126   7.291  0.1478 -0.3112 -0.1363
 2594SOL    HW119244   4.530   4.128   7.202 -1.1932 -0.1747 -0.6742
 2594SOL    HW219245   4.405   4.148   7.265  0.0726 -0.1047  0.2997
 2595SOL     OW19246   0.214   4.293  10.240 -0.0562  0.4733  0.4667
 2595SOL    HW119247   0.144   4.231  10.262  0.4464 -0.2392  0.0686
 2595SOL    HW219248   0.175   4.342  10.167 -0.1746 -0.4708 -0.1036
 2596SOL     OW19249   1.799   1.552   2.057 -0.3766 -0.5364  0.5841
 2596SOL    HW119250   1.739   1.481   2.080 -0.6242 -0.6863 -0.5146
 2596SOL    HW219251   1.863   1.546   2.129  0.1953 -1.1949  0.0261
 2597SOL     OW19252   1.660   1.311   3.550 -0.4704  0.5638 -0.3723
 2597SOL    HW119253   1.630   1.241   3.492 -1.5492 -0.9881  2.0652
 2597SOL    HW219254   1.744   1.282   3.585 -1.0332  0.3859  0.8348
 2598SOL     OW19255   2.823   0.342   9.223  0.0489  0.4190 -0.1826
 2598SOL    HW119256   2.755   0.375   9.165 -1.7612 -0.1271  1.5923
 2598SOL    HW219257   2.837   0.413   9.285 -2.3102  0.1723  0.6729
 2599SOL     OW19258   3.357   0.206   9.713 -0.1365 -0.8151  0.3606
 2599SOL    HW119259   3.408   0.165   9.642  0.6663  1.9586 -0.6531
 2599SOL    HW219260   3.400   0.155   9.782  0.6201  1.9225  1.8957
 2600SOL     OW19261   0.149   1.905   2.443 -0.6920  0.1028 -0.1521
 2600SOL    HW119262   0.233   1.921   2.487 -0.0080  0.4579 -1.5904
 2600SOL    HW219263   0.171   1.869   2.357 -0.4685  1.3804 -0.6312
 2601SOL     OW19264   1.481   1.569   7.838  0.3996 -0.7010  0.0348
 2601SOL    HW119265   1.389   1.543   7.837  0.5479 -1.2553  0.9283
 2601SOL    HW219266   1.515   1.514   7.908 -0.2132 -0.8066  0.2523
 2602SOL     OW19267   2.808   0.933   7.858  0.2477 -0.5991 -0.5643
 2602SOL    HW119268   2.771   1.011   7.816 -0.9555 -0.9010 -0.0547
 2602SOL    HW219269   2.898   0.965   7.860  0.4472 -1.1757 -0.2230
 2603SOL     OW19270   2.164   1.046   7.889 -0.5581 -0.0409  0.0468
 2603SOL    HW119271   2.257   1.068   7.878 -0.6190  0.5391  0.6539
 2603SOL    HW219272   2.165   0.960   7.932  1.2999 -0.9392 -1.7771
 2604SOL     OW19273   2.603   3.320   3.444 -0.0165  0.4385 -0.6087
 2604SOL    HW119274   2.644   3.305   3.529  0.3241  0.8393 -0.7039
 2604SOL    HW219275   2.517   3.353   3.468  0.4395  2.6407 -2.0473
 2605SOL     OW19276   2.876   0.565   2.775 -0.5570  0.4520 -0.1801
 2605SOL    HW119277   2.853   0.658   2.771 -1.9272  0.2668  3.4637
 2605SOL    HW219278   2.815   0.540   2.844  1.9410  0.0232  1.9122
 2606SOL     OW19279   2.660   1.321  17.561  0.1462  0.1243  0.8332
 2606SOL    HW119280   2.666   1.300  17.654 -0.7039 -1.2760  0.5758
 2606SOL    HW219281   2.571   1.354  17.553 -0.2766 -1.0842  0.6654
 2607SOL     OW19282   3.587   3.879  16.880 -0.1672 -0.1212 -0.2945
 2607SOL    HW119283   3.627   3.952  16.927 -0.3946 -0.7026  0.7966
 2607SOL    HW219284   3.497   3.899  16.905  0.7691  2.7585  0.7573
 2608SOL     OW19285   3.059   2.153   6.098 -0.6283  0.4994  0.4752
 2608SOL    HW119286   3.016   2.199   6.026  0.9451  0.0119 -0.7676
 2608SOL    HW219287   3.135   2.209   6.108  0.9341 -1.7589  1.3250
 2609SOL     OW19288   1.490   4.328   1.556 -0.1859 -0.4455  0.0440
 2609SOL    HW119289   1.447   4.250   1.592  0.5454 -0.3498  1.1166
 2609SOL    HW219290   1.429   4.341   1.483  2.5272  1.7911 -1.8291
 2610SOL     OW19291   2.809   4.150   8.313 -0.7270 -0.5421  0.3610
 2610SOL    HW119292   2.837   4.207   8.385 -0.7409 -1.3566  1.0103
 2610SOL    HW219293   2.835   4.201   8.236 -2.8842  2.3221  1.5062
 2611SOL     OW19294   3.507   0.883  14.641 -0.2077  0.1009  0.0027
 2611SOL    HW119295   3.429   0.911  14.592 -1.2634 -1.7451  0.6419
 2611SOL    HW219296   3.493   0.936  14.720  1.1037  1.2877 -0.5513
 2612SOL     OW19297   0.513   0.898  12.488 -0.6199 -0.4347  0.5134
 2612SOL    HW119298   0.471   0.877  12.572 -0.9524  0.1259  0.4837
 2612SOL    HW219299   0.481   0.986  12.468  1.1204  0.4005  1.4062
 2613SOL     OW19300   2.332   3.440   4.048  0.1120  0.3638  0.5585
 2613SOL    HW119301   2.366   3.352   4.063  0.7678  0.8027  1.5911
 2613SOL    HW219302   2.390   3.490   4.105  0.1205  1.6729 -0.5884
 2614SOL     OW19303   0.241   4.561   3.418  0.4681 -0.3677  0.0009
 2614SOL    HW119304   0.229   4.628   3.350  2.0755 -0.5253 -0.4198
 2614SOL    HW219305   0.275   4.482   3.376  1.9088  1.2662 -1.9064
 2615SOL     OW19306   4.485   1.966   3.223  0.3865  0.0904  0.2037
 2615SOL    HW119307   4.540   1.925   3.289 -0.1057 -0.3776  0.3204
 2615SOL    HW219308   4.466   2.052   3.261  0.4020 -0.4581  1.4583
 2616SOL     OW19309   1.733   1.170   6.839  0.6118 -0.4612  0.0582
 2616SOL    HW119310   1.752   1.086   6.798 -0.0629  0.8271 -2.8676
 2616SOL    HW219311   1.663   1.199   6.780  1.3295 -0.0180 -0.5817
 2617SOL     OW19312   0.333   0.398   5.571 -0.6854  0.0437  0.3564
 2617SOL    HW119313   0.426   0.378   5.557 -0.7834  1.3269 -2.1468
 2617SOL    HW219314   0.299   0.313   5.544 -0.1716 -0.1081  0.1898
 2618SOL     OW19315   4.178   3.224  13.135 -0.3427 -0.3406  0.0315
 2618SOL    HW119316   4.272   3.239  13.146 -0.4416  0.7177 -0.5978
 2618SOL    HW219317   4.154   3.296  13.194  1.1435  1.4247 -1.5399
 2619SOL     OW19318   3.281   3.703   4.584 -0.3287 -0.1603  0.0451
 2619SOL    HW119319   3.370   3.737   4.588  0.3090 -1.8771  0.4038
 2619SOL    HW219320   3.285   3.608   4.587  0.8800 -0.1140 -0.2802
 2620SOL     OW19321   4.457   3.497   2.973 -0.1434 -0.0587  0.0585
 2620SOL    HW119322   4.387   3.475   3.034  0.1102  2.4127  1.2379
 2620SOL    HW219323   4.491   3.576   3.015 -1.4741  0.3838  0.2971
 2621SOL     OW19324   0.004   4.287   5.496 -0.0461 -0.5870 -0.1103
 2621SOL    HW119325   0.026   4.205   5.453 -0.8664 -0.7196 -0.2830
 2621SOL    HW219326   0.068   4.344   5.454  0.4372 -2.5313 -2.0393
 2622SOL     OW19327   4.044   2.305   4.366  0.0573 -0.2654  0.0779
 2622SOL    HW119328   4.136   2.321   4.349  0.3498 -0.9585  1.0287
 2622SOL    HW219329   4.041   2.237   4.432 -1.2684 -1.2517 -0.9887
 2623SOL     OW19330   1.270   0.885   9.771  0.4130 -0.0844 -0.1890
 2623SOL    HW119331   1.313   0.964   9.739  1.7775 -1.9540 -2.9360
 2623SOL    HW219332   1.190   0.873   9.720  1.4200  0.2921 -1.8488
 2624SOL     OW19333   2.748   2.505   0.669  0.1267  0.0910 -0.4188
 2624SOL    HW119334   2.753   2.431   0.730 -2.7827  0.9402  0.8720
 2624SOL    HW219335   2.721   2.577   0.726  0.1458  1.3942 -2.0806
 2625SOL     OW19336   4.654   1.101   5.975 -0.5636 -0.3884 -0.4418
 2625SOL    HW119337   4.635   1.187   5.938  0.5689  0.5669  1.1925
 2625SOL    HW219338   0.015   1.125   6.011 -1.3673  2.3410 -0.3884
 2626SOL     OW19339   0.310   3.920   0.582  0.6196 -0.0087  0.4844
 2626SOL    HW119340   0.272   3.998   0.621 -1.9741 -0.1260 -1.8156
 2626SOL    HW219341   0.363   3.958   0.512  0.6041  1.5081  1.3111
 2627SOL     OW19342   0.964   3.482  11.608  0.9027  0.1091  0.5588
 2627SOL    HW119343   1.010   3.544  11.664  0.0832 -1.1990  2.6717
 2627SOL    HW219344   0.947   3.406  11.663 -0.8533 -3.0755 -4.3447
 2628SOL     OW19345   1.155   3.589   6.030 -0.3388 -0.3011  0.3309
 2628SOL    HW119346   1.195   3.659   6.082  1.7383 -1.8628  0.8055
 2628SOL    HW219347   1.075   3.634   6.001  0.2631 -0.4663 -1.5753
 2629SOL     OW19348   3.194   0.468   6.925  0.1345 -0.0134  0.3863
 2629SOL    HW119349   3.099   0.464   6.912 -0.0248 -2.0342  2.1851
 2629SOL    HW219350   3.202   0.423   7.009  0.0839  2.6692  1.8327
 2630SOL     OW19351   3.201   3.459   2.038 -0.5763  0.0951 -0.1012
 2630SOL    HW119352   3.131   3.513   2.002  0.1381  1.7168  0.9483
 2630SOL    HW219353   3.272   3.496   1.986  0.7303 -0.7011  1.1236
 2631SOL     OW19354   1.555   4.636   7.085  0.8535 -0.7069 -0.3486
 2631SOL    HW119355   1.629   4.576   7.092  0.9885 -0.7823 -2.4388
 2631SOL    HW219356   1.508   4.619   7.166  1.2788 -1.9463 -0.3648
 2632SOL     OW19357   4.210   3.939  13.744 -0.0858  0.1011 -0.6725
 2632SOL    HW119358   4.155   4.017  13.751  1.5542  1.3341 -1.2591
 2632SOL    HW219359   4.156   3.871  13.705 -1.6359  0.5962  0.6203
 2633SOL     OW19360   1.350   3.341   5.552  0.1649 -0.0341 -0.1259
 2633SOL    HW119361   1.327   3.433   5.552 -0.0278 -0.0814  0.6117
 2633SOL    HW219362   1.373   3.335   5.645 -2.2998 -3.1563  0.2905
 2634SOL     OW19363   0.052   4.497   2.829 -0.1946 -0.6406  0.2625
 2634SOL    HW119364   0.055   4.504   2.734 -2.9820  0.3360  0.2388
 2634SOL    HW219365   0.001   4.567   2.869  1.0222  1.0962 -1.2247
 2635SOL     OW19366   0.342   0.978   5.886  0.0917  0.0325 -0.0681
 2635SOL    HW119367   0.285   1.044   5.925  0.3542 -0.8638  1.8421
 2635SOL    HW219368   0.324   0.906   5.947  2.8999 -1.3115 -0.8082
 2636SOL     OW19369   1.040   4.187   3.338  0.9985 -0.8254 -0.9043
 2636SOL    HW119370   1.029   4.142   3.254  1.7972 -0.1282 -1.3774
 2636SOL    HW219371   1.119   4.237   3.318  1.1611 -0.3749  0.9146
 2637SOL     OW19372   1.065   2.697  16.464 -0.7774  0.2390  0.3486
 2637SOL    HW119373   1.072   2.790  16.443 -1.6710  0.3831  0.6994
 2637SOL    HW219374   1.016   2.666  16.387 -0.6981  1.0862 -0.0498
 2638SOL     OW19375   2.373   4.144  12.330  0.6259  0.3206 -0.0082
 2638SOL    HW119376   2.335   4.170  12.245 -0.2404 -0.1653  0.2330
 2638SOL    HW219377   2.339   4.207  12.394  0.2884  1.9480 -1.7845
 2639SOL     OW19378   0.423   3.495   6.119  0.2611  0.0621 -0.4335
 2639SOL    HW119379   0.501   3.537   6.084 -0.8086  1.8827 -0.6297
 2639SOL    HW219380   0.450   3.473   6.208 -2.1678  1.3838  0.6285
 2640SOL     OW19381   2.000   2.429   3.569  0.5081  0.0782 -0.1018
 2640SOL    HW119382   1.959   2.342   3.568 -0.4378  0.5238 -0.4747
 2640SOL    HW219383   2.055   2.420   3.491  1.1572  0.2186  0.3398
 2641SOL     OW19384   3.722   4.699   3.180  0.2932  0.2813  0.1563
 2641SOL    HW119385   3.733   4.604   3.177  0.3188  0.2854  0.1199
 2641SOL    HW219386   3.700   4.719   3.089 -0.9035 -0.8895  0.1893
 2642SOL     OW19387   4.144   3.422   7.414 -0.2748  0.1989  0.5582
 2642SOL    HW119388   4.155   3.353   7.479 -0.1898 -1.9312 -1.7003
 2642SOL    HW219389   4.078   3.383   7.356 -1.9348  2.9718  0.5891
 2643SOL     OW19390   4.206   0.128   8.073  0.4393 -0.1603 -0.8923
 2643SOL    HW119391   4.130   0.181   8.048 -1.5760 -1.7540  1.7222
 2643SOL    HW219392   4.182   0.043   8.035  0.1836 -2.3486  4.1834
 2644SOL     OW19393   0.534   2.125   4.155 -0.5022 -0.1399  0.5996
 2644SOL    HW119394   0.584   2.065   4.210  2.3247 -0.5208 -2.3983
 2644SOL    HW219395   0.509   2.185   4.226  0.1544  1.4790 -0.5398
 2645SOL     OW19396   4.374   0.767   2.452 -0.3639 -0.1786 -0.4602
 2645SOL    HW119397   4.285   0.792   2.428 -0.8545 -1.1466  0.3800
 2645SOL    HW219398   4.420   0.812   2.381 -0.6223 -0.8672 -1.0626
 2646SOL     OW19399   1.299   3.479  11.002 -0.0504  0.3485  0.2253
 2646SOL    HW119400   1.325   3.445  11.087 -2.4805  0.4021  0.9968
 2646SOL    HW219401   1.324   3.407  10.944 -0.5183  0.9161 -0.6850
 2647SOL     OW19402   3.156   0.641   4.592  0.2042  0.1444  0.1535
 2647SOL    HW119403   3.248   0.616   4.580  0.7687  0.8588  2.8778
 2647SOL    HW219404   3.161   0.719   4.647  1.7270 -0.2394  0.5632
 2648SOL     OW19405   2.424   4.319   6.136 -0.0403 -0.1111 -0.2060
 2648SOL    HW119406   2.375   4.303   6.055 -0.4270  0.0811 -0.0137
 2648SOL    HW219407   2.494   4.257   6.121  1.0227  0.8943  0.6053
 2649SOL     OW19408   3.737   2.896   5.049  0.1328  0.0087  0.9515
 2649SOL    HW119409   3.764   2.933   5.134 -1.7150  1.6051  0.8418
 2649SOL    HW219410   3.719   2.977   5.002  1.1249  0.6144  1.6130
 2650SOL     OW19411   1.331   1.609  13.941  0.0160  0.3974 -0.1788
 2650SOL    HW119412   1.358   1.579  14.028 -1.8629 -0.8009 -0.0196
 2650SOL    HW219413   1.267   1.676  13.967 -1.0265 -1.7186  2.7867
 2651SOL     OW19414   2.230   1.259   1.796 -0.5469  0.2806  0.0737
 2651SOL    HW119415   2.181   1.310   1.860 -1.6241 -0.4173 -0.1996
 2651SOL    HW219416   2.239   1.320   1.723  1.0093 -0.0760 -0.0479
 2652SOL     OW19417   1.790   3.972   5.779 -0.5414 -0.2311 -0.0454
 2652SOL    HW119418   1.827   3.887   5.753  0.9395  0.3860  0.0351
 2652SOL    HW219419   1.708   3.950   5.824  0.2956 -2.1141  0.5805
 2653SOL     OW19420   0.832   3.636   9.669  0.1619 -0.3490 -0.2660
 2653SOL    HW119421   0.851   3.550   9.631 -0.0271 -0.1453 -0.8241
 2653SOL    HW219422   0.867   3.609   9.754 -0.8545 -2.7137 -0.5802
 2654SOL     OW19423   3.514   3.876  11.488 -0.1950  0.2560  0.4134
 2654SOL    HW119424   3.568   3.799  11.476 -0.7454  0.0040 -0.4319
 2654SOL    HW219425   3.512   3.910  11.399  1.4267 -1.6377 -0.3265
 2655SOL     OW19426   1.430   4.709   4.969  0.2504 -0.3884 -0.4865
 2655SOL    HW119427   1.521   4.693   4.992  0.7102  0.9784 -1.3919
 2655SOL    HW219428   1.430   4.679   4.878 -0.0712 -0.3412 -0.5038
 2656SOL     OW19429   3.706   3.716  12.687  1.0407  0.1323  0.1240
 2656SOL    HW119430   3.711   3.811  12.677 -0.1616  0.3421  1.6041
 2656SOL    HW219431   3.732   3.712  12.779  3.0916  2.1100 -0.3736
 2657SOL     OW19432   1.375   0.352   4.321  0.1469 -0.9547 -0.0552
 2657SOL    HW119433   1.346   0.299   4.395 -0.0473  1.1406  1.3592
 2657SOL    HW219434   1.469   0.335   4.329  0.1460 -0.0427  1.9334
 2658SOL     OW19435   4.528   1.638   3.626  0.5450  0.2865 -0.2198
 2658SOL    HW119436   4.539   1.686   3.708 -0.7469 -1.2090  0.8464
 2658SOL    HW219437   4.536   1.548   3.659 -2.8261  0.2304  0.5417
 2659SOL     OW19438   4.203   0.051  11.368 -0.4786  0.1011 -0.7706
 2659SOL    HW119439   4.294   0.080  11.360 -0.0589 -0.3974  2.2740
 2659SOL    HW219440   4.196   0.019  11.278 -1.2418 -1.1065 -0.2727
 2660SOL     OW19441   4.576   2.386   6.632 -1.0563 -0.1447 -0.6343
 2660SOL    HW119442   4.556   2.340   6.714 -1.3180  1.8787  0.4329
 2660SOL    HW219443   4.667   2.416   6.632 -0.7614 -1.0151  1.4079
 2661SOL     OW19444   2.787   2.260   3.041  0.2417 -0.5255  0.3780
 2661SOL    HW119445   2.849   2.329   3.018  1.0638 -0.2413  3.4725
 2661SOL    HW219446   2.757   2.301   3.122  0.0531 -1.0270  0.5605
 2662SOL     OW19447   1.262   2.555   4.766 -0.1797  0.1413 -0.2831
 2662SOL    HW119448   1.283   2.488   4.701  2.6856  1.3975 -0.6603
 2662SOL    HW219449   1.186   2.596   4.725  1.2029  2.2006 -0.8067
 2663SOL     OW19450   3.072   0.357   3.670  0.5234 -0.7284 -0.6613
 2663SOL    HW119451   3.052   0.301   3.595  0.5028  1.7729 -2.5401
 2663SOL    HW219452   3.036   0.302   3.739 -0.1381  0.4390 -0.0850
 2664SOL     OW19453   2.278   4.516   9.699  0.1602  0.5398 -0.2315
 2664SOL    HW119454   2.324   4.437   9.726  0.4334  0.7144 -0.1777
 2664SOL    HW219455   2.201   4.469   9.667  1.0874 -1.2685  0.2611
 2665SOL     OW19456   0.166   4.226  13.585 -0.3829 -0.0433 -0.6098
 2665SOL    HW119457   0.259   4.239  13.569  0.4299 -3.4646  1.4174
 2665SOL    HW219458   0.171   4.209  13.679 -1.4578  0.8777 -0.3771
 2666SOL     OW19459   0.705   2.791   7.806 -0.1664 -0.0683 -0.3055
 2666SOL    HW119460   0.672   2.875   7.774 -1.1781 -0.9901 -1.6329
 2666SOL    HW219461   0.759   2.764   7.732  1.9611  0.4308  1.0783
 2667SOL     OW19462   3.508   2.634   8.286  0.2684 -0.1535 -0.4079
 2667SOL    HW119463   3.460   2.616   8.367 -0.0705  3.6438  0.1916
 2667SOL    HW219464   3.580   2.689   8.315  0.3063 -2.4128  3.8051
 2668SOL     OW19465   1.276   2.652  15.706 -0.4475 -0.0064 -0.6631
 2668SOL    HW119466   1.303   2.560  15.715 -0.0702  0.1018 -0.6644
 2668SOL    HW219467   1.217   2.654  15.631  0.3229  3.8009 -1.1635
 2669SOL     OW19468   0.352   2.851   7.615 -0.1634 -0.0699  0.2773
 2669SOL    HW119469   0.423   2.914   7.624 -0.9478  0.8395  0.0791
 2669SOL    HW219470   0.304   2.866   7.696  2.1220  1.0674  1.4196
 2670SOL     OW19471   0.379   2.252   4.980  0.6697  0.2119  0.3793
 2670SOL    HW119472   0.372   2.253   5.075  0.6174 -1.1453  0.3853
 2670SOL    HW219473   0.472   2.238   4.966  0.5618 -1.2225  1.1972
 2671SOL     OW19474   1.899   2.742  12.451  0.5867 -0.0813 -0.1219
 2671SOL    HW119475   1.983   2.708  12.481 -0.6200 -1.2383  1.8992
 2671SOL    HW219476   1.918   2.824  12.404  0.1491  0.4644  0.6640
 2672SOL     OW19477   2.560   0.623   6.982 -0.5093 -0.1015  0.0665
 2672SOL    HW119478   2.510   0.692   6.938  0.4794  0.0292 -0.8390
 2672SOL    HW219479   2.633   0.620   6.920 -1.2837  0.7471 -0.8926
 2673SOL     OW19480   2.313   2.485   8.766 -0.9331  0.0990  0.0803
 2673SOL    HW119481   2.392   2.540   8.767 -0.8978  0.0823 -1.9384
 2673SOL    HW219482   2.343   2.400   8.796 -1.9913 -0.6066 -0.8386
 2674SOL     OW19483   2.573   2.978  15.146  0.3032 -0.3894  0.1946
 2674SOL    HW119484   2.655   2.944  15.183  0.5315  0.5927  0.5738
 2674SOL    HW219485   2.596   3.056  15.095 -1.2170 -1.0568 -1.5398
 2675SOL     OW19486   3.923   2.851  11.735  0.1801 -0.0059  0.1992
 2675SOL    HW119487   3.924   2.862  11.831 -2.0891 -2.5890  0.5288
 2675SOL    HW219488   4.008   2.810  11.719 -0.2398 -0.9009  0.2689
 2676SOL     OW19489   0.783   2.385   0.717  0.0608  0.0165  0.8102
 2676SOL    HW119490   0.741   2.362   0.634 -0.9613 -0.8025  1.5622
 2676SOL    HW219491   0.871   2.403   0.685 -0.0383  0.2181  0.6489
 2677SOL     OW19492   1.165   1.647   7.383  0.3732 -0.1181  0.3208
 2677SOL    HW119493   1.074   1.678   7.378  0.2519 -0.6009 -0.4543
 2677SOL    HW219494   1.225   1.721   7.390  0.0031  0.1930  0.2145
 2678SOL     OW19495   2.941   4.271   8.589  0.0632 -0.4168 -0.1723
 2678SOL    HW119496   2.964   4.246   8.679 -0.4103  0.2956  0.1440
 2678SOL    HW219497   3.012   4.224   8.546  0.6687  1.1040 -0.8443
 2679SOL     OW19498   2.650   4.128   8.779 -0.0016 -0.3210  0.4594
 2679SOL    HW119499   2.613   4.042   8.801  3.0380 -1.2395  1.9855
 2679SOL    HW219500   2.728   4.095   8.736 -1.0244 -2.5141  0.2921
 2680SOL     OW19501   0.725   2.659   4.495 -0.1633 -0.4439 -0.0073
 2680SOL    HW119502   0.702   2.582   4.546  2.9311 -0.7791  0.8467
 2680SOL    HW219503   0.637   2.682   4.464 -0.2922  0.3793  0.9723
 2681SOL     OW19504   1.867   2.888   3.002  0.2490 -0.2528 -0.4267
 2681SOL    HW119505   1.810   2.923   2.933  1.4027  1.7732 -0.3816
 2681SOL    HW219506   1.853   2.949   3.074  0.5446  0.6520 -1.1275
 2682SOL     OW19507   2.714   1.267  10.612  0.5081  0.5149  0.4297
 2682SOL    HW119508   2.794   1.236  10.569  0.6891  0.6366  0.6748
 2682SOL    HW219509   2.669   1.295  10.532  0.5383 -3.5913 -1.0425
 2683SOL     OW19510   2.488   4.266   8.955  0.0880  0.2283 -0.1662
 2683SOL    HW119511   2.555   4.207   8.920  0.5579  0.4484  0.3680
 2683SOL    HW219512   2.435   4.272   8.875  1.1541  0.0573 -0.8956
 2684SOL     OW19513   0.053   3.886   3.462  0.3746 -0.6221  0.5854
 2684SOL    HW119514   0.075   3.940   3.386  2.4315  0.8916  2.2835
 2684SOL    HW219515   4.719   3.825   3.416  0.0936 -0.0359  0.1597
 2685SOL     OW19516   0.035   0.457   5.732  0.1890  0.1915 -0.0893
 2685SOL    HW119517   0.025   0.452   5.637 -0.3325 -0.4159  0.0001
 2685SOL    HW219518   0.073   0.371   5.750 -0.5179 -0.4335 -1.6406
 2686SOL     OW19519   4.688   2.102   4.153 -1.0389 -0.0146 -0.0167
 2686SOL    HW119520   4.669   2.115   4.246  0.4287  2.1158 -0.0158
 2686SOL    HW219521   4.607   2.123   4.107 -0.7118 -1.5882 -1.3232
 2687SOL     OW19522   1.875   1.922  16.781 -0.3452 -0.8951 -0.7383
 2687SOL    HW119523   1.947   1.916  16.844 -2.2653  0.3951  1.5600
 2687SOL    HW219524   1.866   2.018  16.782 -0.8661 -0.9478 -0.3956
 2688SOL     OW19525   1.000   3.662   3.689 -0.4533  0.0906  0.1941
 2688SOL    HW119526   1.006   3.756   3.704  1.9770  0.2235 -1.5194
 2688SOL    HW219527   0.983   3.665   3.595 -0.7671  1.4271  0.2983
 2689SOL     OW19528   0.408   4.069   7.886  0.2830  0.1267 -0.0786
 2689SOL    HW119529   0.474   4.019   7.935 -1.8969 -0.8078  1.9001
 2689SOL    HW219530   0.322   4.027   7.887  1.4920 -2.3093  1.8646
 2690SOL     OW19531   2.397   0.024   4.265  0.4784  0.4588  0.3193
 2690SOL    HW119532   2.340   0.100   4.263  0.5011  0.4447 -1.1904
 2690SOL    HW219533   2.445   0.045   4.184  3.1454 -0.3823  1.6693
 2691SOL     OW19534   0.401   2.267  11.634  0.3129 -0.0514  0.0954
 2691SOL    HW119535   0.478   2.287  11.688 -0.6179 -1.2140  1.8586
 2691SOL    HW219536   0.345   2.345  11.639 -0.8373 -0.8587 -0.1948
 2692SOL     OW19537   3.980   2.623  15.261  0.6042  0.3752 -0.3309
 2692SOL    HW119538   3.980   2.679  15.183 -0.5409 -1.0994 -1.3949
 2692SOL    HW219539   3.886   2.610  15.274  0.3452  2.1460 -0.4341
 2693SOL     OW19540   1.199   4.057   0.480  0.3321 -0.3545  0.4426
 2693SOL    HW119541   1.240   4.037   0.564  1.1101 -0.0518  0.1415
 2693SOL    HW219542   1.236   3.989   0.423  2.5990  1.6906 -0.5503
 2694SOL     OW19543   0.694   1.928  10.103 -0.2846  0.0250 -0.3341
 2694SOL    HW119544   0.735   1.927  10.190  0.1426 -0.2374 -0.5365
 2694SOL    HW219545   0.705   2.012  10.059 -0.2795  0.3419  0.2689
 2695SOL     OW19546   2.068   0.433   5.553 -0.2152 -0.1516 -0.2479
 2695SOL    HW119547   2.153   0.476   5.548 -1.3453  2.0668 -0.4591
 2695SOL    HW219548   2.082   0.349   5.596 -0.0778 -0.1718 -0.3349
 2696SOL     OW19549   3.837   0.951  14.700 -0.0782  0.0269 -0.6220
 2696SOL    HW119550   3.786   0.946  14.780 -1.9266  2.4487 -1.6515
 2696SOL    HW219551   3.902   0.885  14.724 -1.6665 -1.2982 -0.0329
 2697SOL     OW19552   0.238   0.119   2.644 -0.0233  0.1683 -0.5537
 2697SOL    HW119553   0.249   0.186   2.576 -0.4308 -1.4414 -2.1910
 2697SOL    HW219554   0.209   0.177   2.715  2.1809  0.2532  0.2857
 2698SOL     OW19555   2.483   3.971   5.835 -0.3121 -0.0596 -0.7520
 2698SOL    HW119556   2.498   4.045   5.894 -1.0982 -2.2312  2.1813
 2698SOL    HW219557   2.554   3.917   5.869 -0.6976 -0.0151  0.1210
 2699SOL     OW19558   0.706   0.955  15.907 -0.0393  0.3884 -0.4660
 2699SOL    HW119559   0.761   0.932  15.982 -0.7277 -0.7130 -0.2909
 2699SOL    HW219560   0.733   1.046  15.896 -0.3206 -0.0609 -4.6804
 2700SOL     OW19561   3.131   4.239   6.949  0.5160 -0.2395  0.2122
 2700SOL    HW119562   3.153   4.331   6.963 -1.6649  0.7107 -2.5888
 2700SOL    HW219563   3.063   4.222   7.014  0.5248 -2.0534 -0.2301
 2701SOL     OW19564   4.389   0.259   4.039 -0.0601  0.6674  0.4174
 2701SOL    HW119565   4.322   0.192   4.050 -0.0337  0.5073 -0.3483
 2701SOL    HW219566   4.451   0.226   4.104 -0.3598 -1.9295 -0.6090
 2702SOL     OW19567   0.719   0.460   7.229  0.5219  0.1075  0.7363
 2702SOL    HW119568   0.744   0.543   7.269  1.0660  0.2239  0.1551
 2702SOL    HW219569   0.697   0.478   7.137  0.1493 -0.5254  0.6995
 2703SOL     OW19570   3.350   1.818  10.077  0.5916 -0.6682  0.5254
 2703SOL    HW119571   3.310   1.735  10.103 -0.2754  0.1360  1.7578
 2703SOL    HW219572   3.338   1.873  10.155 -0.1372 -0.2661  0.1351
 2704SOL     OW19573   2.091   2.621   1.205  0.1351  0.9597 -0.3187
 2704SOL    HW119574   2.155   2.617   1.276  2.0385 -0.5879 -2.0995
 2704SOL    HW219575   2.124   2.556   1.143 -0.2339  1.3710 -0.9413
 2705SOL     OW19576   1.556   0.319   1.087  0.1680 -0.2674  0.1728
 2705SOL    HW119577   1.642   0.278   1.104  0.3387 -0.4826 -1.2274
 2705SOL    HW219578   1.515   0.247   1.134  1.2418 -1.7194 -1.0955
 2706SOL     OW19579   0.751   1.930   8.349 -0.5306 -0.1883  0.6122
 2706SOL    HW119580   0.660   1.944   8.376  0.0617  1.0933  1.9167
 2706SOL    HW219581   0.780   2.019   8.331 -1.7412 -0.2855 -1.9246
 2707SOL     OW19582   4.515   4.284   8.654  0.3040 -0.3157  0.2109
 2707SOL    HW119583   4.520   4.379   8.643  1.6935 -0.5985 -1.5708
 2707SOL    HW219584   4.549   4.281   8.743  0.0373  1.1177  0.3604
 2708SOL     OW19585   3.468   2.590   2.323 -0.1361  0.1481  0.1203
 2708SOL    HW119586   3.551   2.543   2.338 -1.7593 -2.5143  0.7238
 2708SOL    HW219587   3.400   2.523   2.319 -0.1354  0.2009 -0.8439
 2709SOL     OW19588   2.561   2.334   5.899 -0.2290 -0.3934  0.0773
 2709SOL    HW119589   2.558   2.410   5.958 -1.0314  0.8927 -1.5994
 2709SOL    HW219590   2.630   2.345   5.834 -0.2078 -3.4563 -0.4035
 2710SOL     OW19591   0.487   4.475   3.542  0.3307  0.1784 -0.1170
 2710SOL    HW119592   0.531   4.502   3.462 -1.4921  0.1712 -1.0972
 2710SOL    HW219593   0.467   4.558   3.585  0.9474 -0.1313  0.7870
 2711SOL     OW19594   1.824   1.655  12.198 -0.0796 -0.5426 -0.1670
 2711SOL    HW119595   1.841   1.734  12.147 -1.3039 -0.8758 -1.0884
 2711SOL    HW219596   1.731   1.650  12.175 -0.3122 -1.2164  0.9058
 2712SOL     OW19597   4.198   2.064   5.462 -0.4472 -0.2147 -0.0816
 2712SOL    HW119598   4.117   2.080   5.413  0.5924  0.4228 -1.5847
 2712SOL    HW219599   4.214   2.156   5.485 -0.9321  0.4876 -2.5775
 2713SOL     OW19600   4.485   4.070   2.310 -0.0368  0.4402 -0.1512
 2713SOL    HW119601   4.578   4.049   2.307 -0.3380 -0.5668 -2.8840
 2713SOL    HW219602   4.465   4.025   2.392  0.3310  1.0148  0.2437
 2714SOL     OW19603   2.206   2.824   0.023  0.2083  0.8508 -0.3641
 2714SOL    HW119604   2.299   2.831   0.043 -0.3897  2.0947  2.0418
 2714SOL    HW219605   2.203   2.820  17.626 -2.4423 -0.2957 -0.2367
 2715SOL     OW19606   0.857   2.345   3.870 -0.2678  0.3873  0.4119
 2715SOL    HW119607   0.802   2.279   3.913 -0.2331 -0.6731 -1.1498
 2715SOL    HW219608   0.850   2.317   3.778  1.3484  0.0979  0.3703
 2716SOL     OW19609   3.104   4.231   9.425  0.0600  0.6342  0.0083
 2716SOL    HW119610   3.068   4.319   9.430  0.3134  0.8237 -1.4972
 2716SOL    HW219611   3.174   4.233   9.491 -1.5203 -0.2392  1.7210
 2717SOL     OW19612   3.029   3.960   3.500 -0.1766  0.2885  0.5891
 2717SOL    HW119613   2.952   4.009   3.530 -0.4355  0.9637 -1.1722
 2717SOL    HW219614   3.073   3.958   3.585 -0.6413  0.0955  0.8228
 2718SOL     OW19615   3.856   1.201   6.710 -0.0449 -0.0046 -0.2155
 2718SOL    HW119616   3.840   1.133   6.776  3.1502 -0.7098 -0.1658
 2718SOL    HW219617   3.884   1.274   6.765 -2.1018  0.9668 -0.4682
 2719SOL     OW19618   3.284   0.475  14.633  0.4715  0.7426  0.0570
 2719SOL    HW119619   3.199   0.430  14.635  1.1062 -0.4244  0.5525
 2719SOL    HW219620   3.269   0.552  14.578  0.2925 -0.1532 -1.1579
 2720SOL     OW19621   3.090   2.055   9.645  0.1316 -0.1244 -0.1099
 2720SOL    HW119622   3.073   2.065   9.551  2.2153  0.5779 -0.4225
 2720SOL    HW219623   3.179   2.091   9.643  0.3885 -0.7843 -0.7978
 2721SOL     OW19624   2.075   0.885   7.635  0.0259  0.1429  0.3869
 2721SOL    HW119625   2.051   0.816   7.574  2.1088  0.4210 -0.7724
 2721SOL    HW219626   1.999   0.870   7.690 -1.0364  2.8398 -0.3279
 2722SOL     OW19627   4.686   2.065   6.354 -0.0234 -0.0187 -0.2564
 2722SOL    HW119628   0.023   2.079   6.426  0.0622 -0.8454 -0.1754
 2722SOL    HW219629   4.677   1.970   6.355 -1.1910  0.1160  0.9853
 2723SOL     OW19630   2.121   1.839   9.288  0.1042  0.6808  0.0504
 2723SOL    HW119631   2.068   1.919   9.278  0.8212  1.2655  0.9506
 2723SOL    HW219632   2.074   1.798   9.361 -0.1409  0.1477 -0.4100
 2724SOL     OW19633   2.877   2.392   7.237 -0.0204 -0.4654 -0.2502
 2724SOL    HW119634   2.851   2.446   7.312  0.8053 -0.6700  0.1836
 2724SOL    HW219635   2.919   2.320   7.284 -0.1719 -0.2699  0.1922
 2725SOL     OW19636   1.198   0.473  10.826 -0.6712  0.8406  0.3026
 2725SOL    HW119637   1.157   0.521  10.754 -1.2365  1.1086  0.8008
 2725SOL    HW219638   1.129   0.478  10.892 -0.1541  0.7533  0.8517
 2726SOL     OW19639   3.638   4.541   9.833  0.0492  0.1536  0.3791
 2726SOL    HW119640   3.713   4.554   9.890 -0.7100  1.3023  1.1330
 2726SOL    HW219641   3.625   4.448   9.852 -1.3900  0.0278 -1.1779
 2727SOL     OW19642   2.957   0.859   4.911  0.1628 -0.1684 -0.8781
 2727SOL    HW119643   2.886   0.887   4.969  1.1832 -1.1118  0.8387
 2727SOL    HW219644   2.983   0.944   4.875  0.1222  0.4813  0.6430
 2728SOL     OW19645   0.304   0.900   1.505  0.6201 -0.3532 -0.1448
 2728SOL    HW119646   0.305   0.813   1.544 -0.6410  0.4086  1.5702
 2728SOL    HW219647   0.240   0.946   1.559 -1.1113 -1.6256 -1.1157
 2729SOL     OW19648   3.137   2.915   3.655  0.4205 -0.3503  0.3007
 2729SOL    HW119649   3.053   2.937   3.615 -0.7542  0.1332  3.0464
 2729SOL    HW219650   3.122   2.928   3.749  0.7631 -0.9057  0.4332
 2730SOL     OW19651   1.704   2.679   6.204  0.6122  0.1568  0.1370
 2730SOL    HW119652   1.660   2.623   6.268  1.6721 -2.7384 -1.6962
 2730SOL    HW219653   1.703   2.765   6.245 -1.8910  0.3139 -0.2722
 2731SOL     OW19654   4.680   1.895   8.293  0.1405  0.1156  0.3611
 2731SOL    HW119655   0.037   1.848   8.277  0.3993 -0.2374  2.6642
 2731SOL    HW219656   4.709   1.986   8.286  0.5731 -0.1846 -1.7943
 2732SOL     OW19657   1.275   2.868  13.356  0.3712 -0.2257  0.3577
 2732SOL    HW119658   1.345   2.933  13.359 -0.3847  0.5664  0.6344
 2732SOL    HW219659   1.210   2.937  13.341  0.6717 -0.7140 -3.3423
 2733SOL     OW19660   3.933   3.550  16.898  0.8876  0.7793  0.1510
 2733SOL    HW119661   3.849   3.590  16.873  1.3467  1.9862  0.5313
 2733SOL    HW219662   3.931   3.595  16.983  0.3901  1.5495 -0.2602
 2734SOL     OW19663   3.301   1.432   8.330  0.3917  0.1922  0.1604
 2734SOL    HW119664   3.294   1.457   8.238  0.6191 -1.4877 -0.2993
 2734SOL    HW219665   3.356   1.507   8.355  0.0920  0.4133  0.1595
 2735SOL     OW19666   2.115   3.495   8.939  0.3542 -0.1363 -0.5808
 2735SOL    HW119667   2.115   3.591   8.946  1.6700 -0.1539 -0.3828
 2735SOL    HW219668   2.096   3.472   9.030  0.2829  3.5555  0.3397
 2736SOL     OW19669   4.293   2.175   6.737 -0.3870 -0.4393 -0.0794
 2736SOL    HW119670   4.210   2.161   6.783 -0.7651  1.2048 -0.2763
 2736SOL    HW219671   4.293   2.089   6.695 -0.5681  0.9881 -2.9891
 2737SOL     OW19672   4.271   1.817  14.767  0.3236 -0.3780  0.4761
 2737SOL    HW119673   4.210   1.863  14.824  0.0685 -1.6035  1.1967
 2737SOL    HW219674   4.212   1.744  14.747  1.7227 -1.0340 -1.3578
 2738SOL     OW19675   2.654   0.322   9.885  0.4824  0.6582  0.1115
 2738SOL    HW119676   2.701   0.245   9.852 -1.0616 -0.9564  1.6328
 2738SOL    HW219677   2.729   0.368   9.922 -1.0196  2.8362  0.4377
 2739SOL     OW19678   3.628   1.822   6.656  0.2888 -0.1053  0.1127
 2739SOL    HW119679   3.558   1.868   6.702  2.1284  0.8636  1.9497
 2739SOL    HW219680   3.574   1.762   6.605  0.0854  0.8671 -0.7958
 2740SOL     OW19681   0.111   3.970   1.967  0.2988 -0.0237  0.2239
 2740SOL    HW119682   0.031   3.936   1.928 -0.1067 -0.5526  1.5109
 2740SOL    HW219683   0.086   4.063   1.967 -0.5241 -0.2307  2.2698
 2741SOL     OW19684   2.795   1.611   4.123 -0.3181 -0.0238 -0.3272
 2741SOL    HW119685   2.830   1.540   4.069 -1.2739 -1.5671  1.0639
 2741SOL    HW219686   2.882   1.644   4.145  0.4184 -2.7003  0.8114
 2742SOL     OW19687   3.206   1.927   8.211 -0.5083 -0.0650 -0.3552
 2742SOL    HW119688   3.179   2.000   8.155  0.7129  1.2028  0.7090
 2742SOL    HW219689   3.186   1.968   8.295  1.0833  0.0125 -0.0184
 2743SOL     OW19690   1.148   1.587   4.714 -0.7107 -0.0311 -0.2673
 2743SOL    HW119691   1.229   1.583   4.664  0.0906 -1.6062  1.1780
 2743SOL    HW219692   1.086   1.622   4.650  0.5921 -0.4252 -1.7409
 2744SOL     OW19693   1.737   3.433  11.269  0.5237  0.5759  0.3334
 2744SOL    HW119694   1.671   3.497  11.295  0.4090  0.2805  0.7753
 2744SOL    HW219695   1.807   3.491  11.240  0.1246 -0.7535 -3.2154
 2745SOL     OW19696   3.960   1.825   4.088  0.4548 -0.1714  0.4126
 2745SOL    HW119697   3.980   1.750   4.144  1.2628 -0.2138  0.0767
 2745SOL    HW219698   3.921   1.879   4.156 -0.2924  1.8583 -1.6464
 2746SOL     OW19699   1.603   2.143   2.882 -0.0378 -0.7225 -0.2595
 2746SOL    HW119700   1.689   2.174   2.909  0.4677 -1.0216 -1.4992
 2746SOL    HW219701   1.625   2.120   2.791 -1.1663 -0.4537 -0.5962
 2747SOL     OW19702   2.318   0.870  10.440 -0.3575 -0.3352  0.3027
 2747SOL    HW119703   2.390   0.934  10.442 -1.1329  0.5522 -0.0226
 2747SOL    HW219704   2.355   0.782  10.441 -0.1387 -0.2300  1.4601
 2748SOL     OW19705   1.434   2.440  17.082  0.2116  0.3823  0.1537
 2748SOL    HW119706   1.527   2.453  17.062  0.4150 -0.4227  0.5743
 2748SOL    HW219707   1.387   2.524  17.078 -1.2026 -0.4789 -1.1074
 2749SOL     OW19708   1.539   1.579   7.208  0.2267  0.1611 -0.2123
 2749SOL    HW119709   1.500   1.510   7.262 -1.4082  0.2978 -1.2422
 2749SOL    HW219710   1.511   1.550   7.122 -0.3676  0.8475 -0.2485
 2750SOL     OW19711   3.650   3.040  15.513 -0.7253 -0.0912 -0.1220
 2750SOL    HW119712   3.745   3.041  15.523 -0.7299  0.0333 -0.0890
 2750SOL    HW219713   3.637   2.950  15.541  0.8183 -0.5423 -0.8161
 2751SOL     OW19714   3.235   2.077   3.978 -0.3395 -0.3139 -0.4711
 2751SOL    HW119715   3.194   1.995   3.951  0.9737 -0.5352 -1.7684
 2751SOL    HW219716   3.289   2.055   4.054  0.4638  0.0382 -0.9392
 2752SOL     OW19717   3.861   0.515   2.503 -0.2852 -0.2780  0.3779
 2752SOL    HW119718   3.897   0.426   2.512 -1.5424 -0.9143 -0.7523
 2752SOL    HW219719   3.877   0.536   2.411 -0.2141 -1.3201  0.1443
 2753SOL     OW19720   2.773   1.420   8.593 -0.1192 -0.2510 -0.3501
 2753SOL    HW119721   2.832   1.429   8.668  0.6259  1.5427 -1.1493
 2753SOL    HW219722   2.704   1.478   8.623  0.0362  0.6807 -1.7735
 2754SOL     OW19723   0.537   0.460  10.453  0.0961 -0.3453  0.0261
 2754SOL    HW119724   0.534   0.534  10.392 -0.9821 -1.6466 -1.5110
 2754SOL    HW219725   0.562   0.498  10.537  2.8510  1.7302 -1.7395
 2755SOL     OW19726   1.077   0.052   2.081  0.5254 -0.5095  0.1086
 2755SOL    HW119727   1.015   4.703   2.072  0.3069 -0.5512  1.9927
 2755SOL    HW219728   1.021   0.112   2.130  0.9199  0.2932 -0.4418
 2756SOL     OW19729   1.288   3.675   6.695  0.5662 -0.2001 -0.8648
 2756SOL    HW119730   1.267   3.659   6.787  0.0997  1.1385 -0.7356
 2756SOL    HW219731   1.377   3.640   6.689 -0.1246 -2.1448  0.3815
 2757SOL     OW19732   0.759   3.522   1.303 -0.1657 -0.0222  0.1745
 2757SOL    HW119733   0.836   3.465   1.309  1.3187  2.1621  2.0119
 2757SOL    HW219734   0.767   3.567   1.387  1.1217 -0.7218  0.4314
 2758SOL     OW19735   1.971   2.015   1.132  0.2917 -0.6654  0.2334
 2758SOL    HW119736   2.053   1.982   1.097  0.7833  0.2347  0.5329
 2758SOL    HW219737   2.007   2.103   1.141  1.3317 -1.2810  2.0477
 2759SOL     OW19738   3.097   0.255   8.356 -0.3518  0.3928  0.1937
 2759SOL    HW119739   3.137   0.168   8.361 -0.4174  0.3257 -0.4397
 2759SOL    HW219740   3.059   0.266   8.443 -1.4729  0.9245 -0.3734
 2760SOL     OW19741   4.253   1.978  11.306 -0.6741  0.7468  0.0642
 2760SOL    HW119742   4.315   1.961  11.235 -2.9574  0.1528 -1.7984
 2760SOL    HW219743   4.200   2.044  11.262  1.9118  1.3674 -2.1495
 2761SOL     OW19744   2.916   3.494   0.800  0.2454  0.3212 -0.1858
 2761SOL    HW119745   2.858   3.452   0.736 -0.6877  1.9341 -0.4021
 2761SOL    HW219746   2.964   3.544   0.734 -2.3312  0.4227 -1.9729
 2762SOL     OW19747   4.657   3.699   1.989 -0.1045  0.4629 -0.3017
 2762SOL    HW119748   4.636   3.653   2.070  1.2427  1.4638  0.6172
 2762SOL    HW219749   4.620   3.635   1.929 -1.5606  0.3481  0.7114
 2763SOL     OW19750   1.572   2.488  14.672  0.4739  0.3010  0.4879
 2763SOL    HW119751   1.509   2.416  14.679  0.1108  0.5895  0.2445
 2763SOL    HW219752   1.522   2.561  14.708 -0.6437 -0.1653 -0.1082
 2764SOL     OW19753   1.637   2.148  10.839  0.1034  0.1739  0.0550
 2764SOL    HW119754   1.627   2.206  10.915 -0.2442  1.8801 -1.2823
 2764SOL    HW219755   1.665   2.211  10.773 -4.2123  0.4014 -1.5686
 2765SOL     OW19756   3.572   1.359   3.907  0.6922  0.5677 -0.0153
 2765SOL    HW119757   3.500   1.306   3.941 -0.8623  2.3975 -0.4389
 2765SOL    HW219758   3.542   1.448   3.926 -1.7511 -0.3349  0.3304
 2766SOL     OW19759   1.596   4.337  12.001 -0.4211 -0.0954 -0.0861
 2766SOL    HW119760   1.614   4.262  12.056 -0.3016 -0.0802 -0.1052
 2766SOL    HW219761   1.572   4.414  12.053  0.6332  0.9913 -1.2015
 2767SOL     OW19762   2.993   2.349  12.216  0.1207  0.2575  0.5530
 2767SOL    HW119763   3.056   2.352  12.143 -0.4889 -1.0245 -0.0132
 2767SOL    HW219764   3.019   2.269  12.261  0.0660  0.3933  0.8216
 2768SOL     OW19765   2.808   0.399   3.366 -0.0706  0.1214  0.2537
 2768SOL    HW119766   2.841   0.348   3.292  1.8131  1.2146  0.3639
 2768SOL    HW219767   2.827   0.341   3.440  1.2147  1.9396  1.3514
 2769SOL     OW19768   0.976   1.819   4.838 -0.3535 -0.0317  0.0038
 2769SOL    HW119769   0.968   1.738   4.788  0.1003  0.6895 -1.2562
 2769SOL    HW219770   1.003   1.783   4.922 -3.6422  0.0492  1.1173
 2770SOL     OW19771   1.991   4.532   3.785 -0.3529 -0.1999  0.7080
 2770SOL    HW119772   2.014   4.440   3.781 -0.0282 -0.0422 -1.1512
 2770SOL    HW219773   2.055   4.570   3.845 -1.5369  1.4980  0.9202
 2771SOL     OW19774   1.079   2.494   1.230 -0.3105  0.7374  0.3243
 2771SOL    HW119775   1.081   2.590   1.227  1.8777  0.6631 -0.3120
 2771SOL    HW219776   1.169   2.467   1.242 -0.0926  1.5569  0.5777
 2772SOL     OW19777   2.912   3.004  17.687 -0.3010  0.2490  0.1600
 2772SOL    HW119778   2.978   3.022   0.056  0.4505  0.0516 -0.5180
 2772SOL    HW219779   2.856   2.954   0.048 -1.9240  0.0155 -1.5769
 2773SOL     OW19780   4.271   0.666   4.744 -0.1872 -0.3279  0.7974
 2773SOL    HW119781   4.345   0.625   4.700 -0.6758  0.0556 -0.3591
 2773SOL    HW219782   4.311   0.709   4.820 -0.5438 -0.4766  1.0726
 2774SOL     OW19783   2.666   3.359   1.694  0.1780 -0.2099 -0.3079
 2774SOL    HW119784   2.597   3.378   1.758 -0.5878  2.7956 -2.0157
 2774SOL    HW219785   2.616   3.362   1.613 -1.0266  0.5059  0.4645
 2775SOL     OW19786   4.031   3.836   0.087  0.3915  0.2124  0.1454
 2775SOL    HW119787   3.963   3.884   0.040  1.3741  0.4064 -1.0900
 2775SOL    HW219788   4.017   3.748   0.053  1.6660 -0.5535  1.5939
 2776SOL     OW19789   0.730   0.094   5.590  0.3845  0.2763  0.0070
 2776SOL    HW119790   0.725   0.001   5.612  2.1287  0.0982 -0.3823
 2776SOL    HW219791   0.763   0.125   5.674  1.1366 -1.0386  0.1837
 2777SOL     OW19792   0.027   0.395   6.205 -0.0737  0.0544  0.6283
 2777SOL    HW119793   0.054   0.324   6.146 -1.5305  0.6925 -0.8203
 2777SOL    HW219794   4.691   0.438   6.144  0.6461  0.2457  0.0392
 2778SOL     OW19795   2.334   4.710   2.315  0.3768 -0.3439  0.5611
 2778SOL    HW119796   2.292   4.688   2.231  0.8777  0.8481 -0.0025
 2778SOL    HW219797   2.251   4.710   2.363 -0.0850 -1.7548 -0.2109
 2779SOL     OW19798   4.409   1.892  13.568 -0.5737 -0.2603 -0.5186
 2779SOL    HW119799   4.385   1.929  13.483 -1.6840  1.5308  0.5619
 2779SOL    HW219800   4.373   1.806  13.550 -1.1394 -0.2144  0.4086
 2780SOL     OW19801   4.326   1.123   6.915  0.0492  0.0850  0.2036
 2780SOL    HW119802   4.278   1.174   6.849  0.1658 -0.8217 -0.5756
 2780SOL    HW219803   4.255   1.105   6.977 -0.4923 -1.1444 -0.7863
 2781SOL     OW19804   1.217   3.472   1.769  0.1601 -0.5743 -0.0950
 2781SOL    HW119805   1.268   3.552   1.753 -0.8611  0.4071  1.5154
 2781SOL    HW219806   1.173   3.443   1.690  0.4815  1.5687 -1.0628
 2782SOL     OW19807   3.980   0.960   2.055  0.4721 -0.4845  0.1500
 2782SOL    HW119808   3.903   0.907   2.039  0.6037 -0.6556  0.0833
 2782SOL    HW219809   3.971   1.027   1.987 -1.8079 -1.7136 -0.7519
 2783SOL     OW19810   3.173   1.022   2.884  0.0665  0.2341 -0.4077
 2783SOL    HW119811   3.213   1.072   2.955  2.5360 -2.0700 -0.1878
 2783SOL    HW219812   3.255   0.995   2.844 -1.4744 -0.1061 -3.3639
 2784SOL     OW19813   2.251   0.234   8.065  0.1202 -0.5630  0.4832
 2784SOL    HW119814   2.256   0.324   8.032  1.9448 -1.4882 -1.7432
 2784SOL    HW219815   2.204   0.198   7.990  0.1750 -1.6752  0.9816
 2785SOL     OW19816   2.182   1.287  14.350  0.4092  1.1638 -0.5604
 2785SOL    HW119817   2.268   1.318  14.320  1.6911 -2.8222 -1.0067
 2785SOL    HW219818   2.148   1.357  14.405  0.6045  0.3848  0.5497
 2786SOL     OW19819   3.142   1.631   2.912 -0.6010 -0.1178  0.4615
 2786SOL    HW119820   3.071   1.568   2.904 -1.4720  0.9361 -0.1723
 2786SOL    HW219821   3.170   1.618   3.002  2.6535  1.4552 -0.3295
 2787SOL     OW19822   0.129   3.613   3.153 -0.0933 -0.2483  0.5008
 2787SOL    HW119823   0.116   3.519   3.141  3.0270 -0.5873 -0.2659
 2787SOL    HW219824   0.151   3.611   3.246  1.3252  1.5204  0.2004
 2788SOL     OW19825   2.173   2.731   3.292 -0.1751 -0.3719 -0.0411
 2788SOL    HW119826   2.230   2.790   3.242  0.1001 -2.1006 -1.7811
 2788SOL    HW219827   2.235   2.722   3.364 -1.0353 -2.0889  0.4789
 2789SOL     OW19828   4.157   2.322  16.203  0.4312 -0.0521 -0.4880
 2789SOL    HW119829   4.207   2.255  16.248  0.8306  1.1486  0.8622
 2789SOL    HW219830   4.088   2.279  16.151 -1.0947  0.7793  0.8561
 2790SOL     OW19831   2.159   4.180   6.584  0.4408 -0.1470  0.5182
 2790SOL    HW119832   2.234   4.181   6.524  0.4805  0.8281  0.5759
 2790SOL    HW219833   2.198   4.231   6.654 -1.5355 -1.2107  2.3881
 2791SOL     OW19834   1.797   1.200   4.502 -0.2116  0.2712 -0.2068
 2791SOL    HW119835   1.705   1.219   4.523 -0.3820 -0.9209  0.1146
 2791SOL    HW219836   1.815   1.293   4.485 -4.2402  1.0950 -0.0612
 2792SOL     OW19837   4.369   0.646   2.833  0.1248 -0.3399  0.4891
 2792SOL    HW119838   4.311   0.590   2.781  1.5119 -0.9792 -0.3520
 2792SOL    HW219839   4.368   0.736   2.800  0.1344 -0.3147  0.5563
 2793SOL     OW19840   1.075   2.546   3.279  0.0505  0.2834 -0.4672
 2793SOL    HW119841   1.086   2.641   3.279  0.7057  0.2081 -0.5408
 2793SOL    HW219842   1.152   2.518   3.228 -0.2917  0.4480 -1.0794
 2794SOL     OW19843   4.585   4.355   6.073  0.4765 -0.1603 -0.0442
 2794SOL    HW119844   4.628   4.314   5.999 -0.1782 -1.5017  0.3137
 2794SOL    HW219845   4.533   4.282   6.108 -2.8826  2.8777  1.3083
 2795SOL     OW19846   2.842   4.610   4.073 -0.7768 -0.6607  0.3108
 2795SOL    HW119847   2.771   4.553   4.103  1.0455 -3.9419 -1.6556
 2795SOL    HW219848   2.871   4.652   4.154 -0.7308 -0.5044  0.2137
 2796SOL     OW19849   3.120   2.214   4.350 -0.0837 -0.0732  0.0321
 2796SOL    HW119850   3.201   2.214   4.300  0.2488 -1.9941  0.5659
 2796SOL    HW219851   3.095   2.307   4.349  3.1767  0.7706 -1.1846
 2797SOL     OW19852   2.344   1.131   8.194 -0.2179 -0.2485 -0.2645
 2797SOL    HW119853   2.308   1.075   8.263 -0.4405  0.6784  0.3622
 2797SOL    HW219854   2.284   1.205   8.194 -0.7008 -0.6333  0.6097
 2798SOL     OW19855   1.708   4.578   6.350  0.2767 -0.6149 -0.0179
 2798SOL    HW119856   1.748   4.566   6.436  2.1395 -0.7375 -0.9075
 2798SOL    HW219857   1.783   4.546   6.299 -0.5165 -1.6840 -0.5267
 2799SOL     OW19858   4.191   4.474   5.035  0.1115 -0.3887  0.0320
 2799SOL    HW119859   4.204   4.540   4.967  2.4302 -1.7433 -0.8401
 2799SOL    HW219860   4.271   4.422   5.040 -0.2183 -0.8062  0.9278
 2800SOL     OW19861   1.324   3.459  15.074  0.2046 -0.5764 -0.4327
 2800SOL    HW119862   1.293   3.379  15.116  2.3466 -1.2724 -0.1903
 2800SOL    HW219863   1.385   3.420  15.011  2.4798  0.5704  1.0746
 2801SOL     OW19864   1.607   2.858   0.891 -0.5110 -0.7215  0.0662
 2801SOL    HW119865   1.585   2.818   0.806  1.3527 -1.3122 -0.1415
 2801SOL    HW219866   1.683   2.906   0.857 -1.3556 -0.0169 -0.8032
 2802SOL     OW19867   3.722   4.524   6.042  0.2997 -0.1419 -0.1078
 2802SOL    HW119868   3.757   4.579   6.112 -0.3968  1.0939 -0.7269
 2802SOL    HW219869   3.746   4.438   6.074  2.7683 -0.4244 -2.7463
 2803SOL     OW19870   4.618   1.848   4.792 -0.1457 -0.0884 -0.8275
 2803SOL    HW119871   4.649   1.758   4.804 -0.3864  0.1913  1.7468
 2803SOL    HW219872   4.539   1.842   4.846  1.4552  1.4134  1.6820
 2804SOL     OW19873   2.242   1.816   9.837  0.3731  0.3380  0.3209
 2804SOL    HW119874   2.331   1.800   9.806 -0.3066  0.0273 -1.4682
 2804SOL    HW219875   2.199   1.765   9.769  0.0520  2.7179 -1.2567
 2805SOL     OW19876   1.804   0.089  11.733 -0.2149 -0.0093 -0.3541
 2805SOL    HW119877   1.747   0.037  11.677  2.2677 -0.6039 -2.3618
 2805SOL    HW219878   1.775   0.177  11.707  0.8375  0.5791  0.4154
 2806SOL     OW19879   1.060   3.981   6.579  0.0204  0.0511  0.2463
 2806SOL    HW119880   1.096   4.060   6.537  0.0272 -0.3898 -0.5762
 2806SOL    HW219881   1.081   3.998   6.670  2.3938  2.2696 -0.7040
 2807SOL     OW19882   0.804   0.691   5.915 -0.1088  0.3825  0.2247
 2807SOL    HW119883   0.871   0.647   5.967 -1.7776 -0.0180  2.0269
 2807SOL    HW219884   0.744   0.619   5.894 -1.0852  1.6553 -1.2949
 2808SOL     OW19885   3.156   4.662   8.754 -0.4109  0.7095 -0.0041
 2808SOL    HW119886   3.105   4.590   8.789  1.0317 -0.5189 -0.4128
 2808SOL    HW219887   3.162   4.639   8.661 -2.7691 -1.4370  0.3889
 2809SOL     OW19888   3.445   2.981   6.922 -0.2139  0.0769 -0.3817
 2809SOL    HW119889   3.497   2.951   6.847  1.3252  1.8250 -0.0019
 2809SOL    HW219890   3.368   2.925   6.917  0.8667 -1.5845  1.6183
 2810SOL     OW19891   4.148   2.868   6.810 -0.0082 -0.3930 -0.1379
 2810SOL    HW119892   4.238   2.889   6.787 -0.2524  1.2019  0.3536
 2810SOL    HW219893   4.111   2.956   6.816 -1.1699 -0.9332  0.7994
 2811SOL     OW19894   2.392   0.854   5.384 -0.3433  0.0723  0.5075
 2811SOL    HW119895   2.334   0.848   5.308  0.0620 -1.4687  0.3107
 2811SOL    HW219896   2.329   0.879   5.452  1.8207 -1.7334  3.1637
 2812SOL     OW19897   4.499   2.052   3.835 -0.0024  0.4159  0.4705
 2812SOL    HW119898   4.479   2.129   3.889 -2.9777  0.2301 -0.3722
 2812SOL    HW219899   4.415   2.024   3.798  0.7594  1.6998 -2.2259
 2813SOL     OW19900   0.291   2.762   2.738 -0.1421 -0.4596  0.0066
 2813SOL    HW119901   0.334   2.679   2.759  1.6236  0.6085  0.5278
 2813SOL    HW219902   0.355   2.827   2.765 -0.2573 -0.8236  1.1852
 2814SOL     OW19903   4.017   2.125   6.101 -0.5917  0.5431 -0.2056
 2814SOL    HW119904   4.062   2.076   6.170  1.0465  0.4761 -1.3345
 2814SOL    HW219905   4.072   2.140   6.025  0.7476 -2.1971  0.2118
 2815SOL     OW19906   3.890   4.034  13.610  0.3693 -0.0773 -0.4069
 2815SOL    HW119907   3.972   4.064  13.570  1.4691  0.5355  2.2533
 2815SOL    HW219908   3.844   4.024  13.527 -1.3374 -1.0169  0.6584
 2816SOL     OW19909   3.676   0.323   5.277 -0.4159  0.3896 -0.2678
 2816SOL    HW119910   3.693   0.273   5.357 -0.4749  0.5556 -0.1524
 2816SOL    HW219911   3.766   0.337   5.247  0.2094 -0.4141  1.2347
 2817SOL     OW19912   0.421   0.108  17.451  0.5889  0.2593  0.2166
 2817SOL    HW119913   0.475   0.045  17.403 -1.6630 -1.6980  0.2702
 2817SOL    HW219914   0.402   0.172  17.383  4.4827  0.5680 -0.6241
 2818SOL     OW19915   1.573   2.501  16.708 -0.1405 -0.6205  0.2599
 2818SOL    HW119916   1.488   2.473  16.742 -1.5621  1.6924 -1.4197
 2818SOL    HW219917   1.584   2.576  16.766  0.5278 -0.5083 -0.0126
 2819SOL     OW19918   2.959   3.356   8.101 -0.4208 -0.1119 -0.1112
 2819SOL    HW119919   2.903   3.395   8.168  0.6132  0.0222  0.6611
 2819SOL    HW219920   3.043   3.384   8.138 -0.6586  0.9406 -0.3545
 2820SOL     OW19921   2.970   1.404   1.720  0.4127 -0.1595 -0.2311
 2820SOL    HW119922   2.915   1.474   1.684  2.6853  1.6671 -0.1348
 2820SOL    HW219923   2.931   1.409   1.807  1.1715 -0.6977  0.1331
 2821SOL     OW19924   0.064   0.522   3.300 -0.3188 -0.1165 -0.0858
 2821SOL    HW119925   0.010   0.599   3.318 -1.5597 -1.0575  0.1691
 2821SOL    HW219926   0.045   0.515   3.207 -0.4753  2.3270 -0.2437
 2822SOL     OW19927   1.831   1.945   6.123 -0.3130 -0.3772  0.1634
 2822SOL    HW119928   1.888   1.988   6.187  1.4486 -1.9080 -0.3553
 2822SOL    HW219929   1.800   1.868   6.170  1.0560  0.0851  1.8315
 2823SOL     OW19930   1.626   0.780   3.367  0.9614 -0.4020 -0.1220
 2823SOL    HW119931   1.625   0.690   3.400 -0.6169  0.1599  1.3205
 2823SOL    HW219932   1.695   0.771   3.301 -0.1373  2.0744 -1.6046
 2824SOL     OW19933   2.262   3.685   4.443  0.3853  0.3022 -0.6391
 2824SOL    HW119934   2.198   3.756   4.437 -1.0212 -1.0062 -1.1068
 2824SOL    HW219935   2.287   3.682   4.535 -1.0909  0.1188 -0.2520
 2825SOL     OW19936   3.008   1.991   1.852 -0.2548  0.2536 -0.4309
 2825SOL    HW119937   3.079   1.986   1.787 -2.3978 -0.0722 -2.7453
 2825SOL    HW219938   2.975   1.905   1.827 -2.3988  0.9317  0.0257
 2826SOL     OW19939   0.486   3.298   7.313  0.2462 -0.0862 -0.5901
 2826SOL    HW119940   0.455   3.314   7.224  0.3959  0.5918 -0.5202
 2826SOL    HW219941   0.400   3.280   7.351  0.7325  1.6615  1.3597
 2827SOL     OW19942   0.784   4.524   1.991  0.4868 -0.5892 -0.3194
 2827SOL    HW119943   0.773   4.525   1.896 -2.3726 -0.6540  0.0098
 2827SOL    HW219944   0.691   4.519   2.013  0.2937  0.5384 -0.8774
 2828SOL     OW19945   1.441   4.311   2.254  0.1029 -0.1944 -0.3248
 2828SOL    HW119946   1.454   4.348   2.166 -0.9133  1.6757  0.3239
 2828SOL    HW219947   1.361   4.360   2.271 -0.2160 -0.2204 -1.7139
 2829SOL     OW19948   2.743   0.424   2.186 -0.2751 -0.0505  0.3851
 2829SOL    HW119949   2.774   0.348   2.136 -0.1619  0.1970  0.0780
 2829SOL    HW219950   2.802   0.485   2.142  1.6808  0.8569  4.2757
 2830SOL     OW19951   1.111   0.368  13.804 -0.6665  0.0217  0.4310
 2830SOL    HW119952   1.090   0.384  13.712  2.7710  0.7899 -0.2082
 2830SOL    HW219953   1.027   0.384  13.847 -1.2124 -0.8452 -0.3114
 2831SOL     OW19954   1.475   0.791   8.724 -0.2375 -0.2712  0.4543
 2831SOL    HW119955   1.472   0.887   8.719  2.8667 -0.1872  0.4465
 2831SOL    HW219956   1.400   0.779   8.783  0.4675 -1.8304  1.0169
 2832SOL     OW19957   3.137   3.286  10.540 -0.3120  0.1207 -0.1045
 2832SOL    HW119958   3.051   3.250  10.521 -0.6680  0.0055  1.8121
 2832SOL    HW219959   3.185   3.212  10.579 -0.6932 -0.2719 -0.3852
 2833SOL     OW19960   3.840   2.672  17.662 -0.0652 -0.5559  0.3733
 2833SOL    HW119961   3.863   2.604   0.027 -2.2040  0.2366  1.9953
 2833SOL    HW219962   3.925   2.713  17.648 -1.1039  1.5201  0.1880
 2834SOL     OW19963   4.683   3.307  13.007 -0.7184 -0.0207  0.2520
 2834SOL    HW119964   4.724   3.297  12.920  0.4397  1.6613  0.5904
 2834SOL    HW219965   0.028   3.269  13.061 -0.5286 -0.5508 -0.3565
 2835SOL     OW19966   1.064   1.787   8.589 -0.9598 -0.1926  0.1181
 2835SOL    HW119967   0.993   1.736   8.630 -1.6283  0.1397 -0.6268
 2835SOL    HW219968   1.054   1.765   8.496 -1.5190 -1.4744  0.4752
 2836SOL     OW19969   2.422   4.492  15.339  0.5950  0.3648 -0.1203
 2836SOL    HW119970   2.402   4.573  15.292 -0.3984 -0.5401 -1.2514
 2836SOL    HW219971   2.465   4.450  15.265 -0.2393  0.4649 -0.6598
 2837SOL     OW19972   2.542   3.981  13.346 -0.2081 -0.3673 -0.3416
 2837SOL    HW119973   2.466   3.972  13.288 -1.3988 -0.5533  1.2418
 2837SOL    HW219974   2.568   4.072  13.334 -2.1471  0.0579 -1.4513
 2838SOL     OW19975   2.258   3.247   1.189  0.2620 -0.1428  0.3064
 2838SOL    HW119976   2.179   3.295   1.212 -0.9830 -2.3948  0.7083
 2838SOL    HW219977   2.288   3.205   1.270  1.3170 -2.4827 -1.2923
 2839SOL     OW19978   4.486   4.664  11.992 -0.2693 -0.4629  0.1184
 2839SOL    HW119979   4.412   0.001  11.999 -0.3227 -0.7948  2.4325
 2839SOL    HW219980   4.528   4.678  12.077  0.6987  1.5474 -0.6787
 2840SOL     OW19981   4.062   4.000   8.320 -0.4650 -0.3205  0.9504
 2840SOL    HW119982   4.109   4.083   8.331 -2.3192  0.7614  0.7483
 2840SOL    HW219983   3.979   4.019   8.275  0.4501 -0.6228 -0.8572
 2841SOL     OW19984   3.971   3.251   4.016  0.0605  0.7276  0.1900
 2841SOL    HW119985   4.014   3.165   4.024  1.6329  1.5404  0.5668
 2841SOL    HW219986   3.916   3.254   4.094 -2.4635  0.0932 -1.5727
 2842SOL     OW19987   4.312   2.335   6.504  0.2935  0.5290  0.5898
 2842SOL    HW119988   4.385   2.391   6.479  1.5560 -1.5587 -0.3338
 2842SOL    HW219989   4.341   2.285   6.581  1.4023  1.0379  0.4986
 2843SOL     OW19990   3.702   4.276   5.265 -0.3752 -0.4851  0.3533
 2843SOL    HW119991   3.689   4.300   5.357  0.1048 -1.0373  0.5595
 2843SOL    HW219992   3.765   4.204   5.268  0.1453  0.0228  1.3812
 2844SOL     OW19993   0.617   3.177  16.911 -0.0601 -0.0376  0.4838
 2844SOL    HW119994   0.581   3.251  16.959  0.6141  0.3141  0.4383
 2844SOL    HW219995   0.544   3.115  16.918  0.7722 -0.8147  2.1346
 2845SOL     OW19996   4.023   4.403  10.139  0.5401 -0.6839 -0.4080
 2845SOL    HW119997   3.981   4.334  10.190 -0.4048 -0.9964 -1.6048
 2845SOL    HW219998   3.997   4.482  10.187 -0.4311  0.2252 -2.4181
 2846SOL     OW19999   2.967   0.721   0.250  0.1543  0.0536 -0.0019
 2846SOL    HW120000   2.928   0.808   0.266  1.2128  0.4337  0.4761
 2846SOL    HW220001   3.029   0.703   0.321 -1.5976 -1.4930  1.1378
 2847SOL     OW20002   2.455   3.210  13.336  0.0330 -0.2114 -0.3413
 2847SOL    HW120003   2.505   3.165  13.404 -0.3834  0.9508  0.7502
 2847SOL    HW220004   2.457   3.143  13.268  0.6673 -0.0971 -0.4300
 2848SOL     OW20005   4.487   0.376   4.447 -0.2529  0.2486 -0.0266
 2848SOL    HW120006   4.550   0.347   4.513 -0.6371  1.5222  0.8919
 2848SOL    HW220007   4.415   0.315   4.463  0.1647 -0.2085  0.1405
 2849SOL     OW20008   3.624   3.841   5.182 -0.2056 -0.4692  0.5480
 2849SOL    HW120009   3.572   3.786   5.123  1.3464 -1.7502  0.3595
 2849SOL    HW220010   3.689   3.783   5.222 -1.1261 -1.9442 -0.1129
 2850SOL     OW20011   3.739   4.045   9.991  0.6542  0.2818 -0.2556
 2850SOL    HW120012   3.719   3.965   9.942  1.0816  0.0001  0.0263
 2850SOL    HW220013   3.792   4.008  10.062  0.7308  0.3950 -0.2544
 2851SOL     OW20014   2.251   0.770   3.094 -0.7565 -0.8628 -0.0479
 2851SOL    HW120015   2.241   0.730   3.180 -1.4602 -0.2847  0.1433
 2851SOL    HW220016   2.271   0.690   3.046 -1.1202 -1.1098  0.2120
 2852SOL     OW20017   1.491   0.976   7.567 -0.4437 -0.8154 -0.5035
 2852SOL    HW120018   1.509   1.044   7.632  1.8473 -1.5976 -0.3374
 2852SOL    HW220019   1.480   1.028   7.487 -0.6722  1.6966  1.1479
 2853SOL     OW20020   1.193   2.953   3.900 -0.0844  0.2319 -0.2058
 2853SOL    HW120021   1.244   2.925   3.824 -1.4875  2.7786 -2.1029
 2853SOL    HW220022   1.193   2.881   3.963  1.9750 -1.1094 -1.7670
 2854SOL     OW20023   3.891   0.122  14.403  0.6206  0.3392 -0.1594
 2854SOL    HW120024   3.831   0.171  14.348 -0.6575  0.5584  1.4319
 2854SOL    HW220025   3.964   0.181  14.426  0.3177  0.1066  1.3902
 2855SOL     OW20026   1.573   3.804   4.399 -0.0395  0.5744  0.0559
 2855SOL    HW120027   1.540   3.867   4.335  1.2947 -1.8062 -2.9905
 2855SOL    HW220028   1.634   3.746   4.353 -0.8177  0.2541 -0.5797
 2856SOL     OW20029   4.552   0.009   5.860 -0.3085  0.2221  0.1452
 2856SOL    HW120030   4.522   0.099   5.849  0.1167  0.0762 -2.1736
 2856SOL    HW220031   4.647   0.007   5.845 -0.2371  1.8663  0.3177
 2857SOL     OW20032   2.306   1.827   4.528 -0.6678  0.0999  0.4557
 2857SOL    HW120033   2.376   1.762   4.530 -0.6213  0.1089 -1.5758
 2857SOL    HW220034   2.311   1.863   4.440  0.5018  0.2826  0.5942
 2858SOL     OW20035   1.214   3.299   3.839 -0.2585  0.2977 -0.2984
 2858SOL    HW120036   1.266   3.243   3.782  1.8613  2.8503 -0.8753
 2858SOL    HW220037   1.152   3.239   3.881  0.0604 -0.4072 -0.8418
 2859SOL     OW20038   3.424   0.879   7.508 -0.5694 -0.0098 -0.1371
 2859SOL    HW120039   3.391   0.901   7.595  0.8898  1.2848  0.0969
 2859SOL    HW220040   3.508   0.835   7.524  0.5482  2.4303  0.8855
 2860SOL     OW20041   0.463   3.877  10.679 -0.2078  0.1899  0.6008
 2860SOL    HW120042   0.539   3.923  10.714 -0.3517  0.8304  0.0719
 2860SOL    HW220043   0.393   3.890  10.742 -2.2447  1.0286 -1.8499
 2861SOL     OW20044   2.649   2.987   5.149 -0.2752 -0.6478  0.0306
 2861SOL    HW120045   2.617   3.059   5.204  1.9546 -0.0156  0.4656
 2861SOL    HW220046   2.687   3.035   5.075  0.1924  2.1450  2.0603
 2862SOL     OW20047   2.628   4.578   9.743  0.0127  0.1597 -0.1604
 2862SOL    HW120048   2.575   4.582   9.823 -0.8684  1.0263 -0.7826
 2862SOL    HW220049   2.673   4.495   9.753 -2.6502 -1.0130  1.9850
 2863SOL     OW20050   2.233   4.448   4.613 -0.1687 -0.2799  0.2479
 2863SOL    HW120051   2.144   4.414   4.621 -0.4275 -0.2571 -2.5424
 2863SOL    HW220052   2.215   4.534   4.575  1.7767  0.6188  1.3818
 2864SOL     OW20053   3.569   3.822  14.161 -0.5678  0.4859 -0.3864
 2864SOL    HW120054   3.659   3.854  14.162 -0.4610  0.0894  2.1089
 2864SOL    HW220055   3.586   3.733  14.191  2.3492  1.3354  0.4707
 2865SOL     OW20056   4.357   2.730   4.855 -0.1867  0.0108 -0.1329
 2865SOL    HW120057   4.435   2.680   4.833 -0.2999  0.6670 -2.0206
 2865SOL    HW220058   4.382   2.822   4.847 -0.5753  0.2563  1.3532
 2866SOL     OW20059   3.701   3.675   1.933  0.5566 -0.0895 -0.2994
 2866SOL    HW120060   3.729   3.731   2.005 -1.9915 -0.0795  0.6976
 2866SOL    HW220061   3.773   3.688   1.871  0.9322 -1.1619 -0.0997
 2867SOL     OW20062   1.706   3.823  11.813 -1.2075  0.2190  0.5975
 2867SOL    HW120063   1.646   3.896  11.828  0.0675  1.4679 -0.3256
 2867SOL    HW220064   1.700   3.808  11.719 -1.7278 -1.0026  0.8322
 2868SOL     OW20065   4.139   2.208   7.445  0.6284  0.2561 -0.3245
 2868SOL    HW120066   4.052   2.229   7.410 -0.1302  0.0548  1.4109
 2868SOL    HW220067   4.120   2.130   7.498  1.9479  0.9030  1.0821
 2869SOL     OW20068   2.482   0.927   2.620 -0.4629  0.3769 -0.1904
 2869SOL    HW120069   2.392   0.958   2.604  0.0613  1.1591 -1.6453
 2869SOL    HW220070   2.531   0.981   2.558 -0.1093  0.8023  0.4567
 2870SOL     OW20071   2.983   1.103  10.615 -0.0540 -0.1694  0.3209
 2870SOL    HW120072   2.955   1.148  10.535 -0.7772 -1.0433  0.0891
 2870SOL    HW220073   3.078   1.096  10.604 -0.0021 -0.9130  1.2721
 2871SOL     OW20074   1.610   0.439   2.460  0.4354  0.4896  0.2719
 2871SOL    HW120075   1.657   0.522   2.464  2.7862 -0.7699 -1.4495
 2871SOL    HW220076   1.597   0.432   2.365 -0.3935 -0.8693  0.4852
 2872SOL     OW20077   2.478   3.843   6.827 -0.4936  0.3047 -0.6032
 2872SOL    HW120078   2.497   3.844   6.921 -1.0583  3.7111 -0.5247
 2872SOL    HW220079   2.446   3.932   6.812  1.3066  1.0485 -0.0708
 2873SOL     OW20080   1.385   4.216   2.934  0.5280  0.2578 -0.0736
 2873SOL    HW120081   1.340   4.235   2.852  0.0870  0.9929  0.3280
 2873SOL    HW220082   1.455   4.159   2.902 -0.0693  0.9856 -2.6709
 2874SOL     OW20083   2.242   1.384   3.704  0.0572 -0.2060  1.2564
 2874SOL    HW120084   2.295   1.366   3.626  0.7653  2.6659  1.0395
 2874SOL    HW220085   2.237   1.290   3.717  1.0780 -0.4644 -0.2037
 2875SOL     OW20086   0.951   3.074   9.061  0.1620  0.4376 -0.0743
 2875SOL    HW120087   0.889   3.008   9.093 -0.9378  0.4943 -2.1213
 2875SOL    HW220088   1.030   3.022   9.077  0.1230  0.3275 -0.2331
 2876SOL     OW20089   4.591   1.014   5.028  0.2208 -0.3563 -0.2000
 2876SOL    HW120090   4.684   1.001   5.006  0.9374 -0.3131  2.7346
 2876SOL    HW220091   4.597   1.069   5.106 -1.6352 -0.6284  0.1360
 2877SOL     OW20092   4.175   3.250   2.864 -0.0896  0.4407 -0.1804
 2877SOL    HW120093   4.172   3.344   2.844 -3.3487  0.5530  0.7922
 2877SOL    HW220094   4.109   3.225   2.798 -0.8320  1.2176  0.2578
 2878SOL     OW20095   1.822   1.817   3.214 -0.2055 -0.3763  0.4510
 2878SOL    HW120096   1.827   1.757   3.140  0.4704  0.3016 -0.0459
 2878SOL    HW220097   1.746   1.867   3.182  0.3046 -0.1478 -0.3861
 2879SOL     OW20098   0.837   2.553   4.241  0.3790  0.0550  0.0690
 2879SOL    HW120099   0.818   2.463   4.270  0.8767  0.0055  0.2349
 2879SOL    HW220100   0.827   2.597   4.325  2.0443  0.9514 -0.2168
 2880SOL     OW20101   2.015   0.944   3.799  0.2989 -0.2231  0.0217
 2880SOL    HW120102   1.949   0.884   3.833  0.1946  0.1128  0.4005
 2880SOL    HW220103   2.045   0.899   3.720 -0.0148 -0.1913 -0.1156
 2881SOL     OW20104   2.615   1.613   7.028 -0.1039  0.2101  0.1922
 2881SOL    HW120105   2.542   1.556   7.003  0.0587  1.2830 -2.7654
 2881SOL    HW220106   2.600   1.628   7.121  1.9342  0.0429  0.5537
 2882SOL     OW20107   4.131   4.119   2.680 -0.0323 -0.4343  0.1703
 2882SOL    HW120108   4.043   4.128   2.642  0.5850  1.0195 -0.9326
 2882SOL    HW220109   4.179   4.199   2.659 -2.6670  0.7574 -1.3086
 2883SOL     OW20110   3.114   1.443   5.516 -0.2869 -0.3325 -0.2754
 2883SOL    HW120111   3.171   1.442   5.439  1.0404 -2.6596  0.7481
 2883SOL    HW220112   3.160   1.515   5.559  0.1304  0.4015 -1.9365
 2884SOL     OW20113   4.333   2.216   2.269  0.5330  0.5048 -0.4502
 2884SOL    HW120114   4.355   2.301   2.307  0.7217 -0.1578  0.9036
 2884SOL    HW220115   4.404   2.167   2.311  0.2533  0.6945  0.2299
 2885SOL     OW20116   3.901   0.624   5.698  0.4300 -0.0118 -0.0621
 2885SOL    HW120117   3.838   0.571   5.747  0.4564  1.1179  1.1891
 2885SOL    HW220118   3.930   0.556   5.637 -0.9246  0.7145 -1.5177
 2886SOL     OW20119   3.664   0.808   7.191  0.3095  0.0980  0.2257
 2886SOL    HW120120   3.729   0.800   7.121 -0.8852  0.4120 -0.9035
 2886SOL    HW220121   3.659   0.715   7.213  0.2462 -0.1770 -0.9541
 2887SOL     OW20122   3.997   2.654   2.358 -0.2967 -0.3622 -0.1344
 2887SOL    HW120123   4.059   2.634   2.428  2.0530 -0.9842 -2.3848
 2887SOL    HW220124   3.970   2.564   2.339 -3.3457  0.5035  0.0969
 2888SOL     OW20125   2.302   2.143   6.769 -0.0250 -0.5963  0.4661
 2888SOL    HW120126   2.272   2.218   6.820  1.2065  0.7476 -0.7599
 2888SOL    HW220127   2.332   2.083   6.837  1.0814 -1.9680 -1.2318
 2889SOL     OW20128   4.368   1.892   1.966 -0.3034 -0.3841  0.0846
 2889SOL    HW120129   4.462   1.900   1.978  0.0338 -1.0903 -2.2153
 2889SOL    HW220130   4.360   1.800   1.992 -1.6374 -0.0412  0.9189
 2890SOL     OW20131   1.818   2.546  12.726 -0.1515  0.2674 -0.6798
 2890SOL    HW120132   1.808   2.634  12.761 -0.2744 -0.1352  0.3037
 2890SOL    HW220133   1.743   2.502  12.765 -1.3651 -0.1118 -3.4033
 2891SOL     OW20134   2.271   4.545  14.555  0.2606  0.2802 -0.3241
 2891SOL    HW120135   2.339   4.513  14.615 -1.6076 -0.8906  1.1968
 2891SOL    HW220136   2.284   4.500  14.471  0.3625 -1.0614  0.4017
 2892SOL     OW20137   2.612   4.616   7.556  0.3033 -0.5071 -0.0518
 2892SOL    HW120138   2.653   4.701   7.573 -1.1533 -0.3882  2.8197
 2892SOL    HW220139   2.650   4.588   7.472 -1.0702 -0.6061 -0.6302
 2893SOL     OW20140   0.282   2.871   6.179 -0.0565 -0.3530 -0.2346
 2893SOL    HW120141   0.368   2.834   6.160 -0.4627 -1.1849 -0.4497
 2893SOL    HW220142   0.269   2.935   6.109  0.3015 -1.1141 -0.9898
 2894SOL     OW20143   1.985   0.596  11.857  0.6554  0.0520  0.0089
 2894SOL    HW120144   2.043   0.604  11.933 -0.7482 -2.3721  1.3314
 2894SOL    HW220145   1.997   0.683  11.818 -0.9848  0.0130 -0.5754
 2895SOL     OW20146   0.595   2.848   2.099 -0.2138  0.2468 -0.0914
 2895SOL    HW120147   0.566   2.889   2.018  1.1857 -0.2952 -0.8779
 2895SOL    HW220148   0.516   2.803   2.130 -0.0383 -0.5019 -0.7028
 2896SOL     OW20149   1.939   4.135   8.278  0.5451  0.3223 -0.0996
 2896SOL    HW120150   1.859   4.093   8.247  1.6810 -1.9162 -0.0554
 2896SOL    HW220151   1.988   4.140   8.195 -1.5770  2.1590 -1.2297
 2897SOL     OW20152   3.373   2.258   0.109  0.3990  0.6399  0.2924
 2897SOL    HW120153   3.308   2.323   0.135 -0.6039 -0.6044  0.8679
 2897SOL    HW220154   3.438   2.328   0.099  0.2341  0.7226 -0.2051
 2898SOL     OW20155   1.140   2.582   9.016 -0.4715 -0.1458 -0.0307
 2898SOL    HW120156   1.080   2.511   8.996 -0.2623 -0.1955 -0.4717
 2898SOL    HW220157   1.202   2.533   9.070  1.4952  0.3960 -1.8099
 2899SOL     OW20158   0.860   3.511   4.797  0.0384  0.3447  0.5277
 2899SOL    HW120159   0.785   3.522   4.739 -0.5162 -1.6138  0.8940
 2899SOL    HW220160   0.821   3.488   4.881 -1.6064  1.6987  0.1265
 2900SOL     OW20161   3.146   4.258  12.970  0.0651  0.7870  0.1826
 2900SOL    HW120162   3.106   4.226  12.889  2.6818 -0.1787 -0.7197
 2900SOL    HW220163   3.198   4.184  13.001 -0.5875  0.7070  1.1103
 2901SOL     OW20164   3.810   2.690  17.390  0.3653  0.1832 -0.7749
 2901SOL    HW120165   3.853   2.606  17.374  2.9343  1.3236  0.1395
 2901SOL    HW220166   3.800   2.687  17.485 -1.8613  0.9925 -0.9895
 2902SOL     OW20167   1.429   3.107   3.791  0.5554 -0.4415  0.2164
 2902SOL    HW120168   1.524   3.098   3.778  0.1847  0.0655 -3.0122
 2902SOL    HW220169   1.404   3.020   3.758 -0.2469 -1.1745  2.7950
 2903SOL     OW20170   1.646   2.692  15.827 -0.2539  0.0481  0.6255
 2903SOL    HW120171   1.737   2.664  15.830 -0.1921  0.4197  2.0047
 2903SOL    HW220172   1.615   2.693  15.736  0.4184 -1.2315  0.3898
 2904SOL     OW20173   2.075   2.574  12.817 -0.3887  0.0038 -0.0022
 2904SOL    HW120174   1.981   2.556  12.821 -0.3724 -0.0703  0.0681
 2904SOL    HW220175   2.108   2.498  12.770 -1.7310  0.9181 -2.3927
 2905SOL     OW20176   3.470   2.263  15.000 -0.2089 -0.0347 -0.4492
 2905SOL    HW120177   3.422   2.286  15.079 -1.1098 -0.5809 -0.8257
 2905SOL    HW220178   3.482   2.353  14.971 -0.7118 -0.7582 -2.8950
 2906SOL     OW20179   4.109   0.363   3.780 -0.1035  0.2574  0.3908
 2906SOL    HW120180   4.047   0.432   3.756  0.2381  0.0960 -0.9172
 2906SOL    HW220181   4.079   0.347   3.870  0.8457 -3.4269  0.0721
 2907SOL     OW20182   3.797   4.304   6.901 -0.2082  0.2761 -0.0042
 2907SOL    HW120183   3.861   4.240   6.932 -1.4259  0.1514  2.2256
 2907SOL    HW220184   3.788   4.355   6.981 -0.6031  1.2070 -0.6394
 2908SOL     OW20185   0.449   0.502   1.783  0.4556  0.3675 -0.1747
 2908SOL    HW120186   0.484   0.568   1.843  1.6119 -0.0410 -0.4084
 2908SOL    HW220187   0.524   0.484   1.727  0.9594 -0.6135  0.8116
 2909SOL     OW20188   3.092   3.045  14.172 -0.1282  0.5939 -0.2632
 2909SOL    HW120189   3.135   3.007  14.249 -1.4205  0.9632  0.6287
 2909SOL    HW220190   3.001   3.020  14.189  0.4530 -2.4486 -1.6177
 2910SOL     OW20191   3.289   0.036   5.083  0.6217  0.3669  0.2230
 2910SOL    HW120192   3.199   0.016   5.108  0.2595 -0.4115 -1.6862
 2910SOL    HW220193   3.269   0.117   5.035 -0.7270 -0.4114 -0.5365
 2911SOL     OW20194   3.192   4.712   5.438  0.1598  0.1388  0.0178
 2911SOL    HW120195   3.161   0.002   5.349  1.9352  0.4590 -0.5458
 2911SOL    HW220196   3.281   0.022   5.429 -0.0303  0.6333 -0.0057
 2912SOL     OW20197   2.888   1.175   6.306 -0.0350 -0.6047 -0.3399
 2912SOL    HW120198   2.832   1.195   6.381  0.1396 -2.6017  0.3157
 2912SOL    HW220199   2.835   1.104   6.272  1.9229 -0.9521 -2.7027
 2913SOL     OW20200   1.030   4.288   0.412 -0.0714 -0.2590  0.0013
 2913SOL    HW120201   1.050   4.318   0.324 -5.9370 -1.9597 -1.9169
 2913SOL    HW220202   1.106   4.242   0.447  0.3699 -0.4405 -1.2328
 2914SOL     OW20203   0.125   3.146   7.636 -0.3547 -0.0780 -0.2335
 2914SOL    HW120204   0.163   3.088   7.701 -2.6725 -0.9730  0.3316
 2914SOL    HW220205   0.031   3.139   7.652 -0.6953 -0.1221 -2.2340
 2915SOL     OW20206   2.069   1.089   3.473 -0.9012  0.3583  0.2358
 2915SOL    HW120207   2.150   1.058   3.512 -2.2298 -0.8690  1.9813
 2915SOL    HW220208   2.038   1.000   3.458 -1.1799  0.3122  1.0924
 2916SOL     OW20209   0.630   2.328   7.597 -0.0372 -0.2957  0.2287
 2916SOL    HW120210   0.568   2.259   7.575 -1.4570  1.6801 -2.0006
 2916SOL    HW220211   0.651   2.360   7.509 -3.1031 -0.4481 -0.5755
 2917SOL     OW20212   0.144   3.002  17.125  0.3146  0.2766  0.5726
 2917SOL    HW120213   0.086   3.036  17.057  2.0772  3.3722  0.6105
 2917SOL    HW220214   0.120   3.071  17.188  0.1235  0.1192  0.6733
 2918SOL     OW20215   1.534   2.172  15.918  0.2131 -0.2833  0.1585
 2918SOL    HW120216   1.628   2.161  15.903  0.7462 -1.9518  4.7308
 2918SOL    HW220217   1.523   2.191  16.012  1.2869 -2.6892  0.7812
 2919SOL     OW20218   0.013   1.998   9.787 -0.2734 -0.1057 -0.2980
 2919SOL    HW120219   0.014   2.039   9.873  0.4578 -0.7910  0.0283
 2919SOL    HW220220   4.698   1.914   9.812  0.1595  0.1183  1.1457
 2920SOL     OW20221   0.155   4.534  16.727 -0.2125  0.0923  0.3965
 2920SOL    HW120222   0.206   4.577  16.658  1.9826 -3.0029  0.0421
 2920SOL    HW220223   0.096   4.481  16.673  1.0729  0.3718 -1.2908
 2921SOL     OW20224   4.023   3.450   4.683  0.7788  0.7519  0.6758
 2921SOL    HW120225   4.099   3.420   4.633  0.3083  0.4801  0.1174
 2921SOL    HW220226   3.961   3.401   4.629 -0.0927  0.4224  1.9921
 2922SOL     OW20227   2.782   2.934   5.409 -0.1249  0.4414 -0.3093
 2922SOL    HW120228   2.785   2.874   5.484 -0.3038  0.2195 -0.4815
 2922SOL    HW220229   2.757   2.878   5.336  0.0819 -1.1321  0.8170
 2923SOL     OW20230   1.215   4.264   7.127  0.3720 -0.1711 -0.1440
 2923SOL    HW120231   1.198   4.203   7.198 -0.9479 -1.2641 -1.4075
 2923SOL    HW220232   1.133   4.242   7.082 -0.3070  1.3127  0.3729
 2924SOL     OW20233   1.614   2.446   5.860  0.5314 -0.1777 -0.8256
 2924SOL    HW120234   1.554   2.492   5.919 -1.9249 -2.1860 -1.7512
 2924SOL    HW220235   1.598   2.355   5.885  1.1992  0.7506  2.9829
 2925SOL     OW20236   3.388   0.298   5.958 -0.1711 -0.2180  0.2481
 2925SOL    HW120237   3.443   0.312   6.035 -0.0881 -0.3037  0.2037
 2925SOL    HW220238   3.310   0.256   5.994 -0.8172 -0.3802 -1.3491
 2926SOL     OW20239   1.157   0.173   1.018 -0.1999 -0.0426 -0.0570
 2926SOL    HW120240   1.230   0.117   1.044 -2.1857 -0.8853  3.6285
 2926SOL    HW220241   1.162   0.244   1.081 -2.6161 -1.6866  1.9869
 2927SOL     OW20242   1.904   1.679  15.442  0.3157 -0.4271 -0.0564
 2927SOL    HW120243   1.931   1.614  15.506 -0.6346  0.4546  1.2473
 2927SOL    HW220244   1.819   1.699  15.481  0.1463  0.4249 -0.8536
 2928SOL     OW20245   0.221   2.958   3.196 -0.2257  0.0667 -0.0738
 2928SOL    HW120246   0.305   2.915   3.206 -0.5480 -0.7143 -0.7402
 2928SOL    HW220247   0.177   2.936   3.278 -1.7948 -0.1540 -0.9649
 2929SOL     OW20248   4.216   1.673  13.543 -0.1752  0.5421  0.1795
 2929SOL    HW120249   4.127   1.708  13.544 -1.0197 -1.6153  0.8614
 2929SOL    HW220250   4.197   1.594  13.493  0.4849  0.0081  0.7698
 2930SOL     OW20251   3.863   1.771   6.510  0.0432 -0.5203 -0.3393
 2930SOL    HW120252   3.822   1.727   6.436  0.6342 -0.0436 -0.9483
 2930SOL    HW220253   3.787   1.792   6.564  0.3301  1.3009 -0.6559
 2931SOL     OW20254   4.039   2.707   4.244  0.2788  0.5139  0.2355
 2931SOL    HW120255   4.098   2.656   4.298  0.8961  1.4446  0.4467
 2931SOL    HW220256   4.104   2.721   4.176  2.5353  0.5632  2.4133
 2932SOL     OW20257   2.003   2.079   4.344 -0.0573  0.5434 -0.5495
 2932SOL    HW120258   2.028   2.082   4.436  0.4489  2.0668 -0.7202
 2932SOL    HW220259   1.939   2.150   4.336  0.2740  1.0688  1.5994
 2933SOL     OW20260   1.853   0.768   2.877 -0.1819  0.1807  0.1648
 2933SOL    HW120261   1.830   0.721   2.797  1.1962  0.4249 -0.3760
 2933SOL    HW220262   1.914   0.708   2.920 -1.3477  0.2447  1.9201
 2934SOL     OW20263   3.214   2.046  11.469  0.2733 -0.4985  0.0860
 2934SOL    HW120264   3.170   2.110  11.414  2.1319 -0.5101 -1.4288
 2934SOL    HW220265   3.297   2.053  11.421  0.9952 -1.7611  1.1524
 2935SOL     OW20266   2.341   0.136   6.070  0.0700 -0.1316  0.3208
 2935SOL    HW120267   2.338   0.083   6.149 -0.6701  2.5818  2.0916
 2935SOL    HW220268   2.404   0.205   6.093 -1.8688  1.9718 -0.6780
 2936SOL     OW20269   3.849   2.537   3.449  0.8081  0.3828 -0.3759
 2936SOL    HW120270   3.873   2.629   3.434  0.2014  0.8341  1.4167
 2936SOL    HW220271   3.788   2.519   3.378  0.4355  0.5479 -0.0984
 2937SOL     OW20272   0.256   0.410   7.888  0.0115  0.1962  0.4574
 2937SOL    HW120273   0.231   0.342   7.950 -1.2613  0.2635  0.0197
 2937SOL    HW220274   0.185   0.473   7.905  0.0296  0.3597 -0.0628
 2938SOL     OW20275   2.848   4.644   1.034 -0.4074 -0.0128 -0.7898
 2938SOL    HW120276   2.776   4.688   0.987 -0.0408  1.4325  0.0093
 2938SOL    HW220277   2.895   4.607   0.959  2.9816 -0.1831  1.4512
 2939SOL     OW20278   0.755   3.720   1.979  0.0999  0.5345  0.2254
 2939SOL    HW120279   0.823   3.785   1.959  0.6186 -0.3107 -0.7444
 2939SOL    HW220280   0.691   3.776   2.024  0.9623 -0.1614  2.3230
 2940SOL     OW20281   1.917   0.675  16.267  0.2379 -0.2930 -0.1915
 2940SOL    HW120282   1.899   0.683  16.360  2.9318 -0.1202  0.3235
 2940SOL    HW220283   1.861   0.605  16.234 -1.2343  0.3862  0.8623
 2941SOL     OW20284   2.520   4.053   1.961 -0.2239  0.0202 -0.2010
 2941SOL    HW120285   2.494   4.144   1.975 -2.9955 -0.9825  1.1860
 2941SOL    HW220286   2.570   4.061   1.880 -0.2409 -1.8495 -0.3860
 2942SOL     OW20287   1.863   2.639   0.790  0.0153  0.0732 -0.2398
 2942SOL    HW120288   1.869   2.718   0.738 -1.3301  0.9476  0.9568
 2942SOL    HW220289   1.859   2.662   0.883  0.8083  1.6069 -0.5931
 2943SOL     OW20290   2.867   4.073   2.528  0.1749  0.0695  0.3333
 2943SOL    HW120291   2.871   4.039   2.438 -0.5413 -1.2289  0.7904
 2943SOL    HW220292   2.784   4.120   2.527  0.9732  1.4699  1.5161
 2944SOL     OW20293   1.848   0.812   7.762 -0.3044  0.2599 -0.3879
 2944SOL    HW120294   1.780   0.818   7.695 -0.6175  1.5714  0.0497
 2944SOL    HW220295   1.820   0.742   7.821 -1.1709  0.0963 -1.0033
 2945SOL     OW20296   0.891   2.147   6.210  0.2339  0.5864 -0.2154
 2945SOL    HW120297   0.964   2.173   6.267  1.0591  1.3454 -1.6153
 2945SOL    HW220298   0.928   2.178   6.127  3.7554 -0.5156  0.9325
 2946SOL     OW20299   3.284   4.028  17.433 -0.0078  0.0083  0.4790
 2946SOL    HW120300   3.229   4.026  17.511 -0.6612  1.8703  0.0584
 2946SOL    HW220301   3.267   4.114  17.396 -0.2981 -0.2338  0.0484
 2947SOL     OW20302   1.202   2.379   2.373 -0.2427  0.1078  0.3135
 2947SOL    HW120303   1.277   2.322   2.355 -0.9212 -0.9482  0.8678
 2947SOL    HW220304   1.153   2.307   2.414 -1.2939 -0.1531 -1.4134
 2948SOL     OW20305   2.632   0.381   2.665 -0.2052  0.1929  0.0814
 2948SOL    HW120306   2.662   0.429   2.588  0.3180  4.0727  2.6876
 2948SOL    HW220307   2.563   0.329   2.623  0.1046 -0.5616  0.5173
 2949SOL     OW20308   2.073   1.748  15.130  0.4088  0.2277 -0.2447
 2949SOL    HW120309   2.056   1.654  15.127 -3.0693  0.8371  0.1685
 2949SOL    HW220310   2.100   1.761  15.040 -0.0683 -1.3961 -0.6084
 2950SOL     OW20311   2.985   0.092   9.559 -0.1578 -0.1001 -0.1127
 2950SOL    HW120312   3.063   0.068   9.509  0.5455  0.4962  0.7116
 2950SOL    HW220313   2.927   0.090   9.483 -0.4768 -0.3798  0.1386
 2951SOL     OW20314   2.883   1.380   8.902  0.2566 -0.1546 -0.1651
 2951SOL    HW120315   2.835   1.357   8.982  1.4214 -0.0379  0.5614
 2951SOL    HW220316   2.837   1.461   8.882  3.6710  1.3807 -1.7821
 2952SOL     OW20317   1.978   2.143  11.322  0.3397  0.5220 -0.2192
 2952SOL    HW120318   1.992   2.109  11.233  1.0698  1.1014 -0.3256
 2952SOL    HW220319   1.884   2.164  11.323  0.0209 -1.1712  2.7927
 2953SOL     OW20320   0.395   0.737   2.570 -0.1109  0.2193 -0.5594
 2953SOL    HW120321   0.468   0.695   2.615 -0.8509  0.5797  0.9749
 2953SOL    HW220322   0.373   0.814   2.622  1.5083  0.8456 -0.7982
 2954SOL     OW20323   1.182   2.239  16.105 -0.0922  0.1627  0.1144
 2954SOL    HW120324   1.240   2.316  16.112  3.3976 -2.3479 -0.8692
 2954SOL    HW220325   1.155   2.235  16.013 -0.4871 -0.3611  0.2588
 2955SOL     OW20326   1.971   0.903   4.177  0.4192  0.0766 -0.5657
 2955SOL    HW120327   1.942   0.983   4.221 -0.0463 -0.0541 -0.6270
 2955SOL    HW220328   1.895   0.845   4.186  2.1625 -1.9729  0.7425
 2956SOL     OW20329   1.316   1.203   4.643  0.4143  0.0827  0.0940
 2956SOL    HW120330   1.374   1.151   4.588  1.0739  1.4527 -0.5164
 2956SOL    HW220331   1.290   1.136   4.706  1.0353 -0.2028  0.0446
 2957SOL     OW20332   1.866   4.039   6.160 -0.7743 -0.2876  0.4255
 2957SOL    HW120333   1.857   3.956   6.113 -0.3069 -1.6276  2.6987
 2957SOL    HW220334   1.957   4.066   6.154 -0.3689 -1.1273  2.6240
 2958SOL     OW20335   2.865   3.876  15.231 -0.4855  0.0953 -0.3019
 2958SOL    HW120336   2.805   3.805  15.256 -0.0158  0.5213  2.0722
 2958SOL    HW220337   2.813   3.951  15.258 -0.3336 -0.0013  0.2596
 2959SOL     OW20338   1.583   1.053  13.156  0.1332 -0.7103  0.2665
 2959SOL    HW120339   1.663   1.002  13.172 -0.4502 -0.9200  2.5553
 2959SOL    HW220340   1.607   1.136  13.196 -1.0503 -0.6975  0.9629
 2960SOL     OW20341   1.632   4.364   5.755 -0.2709 -0.2720 -0.8565
 2960SOL    HW120342   1.654   4.455   5.740 -0.4141  0.0818  0.9757
 2960SOL    HW220343   1.677   4.320   5.683 -0.3942  0.2438 -1.2456
 2961SOL     OW20344   4.476   4.577   7.968  0.0782 -0.2365 -0.6156
 2961SOL    HW120345   4.556   4.534   7.997 -1.1214 -0.8737  1.7494
 2961SOL    HW220346   4.409   4.509   7.975  0.4973 -0.5311  0.5417
 2962SOL     OW20347   0.083   0.277   2.813  0.8692  0.2956 -0.5621
 2962SOL    HW120348   0.120   0.365   2.812 -0.4389  0.8099 -2.2487
 2962SOL    HW220349   0.018   0.285   2.743 -0.4268  0.4571  0.6517
 2963SOL     OW20350   4.701   4.521   7.678 -0.4248  0.0222 -0.0131
 2963SOL    HW120351   4.639   4.449   7.692  0.4761 -1.2348 -2.4875
 2963SOL    HW220352   4.655   4.592   7.724  0.0556  0.9816 -1.0189
 2964SOL     OW20353   3.605   0.805   5.560 -0.2423  0.0018 -0.1481
 2964SOL    HW120354   3.681   0.747   5.548 -1.7459 -2.1287  0.6487
 2964SOL    HW220355   3.633   0.865   5.630  0.6839 -0.4393 -0.1364
 2965SOL     OW20356   4.307   1.419   4.491 -0.1194  0.0561  0.2549
 2965SOL    HW120357   4.223   1.373   4.489 -0.3855  0.5819 -0.6075
 2965SOL    HW220358   4.373   1.350   4.480 -0.5696 -0.5648  1.4152
 2966SOL     OW20359   2.604   2.637   7.137  0.2953 -0.0375 -0.1200
 2966SOL    HW120360   2.516   2.675   7.138  0.4467  0.3314 -0.6148
 2966SOL    HW220361   2.606   2.602   7.048 -0.3000 -1.8075  0.5652
 2967SOL     OW20362   0.964   0.420   9.663 -0.2320  0.5368 -0.5127
 2967SOL    HW120363   0.898   0.390   9.725  2.0693 -0.9875  1.2160
 2967SOL    HW220364   1.027   0.348   9.656  0.0572  0.6519  0.9685
 2968SOL     OW20365   4.427   4.173   2.047  0.1784 -0.5335  0.4382
 2968SOL    HW120366   4.465   4.142   2.129 -0.9022  0.3832  1.2942
 2968SOL    HW220367   4.355   4.110   2.044  0.1544 -0.5409  1.1773
 2969SOL     OW20368   0.500   3.419   1.275 -0.6407 -1.0209  0.2588
 2969SOL    HW120369   0.493   3.454   1.186 -0.7832 -1.4167  0.1149
 2969SOL    HW220370   0.581   3.463   1.300  0.7805 -2.3354 -2.0766
 2970SOL     OW20371   1.259   2.445   1.946  0.0666 -0.4122 -0.3298
 2970SOL    HW120372   1.313   2.483   1.877 -0.3089  0.9795  0.1346
 2970SOL    HW220373   1.171   2.479   1.926 -0.5955 -1.5660  0.6247
 2971SOL     OW20374   0.757   0.405   7.964  0.2913 -0.3646  0.1203
 2971SOL    HW120375   0.713   0.409   8.048  0.1427 -3.8003  0.2239
 2971SOL    HW220376   0.843   0.432   7.993 -0.4268  0.6277  1.3146
 2972SOL     OW20377   0.765   0.114   7.967  0.2495 -0.4311  0.2371
 2972SOL    HW120378   0.748   0.208   7.964 -1.7121 -0.8302 -0.7375
 2972SOL    HW220379   0.686   0.085   7.921  1.0608 -1.0377 -0.7853
 2973SOL     OW20380   3.972   1.624  10.017  0.1840 -0.1521 -0.4262
 2973SOL    HW120381   4.031   1.671  10.076  2.4611 -0.5642 -2.3491
 2973SOL    HW220382   3.940   1.696   9.963 -0.3194  0.4313  0.6712
 2974SOL     OW20383   2.294   3.896   0.730  0.1014 -0.1131  0.5803
 2974SOL    HW120384   2.239   3.954   0.676  0.7552  0.5407  0.6200
 2974SOL    HW220385   2.314   3.824   0.670 -1.8206 -1.0986  1.1003
 2975SOL     OW20386   3.324   1.113   0.213 -0.4358 -0.4839 -0.1654
 2975SOL    HW120387   3.309   1.022   0.239  2.6414 -1.2354 -1.1129
 2975SOL    HW220388   3.391   1.141   0.276  1.0735 -0.0847 -1.9737
 2976SOL     OW20389   4.077   1.014   5.202 -0.4274  0.5405 -0.0479
 2976SOL    HW120390   4.036   0.992   5.286  0.0290 -3.3002 -0.8368
 2976SOL    HW220391   4.032   0.949   5.148  1.4091 -0.4277 -0.4257
 2977SOL     OW20392   3.970   4.015   2.169  0.1215  0.8675  0.1501
 2977SOL    HW120393   4.042   3.978   2.221 -1.3497  0.1182  1.6465
 2977SOL    HW220394   3.989   4.108   2.165 -1.3753  1.2299  1.8100
 2978SOL     OW20395   4.071   0.875   6.472 -0.3106 -0.2480 -0.3478
 2978SOL    HW120396   4.018   0.797   6.453 -2.3325  0.4869  2.2412
 2978SOL    HW220397   4.092   0.911   6.386 -0.6654  1.2404  0.1856
 2979SOL     OW20398   4.131   2.610   1.721 -0.2775  0.2383 -0.3903
 2979SOL    HW120399   4.182   2.551   1.777  0.3942  1.7281  0.5816
 2979SOL    HW220400   4.198   2.662   1.677  1.8376 -2.4543 -0.3323
 2980SOL     OW20401   3.959   3.326   8.615  0.1762 -0.1130 -0.3443
 2980SOL    HW120402   3.990   3.393   8.676 -0.4874 -1.6683  1.7387
 2980SOL    HW220403   4.045   3.285   8.606  0.3419  0.0052  0.6666
 2981SOL     OW20404   3.284   3.725  12.840  0.0576 -0.2920  0.1154
 2981SOL    HW120405   3.374   3.699  12.860  0.2786 -0.0175 -0.4905
 2981SOL    HW220406   3.294   3.773  12.758  2.6826  1.8952  1.7356
 2982SOL     OW20407   4.215   4.035  11.781  0.0982  0.0360  0.7147
 2982SOL    HW120408   4.182   3.947  11.766  1.3416  0.4452 -4.5327
 2982SOL    HW220409   4.298   4.026  11.735  1.1192 -1.2018  2.8184
 2983SOL     OW20410   1.140   2.711  14.384  0.2505 -0.4117 -0.4314
 2983SOL    HW120411   1.224   2.664  14.386  1.3893  1.5651 -1.4036
 2983SOL    HW220412   1.176   2.766  14.454  1.9448 -0.4235 -1.2701
 2984SOL     OW20413   3.040   4.448   2.561 -0.0566  0.0389 -0.3655
 2984SOL    HW120414   3.069   4.512   2.496  0.6614  0.6156  0.5287
 2984SOL    HW220415   2.959   4.413   2.523 -0.2063 -0.8078  0.7342
 2985SOL     OW20416   1.807   3.614   2.152 -0.1757  0.3030  0.0961
 2985SOL    HW120417   1.840   3.646   2.068 -1.0800  0.4878 -0.1895
 2985SOL    HW220418   1.745   3.682   2.178  1.5378  0.5295  3.6204
 2986SOL     OW20419   4.486   1.929  14.964 -0.3115 -0.1110 -0.0530
 2986SOL    HW120420   4.405   1.883  14.942 -0.4684  0.5340 -0.8433
 2986SOL    HW220421   4.541   1.851  14.968  0.8294  0.5605 -2.3253
 2987SOL     OW20422   0.609   4.004  14.398  0.6954 -0.1173  0.4974
 2987SOL    HW120423   0.534   4.038  14.349  0.3025  0.6033  1.5946
 2987SOL    HW220424   0.647   4.087  14.426 -0.3459  0.3569  0.5035
 2988SOL     OW20425   2.770   0.708   7.275  0.2057 -0.4757  0.0760
 2988SOL    HW120426   2.726   0.747   7.200 -1.4654 -2.4939  0.0148
 2988SOL    HW220427   2.705   0.725   7.344  0.2312 -1.6983  0.3942
 2989SOL     OW20428   2.220   3.888   5.849 -0.5470 -0.5140 -0.6702
 2989SOL    HW120429   2.223   3.895   5.944 -1.6232  2.2738 -0.8558
 2989SOL    HW220430   2.310   3.911   5.827 -1.0632 -0.3702 -2.6311
 2990SOL     OW20431   0.253   0.707   5.997  0.0720  0.5833  0.0663
 2990SOL    HW120432   0.195   0.730   5.924  0.3841  1.0321 -0.0413
 2990SOL    HW220433   0.193   0.643   6.034  2.8246 -1.6168  0.7344
 2991SOL     OW20434   0.835   0.907   5.134  0.1275 -0.6342 -0.3023
 2991SOL    HW120435   0.873   0.995   5.130 -1.5124  0.1038  0.5234
 2991SOL    HW220436   0.758   0.929   5.081  0.1591 -1.8121 -0.8349
 2992SOL     OW20437   2.382   4.210  14.534  0.7550  0.5182 -0.4757
 2992SOL    HW120438   2.419   4.248  14.614 -2.1708 -0.3743  1.3009
 2992SOL    HW220439   2.366   4.287  14.481 -0.1893  0.5091 -0.1931
 2993SOL     OW20440   4.238   3.010  12.042 -0.2112 -0.0714  0.0156
 2993SOL    HW120441   4.195   2.934  12.003  2.8811 -2.4144  1.1423
 2993SOL    HW220442   4.217   2.994  12.134  0.7711  0.3543  0.3172
 2994SOL     OW20443   1.318   0.406   3.865  0.2226 -0.9143 -0.5926
 2994SOL    HW120444   1.306   0.338   3.931  0.2744  0.3439  0.7183
 2994SOL    HW220445   1.402   0.377   3.829  0.9717  0.7425 -0.1901
 2995SOL     OW20446   1.672   3.119  15.065 -0.4402 -0.1360  0.2109
 2995SOL    HW120447   1.746   3.178  15.051 -0.9625  1.1168  2.6185
 2995SOL    HW220448   1.655   3.145  15.156  1.5694 -2.1404  1.1583
 2996SOL     OW20449   3.653   2.297   3.802 -0.3669  0.6565 -0.1790
 2996SOL    HW120450   3.743   2.296   3.833 -1.3271  3.0090  2.7004
 2996SOL    HW220451   3.618   2.217   3.842  1.1033 -0.0814 -0.3726
 2997SOL     OW20452   2.540   3.060   7.997 -1.0164 -0.0253 -0.2592
 2997SOL    HW120453   2.517   3.153   8.002  1.0736  0.4880 -0.0787
 2997SOL    HW220454   2.574   3.055   7.907  0.7249  0.8968  0.3399
 2998SOL     OW20455   2.011   2.585  17.634 -0.3543 -0.3907  0.0775
 2998SOL    HW120456   2.042   2.509  17.682 -3.4612 -1.5443  0.2997
 2998SOL    HW220457   2.012   2.549  17.545  0.4360 -0.5030  0.1355
 2999SOL     OW20458   3.707   0.270   6.789 -0.2199 -0.1182 -1.0196
 2999SOL    HW120459   3.759   0.309   6.718  1.3580  0.2752  0.3608
 2999SOL    HW220460   3.618   0.269   6.754 -1.6329  0.7941  2.6299
 3000SOL     OW20461   3.343   0.973   8.281 -0.0651  0.4863  0.1512
 3000SOL    HW120462   3.328   0.993   8.189 -0.9811 -0.5016  0.0907
 3000SOL    HW220463   3.438   0.978   8.289  0.0352 -2.1014  0.4550
 3001SOL     OW20464   2.761   0.108   5.126  0.0228  0.0738 -0.2029
 3001SOL    HW120465   2.781   0.174   5.192 -2.0966 -0.0906  0.6050
 3001SOL    HW220466   2.676   0.141   5.098 -0.3728 -0.5977  0.2159
 3002SOL     OW20467   3.494   2.511   8.053 -0.3603  0.2314 -0.0973
 3002SOL    HW120468   3.493   2.580   8.120 -2.6492  0.8154 -0.7514
 3002SOL    HW220469   3.587   2.486   8.051 -0.1614  0.9448  0.1408
 3003SOL     OW20470   4.576   1.623   3.968  0.0240 -0.3323  0.7746
 3003SOL    HW120471   4.641   1.560   3.935 -0.4404 -0.5269  0.2290
 3003SOL    HW220472   4.627   1.699   3.940  0.1254 -0.9477 -0.7243
 3004SOL     OW20473   3.935   3.972   3.362  0.7131  0.1001  0.0576
 3004SOL    HW120474   4.003   4.016   3.414  0.0709  2.5934 -1.1941
 3004SOL    HW220475   3.882   3.928   3.428 -2.0189  1.3435 -1.3157
 3005SOL     OW20476   1.910   1.814   5.332  0.2748 -0.1259 -0.0789
 3005SOL    HW120477   1.822   1.831   5.365 -0.0428 -2.1335  0.0702
 3005SOL    HW220478   1.888   1.751   5.263 -0.5150  0.0374  0.0173
 3006SOL     OW20479   1.066   2.138   3.655  0.0097  0.3488  0.0764
 3006SOL    HW120480   0.979   2.168   3.629 -0.6203 -1.4842  0.0916
 3006SOL    HW220481   1.121   2.212   3.626  0.3450  0.2583  0.4819
 3007SOL     OW20482   0.272   0.554  13.353  0.3218  0.0136  0.6209
 3007SOL    HW120483   0.346   0.495  13.368  0.5614  0.2979  0.5491
 3007SOL    HW220484   0.230   0.545  13.439  1.5461 -2.2500  0.9800
 3008SOL     OW20485   0.563   2.875   2.409  0.7433  0.7282  0.3285
 3008SOL    HW120486   0.638   2.851   2.354 -1.1590 -0.2736 -1.8576
 3008SOL    HW220487   0.606   2.938   2.466  1.7646  1.3189 -1.1168
 3009SOL     OW20488   4.608   1.167   7.229 -0.1686 -0.1709 -0.0554
 3009SOL    HW120489   4.612   1.099   7.297 -1.0222 -0.0416  0.1199
 3009SOL    HW220490   4.560   1.240   7.268 -1.6199 -1.3067  0.2767
 3010SOL     OW20491   4.273   1.088   5.806  0.3745 -0.1881 -0.4156
 3010SOL    HW120492   4.274   1.025   5.734  0.8268 -1.9767  1.1911
 3010SOL    HW220493   4.264   1.166   5.750  0.4094  1.2524  1.5994
 3011SOL     OW20494   3.502   2.491   3.963 -0.2695  0.4536 -0.1529
 3011SOL    HW120495   3.480   2.440   3.885  1.0998 -0.1202 -0.1745
 3011SOL    HW220496   3.594   2.463   3.963 -0.2224  0.6208 -1.3210
 3012SOL     OW20497   2.994   2.589   1.749 -0.1112  0.2182  0.2436
 3012SOL    HW120498   2.925   2.623   1.692 -0.8761 -0.9902  0.4649
 3012SOL    HW220499   3.012   2.671   1.796  0.0174  1.1856 -1.4850
 3013SOL     OW20500   1.835   2.920   4.441 -0.1755 -0.2358  0.6208
 3013SOL    HW120501   1.758   2.933   4.497 -1.2597  0.1459 -0.9302
 3013SOL    HW220502   1.901   2.885   4.501  3.6090  2.2899 -2.0848
 3014SOL     OW20503   4.141   0.694   5.468 -0.3282 -0.0208  0.0540
 3014SOL    HW120504   4.091   0.626   5.515 -1.5319  1.0468  0.3276
 3014SOL    HW220505   4.160   0.647   5.387 -2.1936  0.2981 -0.5798
 3015SOL     OW20506   3.623   1.471   5.862  0.2320  0.1677  0.0658
 3015SOL    HW120507   3.652   1.471   5.770  2.3655 -0.8837  0.7449
 3015SOL    HW220508   3.546   1.528   5.864 -0.2213 -0.3764 -1.7222
 3016SOL     OW20509   4.448   4.367   2.944  0.6025  0.0830 -0.2560
 3016SOL    HW120510   4.466   4.433   3.010 -0.7581 -1.1301  1.3395
 3016SOL    HW220511   4.357   4.336   2.948  1.1791 -1.4398  1.0799
 3017SOL     OW20512   0.926   3.029  13.599 -0.5020  0.5623  0.0703
 3017SOL    HW120513   0.859   3.018  13.666  0.4282 -1.0762  0.7279
 3017SOL    HW220514   0.999   2.987  13.645 -0.0060  1.0796 -0.2267
 3018SOL     OW20515   1.409   1.398  12.278 -0.0252  0.1960 -0.6144
 3018SOL    HW120516   1.458   1.472  12.243 -0.6286  1.0426  0.3362
 3018SOL    HW220517   1.477   1.331  12.279 -1.3373 -1.1476 -0.9089
 3019SOL     OW20518   1.734   0.011  17.053  0.0653  0.0820  0.5592
 3019SOL    HW120519   1.736   0.086  17.112  0.7080  0.4234  0.1017
 3019SOL    HW220520   1.642   4.709  17.052 -0.8061  3.0799  0.5064
 3020SOL     OW20521   0.394   0.848   6.379  0.3785  0.5145 -0.1039
 3020SOL    HW120522   0.305   0.866   6.348 -0.2550 -1.8424  0.3085
 3020SOL    HW220523   0.436   0.805   6.305  1.4947  0.0049  0.8224
 3021SOL     OW20524   1.400   1.120   3.318 -0.0327 -0.2353  0.3486
 3021SOL    HW120525   1.447   1.074   3.248  1.5955 -0.1128  1.3636
 3021SOL    HW220526   1.394   1.044   3.375  1.9774 -1.3052 -0.8657
 3022SOL     OW20527   0.201   2.344   6.891 -0.2362  0.3439  0.2786
 3022SOL    HW120528   0.125   2.401   6.900 -0.5267  0.2556 -1.6541
 3022SOL    HW220529   0.174   2.296   6.812  0.5377 -1.6847  1.2277
 3023SOL     OW20530   4.053   1.699   2.024  0.0556  0.9662 -0.1418
 3023SOL    HW120531   4.072   1.772   2.084  1.6183  0.7796 -0.4075
 3023SOL    HW220532   3.958   1.686   2.030  0.4103 -2.2813 -1.5054
 3024SOL     OW20533   4.127   0.012  11.095 -0.1134  0.3600  0.5597
 3024SOL    HW120534   4.136   0.094  11.046  1.2417  0.5008  1.0547
 3024SOL    HW220535   4.060   4.694  11.041 -0.2416  0.8930  0.3069
 3025SOL     OW20536   3.581   3.027   9.028  0.6351  0.3115  0.5503
 3025SOL    HW120537   3.651   3.083   8.996  0.7396  0.5897  1.2613
 3025SOL    HW220538   3.547   3.087   9.095 -0.3018 -1.0640  1.3051
 3026SOL     OW20539   3.209   2.188  17.602  0.7273 -0.7145  0.3607
 3026SOL    HW120540   3.185   2.280  17.588 -1.8065 -1.5705 -0.9737
 3026SOL    HW220541   3.277   2.199  17.668 -0.0083  0.6705  0.8812
 3027SOL     OW20542   1.436   3.907  12.248 -0.2663  0.1599 -0.1712
 3027SOL    HW120543   1.348   3.874  12.266 -0.1613  0.2344  0.5106
 3027SOL    HW220544   1.489   3.828  12.255  0.5426  0.6589 -0.5380
 3028SOL     OW20545   1.476   4.222  12.315  0.1804  0.6945  0.1663
 3028SOL    HW120546   1.552   4.260  12.358 -1.0989  1.1542  2.0164
 3028SOL    HW220547   1.442   4.297  12.266  0.7996 -0.3780 -1.8868
 3029SOL     OW20548   4.623   4.207   0.833 -0.0512 -0.0279 -0.6144
 3029SOL    HW120549   4.596   4.289   0.874  0.8301  0.1321 -0.3620
 3029SOL    HW220550   4.565   4.138   0.866 -1.0102  1.3800  0.6430
 3030SOL     OW20551   1.665   4.323  10.273 -0.0113 -1.1945 -0.6787
 3030SOL    HW120552   1.702   4.339  10.360 -0.8087 -2.1684 -0.1718
 3030SOL    HW220553   1.686   4.230  10.263  2.0488 -1.0051  2.0018
 3031SOL     OW20554   1.183   2.793   2.200  0.2632 -0.2252  0.5238
 3031SOL    HW120555   1.186   2.858   2.130 -0.7288 -0.8850 -0.1270
 3031SOL    HW220556   1.133   2.728   2.150 -0.9660 -0.6956  2.3896
 3032SOL     OW20557   2.285   2.369   3.098 -0.0458  0.7760  0.5504
 3032SOL    HW120558   2.377   2.366   3.124  0.1104  3.2472  0.2571
 3032SOL    HW220559   2.291   2.298   3.034 -2.2474  0.1180  1.0558
 3033SOL     OW20560   2.034   2.075  11.077 -0.3597 -0.0888 -0.2714
 3033SOL    HW120561   2.117   2.064  11.122 -3.4867 -0.7274  5.3017
 3033SOL    HW220562   2.045   2.136  11.004 -1.6951 -1.7557 -1.8850
 3034SOL     OW20563   0.559   2.220  17.655 -0.3080  0.0288  0.0689
 3034SOL    HW120564   0.620   2.173  17.600 -1.9721  1.2361 -2.7972
 3034SOL    HW220565   0.529   2.148   0.013  0.1139  0.1727  0.4781
 3035SOL     OW20566   2.790   2.807   7.250  0.3467 -0.0735 -0.3624
 3035SOL    HW120567   2.723   2.777   7.188 -0.5880 -0.5719  0.8843
 3035SOL    HW220568   2.819   2.729   7.297 -1.4968  0.9065  2.4449
 3036SOL     OW20569   0.600   0.991   2.212 -0.2663 -0.1567  0.1538
 3036SOL    HW120570   0.558   1.048   2.276  1.4330  2.7280 -1.3067
 3036SOL    HW220571   0.646   0.939   2.278  0.0144 -0.3464 -0.1886
 3037SOL     OW20572   4.127   1.471  11.646 -0.0957  0.2827 -0.6692
 3037SOL    HW120573   4.034   1.468  11.620  0.0203  1.8861 -1.2736
 3037SOL    HW220574   4.133   1.553  11.694 -0.6331 -0.8209  1.2722
 3038SOL     OW20575   3.175   1.567   6.794  0.6887  0.8074 -0.4066
 3038SOL    HW120576   3.265   1.554   6.766  0.1051 -1.9404 -0.9492
 3038SOL    HW220577   3.149   1.476   6.806  0.4382  0.8364 -0.7103
 3039SOL     OW20578   2.527   3.326   1.460 -0.0921 -0.2906 -0.0304
 3039SOL    HW120579   2.462   3.392   1.436  1.2795  0.9194 -0.3767
 3039SOL    HW220580   2.598   3.358   1.405  0.5772 -2.8899 -0.6667
 3040SOL     OW20581   1.957   1.461   4.342 -0.2566 -0.6977  0.3556
 3040SOL    HW120582   1.947   1.485   4.250 -2.3320 -0.5271  0.6123
 3040SOL    HW220583   2.050   1.478   4.357 -0.5376  2.4376 -1.6021
 3041SOL     OW20584   0.306   0.661  10.050  0.2132  0.3425  0.0043
 3041SOL    HW120585   0.371   0.725  10.079  1.0354 -0.8735  0.8216
 3041SOL    HW220586   0.345   0.583  10.090 -0.8156 -0.1708 -0.0005
 3042SOL     OW20587   4.650   0.774   8.165 -0.6220 -0.0771 -0.3664
 3042SOL    HW120588   4.639   0.697   8.220 -0.1675  0.9702  1.1850
 3042SOL    HW220589   0.021   0.779   8.156 -0.4726 -0.1038  1.3171
 3043SOL     OW20590   1.527   2.483  15.980  0.3803 -0.0610  0.2201
 3043SOL    HW120591   1.562   2.541  15.912 -0.3911 -0.1717 -0.2703
 3043SOL    HW220592   1.597   2.418  15.972 -0.7828 -1.3238  0.3545
 3044SOL     OW20593   0.807   3.408   7.965  0.1979  0.3945  0.2196
 3044SOL    HW120594   0.873   3.460   7.919  0.0094  0.0145 -0.4881
 3044SOL    HW220595   0.785   3.346   7.895 -0.5159 -0.3523  1.1000
 3045SOL     OW20596   3.854   0.918  15.115 -0.1260  0.4962  0.1477
 3045SOL    HW120597   3.871   1.001  15.158  0.0136  2.0529 -2.8789
 3045SOL    HW220598   3.791   0.953  15.052 -0.2286 -1.1869 -0.6832
 3046SOL     OW20599   2.524   3.568  14.312 -0.7184 -0.2003 -0.2792
 3046SOL    HW120600   2.445   3.515  14.299 -2.2811  2.6972 -2.3538
 3046SOL    HW220601   2.519   3.620  14.232 -1.1428 -1.0438 -0.8022
 3047SOL     OW20602   2.470   0.094   4.011  0.1379 -0.4386  0.1957
 3047SOL    HW120603   2.517   0.046   3.942  0.4702 -2.4803  1.8420
 3047SOL    HW220604   2.389   0.113   3.963 -0.3699 -1.2083  0.7469
 3048SOL     OW20605   3.910   2.977  13.998 -0.3957  0.1706 -0.1708
 3048SOL    HW120606   3.831   3.004  14.046 -0.0084  1.4691 -0.2736
 3048SOL    HW220607   3.975   3.028  14.046  1.0304 -1.8613  0.0608
 3049SOL     OW20608   2.966   1.850   4.835 -0.2997 -0.2908  0.1543
 3049SOL    HW120609   3.014   1.825   4.756 -0.1469  3.1347 -0.8687
 3049SOL    HW220610   3.018   1.926   4.863  1.4180 -0.8144 -1.6303
 3050SOL     OW20611   1.088   2.296   7.198  0.1738 -0.2511  0.5256
 3050SOL    HW120612   1.054   2.261   7.281 -2.4185  1.1645  0.0671
 3050SOL    HW220613   1.033   2.374   7.189  0.3421 -0.2131 -0.1252
 3051SOL     OW20614   3.480   1.969  11.641  0.3190  0.4046 -0.8537
 3051SOL    HW120615   3.442   2.041  11.691  2.9146  1.6399 -0.6627
 3051SOL    HW220616   3.463   1.995  11.551 -0.8117  2.0462 -0.1631
 3052SOL     OW20617   1.667   0.538   3.467 -0.3201 -0.0093  0.2130
 3052SOL    HW120618   1.752   0.499   3.489  1.2011  0.8288 -4.2538
 3052SOL    HW220619   1.611   0.461   3.459  2.4951 -2.1425  0.7230
 3053SOL     OW20620   1.341   3.894   1.950 -0.0483 -0.3267  0.1490
 3053SOL    HW120621   1.419   3.935   1.911 -0.6150  0.7112  0.1064
 3053SOL    HW220622   1.324   3.827   1.883 -0.7807  1.6769 -1.6641
 3054SOL     OW20623   1.342   2.289  14.644  0.0001 -0.0189 -0.5097
 3054SOL    HW120624   1.379   2.201  14.652 -0.4133 -0.2897 -1.5887
 3054SOL    HW220625   1.310   2.286  14.554 -2.4310 -5.0967  0.5015
 3055SOL     OW20626   1.890   1.126  12.576 -0.1980  0.1870 -0.4345
 3055SOL    HW120627   1.892   1.159  12.666 -0.5331 -1.1380  0.0633
 3055SOL    HW220628   1.892   1.215  12.540  0.0910  0.4041  0.1264
 3056SOL     OW20629   1.591   1.137   5.763 -0.0779 -0.5699  0.5464
 3056SOL    HW120630   1.542   1.097   5.691  1.2459  0.8295 -1.1181
 3056SOL    HW220631   1.522   1.138   5.830 -0.2961 -1.5421  0.3345
 3057SOL     OW20632   0.667   4.715   8.536 -0.2102  0.1586 -0.0631
 3057SOL    HW120633   0.668   4.653   8.463  3.8387  0.3943 -0.1918
 3057SOL    HW220634   0.686   4.651   8.605  3.2782  0.5766 -0.6259
 3058SOL     OW20635   2.332   2.558   0.765  0.7267  0.2375 -0.0521
 3058SOL    HW120636   2.399   2.577   0.699  0.0472  1.3993 -0.4060
 3058SOL    HW220637   2.343   2.622   0.836 -0.8598 -0.5116  0.8716
 3059SOL     OW20638   1.134   2.988  14.198 -0.0246  0.9405  1.2124
 3059SOL    HW120639   1.148   2.893  14.207  1.5798  0.7555 -3.5327
 3059SOL    HW220640   1.056   2.996  14.253 -1.2258 -0.5042 -0.3031
 3060SOL     OW20641   3.390   4.450   3.952 -0.3992 -0.0693 -0.2431
 3060SOL    HW120642   3.363   4.461   4.043 -0.1844  1.7924 -0.4040
 3060SOL    HW220643   3.419   4.539   3.931 -5.5647  2.0177  1.4775
 3061SOL     OW20644   4.684   3.126   3.844  0.1184 -0.0241  0.3122
 3061SOL    HW120645   0.048   3.109   3.878 -0.3881  0.1413  1.7004
 3061SOL    HW220646   4.679   3.220   3.833 -1.4272 -0.0399  0.8566
 3062SOL     OW20647   4.321   3.510   4.192  0.0219  0.3995  0.3272
 3062SOL    HW120648   4.353   3.600   4.200 -1.1673  0.9829 -1.3844
 3062SOL    HW220649   4.347   3.465   4.272  1.1828 -2.2130 -1.5012
 3063SOL     OW20650   1.978   0.303  14.141  0.1946 -0.7272  0.6507
 3063SOL    HW120651   1.959   0.383  14.092 -0.2585 -1.0912  0.2393
 3063SOL    HW220652   2.037   0.257  14.082 -0.0381  0.0005 -0.1453
 3064SOL     OW20653   4.067   0.497   6.458 -0.5670 -0.1354  0.1193
 3064SOL    HW120654   4.019   0.415   6.461 -1.1314  0.2284  1.2000
 3064SOL    HW220655   4.044   0.530   6.545  1.6679  3.5287 -0.6674
 3065SOL     OW20656   1.670   1.625   8.224  0.2156 -0.0142 -0.0198
 3065SOL    HW120657   1.610   1.551   8.232  1.7941 -1.1985  0.8375
 3065SOL    HW220658   1.727   1.601   8.151  1.8449  1.6576  0.7015
 3066SOL     OW20659   3.663   2.001   9.499 -0.1080  0.3492  0.1706
 3066SOL    HW120660   3.730   2.052   9.546 -0.8986  0.3027  1.3462
 3066SOL    HW220661   3.615   2.073   9.459  0.8163  1.1680  0.5348
 3067SOL     OW20662   3.124   1.737   6.170 -0.1349  0.3132 -0.0515
 3067SOL    HW120663   3.122   1.686   6.089 -0.7466 -0.8228  0.6960
 3067SOL    HW220664   3.029   1.750   6.170 -0.2605 -0.6390  0.6209
 3068SOL     OW20665   2.279   0.553   0.749 -0.4779 -0.1745  0.4222
 3068SOL    HW120666   2.295   0.529   0.658 -0.1280 -1.5000  0.8220
 3068SOL    HW220667   2.353   0.609   0.774 -0.6144  0.2590 -0.1465
 3069SOL     OW20668   0.167   4.023   7.228 -0.3291 -0.5106 -0.2169
 3069SOL    HW120669   0.102   4.014   7.158 -2.1966  3.2243  1.0493
 3069SOL    HW220670   0.221   3.945   7.214 -0.1528 -0.2990 -0.7156
 3070SOL     OW20671   4.061   2.044  15.674  0.4681  0.4208 -0.1750
 3070SOL    HW120672   4.042   2.008  15.587 -1.3643 -0.7817  0.7233
 3070SOL    HW220673   4.098   1.970  15.722 -1.1716 -1.5433 -1.9144
 3071SOL     OW20674   4.139   2.699   5.298 -0.4391 -0.3579 -0.0231
 3071SOL    HW120675   4.163   2.639   5.227  2.8238  0.3692  0.4374
 3071SOL    HW220676   4.136   2.781   5.250 -2.8132 -0.2405  0.3591
 3072SOL     OW20677   3.734   2.186  10.088 -0.4065 -0.0331  0.0824
 3072SOL    HW120678   3.714   2.128  10.161 -2.3866 -1.1815 -1.3559
 3072SOL    HW220679   3.729   2.127  10.014 -0.6780 -0.5140  0.4870
 3073SOL     OW20680   0.710   4.483  15.836  0.6179 -0.1784  0.2504
 3073SOL    HW120681   0.698   4.537  15.915  0.3327  0.0844  0.0287
 3073SOL    HW220682   0.806   4.473  15.835  0.2841 -2.9685 -1.0553
 3074SOL     OW20683   2.004   2.945   1.053 -0.2436 -0.4842 -0.0417
 3074SOL    HW120684   1.987   2.957   1.146 -0.5484  0.4420 -0.2161
 3074SOL    HW220685   2.082   2.890   1.048  1.2203  1.8308 -2.8929
 3075SOL     OW20686   2.229   1.443   1.604  1.2399  0.0081  0.2669
 3075SOL    HW120687   2.171   1.510   1.640  0.4432  0.0973 -1.1708
 3075SOL    HW220688   2.159   1.387   1.569  1.3566 -0.1162  0.2352
 3076SOL     OW20689   0.312   2.886   4.510 -0.3813 -0.0990  0.0255
 3076SOL    HW120690   0.344   2.966   4.551 -1.4112  1.4788 -2.2243
 3076SOL    HW220691   0.240   2.925   4.459 -0.5005 -1.0197 -0.5045
 3077SOL     OW20692   1.819   3.484  13.682 -0.1278  0.4872  0.1306
 3077SOL    HW120693   1.753   3.553  13.676  0.4679  1.0723  0.2457
 3077SOL    HW220694   1.904   3.525  13.666  0.0299  0.7338  1.6402
 3078SOL     OW20695   3.868   3.099  13.423 -0.1088 -0.2048 -0.2889
 3078SOL    HW120696   3.871   3.057  13.509  0.8995  0.0942 -0.1861
 3078SOL    HW220697   3.773   3.113  13.415 -0.0082  0.9885  0.7326
 3079SOL     OW20698   3.227   3.384  11.616 -0.9424  0.0972  0.0843
 3079SOL    HW120699   3.142   3.415  11.648 -2.6523 -2.5098 -1.9261
 3079SOL    HW220700   3.282   3.462  11.625 -0.3637 -0.5637  2.1105
 3080SOL     OW20701   0.203   3.664   5.379  0.4849  0.1922  0.1216
 3080SOL    HW120702   0.289   3.657   5.338  0.6428  1.3237  0.2817
 3080SOL    HW220703   0.163   3.577   5.389  0.3596  0.5046  2.4123
 3081SOL     OW20704   1.014   0.091  16.074  0.2306 -0.4175  0.2616
 3081SOL    HW120705   1.072   0.067  16.002  0.3535  3.0186 -0.7805
 3081SOL    HW220706   0.941   0.032  16.053  0.7772 -0.3613 -1.7626
 3082SOL     OW20707   2.569   2.776   4.957 -0.4144  0.8878  0.2559
 3082SOL    HW120708   2.649   2.827   4.968 -0.3841  0.8632  0.1398
 3082SOL    HW220709   2.572   2.719   5.034 -0.0974 -0.8728 -1.0642
 3083SOL     OW20710   2.461   3.264   8.778  0.0406 -0.1149 -0.5216
 3083SOL    HW120711   2.516   3.325   8.827 -0.0626  0.7584 -1.4871
 3083SOL    HW220712   2.432   3.321   8.707  0.2441 -0.9797 -1.2965
 3084SOL     OW20713   2.900   4.431   3.028 -0.0037  0.2240  0.2032
 3084SOL    HW120714   2.962   4.423   3.101 -1.4417 -0.7879  1.3277
 3084SOL    HW220715   2.883   4.340   3.002  1.2650  0.4062 -1.2167
 3085SOL     OW20716   2.096   2.459   9.355  1.0225 -0.3552 -0.3315
 3085SOL    HW120717   2.036   2.533   9.345  2.2193  0.6774  0.1531
 3085SOL    HW220718   2.033   2.403   9.401  0.5543 -0.3769 -1.0090
 3086SOL     OW20719   0.063   2.909  13.701  0.0898  0.3995 -0.0560
 3086SOL    HW120720   0.105   2.966  13.638 -0.2082  0.4485 -0.2141
 3086SOL    HW220721   4.697   2.907  13.669 -0.1614  0.4901  0.6388
 3087SOL     OW20722   1.727   1.216   5.471  0.4678  0.3343 -0.0678
 3087SOL    HW120723   1.763   1.139   5.514 -0.2784 -0.2973 -0.5739
 3087SOL    HW220724   1.782   1.287   5.504  1.4348 -0.7641  0.6945
 3088SOL     OW20725   4.070   2.066   1.623 -0.3036  0.5461 -0.0871
 3088SOL    HW120726   4.064   2.016   1.705  0.8522 -0.6603 -0.7348
 3088SOL    HW220727   4.062   2.151   1.665 -0.5548  0.5263 -0.0958
 3089SOL     OW20728   3.442   0.169  14.169  0.1941  0.3080  0.0219
 3089SOL    HW120729   3.404   0.084  14.193  1.2443 -0.4006 -0.8189
 3089SOL    HW220730   3.493   0.145  14.092 -3.3096  0.0990 -2.2191
 3090SOL     OW20731   0.187   3.223   2.256  0.1895  0.1018 -0.1148
 3090SOL    HW120732   0.169   3.129   2.266  0.5614 -0.1789 -2.1509
 3090SOL    HW220733   0.255   3.230   2.323 -1.6785  2.4583  1.5422
 3091SOL     OW20734   3.993   4.483   2.549  0.1542 -0.1090 -0.6941
 3091SOL    HW120735   3.993   4.544   2.476 -0.0673  0.4239 -0.2509
 3091SOL    HW220736   3.910   4.498   2.595 -0.9430 -1.7911 -2.1510
 3092SOL     OW20737   0.698   3.463   5.028  0.6191  0.4487 -0.4289
 3092SOL    HW120738   0.628   3.529   5.023  0.1224 -0.3630 -4.3966
 3092SOL    HW220739   0.752   3.508   5.092 -0.8011  2.3014 -0.5371
 3093SOL     OW20740   2.435   2.483   0.048  0.1609  0.5077  0.3778
 3093SOL    HW120741   2.402   2.541   0.117  0.4703 -0.1745  1.0972
 3093SOL    HW220742   2.405   2.519  17.663  0.3658  0.5670  0.3295
 3094SOL     OW20743   0.308   4.398   6.588 -0.6236  0.2943 -0.5140
 3094SOL    HW120744   0.379   4.460   6.608 -1.1777  0.9241 -0.4910
 3094SOL    HW220745   0.315   4.335   6.659 -1.2526  1.7201  0.8221
 3095SOL     OW20746   3.598   1.717   2.380  0.6415  0.8784  0.1379
 3095SOL    HW120747   3.682   1.758   2.359  1.2535 -0.2312  0.4796
 3095SOL    HW220748   3.569   1.765   2.457 -1.1081  2.7044 -1.6529
 3096SOL     OW20749   1.187   3.140   8.422  0.1735  0.4436  0.0171
 3096SOL    HW120750   1.192   3.047   8.442  0.1185  0.5766  0.6690
 3096SOL    HW220751   1.253   3.169   8.486  0.0925 -0.3227  0.4412
 3097SOL     OW20752   1.606   2.629  12.200  0.4442 -0.2494  0.0315
 3097SOL    HW120753   1.530   2.674  12.236  0.9142 -1.0608  2.0490
 3097SOL    HW220754   1.679   2.686  12.225  0.1684  0.2302 -0.2613
 3098SOL     OW20755   4.054   1.349   4.460  0.0029  0.1326 -0.0726
 3098SOL    HW120756   3.984   1.347   4.394 -0.1957  2.1396  0.0672
 3098SOL    HW220757   4.075   1.258   4.481  1.0718  0.4417  0.1512
 3099SOL     OW20758   3.290   0.122   6.530 -0.3861 -0.4633 -0.3963
 3099SOL    HW120759   3.238   0.198   6.555 -0.0948  0.0707 -1.4161
 3099SOL    HW220760   3.290   0.136   6.435  4.0877  2.5661  0.0378
 3100SOL     OW20761   2.345   4.657   6.273  0.1021 -0.2995  1.0159
 3100SOL    HW120762   2.382   4.603   6.344  1.0255 -1.7071 -0.5197
 3100SOL    HW220763   2.286   4.591   6.237  1.3718 -0.5546 -0.5997
 3101SOL     OW20764   2.584   3.993   8.048  0.3007  0.7457  0.3192
 3101SOL    HW120765   2.518   3.928   8.025  1.4938 -0.5494  0.5803
 3101SOL    HW220766   2.596   4.026   7.959  0.0882 -0.3209 -0.0952
 3102SOL     OW20767   0.011   0.795   7.835  0.3702  0.2454  0.3650
 3102SOL    HW120768   4.661   0.781   7.777  1.5440 -0.6451 -0.9167
 3102SOL    HW220769   0.031   0.714   7.882  0.4241  0.3635  0.5494
 3103SOL     OW20770   4.718   0.498  17.554  0.2116  0.0135 -0.2843
 3103SOL    HW120771   4.658   0.425  17.537 -0.4991  0.5794 -0.2075
 3103SOL    HW220772   4.684   0.528  17.638 -1.4676 -1.7155 -0.3385
 3104SOL     OW20773   2.791   2.789   7.788 -1.0003 -0.7410 -0.0468
 3104SOL    HW120774   2.751   2.856   7.843  0.6812  0.6481 -0.5111
 3104SOL    HW220775   2.759   2.809   7.700  0.5495 -0.0867 -0.4532
 3105SOL     OW20776   2.392   1.918   0.836 -0.3181 -0.1948 -0.4298
 3105SOL    HW120777   2.416   1.919   0.743  1.0635 -2.4680 -0.1099
 3105SOL    HW220778   2.344   1.836   0.832 -0.0444 -0.3564 -0.4514
 3106SOL     OW20779   3.110   2.897  16.460 -0.5521 -0.4326 -0.3532
 3106SOL    HW120780   3.108   2.920  16.553 -0.5909  1.6511 -0.8789
 3106SOL    HW220781   3.189   2.945  16.435 -0.2623 -0.3879  0.6539
 3107SOL     OW20782   2.864   1.836   6.161 -0.2237  0.7789  0.0629
 3107SOL    HW120783   2.816   1.845   6.079 -0.6496  0.2064  0.2519
 3107SOL    HW220784   2.824   1.759   6.201 -0.7942  0.3219 -1.4199
 3108SOL     OW20785   1.524   2.658   5.116  0.0518  0.3148  0.4570
 3108SOL    HW120786   1.532   2.704   5.032 -1.9879 -2.5409 -1.2982
 3108SOL    HW220787   1.562   2.722   5.176  1.7644 -1.1517  0.9007
 3109SOL     OW20788   0.919   0.725   9.076 -0.0202  0.7521 -0.5114
 3109SOL    HW120789   0.865   0.730   8.997  0.2303 -0.5764 -0.7770
 3109SOL    HW220790   0.875   0.646   9.107 -0.2298  0.0108 -2.7258
 3110SOL     OW20791   2.552   2.169   0.717 -0.5647 -0.5437  0.2948
 3110SOL    HW120792   2.536   2.076   0.702  1.6860 -1.0298  1.0689
 3110SOL    HW220793   2.551   2.200   0.626  1.5974 -1.2156  0.0533
 3111SOL     OW20794   2.519   2.977   3.390 -0.3358  0.3086  0.1873
 3111SOL    HW120795   2.591   2.984   3.451  0.2842 -0.6794 -0.4289
 3111SOL    HW220796   2.467   2.907   3.430 -0.4761 -0.1096 -0.7224
 3112SOL     OW20797   2.367   0.924   6.312 -0.7888 -0.7130 -0.0747
 3112SOL    HW120798   2.410   0.950   6.230 -2.7165 -1.6511 -1.3725
 3112SOL    HW220799   2.374   1.001   6.368 -2.0375 -0.9674  0.4326
 3113SOL     OW20800   3.389   2.304   4.643 -0.3010 -0.4128 -0.4241
 3113SOL    HW120801   3.468   2.326   4.693 -1.0845 -1.6452  1.3504
 3113SOL    HW220802   3.405   2.380   4.587 -0.6879 -0.2495 -0.3126
 3114SOL     OW20803   2.324   3.048   7.206  0.1532 -0.3810 -1.0059
 3114SOL    HW120804   2.389   3.061   7.138 -1.3452  1.2986 -2.1186
 3114SOL    HW220805   2.269   2.982   7.165 -0.0181 -0.6901 -0.2829
 3115SOL     OW20806   2.149   2.072   3.330  0.4091 -0.2273  0.5637
 3115SOL    HW120807   2.113   2.160   3.317  1.3542  0.2598  1.2090
 3115SOL    HW220808   2.218   2.096   3.393  0.2553 -2.6020  1.6077
 3116SOL     OW20809   4.565   1.251  10.891 -0.7385  0.0738  0.8959
 3116SOL    HW120810   4.622   1.297  10.953  0.6998 -1.3080  0.5969
 3116SOL    HW220811   4.621   1.267  10.815 -1.2681  2.7671  1.0725
 3117SOL     OW20812   3.946   3.088   1.727 -0.0791  0.6445  0.0704
 3117SOL    HW120813   3.941   3.007   1.779 -1.1799  0.7218  0.0986
 3117SOL    HW220814   3.942   3.036   1.646  0.1931  1.4385 -0.4465
 3118SOL     OW20815   1.660   1.596  14.060  0.1466 -0.7263 -0.0511
 3118SOL    HW120816   1.574   1.569  14.091  0.2298  0.5049  1.2980
 3118SOL    HW220817   1.680   1.676  14.110 -1.1164  1.1975 -2.6275
 3119SOL     OW20818   4.109   3.496  16.079 -0.3877 -0.7528  0.1196
 3119SOL    HW120819   4.184   3.473  16.134  0.2074  0.4747 -0.1543
 3119SOL    HW220820   4.062   3.416  16.059 -0.7195 -0.6614  0.5526
 3120SOL     OW20821   1.906   2.103   4.850 -0.1682  0.1095 -0.2098
 3120SOL    HW120822   1.821   2.060   4.854  0.7503 -1.7237 -0.2984
 3120SOL    HW220823   1.882   2.189   4.885  0.3725 -0.3175  1.2370
 3121SOL     OW20824   0.510   0.691   0.995 -0.4085 -0.4428 -0.3276
 3121SOL    HW120825   0.463   0.773   1.010 -0.4543 -0.5551  0.1452
 3121SOL    HW220826   0.596   0.730   0.981 -0.2587 -0.5579  0.2502
 3122SOL     OW20827   0.513   3.356  16.488 -0.6287  0.1262  0.0798
 3122SOL    HW120828   0.441   3.364  16.426 -1.2762 -0.5693  0.7475
 3122SOL    HW220829   0.585   3.413  16.461 -1.9993  0.8380 -2.0717
 3123SOL     OW20830   4.585   3.183   6.196  0.0737  0.1917 -0.1193
 3123SOL    HW120831   4.611   3.140   6.115  1.5139  0.7781  0.0353
 3123SOL    HW220832   4.595   3.111   6.259  0.2515 -1.0256 -1.5483
 3124SOL     OW20833   3.401   4.716   1.482 -0.6425  0.6280 -0.0803
 3124SOL    HW120834   3.355   4.698   1.400  0.0340 -3.1517  0.3354
 3124SOL    HW220835   3.478   0.043   1.456 -0.3034  0.6095  0.8821
 3125SOL     OW20836   3.325   3.502   6.003  0.0043  0.0948  0.1560
 3125SOL    HW120837   3.232   3.499   5.981  0.1681  2.5572 -0.7960
 3125SOL    HW220838   3.348   3.411   6.025 -0.5787  0.3228  1.7116
 3126SOL     OW20839   2.519   2.606  11.630 -0.3089 -0.1010  0.1378
 3126SOL    HW120840   2.500   2.641  11.717  3.6852 -0.1978  1.0396
 3126SOL    HW220841   2.544   2.519  11.660  0.4957  0.2742  0.5702
 3127SOL     OW20842   2.355   0.922   3.396  0.2022 -0.1768  0.5161
 3127SOL    HW120843   2.337   0.968   3.314  2.4161 -0.2877 -0.0317
 3127SOL    HW220844   2.442   0.882   3.387  0.0102 -0.5079  0.1064
 3128SOL     OW20845   3.803   4.508   9.366  0.7819 -0.6778 -0.8050
 3128SOL    HW120846   3.835   4.507   9.456 -1.3560  0.9050 -0.0367
 3128SOL    HW220847   3.720   4.463   9.385 -0.3880  2.3927  1.3324
 3129SOL     OW20848   2.552   4.264   8.578 -0.0520 -0.1299 -0.3167
 3129SOL    HW120849   2.602   4.227   8.651  0.7553  0.9414 -0.3331
 3129SOL    HW220850   2.488   4.313   8.630 -0.3282 -0.1070 -0.6751
 3130SOL     OW20851   0.253   4.313  17.185 -0.6072 -0.1616  0.6328
 3130SOL    HW120852   0.163   4.279  17.184 -0.1131 -1.4740  2.1768
 3130SOL    HW220853   0.277   4.294  17.094 -3.0069  1.7530 -0.4075
 3131SOL     OW20854   2.618   1.800   2.969 -0.1899 -0.4065 -0.5778
 3131SOL    HW120855   2.550   1.848   2.921 -1.3256 -0.9062  0.5247
 3131SOL    HW220856   2.563   1.735   3.013 -1.6152  0.8121 -0.5163
 3132SOL     OW20857   4.528   1.079   7.493 -1.1357 -0.1641 -0.9888
 3132SOL    HW120858   4.448   1.057   7.540 -0.2626  0.7185  0.8931
 3132SOL    HW220859   4.555   1.160   7.538  0.9043 -0.4310 -1.7158
 3133SOL     OW20860   2.745   0.641   6.007 -0.0879 -0.1893 -0.2082
 3133SOL    HW120861   2.793   0.591   6.072  1.1560  2.6473  1.0406
 3133SOL    HW220862   2.813   0.661   5.942  0.2363 -0.1398  0.1490
 3134SOL     OW20863   2.350   1.677   7.448 -0.1158 -0.2174  0.1096
 3134SOL    HW120864   2.431   1.628   7.463  1.8318  2.4491 -1.6718
 3134SOL    HW220865   2.378   1.738   7.379  1.6829  0.5338  1.5021
 3135SOL     OW20866   1.462   4.639   0.409  0.1658 -0.0136  0.2834
 3135SOL    HW120867   1.551   4.668   0.389  0.1658 -0.5578 -0.5010
 3135SOL    HW220868   1.432   4.719   0.452  3.0929  0.2524  1.8195
 3136SOL     OW20869   2.562   2.447   7.845 -0.0975 -0.5412 -0.3190
 3136SOL    HW120870   2.565   2.352   7.831  1.1364 -0.8255  1.9314
 3136SOL    HW220871   2.652   2.470   7.822  0.0902  0.0199  0.9689
 3137SOL     OW20872   0.838   2.961  12.093 -0.2208 -0.1756 -0.0136
 3137SOL    HW120873   0.851   2.993  12.182  2.8034  0.3447 -0.6544
 3137SOL    HW220874   0.797   2.878  12.119  2.5079 -2.1320 -1.9511
 3138SOL     OW20875   2.258   1.448  14.716 -0.5035 -0.0271 -0.0482
 3138SOL    HW120876   2.275   1.496  14.797 -0.5277  0.2258 -0.1937
 3138SOL    HW220877   2.200   1.377  14.744 -0.5548  0.2450  0.5284
 3139SOL     OW20878   4.512   2.050   7.521  0.2957 -0.0845 -0.6409
 3139SOL    HW120879   4.454   1.976   7.503  0.7641 -0.5115 -0.4046
 3139SOL    HW220880   4.581   2.017   7.462  3.2383  0.9295  2.2367
 3140SOL     OW20881   0.241   0.320   2.468 -0.2971  0.3146  0.3678
 3140SOL    HW120882   0.219   0.394   2.524  1.4881  1.4047 -0.3595
 3140SOL    HW220883   0.203   0.354   2.387 -1.9407  1.9871  1.8488
 3141SOL     OW20884   1.640   0.881   5.391 -0.0252 -0.5158 -0.3944
 3141SOL    HW120885   1.732   0.902   5.407 -0.6564  1.6446  0.5103
 3141SOL    HW220886   1.620   0.905   5.301 -0.5262 -2.6769 -0.8513
 3142SOL     OW20887   1.336   0.832   8.137  0.1460  0.9069  0.1718
 3142SOL    HW120888   1.256   0.804   8.181  0.1673  1.0612  0.3097
 3142SOL    HW220889   1.369   0.757   8.088  2.2547  2.0458 -0.1385
 3143SOL     OW20890   1.959   3.135   6.935 -0.3939  0.1455  0.6162
 3143SOL    HW120891   2.018   3.196   6.891 -0.3430 -0.6078 -0.3547
 3143SOL    HW220892   2.019   3.071   6.973  0.7196  0.7270 -0.1559
 3144SOL     OW20893   3.591   2.151   2.889  0.1302 -0.0121  0.0414
 3144SOL    HW120894   3.506   2.151   2.844 -0.9625 -0.0308  2.0871
 3144SOL    HW220895   3.647   2.159   2.812 -0.2148 -1.9675 -0.3968
 3145SOL     OW20896   1.470   2.861   2.964 -0.1011  0.3152  0.1655
 3145SOL    HW120897   1.517   2.783   2.934 -0.0408  0.9889 -1.4798
 3145SOL    HW220898   1.522   2.932   2.928  2.9971 -0.5828  2.7494
 3146SOL     OW20899   3.597   1.175  11.057  0.4553  0.0533  0.2721
 3146SOL    HW120900   3.611   1.160  11.151  1.6277  0.4613  0.1603
 3146SOL    HW220901   3.535   1.247  11.067 -0.2735 -0.5601  0.1633
 3147SOL     OW20902   3.794   4.011   2.883  0.3053 -0.2300  0.1510
 3147SOL    HW120903   3.836   3.957   2.951 -0.9005  0.0654  1.1310
 3147SOL    HW220904   3.807   3.953   2.808  2.0577  0.2027  0.1214
 3148SOL     OW20905   0.351   3.839   6.931 -0.4131  0.2920 -0.7210
 3148SOL    HW120906   0.266   3.875   6.905 -0.1819  0.4404 -1.2740
 3148SOL    HW220907   0.340   3.844   7.026 -1.2940 -1.6759 -0.7303
 3149SOL     OW20908   3.366   1.236   6.260 -0.2490  0.0586  0.1757
 3149SOL    HW120909   3.384   1.173   6.190  0.7092  0.3765  0.1410
 3149SOL    HW220910   3.294   1.204   6.314  0.3403 -1.5462  0.0290
 3150SOL     OW20911   0.752   2.155   5.533 -0.0531  0.3220  0.2443
 3150SOL    HW120912   0.752   2.060   5.548 -0.8926  0.4942  1.3280
 3150SOL    HW220913   0.692   2.166   5.460 -3.0094 -2.8350  2.1571
 3151SOL     OW20914   4.473   0.853   2.684  0.5791  0.4849 -0.3268
 3151SOL    HW120915   4.562   0.820   2.672  0.5265 -0.1482  1.1618
 3151SOL    HW220916   4.437   0.848   2.595 -0.7631  1.1126  0.1793
 3152SOL     OW20917   2.532   3.890   8.857  0.4336 -0.3049 -0.1188
 3152SOL    HW120918   2.452   3.880   8.806 -0.0302 -1.6883  0.8708
 3152SOL    HW220919   2.499   3.863   8.943 -0.4650 -1.0316 -0.6859
 3153SOL     OW20920   3.611   1.274   1.995 -0.1639 -0.0202 -0.5185
 3153SOL    HW120921   3.672   1.296   1.925 -0.7159 -1.3144 -1.3904
 3153SOL    HW220922   3.533   1.312   1.956  0.5226  0.7789 -1.1013
 3154SOL     OW20923   3.639   3.336   4.140  0.4093 -0.0841 -0.2555
 3154SOL    HW120924   3.564   3.303   4.190 -1.0106 -0.1888 -2.4330
 3154SOL    HW220925   3.713   3.308   4.193  0.0917 -1.5714 -0.5736
 3155SOL     OW20926   2.966   1.035   3.245  0.6366  0.0923  0.2446
 3155SOL    HW120927   2.981   0.942   3.226  3.5271  0.4633  0.6486
 3155SOL    HW220928   2.904   1.038   3.318  1.6939  0.4014  1.1327
 3156SOL     OW20929   1.103   0.877   7.862  0.0414  0.1901  0.1867
 3156SOL    HW120930   1.110   0.786   7.831 -2.2921  0.4464 -1.1024
 3156SOL    HW220931   1.024   0.864   7.914 -0.3929 -0.2206 -0.5601
 3157SOL     OW20932   0.558   0.834  10.520 -0.4723 -0.4018 -0.3019
 3157SOL    HW120933   0.479   0.829  10.465  1.1693 -2.5092 -2.4764
 3157SOL    HW220934   0.558   0.929  10.535 -2.0891 -0.4468 -0.0010
 3158SOL     OW20935   0.436   0.969  13.124  0.4896 -0.5162 -0.3479
 3158SOL    HW120936   0.468   0.885  13.154  2.6778  0.2260 -0.5807
 3158SOL    HW220937   0.400   0.943  13.039 -2.0813 -1.9068  1.1843
 3159SOL     OW20938   3.666   1.891  12.789  0.6999  0.3302 -0.7266
 3159SOL    HW120939   3.713   1.881  12.705  3.2496  2.1517  0.4717
 3159SOL    HW220940   3.581   1.854  12.765  1.1912 -0.2472 -1.5961
 3160SOL     OW20941   3.806   1.981   3.083  0.2906 -0.1904 -0.3601
 3160SOL    HW120942   3.880   1.963   3.026  0.4603  3.2650 -1.2534
 3160SOL    HW220943   3.747   2.001   3.011  0.7350 -2.2005 -1.2568
 3161SOL     OW20944   3.182   0.715   7.783 -0.0633  0.2432  0.1195
 3161SOL    HW120945   3.133   0.724   7.701  0.7827 -0.8662 -0.4968
 3161SOL    HW220946   3.251   0.653   7.760 -0.3330 -0.0590  0.1297
 3162SOL     OW20947   2.601   4.475   9.068  0.1751 -0.0886  0.0954
 3162SOL    HW120948   2.588   4.542   9.001  0.6585  0.5275  0.6149
 3162SOL    HW220949   2.548   4.411   9.020 -1.1222  0.5950  0.6225
 3163SOL     OW20950   0.481   3.683   0.398 -0.4775  0.0258 -0.3994
 3163SOL    HW120951   0.497   3.777   0.395  0.5834 -0.2277 -2.6081
 3163SOL    HW220952   0.484   3.666   0.304  0.1482 -0.3357 -0.3112
 3164SOL     OW20953   1.457   2.258   5.969  0.2022  0.1385  0.2175
 3164SOL    HW120954   1.428   2.264   6.060 -1.1123  3.6782 -0.4432
 3164SOL    HW220955   1.490   2.169   5.954  2.8319  1.0309  0.7446
 3165SOL     OW20956   0.212   1.275   3.394  0.2111  0.1576  0.3491
 3165SOL    HW120957   0.154   1.337   3.348  1.8112 -0.7414 -2.8649
 3165SOL    HW220958   0.243   1.224   3.320 -1.6328 -1.2384  0.5562
 3166SOL     OW20959   1.115   3.292   5.765 -0.3113 -0.7088 -0.2229
 3166SOL    HW120960   1.145   3.229   5.700 -0.6237 -0.9060 -0.1761
 3166SOL    HW220961   1.192   3.338   5.799 -1.6479  0.5739  1.1168
 3167SOL     OW20962   0.824   2.431   4.733  0.1639  0.0231 -0.4209
 3167SOL    HW120963   0.744   2.420   4.682 -1.0454  2.3006  0.9810
 3167SOL    HW220964   0.879   2.366   4.690  1.2140  1.3048 -1.0465
 3168SOL     OW20965   3.445   1.784   3.191  0.2458 -0.7400 -0.1231
 3168SOL    HW120966   3.451   1.872   3.155 -0.9622  0.1537  1.8365
 3168SOL    HW220967   3.533   1.754   3.167  0.2921 -1.4134  0.8500
 3169SOL     OW20968   1.219   4.432   4.636  0.0821 -0.1366  0.1144
 3169SOL    HW120969   1.306   4.426   4.676  0.5262  2.7609 -0.4080
 3169SOL    HW220970   1.210   4.348   4.590  0.4723  1.0562 -2.1457
 3170SOL     OW20971   1.767   0.712   3.153 -0.1010 -0.3429 -0.7896
 3170SOL    HW120972   1.855   0.695   3.119 -0.5283 -1.3255 -1.3795
 3170SOL    HW220973   1.739   0.622   3.137  0.9971 -0.7416 -0.4603
 3171SOL     OW20974   1.866   4.620   7.767 -0.2274 -0.1149  0.5192
 3171SOL    HW120975   1.926   4.565   7.818  1.8527  0.6082 -1.1471
 3171SOL    HW220976   1.861   4.682   7.839  1.3812 -2.2882  2.4997
 3172SOL     OW20977   4.174   3.409   1.552 -0.2587 -0.2751 -0.5243
 3172SOL    HW120978   4.087   3.404   1.592 -0.7596  0.2117 -1.5489
 3172SOL    HW220979   4.218   3.443   1.629 -0.3844 -2.8956  0.6976
 3173SOL     OW20980   0.723   3.446   8.624  0.2028 -0.3721 -0.7606
 3173SOL    HW120981   0.797   3.386   8.622  0.1627 -0.4287 -0.4107
 3173SOL    HW220982   0.681   3.426   8.540 -2.9531  1.0649  0.4432
 3174SOL     OW20983   1.129   4.254   2.739  0.0391  0.5648  0.2445
 3174SOL    HW120984   1.156   4.339   2.704 -2.1653  0.5944 -1.3535
 3174SOL    HW220985   1.056   4.228   2.684  0.2851  0.5489 -0.0727
 3175SOL     OW20986   3.074   1.047   2.230  0.1361 -0.0142  0.2554
 3175SOL    HW120987   3.061   1.138   2.255  0.0297 -0.3053  1.2732
 3175SOL    HW220988   2.983   1.020   2.226  0.5063 -1.0102 -1.3322
 3176SOL     OW20989   0.238   0.734   0.075 -0.3513  0.5572  0.4448
 3176SOL    HW120990   0.295   0.661   0.099 -1.5960 -0.2624  0.9011
 3176SOL    HW220991   0.255   0.737  17.679 -2.3795  1.8318  0.1023
 3177SOL     OW20992   1.332   2.731  10.374 -0.5002 -0.2184  0.1600
 3177SOL    HW120993   1.424   2.720  10.400 -0.7149 -1.4256  0.4139
 3177SOL    HW220994   1.307   2.797  10.439  1.4656  0.1966  0.4929
 3178SOL     OW20995   2.252   1.669   0.897 -0.2933 -0.1503  0.7197
 3178SOL    HW120996   2.215   1.695   0.981  1.5202  0.5212  1.3094
 3178SOL    HW220997   2.200   1.595   0.865 -0.1811 -0.3446  0.9855
 3179SOL     OW20998   0.439   0.592   7.223  0.0457 -0.2038  0.1049
 3179SOL    HW120999   0.515   0.534   7.218  1.0025  1.0343  0.4619
 3179SOL    HW221000   0.379   0.531   7.180  0.2572  0.0116 -0.4971
 3180SOL     OW21001   1.216   1.844   4.130  0.1321  0.0871  0.6425
 3180SOL    HW121002   1.296   1.846   4.182  1.8881 -1.1739 -2.0030
 3180SOL    HW221003   1.174   1.763   4.160 -1.0218  0.9801  1.4489
 3181SOL     OW21004   4.429   0.257   6.192  0.4322 -0.4236 -0.3629
 3181SOL    HW121005   4.400   0.348   6.198 -0.3786 -0.6759 -0.3659
 3181SOL    HW221006   4.446   0.255   6.098 -0.8734  1.9344 -0.6464
 3182SOL     OW21007   2.525   1.871   6.206  0.3871 -0.7811 -0.1330
 3182SOL    HW121008   2.578   1.950   6.193 -3.4521  1.7950 -0.0216
 3182SOL    HW221009   2.585   1.816   6.256  0.6547 -0.7980 -0.4759
 3183SOL     OW21010   1.310   0.367   5.567 -0.3472  0.8352 -0.0218
 3183SOL    HW121011   1.400   0.400   5.568 -0.7984  2.2180 -3.0106
 3183SOL    HW221012   1.276   0.354   5.655 -0.0493 -0.9957 -0.1807
 3184SOL     OW21013   4.213   1.831   6.044 -0.1105 -0.2784 -0.6779
 3184SOL    HW121014   4.238   1.884   6.120 -0.5093 -1.2365  0.1305
 3184SOL    HW221015   4.212   1.897   5.975 -4.6582  1.0227  0.6435
 3185SOL     OW21016   4.094   4.115   4.435 -0.1165  0.1654 -0.1035
 3185SOL    HW121017   4.170   4.174   4.445  1.5670 -2.0361  0.0924
 3185SOL    HW221018   4.134   4.032   4.462 -3.6654 -0.8678  1.8947
 3186SOL     OW21019   4.337   2.655   8.478  0.5554 -0.1780 -0.1835
 3186SOL    HW121020   4.346   2.739   8.523 -1.5524 -0.1174  0.0969
 3186SOL    HW221021   4.399   2.659   8.405  0.3256 -0.5736 -0.3946
 3187SOL     OW21022   0.390   1.645   9.002  0.4445  0.4385  0.4695
 3187SOL    HW121023   0.301   1.616   9.021  0.2287 -0.7536 -2.3554
 3187SOL    HW221024   0.432   1.559   9.002  0.2360  0.3492 -1.8863
 3188SOL     OW21025   1.407   4.194  11.001  0.6867  0.8479  0.2722
 3188SOL    HW121026   1.412   4.289  11.016 -2.2776  0.6415  2.6226
 3188SOL    HW221027   1.373   4.162  11.084  0.6196  0.9687  0.2923
 3189SOL     OW21028   2.645   1.017   4.247 -0.5892  0.3198 -0.0544
 3189SOL    HW121029   2.567   0.988   4.201  0.5917 -0.5994 -1.4595
 3189SOL    HW221030   2.617   1.057   4.329 -1.2655 -1.2482  0.4855
 3190SOL     OW21031   0.351   3.209   4.459 -0.8102 -0.6259  0.9696
 3190SOL    HW121032   0.370   3.184   4.368  0.1341 -0.4473  1.1246
 3190SOL    HW221033   0.260   3.240   4.456 -0.7458 -0.5837 -0.7305
 3191SOL     OW21034   1.910   2.107   8.864  0.3117 -0.0708  0.1120
 3191SOL    HW121035   1.828   2.095   8.817  1.3857  0.4095 -1.8852
 3191SOL    HW221036   1.880   2.162   8.936 -0.4034  0.5759 -0.6832
 3192SOL     OW21037   0.645   3.289   0.564  0.2267  0.3340  0.2139
 3192SOL    HW121038   0.716   3.253   0.618 -0.0921  0.1904  0.5410
 3192SOL    HW221039   0.570   3.233   0.586  0.6674  0.4346  2.0012
 3193SOL     OW21040   4.335   3.187   6.355 -0.3485 -1.1621 -0.4921
 3193SOL    HW121041   4.429   3.178   6.374 -0.0825  0.3324 -1.0749
 3193SOL    HW221042   4.340   3.199   6.260 -0.7607 -1.0153 -0.4953
 3194SOL     OW21043   3.157   0.172   3.020  0.1508  0.4219  1.2729
 3194SOL    HW121044   3.109   0.152   2.940  0.1198 -1.9580  1.8696
 3194SOL    HW221045   3.243   0.143   2.991 -0.0126  0.7888  0.4202
 3195SOL     OW21046   1.819   0.685   4.788  0.3492 -0.6620 -0.2320
 3195SOL    HW121047   1.851   0.775   4.778  2.2617 -1.2855  0.2222
 3195SOL    HW221048   1.902   0.651   4.820  0.8242 -0.1847 -0.9565
 3196SOL     OW21049   3.053   1.924   4.311 -0.0291  0.0753  0.2686
 3196SOL    HW121050   2.977   1.926   4.369 -0.1564  2.0432  0.0273
 3196SOL    HW221051   3.082   2.015   4.314  0.4796 -0.1077  0.7901
 3197SOL     OW21052   2.156   2.991   5.892 -0.7319 -0.4757  0.1083
 3197SOL    HW121053   2.083   2.935   5.869 -0.6865 -0.3315 -0.3825
 3197SOL    HW221054   2.144   2.999   5.987 -2.0105  0.3259 -0.1286
 3198SOL     OW21055   0.388   4.534  13.084 -0.3456 -0.3044  0.2318
 3198SOL    HW121056   0.451   4.560  13.017  0.3356 -1.1205  0.5536
 3198SOL    HW221057   0.428   4.571  13.163  0.1935  0.5824 -0.4573
 3199SOL     OW21058   2.857   3.497   4.908 -0.0398 -0.3301 -0.5373
 3199SOL    HW121059   2.874   3.464   4.820 -0.8364  0.1055 -0.8566
 3199SOL    HW221060   2.872   3.586   4.877 -1.4242 -0.3979 -1.4168
 3200SOL     OW21061   0.066   3.221   9.198  0.0369 -0.0678  0.2982
 3200SOL    HW121062   4.695   3.215   9.190  0.0831  0.2300 -0.4559
 3200SOL    HW221063   0.068   3.255   9.288 -0.6963 -1.6767  0.9278
 3201SOL     OW21064   2.146   2.790  14.685 -0.4109  0.0313  0.1326
 3201SOL    HW121065   2.052   2.807  14.682 -0.2674  0.4148 -2.0322
 3201SOL    HW221066   2.168   2.818  14.774  3.2491 -1.6273 -0.2379
 3202SOL     OW21067   0.699   3.845  14.622  0.2408  0.4800 -0.2662
 3202SOL    HW121068   0.678   3.769  14.568 -2.1362  0.3986  0.7724
 3202SOL    HW221069   0.686   3.902  14.547 -0.5041  0.3875 -0.2068
 3203SOL     OW21070   4.017   4.652  14.599 -0.8324 -0.2063  0.2235
 3203SOL    HW121071   4.109   4.636  14.621 -0.6696  0.0900 -0.2328
 3203SOL    HW221072   4.002   0.020  14.620 -0.6277 -0.1048 -0.0718
 3204SOL     OW21073   0.133   2.656   7.058  0.2448 -0.5618  0.3465
 3204SOL    HW121074   0.136   2.601   7.137  0.3817  1.9179  2.0584
 3204SOL    HW221075   0.080   2.598   7.003  0.0903  1.3774 -1.5312
 3205SOL     OW21076   2.332   1.394   7.872 -0.3366 -0.1167  0.5208
 3205SOL    HW121077   2.314   1.423   7.961  3.0293 -1.9773  1.8259
 3205SOL    HW221078   2.388   1.323   7.901  1.3469  2.2397  3.0765
 3206SOL     OW21079   2.838   1.134   5.922  0.2935  0.1934 -0.2520
 3206SOL    HW121080   2.865   1.057   5.971 -2.5509 -0.6114  0.0577
 3206SOL    HW221081   2.746   1.117   5.901  0.3272 -1.2851  0.7894
 3207SOL     OW21082   1.453   3.255   8.143  0.0895 -0.5245 -0.1767
 3207SOL    HW121083   1.399   3.328   8.114 -0.0853  0.2435  2.0565
 3207SOL    HW221084   1.439   3.240   8.237  2.4313 -1.8463 -0.0204
 3208SOL     OW21085   2.367   2.328   0.497 -0.2503  0.0994 -0.4643
 3208SOL    HW121086   2.397   2.419   0.492 -0.3803  0.0575 -2.1324
 3208SOL    HW221087   2.417   2.285   0.427  0.9571 -1.2710  1.2546
 3209SOL     OW21088   4.586   2.346   0.872  0.1998 -0.1404 -0.2231
 3209SOL    HW121089   4.523   2.417   0.883  1.1770  0.9264 -1.5026
 3209SOL    HW221090   4.553   2.288   0.940  1.6550  1.4597  1.8479
 3210SOL     OW21091   2.112   1.762  14.859 -0.2391  0.1918  0.3565
 3210SOL    HW121092   2.138   1.805  14.777  0.1035 -0.2549  0.2291
 3210SOL    HW221093   2.051   1.695  14.827 -0.9593  0.7748  0.5266
 3211SOL     OW21094   1.224   3.501   2.995  0.0893 -0.1332 -0.3067
 3211SOL    HW121095   1.152   3.488   3.056 -0.0182 -1.4748 -0.7052
 3211SOL    HW221096   1.204   3.429   2.934  0.9408  0.4840 -1.3142
 3212SOL     OW21097   3.324   2.236  14.052  0.2595 -0.1830  0.0077
 3212SOL    HW121098   3.288   2.265  14.135  0.4335  0.8028 -0.2656
 3212SOL    HW221099   3.262   2.165  14.031 -0.6174  0.6149 -0.1036
 3213SOL     OW21100   1.241   1.583   3.940 -0.1364 -0.3148 -0.2038
 3213SOL    HW121101   1.239   1.532   4.021  3.0787  0.8418  0.6088
 3213SOL    HW221102   1.288   1.658   3.977 -2.4544  0.8093  0.4503
 3214SOL     OW21103   2.551   1.262  11.249 -0.4904  0.6156  0.4719
 3214SOL    HW121104   2.538   1.335  11.189 -0.8939 -0.8351 -1.2128
 3214SOL    HW221105   2.522   1.310  11.326 -0.1176  1.0083  0.3708
 3215SOL     OW21106   0.217   2.849  17.428 -0.2937 -0.0137  0.0668
 3215SOL    HW121107   0.253   2.764  17.456 -1.4872 -1.1344 -1.7323
 3215SOL    HW221108   0.284   2.918  17.426 -1.6631  1.3472  2.4130
 3216SOL     OW21109   3.328   1.375   2.898  0.8528  0.0879  0.2800
 3216SOL    HW121110   3.409   1.356   2.852  1.0111  1.4307 -0.0012
 3216SOL    HW221111   3.272   1.412   2.829  0.0382 -0.1554  0.8129
 3217SOL     OW21112   4.093   0.471  11.722 -0.8277  0.7887  0.0339
 3217SOL    HW121113   4.167   0.429  11.765 -0.8087  0.6316 -0.1518
 3217SOL    HW221114   4.140   0.541  11.677 -1.0003  0.4996 -0.6090
 3218SOL     OW21115   3.159   4.493  17.453 -0.0818 -0.3447  0.0204
 3218SOL    HW121116   3.070   4.527  17.449 -0.1160 -0.8337 -3.5792
 3218SOL    HW221117   3.165   4.443  17.534  0.0051  1.1801  0.9548
 3219SOL     OW21118   0.164   4.191   2.688  0.4834 -0.0907  0.2956
 3219SOL    HW121119   0.157   4.156   2.599 -2.0481 -0.4725  0.6652
 3219SOL    HW221120   0.105   4.265   2.676  0.6846  0.1520  0.8279
 3220SOL     OW21121   0.299   4.156   5.067 -0.6370  0.6263 -0.5951
 3220SOL    HW121122   0.356   4.224   5.031 -0.0776  0.7817  0.5931
 3220SOL    HW221123   0.312   4.169   5.161 -1.3868  1.5504 -0.6211
 3221SOL     OW21124   0.078   2.766   3.910  0.1931  0.4348 -0.5374
 3221SOL    HW121125   0.085   2.672   3.924  1.0340  0.6850  0.6324
 3221SOL    HW221126   0.006   2.779   3.848  0.2529 -1.2937 -0.9559
 3222SOL     OW21127   1.207   1.440   5.414  0.2622 -0.2672  0.1266
 3222SOL    HW121128   1.209   1.527   5.374 -0.8771  0.1376  0.9427
 3222SOL    HW221129   1.236   1.461   5.504 -2.5831  1.6655  0.5792
 3223SOL     OW21130   1.383   2.905   7.838 -0.4837  0.3765 -0.1275
 3223SOL    HW121131   1.471   2.940   7.851 -1.1734  1.6912  1.0968
 3223SOL    HW221132   1.398   2.832   7.779 -1.2042  0.0460  0.0978
 3224SOL     OW21133   4.691   3.014   0.549  0.1470  0.5103 -0.3757
 3224SOL    HW121134   0.036   3.035   0.611  1.1775  0.0835 -1.3742
 3224SOL    HW221135   4.718   2.995   0.459  0.3800  0.3655 -0.2737
 3225SOL     OW21136   3.387   3.217   6.097 -0.2327  0.2395  0.1859
 3225SOL    HW121137   3.298   3.199   6.128 -0.3795  0.8950  0.1501
 3225SOL    HW221138   3.384   3.167   6.015  4.0599 -0.0745  0.2309
 3226SOL     OW21139   2.187   4.317   7.856  0.2610 -0.4839 -0.0541
 3226SOL    HW121140   2.206   4.270   7.775  1.5128 -1.2269  0.6796
 3226SOL    HW221141   2.092   4.332   7.853  0.3342 -0.4033 -1.7352
 3227SOL     OW21142   1.581   0.017   8.948 -0.2653 -0.5249  0.5726
 3227SOL    HW121143   1.522   0.089   8.924  3.9581  2.5801 -0.4884
 3227SOL    HW221144   1.527   4.666   8.971  0.2280 -0.3835  2.2109
 3228SOL     OW21145   2.700   2.930   4.432  0.6340 -0.0303 -0.4937
 3228SOL    HW121146   2.654   2.957   4.352  0.7316 -0.0799 -0.5674
 3228SOL    HW221147   2.644   2.857   4.457  0.7959  0.8123  2.2952
 3229SOL     OW21148   4.275   0.584   5.228 -0.0833 -0.0947  0.0305
 3229SOL    HW121149   4.294   0.582   5.135  0.1637 -1.7576  0.1279
 3229SOL    HW221150   4.333   0.653   5.262  0.6918 -1.9677  2.5483
 3230SOL     OW21151   1.090   3.278   8.183  0.2868 -0.1482  0.1672
 3230SOL    HW121152   1.131   3.281   8.269 -0.9208 -0.1116  0.7466
 3230SOL    HW221153   1.126   3.201   8.139 -1.0567 -0.7883  0.1795
 3231SOL     OW21154   0.995   1.347   3.171  0.1898 -0.6538  0.0965
 3231SOL    HW121155   0.933   1.286   3.212 -1.6836  0.5892 -0.8770
 3231SOL    HW221156   1.055   1.373   3.241  1.4745  0.3100 -1.3802
 3232SOL     OW21157   1.723   4.290   6.221 -0.3050  0.4930 -0.5216
 3232SOL    HW121158   1.688   4.210   6.259  0.1229  0.6391  0.1858
 3232SOL    HW221159   1.813   4.285   6.253 -0.4703 -0.3118 -0.1840
 3233SOL     OW21160   3.381   3.596   2.540 -0.2882  0.7583 -0.4415
 3233SOL    HW121161   3.380   3.583   2.445 -0.8759 -1.7433 -0.0981
 3233SOL    HW221162   3.415   3.511   2.567  0.7420  0.7217 -1.8454
 3234SOL     OW21163   1.656   1.387   5.779  0.1199 -0.2174 -0.2442
 3234SOL    HW121164   1.725   1.389   5.845  0.0109  1.2621 -0.1814
 3234SOL    HW221165   1.645   1.292   5.775 -0.8487 -0.1398  0.6936
 3235SOL     OW21166   0.050   1.871  12.037  0.7522  0.3455  0.1529
 3235SOL    HW121167   0.109   1.801  12.066  0.6778 -0.4069 -1.4860
 3235SOL    HW221168   4.709   1.870  12.107  2.6522  1.2047  1.9505
 3236SOL     OW21169   1.293   1.304   3.034  0.2125  0.2435 -0.2647
 3236SOL    HW121170   1.218   1.363   3.043  0.3259  0.3642 -0.1224
 3236SOL    HW221171   1.318   1.293   3.125 -1.4170  3.6458  0.5803
 3237SOL     OW21172   3.731   2.771  14.165 -0.6842 -0.4352 -0.7200
 3237SOL    HW121173   3.704   2.804  14.251 -0.2809  0.6185 -1.0007
 3237SOL    HW221174   3.662   2.719  14.124 -0.1959 -1.9601  0.3780
 3238SOL     OW21175   2.766   4.315  15.222  0.0641  0.2656  0.4192
 3238SOL    HW121176   2.745   4.230  15.262  2.8115  0.6585  2.6476
 3238SOL    HW221177   2.839   4.343  15.277 -0.2002  0.8867  0.4540
 3239SOL     OW21178   0.369   3.239  11.826  0.1695  0.4680  0.5768
 3239SOL    HW121179   0.408   3.316  11.868  4.0776 -0.0640 -2.0603
 3239SOL    HW221180   0.342   3.186  11.901 -1.8242  1.5294  0.5996
 3240SOL     OW21181   2.013   2.625   5.381 -0.1097  0.2952  0.2058
 3240SOL    HW121182   2.014   2.566   5.457 -0.4524 -0.1231 -0.1120
 3240SOL    HW221183   2.020   2.713   5.417  2.0168 -0.2080  1.0417
 3241SOL     OW21184   0.766   0.561  13.296 -0.4770 -0.1717 -0.0118
 3241SOL    HW121185   0.771   0.512  13.379 -3.0771 -0.2402  0.1063
 3241SOL    HW221186   0.833   0.505  13.257 -2.7310 -2.2808 -0.8430
 3242SOL     OW21187   2.601   0.188   4.682 -0.2816 -0.7879 -0.3152
 3242SOL    HW121188   2.626   0.242   4.757 -1.7314 -0.6981  0.1002
 3242SOL    HW221189   2.635   0.101   4.702 -0.6273 -0.6869  0.7409
 3243SOL     OW21190   0.597   0.723   8.288  0.0931  0.1066 -0.3637
 3243SOL    HW121191   0.692   0.711   8.297 -0.1832 -0.0564  2.2554
 3243SOL    HW221192   0.560   0.647   8.332 -1.5847  1.1190 -0.0523
 3244SOL     OW21193   2.121   0.476  11.499  0.5095 -0.2324 -0.2914
 3244SOL    HW121194   2.095   0.564  11.470 -0.1028 -0.1395  0.5450
 3244SOL    HW221195   2.216   0.483  11.510  0.3975  2.0265 -0.5823
 3245SOL     OW21196   0.009   3.722   5.833  0.0744 -0.4772  0.2053
 3245SOL    HW121197   0.081   3.660   5.848  0.8368  0.0239 -1.3111
 3245SOL    HW221198   0.047   3.808   5.850 -0.6183 -0.1638  0.1486
 3246SOL     OW21199   4.685   3.487  17.392  0.4280 -0.1617  0.2552
 3246SOL    HW121200   4.691   3.557  17.327  0.3883  0.6808  1.1607
 3246SOL    HW221201   0.021   3.424  17.353 -0.1747 -1.4495  1.3861
 3247SOL     OW21202   0.394   2.106   9.097 -0.1318  0.4234 -0.2077
 3247SOL    HW121203   0.434   2.116   9.183  2.2939 -1.0418 -1.1310
 3247SOL    HW221204   0.306   2.079   9.123 -0.0061 -0.3366 -0.5373
 3248SOL     OW21205   0.047   1.281  13.710  0.3322 -0.1881 -0.3589
 3248SOL    HW121206   4.701   1.245  13.655 -1.2114 -2.4693  3.1270
 3248SOL    HW221207   0.129   1.258  13.665 -0.5206 -2.3230 -0.8070
 3249SOL     OW21208   4.695   3.840  13.556 -0.2583 -0.3687  0.0369
 3249SOL    HW121209   4.637   3.804  13.623 -0.7663  0.8811  0.2722
 3249SOL    HW221210   0.060   3.822  13.586  0.3594  1.0524 -0.9636
 3250SOL     OW21211   0.944   2.612   8.266  0.0664 -0.5670  0.1779
 3250SOL    HW121212   0.849   2.623   8.257  0.1928 -0.2346 -0.6905
 3250SOL    HW221213   0.942   2.575   8.354 -1.2626 -0.4216  0.2097
 3251SOL     OW21214   2.044   2.225   7.907  0.4261  0.0505 -0.7385
 3251SOL    HW121215   2.038   2.139   7.949  2.7059  0.4861  0.4473
 3251SOL    HW221216   1.972   2.273   7.947 -0.6431 -1.8359 -0.3706
 3252SOL     OW21217   3.423   0.477   6.247 -0.8536  0.2297 -0.2618
 3252SOL    HW121218   3.341   0.526   6.252 -0.8434  0.4658 -2.3636
 3252SOL    HW221219   3.483   0.548   6.270  0.4984 -1.5093  1.4948
 3253SOL     OW21220   3.628   1.142   4.333 -0.0949 -0.4892 -0.6546
 3253SOL    HW121221   3.602   1.056   4.302  3.2209 -1.9231  0.5482
 3253SOL    HW221222   3.550   1.190   4.304 -0.5976 -0.9436 -0.0528
 3254SOL     OW21223   3.598   2.131   6.842  0.0389  0.9494 -0.3006
 3254SOL    HW121224   3.573   2.148   6.751 -0.5946  0.8285 -0.1427
 3254SOL    HW221225   3.664   2.198   6.860  0.1541  0.3604  1.3963
 3255SOL     OW21226   1.676   1.573   7.641  0.4056  1.1062  0.4748
 3255SOL    HW121227   1.602   1.582   7.701 -0.2634 -2.9623  0.2376
 3255SOL    HW221228   1.710   1.486   7.660 -0.9234  0.6861  0.8978
 3256SOL     OW21229   3.695   4.192   4.498  0.3208  0.1312 -0.0165
 3256SOL    HW121230   3.667   4.274   4.537  0.6935 -0.4312  1.4395
 3256SOL    HW221231   3.715   4.142   4.577  1.1484  3.1593  1.6888
 3257SOL     OW21232   1.937   2.315  12.318  0.2613  0.5548  0.2551
 3257SOL    HW121233   1.911   2.330  12.409 -1.5963  0.9633 -0.3362
 3257SOL    HW221234   1.951   2.221  12.317  0.3900  0.5703  0.8109
 3258SOL     OW21235   4.464   0.611   4.588 -0.2736 -0.2521 -0.3401
 3258SOL    HW121236   4.476   0.545   4.519 -1.5705  1.2524 -1.9720
 3258SOL    HW221237   4.553   0.627   4.620 -0.0407  1.4807 -1.8216
 3259SOL     OW21238   2.658   1.310   1.062 -0.1056  0.2392 -0.0767
 3259SOL    HW121239   2.597   1.373   1.025  2.0353  1.2733 -1.8614
 3259SOL    HW221240   2.612   1.263   1.132 -0.9188  0.3430 -0.5484
 3260SOL     OW21241   3.174   0.511   8.279  0.0783 -0.3346 -0.4590
 3260SOL    HW121242   3.174   0.421   8.312 -1.4344 -0.3418 -0.4827
 3260SOL    HW221243   3.102   0.506   8.215  0.8876  1.3136 -1.4786
 3261SOL     OW21244   0.098   2.120   7.585  0.2795  0.2831 -0.1661
 3261SOL    HW121245   0.134   2.208   7.596 -0.1276  0.4707 -0.3258
 3261SOL    HW221246   0.179   2.070   7.569 -1.5432 -2.2171 -1.5808
 3262SOL     OW21247   4.080   3.418   3.344 -0.2255 -0.0342  0.3511
 3262SOL    HW121248   4.002   3.471   3.361 -1.0070 -1.1391  0.2251
 3262SOL    HW221249   4.081   3.370   3.427 -0.0252 -1.2165 -0.3395
 3263SOL     OW21250   4.139   4.202   0.455 -0.1216  0.7235  0.0745
 3263SOL    HW121251   4.224   4.241   0.433  0.4594  1.0158  2.7706
 3263SOL    HW221252   4.109   4.149   0.381  0.2998  0.3956  0.1353
 3264SOL     OW21253   0.641   1.238  15.681 -0.0859  0.6012 -0.1818
 3264SOL    HW121254   0.721   1.232  15.733  0.4076  1.9038 -0.8152
 3264SOL    HW221255   0.633   1.146  15.654  0.4176  0.9712 -1.5687
 3265SOL     OW21256   4.574   0.867   2.273 -0.2993  0.3218 -0.3264
 3265SOL    HW121257   4.656   0.904   2.305 -0.6947  0.5527  0.4189
 3265SOL    HW221258   4.537   0.948   2.237 -0.9635  0.7984  1.3943
 3266SOL     OW21259   4.612   4.079   6.543  0.6001 -0.4094  0.0642
 3266SOL    HW121260   4.587   4.093   6.634  3.9769  1.4214  0.7027
 3266SOL    HW221261   4.534   4.035   6.509  0.8469  0.1005 -1.1459
 3267SOL     OW21262   3.275   0.226   4.868 -0.1926  0.0534  0.3587
 3267SOL    HW121263   3.270   0.150   4.811  1.2034  0.3537 -0.1588
 3267SOL    HW221264   3.234   0.295   4.815  0.4821  1.0170  1.0746
 3268SOL     OW21265   0.045   2.559  17.578  0.0264 -0.0820 -0.2076
 3268SOL    HW121266   0.063   2.487  17.638 -0.7122  0.0351  0.1510
 3268SOL    HW221267   0.137   2.584  17.567 -0.6636  1.8056 -1.6669
 3269SOL     OW21268   3.225   0.183   1.546  0.4237 -0.4805 -0.0024
 3269SOL    HW121269   3.211   0.219   1.458 -0.6246 -1.3359 -0.1841
 3269SOL    HW221270   3.293   0.118   1.528  0.6285 -0.3254  0.2084
 3270SOL     OW21271   1.615   4.175   9.567  0.2732 -0.8717  0.3403
 3270SOL    HW121272   1.669   4.196   9.491 -2.2968  1.0049 -0.9797
 3270SOL    HW221273   1.540   4.142   9.517  0.0156  1.5456 -0.8930
 3271SOL     OW21274   4.244   1.732   7.234 -0.1994  0.2091  0.8450
 3271SOL    HW121275   4.263   1.651   7.186  1.6731  1.0821  0.1434
 3271SOL    HW221276   4.149   1.744   7.231 -0.4161 -1.4787  0.9562
 3272SOL     OW21277   0.767   3.698   8.673  0.5057  0.2981 -0.1028
 3272SOL    HW121278   0.708   3.732   8.606 -2.8141 -1.0243  2.1727
 3272SOL    HW221279   0.757   3.604   8.659 -0.2267 -0.1161  3.2172
 3273SOL     OW21280   0.261   0.762   4.748  0.5952 -0.2511 -0.5383
 3273SOL    HW121281   0.300   0.708   4.817 -1.2333 -3.6780 -2.1856
 3273SOL    HW221282   0.259   0.704   4.672  1.4792 -1.1617  0.1453
 3274SOL     OW21283   0.366   0.565   8.358  0.0184  0.0320 -0.2623
 3274SOL    HW121284   0.394   0.475   8.372  1.3653  0.3607 -0.8090
 3274SOL    HW221285   0.346   0.566   8.264 -1.7974 -2.3895  0.1213
 3275SOL     OW21286   2.653   2.183   0.450  0.1234  0.0104  0.6732
 3275SOL    HW121287   2.669   2.102   0.402 -2.8672  1.0500 -2.0752
 3275SOL    HW221288   2.641   2.243   0.376 -0.1599 -1.1485 -0.2231
 3276SOL     OW21289   4.023   4.587   7.282  0.1486 -0.3710 -0.3068
 3276SOL    HW121290   4.066   4.664   7.318 -1.5720  1.1041 -1.4080
 3276SOL    HW221291   3.944   4.619   7.239  0.5383  0.0197 -0.7321
 3277SOL     OW21292   2.202   2.130   8.273 -0.0007 -0.1572  0.2220
 3277SOL    HW121293   2.246   2.134   8.358  1.1172 -1.7431 -0.2825
 3277SOL    HW221294   2.121   2.096   8.311 -1.0751  2.5412  0.2988
 3278SOL     OW21295   3.433   4.579   2.803 -0.2012  0.4461  0.1556
 3278SOL    HW121296   3.364   4.617   2.856 -0.9212  1.2051 -1.3337
 3278SOL    HW221297   3.466   4.663   2.772 -2.7163  1.7174  0.9498
 3279SOL     OW21298   2.761   3.590   6.893 -0.3192 -0.1111  0.0383
 3279SOL    HW121299   2.834   3.533   6.871  0.0400 -0.0541  1.0767
 3279SOL    HW221300   2.759   3.577   6.988 -1.0249  1.2638  0.2193
 3280SOL     OW21301   2.616   0.923  13.836 -0.3934  0.2050  0.0635
 3280SOL    HW121302   2.589   0.896  13.748  1.6244  0.5390 -0.6644
 3280SOL    HW221303   2.629   0.836  13.874  4.4261 -0.9182 -4.2414
 3281SOL     OW21304   1.961   3.018   3.939  0.0884 -0.0313  0.2758
 3281SOL    HW121305   1.917   3.040   4.021 -0.0727  0.1943  0.1317
 3281SOL    HW221306   1.905   2.943   3.917 -0.6275  0.4414  0.4571
 3282SOL     OW21307   0.347   3.862   1.439  0.9573 -0.0950 -0.1052
 3282SOL    HW121308   0.430   3.871   1.393  1.8123 -1.0755  1.2618
 3282SOL    HW221309   0.350   3.940   1.494  0.6519 -2.2207  2.9505
 3283SOL     OW21310   2.630   1.957  10.856 -0.0108 -0.0665 -0.0355
 3283SOL    HW121311   2.722   1.931  10.851 -0.0499 -0.6104  2.0503
 3283SOL    HW221312   2.616   1.977  10.763 -2.4441 -0.1500  0.3187
 3284SOL     OW21313   2.276   1.290  13.664 -0.2179  0.4204 -0.3606
 3284SOL    HW121314   2.335   1.240  13.609  1.2396  0.3119  1.3076
 3284SOL    HW221315   2.258   1.372  13.618  0.4602 -0.1699 -1.6440
 3285SOL     OW21316   2.980   3.099   0.290 -0.2651 -0.3887  0.1520
 3285SOL    HW121317   3.033   3.158   0.343  0.3755 -2.8167  2.2426
 3285SOL    HW221318   3.046   3.049   0.243  0.7980  1.3946 -0.2478
 3286SOL     OW21319   1.694   1.516  12.590 -0.7182 -0.5504 -0.4662
 3286SOL    HW121320   1.715   1.607  12.610 -1.0226 -0.8643  1.3017
 3286SOL    HW221321   1.645   1.476  12.662 -1.2184 -1.0406 -1.0714
 3287SOL     OW21322   4.609   4.025   5.867  0.2252 -0.1327  0.0623
 3287SOL    HW121323   4.537   3.983   5.913  1.4047 -2.0459  0.1293
 3287SOL    HW221324   4.684   3.982   5.908  1.0311  0.3719 -0.8848
 3288SOL     OW21325   2.137   2.181  13.116 -0.2958 -0.0509  0.5333
 3288SOL    HW121326   2.186   2.141  13.188 -0.6557  0.3773  1.0112
 3288SOL    HW221327   2.090   2.254  13.157 -1.3027  0.1296 -0.9465
 3289SOL     OW21328   2.456   2.584   4.809  0.4188  0.3630 -0.2596
 3289SOL    HW121329   2.535   2.540   4.777 -0.7585 -2.6876  0.9884
 3289SOL    HW221330   2.478   2.661   4.860  1.1749  0.4205 -0.6733
 3290SOL     OW21331   2.460   0.124  15.758 -0.1432  0.0537  0.1478
 3290SOL    HW121332   2.443   0.211  15.796  1.2370 -0.4553  1.9572
 3290SOL    HW221333   2.428   0.133  15.669  0.9349  0.3371 -0.2133
 3291SOL     OW21334   4.716   2.755   2.790 -0.0560  0.0866  0.9649
 3291SOL    HW121335   0.023   2.845   2.798 -0.5257  0.3970 -0.6575
 3291SOL    HW221336   0.070   2.715   2.751  0.4645  1.4476  0.6012
 3292SOL     OW21337   2.837   2.128  11.615 -0.0138 -0.6958  0.8940
 3292SOL    HW121338   2.855   2.077  11.695 -1.7769 -0.8615  1.1966
 3292SOL    HW221339   2.788   2.063  11.565  0.8699 -0.6329 -0.0441
 3293SOL     OW21340   2.587   4.163   2.527 -0.1970  0.6144 -0.1642
 3293SOL    HW121341   2.562   4.254   2.514 -0.0458  0.4282 -1.7596
 3293SOL    HW221342   2.520   4.147   2.593  0.6047 -2.7079 -0.1659
 3294SOL     OW21343   1.105   0.493   6.815 -0.2405  0.4989  0.2719
 3294SOL    HW121344   1.181   0.551   6.810  2.2670 -2.8055  0.2371
 3294SOL    HW221345   1.045   0.542   6.871 -2.1348 -2.3509  0.7216
 3295SOL     OW21346   4.633   3.610  13.830  0.3930 -0.1714 -0.2256
 3295SOL    HW121347   4.564   3.585  13.769  1.2252  1.5197 -1.8552
 3295SOL    HW221348   4.707   3.594  13.771 -0.1630  1.1696 -1.2797
 3296SOL     OW21349   2.095   1.477  15.143 -0.0641 -0.3516 -0.2952
 3296SOL    HW121350   2.146   1.407  15.182 -1.1370  0.5034  2.6522
 3296SOL    HW221351   2.057   1.428  15.070  0.7587  0.8830 -1.5607
 3297SOL     OW21352   1.924   2.970   6.135  0.6931 -0.7802  0.4990
 3297SOL    HW121353   1.992   2.911   6.168  1.1128 -1.2599 -1.2042
 3297SOL    HW221354   1.867   2.962   6.211 -0.2869 -1.8188 -0.3500
 3298SOL     OW21355   2.397   4.614   9.202  0.1896  0.5255 -0.6536
 3298SOL    HW121356   2.437   4.545   9.149  1.3557  0.4072  0.3944
 3298SOL    HW221357   2.450   4.689   9.176 -0.3611  0.6952 -1.3024
 3299SOL     OW21358   0.735   2.449   7.362 -0.3944  0.0988 -0.3621
 3299SOL    HW121359   0.643   2.476   7.360 -0.4628 -0.0909  0.3208
 3299SOL    HW221360   0.774   2.521   7.411  0.4484 -1.7254  1.6393
 3300SOL     OW21361   0.066   2.941   6.791  0.2179  0.5137  0.4724
 3300SOL    HW121362   0.128   2.886   6.839  1.0196  0.0954 -1.0135
 3300SOL    HW221363   0.124   2.985   6.728  0.7562 -0.2758  0.4121
 3301SOL     OW21364   4.527   1.543  15.249  0.1131  0.0580 -0.0117
 3301SOL    HW121365   4.512   1.515  15.159  1.0648  1.5749 -0.6309
 3301SOL    HW221366   4.496   1.475  15.309 -0.0362  1.0781  1.0609
 3302SOL     OW21367   4.420   1.940   5.660 -0.1193 -0.0497  0.2028
 3302SOL    HW121368   4.437   1.849   5.634 -0.2849  0.0692 -0.3257
 3302SOL    HW221369   4.338   1.971   5.621  0.7546  2.0169  0.0293
 3303SOL     OW21370   0.923   1.039   1.636  0.3786  0.9230  0.9415
 3303SOL    HW121371   0.978   0.983   1.691 -0.1949 -1.9352 -1.4076
 3303SOL    HW221372   0.989   1.102   1.609  1.6249 -0.2984  1.1337
 3304SOL     OW21373   0.971   0.007   8.121 -0.7510  0.3441  0.4913
 3304SOL    HW121374   0.962   0.038   8.212 -1.9917 -0.3961  0.6110
 3304SOL    HW221375   0.903   0.059   8.078 -0.1892 -1.2024 -2.2435
 3305SOL     OW21376   1.667   3.081   9.392  0.0468 -0.2660 -0.2279
 3305SOL    HW121377   1.610   3.157   9.380  0.4366  0.0857  0.1567
 3305SOL    HW221378   1.649   3.080   9.486  0.7073 -0.2117 -0.0983
 3306SOL     OW21379   1.281   2.344   5.776  0.8313  0.0027 -0.5244
 3306SOL    HW121380   1.277   2.439   5.772 -0.5688 -0.0189  0.4643
 3306SOL    HW221381   1.333   2.323   5.854  1.1894  0.5304 -0.6219
 3307SOL     OW21382   0.298   3.065  14.723 -0.7207  0.5591 -0.2931
 3307SOL    HW121383   0.287   3.060  14.628  1.9268 -1.3106 -0.5231
 3307SOL    HW221384   0.215   3.024  14.747 -0.4204  0.5810  0.7726
 3308SOL     OW21385   4.062   1.656   0.918 -0.6284  0.1520 -0.2883
 3308SOL    HW121386   3.993   1.594   0.941 -0.0493 -0.5951 -0.5757
 3308SOL    HW221387   4.139   1.600   0.916 -0.8693 -0.1522 -0.8583
 3309SOL     OW21388   4.663   2.419  12.937  0.0656 -0.0381  0.5088
 3309SOL    HW121389   4.680   2.421  12.842  1.4346 -0.4133  0.7414
 3309SOL    HW221390   0.020   2.455  12.974  1.4139  1.2930 -3.7021
 3310SOL     OW21391   3.387   4.678  15.019  0.2391  0.0967 -0.3659
 3310SOL    HW121392   3.442   4.600  15.014  2.0028  1.3024  0.3305
 3310SOL    HW221393   3.430   4.719  15.094 -2.1043 -0.5006  1.2964
 3311SOL     OW21394   1.584   0.405   6.255 -0.0974 -0.3564 -0.5093
 3311SOL    HW121395   1.602   0.312   6.245 -0.1495 -0.3384 -0.7851
 3311SOL    HW221396   1.631   0.432   6.333 -0.6946 -1.0082  0.0724
 3312SOL     OW21397   4.403   1.775   6.420  0.0794 -0.5498  0.2179
 3312SOL    HW121398   4.427   1.819   6.502 -0.8101  0.8340 -0.2586
 3312SOL    HW221399   4.317   1.737   6.440 -0.4761 -0.0568 -1.2840
 3313SOL     OW21400   4.079   2.942  15.652 -0.3298 -0.2216 -0.0182
 3313SOL    HW121401   4.020   2.872  15.680 -0.1454 -0.4308 -0.1499
 3313SOL    HW221402   4.109   2.966  15.739 -2.0328  1.9646 -0.0504
 3314SOL     OW21403   2.954   1.715  17.186 -0.0805 -0.6057  0.3048
 3314SOL    HW121404   3.047   1.735  17.197  0.5656 -1.4458 -3.5773
 3314SOL    HW221405   2.952   1.711  17.090  0.0412  3.3047  0.1071
 3315SOL     OW21406   1.787   1.195   0.063 -0.4014 -0.1773  0.7208
 3315SOL    HW121407   1.818   1.229   0.147  0.1268  0.0061  0.4520
 3315SOL    HW221408   1.828   1.109   0.061 -0.3533 -0.1851  2.2019
 3316SOL     OW21409   0.652   2.731  12.235 -0.2266  0.3085  0.4244
 3316SOL    HW121410   0.665   2.663  12.302  1.6624  0.6935  0.4509
 3316SOL    HW221411   0.638   2.809  12.290  1.0786  1.8149 -1.3685
 3317SOL     OW21412   4.168   0.150   4.172  0.2809  0.2265  0.2642
 3317SOL    HW121413   4.128   0.083   4.116  1.0628  0.3996 -0.5038
 3317SOL    HW221414   4.103   0.219   4.156  0.3219 -0.1255 -1.4254
 3318SOL     OW21415   0.643   3.430   3.960 -0.2154 -0.1078  0.7569
 3318SOL    HW121416   0.730   3.412   3.924 -1.4775 -2.2447 -1.2137
 3318SOL    HW221417   0.630   3.525   3.961 -0.8268 -0.1791 -0.2061
 3319SOL     OW21418   2.592   1.438   0.714  0.1571 -0.0286 -0.2005
 3319SOL    HW121419   2.534   1.450   0.790  0.4441 -1.6850  0.2774
 3319SOL    HW221420   2.603   1.343   0.716 -0.9884 -0.1658  0.0140
 3320SOL     OW21421   3.209   2.799   7.680  0.4428 -0.8850 -0.4143
 3320SOL    HW121422   3.175   2.738   7.746 -0.2620 -0.8394 -0.7362
 3320SOL    HW221423   3.236   2.874   7.734 -0.8560 -1.3105  0.8377
 3321SOL     OW21424   3.774   0.036   2.769  0.1731 -0.1952  0.4101
 3321SOL    HW121425   3.690   0.054   2.727  1.3113 -0.6702 -2.1180
 3321SOL    HW221426   3.789   0.124   2.803 -0.0655  0.3687 -0.9389
 3322SOL     OW21427   4.616   1.430   1.423 -0.7245 -0.7402  0.3123
 3322SOL    HW121428   4.604   1.385   1.340 -0.0840  1.1310 -0.7943
 3322SOL    HW221429   4.585   1.517   1.397  0.9797  0.3524  1.8906
 3323SOL     OW21430   1.279   0.774   7.625 -0.5849  0.3238 -0.1622
 3323SOL    HW121431   1.246   0.757   7.537  0.0356 -0.7209 -0.1976
 3323SOL    HW221432   1.335   0.849   7.604 -0.1915  0.0723 -0.0227
 3324SOL     OW21433   2.702   2.640   9.673  0.0428  0.0663  0.1621
 3324SOL    HW121434   2.647   2.562   9.677 -2.4141  1.6968 -2.0549
 3324SOL    HW221435   2.661   2.677   9.595 -0.1683  0.6094  0.5305
 3325SOL     OW21436   1.435   4.515   9.078  0.1116  1.0976 -0.5758
 3325SOL    HW121437   1.371   4.497   9.147  1.2551 -0.6868  0.0066
 3325SOL    HW221438   1.404   4.466   9.002  2.9825 -1.0363 -0.3578
 3326SOL     OW21439   0.193   3.438  12.400  0.1322  0.2581  0.0037
 3326SOL    HW121440   0.131   3.368  12.385 -0.1328  0.1441  1.5767
 3326SOL    HW221441   0.204   3.431  12.495 -1.8364 -1.0746  0.1137
 3327SOL     OW21442   1.135   4.400   9.269 -0.0292  0.1546  0.6840
 3327SOL    HW121443   1.213   4.419   9.322  0.4842 -1.3130  0.4734
 3327SOL    HW221444   1.134   4.304   9.274 -2.8378  0.0478 -2.1213
 3328SOL     OW21445   3.699   4.681   8.195 -0.0066  0.2006 -0.0242
 3328SOL    HW121446   3.680   4.611   8.257  2.1019 -0.3865 -0.0346
 3328SOL    HW221447   3.702   0.026   8.262  0.1616 -0.2986  0.4843
 3329SOL     OW21448   2.594   4.077   3.060 -0.2149 -0.1305  0.6647
 3329SOL    HW121449   2.575   4.052   2.969 -0.2144 -0.3863  0.7347
 3329SOL    HW221450   2.690   4.079   3.062 -0.2735  1.1348  1.6577
 3330SOL     OW21451   1.664   3.289  13.977 -0.0469  0.8219  0.1659
 3330SOL    HW121452   1.688   3.377  14.007 -1.4939  1.2876 -0.0317
 3330SOL    HW221453   1.649   3.256  14.066 -1.8082  1.1574 -0.0013
 3331SOL     OW21454   4.578   3.694  15.456  0.4243 -0.2294 -0.1476
 3331SOL    HW121455   4.535   3.632  15.397  1.3801  0.4564 -1.5667
 3331SOL    HW221456   4.611   3.748  15.384 -0.2260 -1.6386 -1.5083
 3332SOL     OW21457   2.765   0.101  17.336 -0.1234  0.0421 -0.6348
 3332SOL    HW121458   2.735   0.010  17.340  0.8948 -0.2317  1.1901
 3332SOL    HW221459   2.852   0.084  17.298  0.6561  0.0217  1.1238
 3333SOL     OW21460   2.911   1.568   5.727 -0.6607  0.0313  0.3713
 3333SOL    HW121461   2.930   1.599   5.639 -2.1603  0.0098  0.0308
 3333SOL    HW221462   2.838   1.512   5.699 -1.4720  1.4083 -0.2209
 3334SOL     OW21463   0.348   0.290   5.976 -0.1733 -0.0850  0.1380
 3334SOL    HW121464   0.284   0.280   5.906 -1.1965  0.4367  1.0046
 3334SOL    HW221465   0.326   0.216   6.033 -0.7670 -1.6409 -2.1453
 3335SOL     OW21466   0.949   4.386  13.208  0.2544  1.0760 -0.9210
 3335SOL    HW121467   1.002   4.448  13.259  0.1553  0.2290  0.1992
 3335SOL    HW221468   0.934   4.317  13.273 -1.3587  2.9693  0.7491
 3336SOL     OW21469   3.108   1.246   4.896  0.8104  0.2510  0.1017
 3336SOL    HW121470   3.155   1.307   4.839  0.0077  1.1666  0.4242
 3336SOL    HW221471   3.180   1.209   4.947  0.4598  3.0586  2.5665
 3337SOL     OW21472   0.907   0.446   2.431  0.3054  0.5700 -0.0868
 3337SOL    HW121473   0.870   0.532   2.412  1.1550  0.5488 -1.8222
 3337SOL    HW221474   0.992   0.469   2.468 -0.1102 -1.1106  1.9335
 3338SOL     OW21475   1.447   2.188  13.059 -0.3369  0.0040 -0.4559
 3338SOL    HW121476   1.369   2.147  13.021  0.1910  0.7910 -2.4094
 3338SOL    HW221477   1.411   2.232  13.136  1.4343 -0.3748  0.5795
 3339SOL     OW21478   3.465   4.406   2.009  0.7425  0.4820 -0.0876
 3339SOL    HW121479   3.380   4.421   1.967 -0.0905 -2.0475  0.6494
 3339SOL    HW221480   3.456   4.315   2.039 -0.1259  1.4655  2.7147
 3340SOL     OW21481   0.037   2.216   3.171 -0.6910 -0.6212  0.0058
 3340SOL    HW121482   4.711   2.159   3.112 -1.0353  2.7956 -2.9762
 3340SOL    HW221483   0.079   2.142   3.216  0.0615 -0.5863 -0.6490
 3341SOL     OW21484   3.285   2.530  13.396  0.2948 -0.1974  0.1257
 3341SOL    HW121485   3.271   2.535  13.301  0.0669 -1.1051  0.1114
 3341SOL    HW221486   3.194   2.540  13.422 -0.0167 -1.1155 -0.6299
 3342SOL     OW21487   2.071   3.300  14.994 -0.4693  0.1411 -0.2831
 3342SOL    HW121488   2.153   3.327  14.952 -0.2649  0.5185  0.3682
 3342SOL    HW221489   2.108   3.292  15.082 -1.0088 -2.9090 -0.3514
 3343SOL     OW21490   1.869   3.494   8.509 -0.0168  0.5594 -0.5252
 3343SOL    HW121491   1.862   3.434   8.435 -2.4253 -0.5626  0.6027
 3343SOL    HW221492   1.803   3.451   8.564  0.2726 -0.1305 -0.7247
 3344SOL     OW21493   0.650   2.198   4.947 -0.0333  0.5823 -0.1550
 3344SOL    HW121494   0.690   2.112   4.940 -0.6627  0.3323 -0.6984
 3344SOL    HW221495   0.727   2.255   4.937  1.7401 -1.9242 -0.6312
 3345SOL     OW21496   2.479   4.106   1.039  0.5015 -0.2559  0.2099
 3345SOL    HW121497   2.389   4.082   1.060  1.1050 -3.2824 -0.6424
 3345SOL    HW221498   2.490   4.190   1.084 -0.4842 -1.2540  2.3179
 3346SOL     OW21499   3.989   0.086   8.890 -0.1951  0.4957 -0.2461
 3346SOL    HW121500   3.924   0.056   8.827 -0.7359  0.8592  0.1393
 3346SOL    HW221501   3.946   0.140   8.956 -0.5979 -1.3725  1.0123
 3347SOL     OW21502   0.860   3.084   7.677  0.0073 -0.3962 -0.2860
 3347SOL    HW121503   0.770   3.052   7.676  0.1192 -0.7721  1.6457
 3347SOL    HW221504   0.871   3.105   7.770 -1.9250  1.1715 -0.4110
 3348SOL     OW21505   3.459   1.553   6.805  0.1194 -0.1608  0.6637
 3348SOL    HW121506   3.505   1.500   6.741  1.7363  1.9007  0.1315
 3348SOL    HW221507   3.457   1.642   6.770 -0.6433 -0.4513 -0.0200
 3349SOL     OW21508   1.709   2.162   5.261  0.1374  0.8543  1.2427
 3349SOL    HW121509   1.641   2.129   5.202 -0.4581 -0.5735  2.7469
 3349SOL    HW221510   1.680   2.253   5.270  0.3094  1.0764 -0.4525
 3350SOL     OW21511   4.634   2.380   3.472 -0.1701 -0.1663 -0.6801
 3350SOL    HW121512   4.694   2.310   3.496 -0.0545  0.2528  0.2794
 3350SOL    HW221513   4.685   2.450   3.431 -0.3484 -1.0376 -2.3595
 3351SOL     OW21514   1.376   3.923  14.611 -0.3890 -0.2573 -0.2242
 3351SOL    HW121515   1.431   3.996  14.639 -1.4016  0.2324  0.4935
 3351SOL    HW221516   1.298   3.938  14.664 -0.4857  1.5259 -0.8702
 3352SOL     OW21517   4.507   0.439   8.324  0.8446  0.8386  0.5211
 3352SOL    HW121518   4.567   0.450   8.250  0.6083  0.1367  0.2256
 3352SOL    HW221519   4.495   0.345   8.318  2.8439  0.6573 -0.5542
 3353SOL     OW21520   4.128   2.926  15.931  0.1320 -0.2546  0.4962
 3353SOL    HW121521   4.215   2.956  15.955 -0.3318  2.8397 -1.7077
 3353SOL    HW221522   4.068   2.962  15.998 -2.5923 -0.0419 -2.0688
 3354SOL     OW21523   1.761   1.763   7.927  0.0142  0.2894  0.3199
 3354SOL    HW121524   1.747   1.781   7.834  1.1090 -0.7452 -0.0379
 3354SOL    HW221525   1.766   1.668   7.933 -1.6921  0.2267  0.6594
 3355SOL     OW21526   3.057   2.816  10.322  0.1378  0.4955  0.3163
 3355SOL    HW121527   3.068   2.789  10.413  1.0022 -1.9074 -0.4917
 3355SOL    HW221528   3.147   2.814  10.289  0.4676 -1.4433  1.2975
 3356SOL     OW21529   3.091   3.966   1.912  0.2994  0.2482  0.3042
 3356SOL    HW121530   3.039   4.023   1.970 -1.8119 -0.8348 -0.4982
 3356SOL    HW221531   3.155   4.021   1.867 -1.2501  0.7869 -1.2311
 3357SOL     OW21532   4.525   1.217  10.341 -0.0310 -0.2223 -0.5919
 3357SOL    HW121533   4.510   1.305  10.308  1.4411 -0.1266 -1.0130
 3357SOL    HW221534   4.499   1.219  10.433  0.3244 -0.1715 -0.4925
 3358SOL     OW21535   4.452   3.960   0.881 -0.6300 -0.5575  0.1922
 3358SOL    HW121536   4.452   3.955   0.976  2.5992 -5.0096 -0.0315
 3358SOL    HW221537   4.387   3.895   0.856 -0.2331 -2.0755  3.1333
 3359SOL     OW21538   2.622   1.988  11.840  0.1139 -0.5664 -0.2961
 3359SOL    HW121539   2.598   1.922  11.905  1.3356  0.9841  1.7388
 3359SOL    HW221540   2.709   1.968  11.805 -0.1422 -1.9558 -0.1385
 3360SOL     OW21541   3.012   2.020   1.186  0.2989  0.0322 -0.4540
 3360SOL    HW121542   3.075   2.056   1.249 -1.4099  1.6515  0.3701
 3360SOL    HW221543   3.003   1.931   1.219  0.8232  0.5224  1.0434
 3361SOL     OW21544   2.399   2.880   6.885 -0.0029  0.3004 -0.6648
 3361SOL    HW121545   2.468   2.868   6.820 -0.0165  1.7967 -0.9360
 3361SOL    HW221546   2.322   2.852   6.835  1.2586  0.6992 -2.8281
 3362SOL     OW21547   0.834   4.436   9.584 -0.1825  0.7490  0.0466
 3362SOL    HW121548   0.812   4.367   9.522 -0.5494 -0.5780  1.6581
 3362SOL    HW221549   0.920   4.406   9.614 -0.8449  0.6491  1.8732
 3363SOL     OW21550   3.016   4.190   4.804 -0.1271  0.3374 -0.0287
 3363SOL    HW121551   2.928   4.170   4.773  1.2300 -2.9668 -1.7133
 3363SOL    HW221552   3.052   4.102   4.796 -3.6810 -1.1618  0.7978
 3364SOL     OW21553   1.199   4.407   8.754 -0.8686  0.4709 -0.3154
 3364SOL    HW121554   1.150   4.342   8.803  0.9356 -1.0293 -0.4959
 3364SOL    HW221555   1.289   4.402   8.787 -1.6162 -2.9566  1.2326
 3365SOL     OW21556   4.666   2.192   1.886 -0.2639  0.2587  0.0259
 3365SOL    HW121557   4.711   2.157   1.963 -0.6091  0.7206  0.4389
 3365SOL    HW221558   4.708   2.148   1.812  2.0153 -0.9071  1.9934
 3366SOL     OW21559   1.755   3.327   7.055  0.6520  0.3521 -1.0922
 3366SOL    HW121560   1.822   3.259   7.044 -2.4501 -2.4811 -2.2633
 3366SOL    HW221561   1.802   3.397   7.101  0.2983  1.2159 -2.0295
 3367SOL     OW21562   4.683   4.534   3.829 -0.0015 -0.1826  0.7241
 3367SOL    HW121563   4.622   4.545   3.756  0.8877  1.4674  0.2325
 3367SOL    HW221564   0.041   4.525   3.780 -0.5832  1.0040 -0.4874
 3368SOL     OW21565   0.107   2.216   8.499 -0.4051  0.3071 -0.2803
 3368SOL    HW121566   0.086   2.168   8.579 -4.9026  1.8629 -0.5327
 3368SOL    HW221567   0.038   2.281   8.489  1.7562  2.7236  0.3301
 3369SOL     OW21568   0.015   1.118   2.746  0.1877 -0.4103  0.1691
 3369SOL    HW121569   0.042   1.194   2.797  0.5809 -1.1453  1.0686
 3369SOL    HW221570   4.684   1.087   2.818 -2.9662  0.0535 -2.0376
 3370SOL     OW21571   2.628   4.104  12.299  0.1507 -0.2779 -0.0323
 3370SOL    HW121572   2.614   4.017  12.260 -0.1699  0.2942 -1.1819
 3370SOL    HW221573   2.536   4.119  12.320  0.3708 -1.7877  2.0583
 3371SOL     OW21574   2.860   4.230   7.852  1.0617  0.3256 -0.3317
 3371SOL    HW121575   2.855   4.321   7.822  2.1907  1.2370  2.2282
 3371SOL    HW221576   2.946   4.210   7.814  0.6589 -1.7732 -0.0851
 3372SOL     OW21577   3.039   3.027  15.368  0.1867  0.4307 -0.4281
 3372SOL    HW121578   2.993   2.977  15.301 -0.2027  1.0164 -0.5956
 3372SOL    HW221579   2.966   3.080  15.400 -0.6667  0.1948 -2.0165
 3373SOL     OW21580   0.298   4.643  17.085  0.0312  0.0326 -0.1577
 3373SOL    HW121581   0.356   4.617  17.013 -0.8576  1.0785 -1.2505
 3373SOL    HW221582   0.348   4.611  17.160  0.2881 -0.1806 -0.4184
 3374SOL     OW21583   1.635   1.949   4.893 -0.0419  0.6516 -0.2683
 3374SOL    HW121584   1.587   1.978   4.971 -0.2019 -0.0330 -0.1079
 3374SOL    HW221585   1.560   1.897   4.863 -1.0925  0.9953  1.7119
 3375SOL     OW21586   1.390   2.372  15.715  0.3385 -0.1390  0.3356
 3375SOL    HW121587   1.455   2.351  15.648 -0.6238  1.7689 -1.2022
 3375SOL    HW221588   1.414   2.325  15.794  2.4246  2.2339  1.1315
 3376SOL     OW21589   3.287   4.201   6.304 -0.0149  0.2960 -0.7605
 3376SOL    HW121590   3.332   4.171   6.383  0.1840  0.7274 -0.7145
 3376SOL    HW221591   3.353   4.251   6.257  0.9985  0.4609  0.8571
 3377SOL     OW21592   1.723   3.060   5.980 -0.0048 -0.5179 -0.2575
 3377SOL    HW121593   1.706   2.975   5.938 -1.6357  0.8701 -2.4027
 3377SOL    HW221594   1.789   3.024   6.040 -0.2048 -2.1403 -0.9972
 3378SOL     OW21595   3.357   2.732   4.319 -0.5747  0.2405 -0.7022
 3378SOL    HW121596   3.354   2.827   4.326 -0.7756  0.1672  0.2110
 3378SOL    HW221597   3.370   2.724   4.224  0.6275 -0.4361 -0.4785
 3379SOL     OW21598   0.919   0.319   6.281 -0.1495 -0.3878  0.2631
 3379SOL    HW121599   0.991   0.371   6.318 -1.1013  1.1142  0.0246
 3379SOL    HW221600   0.907   0.262   6.356 -2.6729  0.3728  0.4437
 3380SOL     OW21601   2.012   0.441   3.231 -0.2787 -0.0755 -0.2260
 3380SOL    HW121602   1.918   0.460   3.230 -0.0290  1.1531  0.0840
 3380SOL    HW221603   2.009   0.348   3.210 -1.0739  0.2206 -1.4319
 3381SOL     OW21604   0.288   0.898  14.577 -0.8112  0.0590 -0.6106
 3381SOL    HW121605   0.257   0.808  14.571 -1.9640  0.3647  0.7846
 3381SOL    HW221606   0.348   0.902  14.503  0.9757 -1.4682  0.7580
 3382SOL     OW21607   3.543   1.180   0.390  0.1751 -0.4087 -0.3874
 3382SOL    HW121608   3.547   1.264   0.436  0.8433 -1.5476  1.6690
 3382SOL    HW221609   3.503   1.123   0.456 -2.5787  0.8750 -0.9595
 3383SOL     OW21610   2.448   2.500  12.670 -0.3568  0.7782  0.2755
 3383SOL    HW121611   2.486   2.554  12.601  0.2349 -0.8817 -0.6995
 3383SOL    HW221612   2.466   2.552  12.749 -0.8446 -2.3836  2.4818
 3384SOL     OW21613   0.066   4.707   1.010 -0.7429  0.4926 -0.1867
 3384SOL    HW121614   0.057   0.059   0.953  2.1122  0.0895 -1.2225
 3384SOL    HW221615   0.144   4.670   0.969 -1.6953 -2.4210  0.6195
 3385SOL     OW21616   0.763   3.852  11.810  0.7854 -0.3192  0.4796
 3385SOL    HW121617   0.746   3.922  11.873  3.6066  0.8301 -0.0052
 3385SOL    HW221618   0.819   3.797  11.865 -0.8893 -1.9411  0.5354
 3386SOL     OW21619   1.216   2.934   1.956  0.1679  0.3496 -0.5774
 3386SOL    HW121620   1.305   2.897   1.954  1.0481  2.3662  0.7228
 3386SOL    HW221621   1.230   3.021   1.994 -3.1606 -0.1881  1.7731
 3387SOL     OW21622   1.565   0.293   3.783 -0.1399  0.1964 -0.1943
 3387SOL    HW121623   1.546   0.257   3.696 -2.4397  1.7817 -0.3521
 3387SOL    HW221624   1.654   0.323   3.764  0.5288  0.0253  2.7002
 3388SOL     OW21625   2.518   0.655   5.479  0.2208 -0.2939 -0.5251
 3388SOL    HW121626   2.471   0.739   5.477  1.1062  0.1936 -0.7312
 3388SOL    HW221627   2.597   0.677   5.527  0.0348  1.5031 -1.0202
 3389SOL     OW21628   0.509   3.444  14.694 -0.0548 -0.2321 -0.0954
 3389SOL    HW121629   0.421   3.410  14.712 -0.0278 -0.2290  0.0437
 3389SOL    HW221630   0.557   3.361  14.697 -0.4629 -0.4399  0.6088
 3390SOL     OW21631   3.637   1.363   6.612 -0.5094 -0.1898 -0.4991
 3390SOL    HW121632   3.662   1.439   6.560  0.4977 -1.3259 -1.6828
 3390SOL    HW221633   3.704   1.304   6.577 -0.5914 -0.4396 -0.2370
 3391SOL     OW21634   0.564   1.790   7.003  0.3201 -0.3492 -0.1612
 3391SOL    HW121635   0.657   1.791   7.025 -0.1628  0.4909  1.8363
 3391SOL    HW221636   0.562   1.704   6.961  0.4719 -1.0839  1.3176
 3392SOL     OW21637   1.565   2.036  10.406 -0.2239  0.1953 -0.4794
 3392SOL    HW121638   1.636   2.057  10.467  0.7384 -1.4311 -1.0268
 3392SOL    HW221639   1.613   1.962  10.368  1.0320  0.4899  0.5064
 3393SOL     OW21640   1.399   1.581  13.370 -0.0248  0.0018 -0.6703
 3393SOL    HW121641   1.347   1.504  13.347  1.4535 -1.2192  0.0582
 3393SOL    HW221642   1.332   1.643  13.398 -1.3279 -1.6741 -0.1044
 3394SOL     OW21643   0.936   4.158   7.713 -0.2185  0.3243 -0.2728
 3394SOL    HW121644   0.850   4.173   7.673 -0.3199  0.3028 -0.0641
 3394SOL    HW221645   0.986   4.237   7.696 -0.0519  0.4462  0.7473
 3395SOL     OW21646   0.494   1.709   7.515  0.5089 -0.2541  0.2403
 3395SOL    HW121647   0.435   1.634   7.509 -0.9665  1.1427 -2.4989
 3395SOL    HW221648   0.513   1.733   7.425 -0.3379 -0.3713  0.0336
 3396SOL     OW21649   3.626   2.319  13.588 -0.3845  0.4635  0.1859
 3396SOL    HW121650   3.692   2.340  13.522  0.8975 -0.5347  1.1480
 3396SOL    HW221651   3.592   2.241  13.543 -0.7360  0.0336  1.2006
 3397SOL     OW21652   3.763   4.463   2.709 -0.3910  0.0159  0.7259
 3397SOL    HW121653   3.733   4.552   2.695  1.6356  0.4737 -0.7414
 3397SOL    HW221654   3.691   4.427   2.760 -0.0139  0.4081  1.5300
 3398SOL     OW21655   4.479   4.110   6.180 -0.3794 -0.3372 -0.0135
 3398SOL    HW121656   4.453   4.078   6.267 -2.0812 -1.2180 -0.8412
 3398SOL    HW221657   4.459   4.040   6.118 -0.5379 -1.1302  0.9242
 3399SOL     OW21658   3.940   4.266   8.194 -0.5200  0.1048 -0.1271
 3399SOL    HW121659   3.880   4.231   8.260  0.0017  0.6361  0.6307
 3399SOL    HW221660   3.941   4.361   8.210 -0.6909 -0.0933  1.0811
 3400SOL     OW21661   1.363   0.042  10.149  0.6468 -0.4446 -0.5215
 3400SOL    HW121662   1.443   0.075  10.190 -0.2296 -0.7751  1.4556
 3400SOL    HW221663   1.336   4.698  10.211  0.1478  0.4246  0.2187
 3401SOL     OW21664   1.483   1.267   1.649 -0.0080 -0.1624  0.0528
 3401SOL    HW121665   1.533   1.218   1.714 -1.3622 -1.5408  0.0518
 3401SOL    HW221666   1.499   1.220   1.567 -1.2036 -0.4905  0.0075
 3402SOL     OW21667   3.690   1.125   3.039 -0.1222 -0.5828 -0.9744
 3402SOL    HW121668   3.780   1.124   3.006  0.1068 -1.2399 -0.3374
 3402SOL    HW221669   3.674   1.219   3.042 -0.1451 -0.6195  0.1279
 3403SOL     OW21670   1.597   4.191   8.519  0.3132 -0.0861 -0.0452
 3403SOL    HW121671   1.503   4.181   8.536 -0.0096 -1.1312 -2.3540
 3403SOL    HW221672   1.607   4.133   8.443  0.3524 -1.7324  1.2182
 3404SOL     OW21673   3.944   4.260  14.510  0.0363  0.3275 -0.2388
 3404SOL    HW121674   3.876   4.198  14.537  1.9083 -1.4981  0.2929
 3404SOL    HW221675   3.939   4.326  14.579 -0.6036 -0.5900  0.5795
 3405SOL     OW21676   3.850   0.201  17.333 -0.0292 -0.2234 -0.4075
 3405SOL    HW121677   3.893   0.134  17.280  0.4364 -1.5452  1.6542
 3405SOL    HW221678   3.925   0.235  17.382  0.2243 -0.5885 -0.5423
 3406SOL     OW21679   2.273   4.295   2.034 -0.3411  0.2808  0.0124
 3406SOL    HW121680   2.266   4.328   2.123  0.3327  1.6716 -0.4467
 3406SOL    HW221681   2.369   4.294   2.035 -0.3359 -0.0441 -0.5961
 3407SOL     OW21682   0.666   2.710   8.317 -0.0422 -0.0865  0.1096
 3407SOL    HW121683   0.575   2.729   8.294 -0.6083 -0.7987  1.7039
 3407SOL    HW221684   0.687   2.789   8.366 -0.8559  0.9284 -1.1841
 3408SOL     OW21685   3.551   3.271  14.279  0.0012  0.6339 -0.6690
 3408SOL    HW121686   3.460   3.245  14.288  0.6083 -0.9796  0.8062
 3408SOL    HW221687   3.587   3.232  14.359  0.8200  0.6650 -1.0155
 3409SOL     OW21688   0.021   2.132   4.870 -0.2376 -0.6170  0.3894
 3409SOL    HW121689   4.659   2.112   4.907 -2.0000  1.5460 -2.5895
 3409SOL    HW221690   0.072   2.068   4.920 -0.9687 -1.3146  0.2485
 3410SOL     OW21691   4.023   1.371  15.346  0.4029  0.2090  0.5477
 3410SOL    HW121692   3.948   1.418  15.383  0.3770  0.4067  0.2392
 3410SOL    HW221693   4.093   1.377  15.411  1.1881  2.0340 -0.4626
 3411SOL     OW21694   2.991   3.190   8.737 -0.1201  0.8711 -0.3566
 3411SOL    HW121695   2.901   3.177   8.765 -0.1723 -0.0618 -0.9714
 3411SOL    HW221696   3.024   3.101   8.724  0.0019  1.0647 -1.4190
 3412SOL     OW21697   2.079   1.555  13.874  0.0476 -0.4551 -0.2592
 3412SOL    HW121698   2.041   1.468  13.859  0.0862 -0.8957  2.3283
 3412SOL    HW221699   2.095   1.548  13.968  2.2516  0.5133 -0.5734
 3413SOL     OW21700   1.613   0.876  15.680 -0.3948  0.3411 -0.5518
 3413SOL    HW121701   1.652   0.812  15.740 -2.5685 -0.5238 -0.0869
 3413SOL    HW221702   1.603   0.948  15.742  0.0052 -1.5364  1.7070
 3414SOL     OW21703   0.986   3.749   4.843 -0.5907 -0.2157  0.0360
 3414SOL    HW121704   0.942   3.664   4.840 -0.2823 -0.4001  0.6052
 3414SOL    HW221705   1.080   3.729   4.849  0.0468  2.8873  0.6363
 3415SOL     OW21706   0.968   1.547  10.980 -0.6767  0.5243 -0.0251
 3415SOL    HW121707   0.997   1.529  10.891 -0.4251  1.3688 -0.1126
 3415SOL    HW221708   0.890   1.492  10.987 -0.2543  0.0329  0.8847
 3416SOL     OW21709   4.297   4.059  15.439 -0.1963  0.1320  0.4059
 3416SOL    HW121710   4.327   4.149  15.425 -0.1870  0.2919  1.4920
 3416SOL    HW221711   4.279   4.048  15.346  3.6204  4.9702 -0.9464
 3417SOL     OW21712   1.141   4.714   5.030  0.1200 -0.2616  0.1065
 3417SOL    HW121713   1.234   4.693   5.023 -0.2710 -1.5051 -1.1611
 3417SOL    HW221714   1.119   0.001   5.123 -0.0533  2.6739 -0.2670
 3418SOL     OW21715   1.399   1.504  13.723  0.5716 -0.0561 -0.3200
 3418SOL    HW121716   1.492   1.527  13.727  0.2961  0.9039  0.5846
 3418SOL    HW221717   1.382   1.534  13.812  0.3731  3.0699 -1.4242
 3419SOL     OW21718   2.543   2.313   4.282  0.2461  0.0751  0.0405
 3419SOL    HW121719   2.583   2.367   4.214 -0.1563 -0.4299 -0.6040
 3419SOL    HW221720   2.453   2.343   4.295  0.6345  1.6182 -0.7837
 3420SOL     OW21721   4.014   3.755   7.578  0.1615  0.8151 -0.0019
 3420SOL    HW121722   3.923   3.724   7.576 -0.1328  1.6980 -0.1131
 3420SOL    HW221723   3.995   3.847   7.592  1.2017  1.1691 -0.9480
 3421SOL     OW21724   1.611   0.511   1.636  0.1941 -0.2015 -0.3807
 3421SOL    HW121725   1.525   0.471   1.629  0.9563 -1.9413  0.1774
 3421SOL    HW221726   1.630   0.499   1.543  0.5707 -0.2592 -0.2992
 3422SOL     OW21727   4.132   0.585   4.105  0.0898 -0.1244  0.3024
 3422SOL    HW121728   4.198   0.649   4.131  1.0852 -1.4389  1.0620
 3422SOL    HW221729   4.059   0.628   4.062  1.0784  0.6779 -0.5452
 3423SOL     OW21730   1.835   3.406   4.379 -0.4911  0.0518  0.3600
 3423SOL    HW121731   1.867   3.354   4.305  0.0162 -2.3021  2.2473
 3423SOL    HW221732   1.795   3.336   4.429 -0.8613 -0.7513 -1.0625
 3424SOL     OW21733   2.787   3.941   4.719 -0.5774 -0.1807 -0.2639
 3424SOL    HW121734   2.759   3.983   4.637  0.9905  1.9815  0.3140
 3424SOL    HW221735   2.708   3.957   4.770 -1.2904  1.1436 -1.8023
 3425SOL     OW21736   0.004   1.638   7.816 -0.6468  0.2471 -0.2892
 3425SOL    HW121737   0.007   1.559   7.870 -0.6147  0.0202 -0.6296
 3425SOL    HW221738   4.687   1.702   7.876 -0.2542 -1.9090  2.2793
 3426SOL     OW21739   2.690   2.731   9.212  0.0627 -0.3720  0.5183
 3426SOL    HW121740   2.760   2.669   9.192  0.0878 -0.3321  0.4807
 3426SOL    HW221741   2.724   2.785   9.283 -0.9361  1.6542 -0.5098
 3427SOL     OW21742   2.983   1.468   8.162  0.2897 -0.7429 -0.2312
 3427SOL    HW121743   3.043   1.447   8.091  1.2251 -0.6526  0.5247
 3427SOL    HW221744   3.028   1.531   8.219 -1.3623 -0.4987  0.8033
 3428SOL     OW21745   2.874   4.170   6.109 -0.0020  0.3446  0.2816
 3428SOL    HW121746   2.917   4.103   6.055  0.6641  0.5922  0.5033
 3428SOL    HW221747   2.919   4.247   6.074 -0.1793  0.1200 -0.4489
 3429SOL     OW21748   4.569   3.016   4.241  0.0436  0.3650  0.5868
 3429SOL    HW121749   4.485   2.976   4.260  0.3785 -0.4330  0.3753
 3429SOL    HW221750   4.539   3.093   4.194 -0.3969  0.3388  0.8293
 3430SOL     OW21751   1.088   2.851  17.471  0.2246  1.0017  0.2862
 3430SOL    HW121752   1.159   2.896  17.516  1.0544  0.8012 -0.8450
 3430SOL    HW221753   1.040   2.822  17.549  0.9312 -0.2723  0.2296
 3431SOL     OW21754   2.617   2.993   6.329  0.0690  0.7126 -0.4052
 3431SOL    HW121755   2.599   2.900   6.343 -0.0175  0.3438 -2.9712
 3431SOL    HW221756   2.683   3.007   6.397 -1.4273  0.3673  1.1281
 3432SOL     OW21757   2.833   4.287   1.093 -0.1465 -0.5422 -0.5336
 3432SOL    HW121758   2.920   4.282   1.133 -0.7771 -0.1138  0.8553
 3432SOL    HW221759   2.857   4.298   1.001  2.3861  2.1067  0.4305
 3433SOL     OW21760   3.118   3.686   7.236 -0.1660  0.1189 -0.1996
 3433SOL    HW121761   3.046   3.624   7.253 -1.3698  1.3723 -0.7392
 3433SOL    HW221762   3.083   3.736   7.162  1.9392  2.3717  0.3519
 3434SOL     OW21763   3.638   2.521   3.644  0.0846 -0.4001  0.5981
 3434SOL    HW121764   3.699   2.529   3.571  1.2708  1.3648  1.7841
 3434SOL    HW221765   3.680   2.445   3.686 -4.0975 -0.4807  4.6131
 3435SOL     OW21766   4.162   4.311   0.125 -0.1928  0.0051  0.1736
 3435SOL    HW121767   4.131   4.249   0.190 -2.0380 -1.1826 -1.8396
 3435SOL    HW221768   4.077   4.344   0.096  0.1607  1.8717  1.2603
 3436SOL     OW21769   1.115   0.715   2.673  0.1639  0.0496  0.5167
 3436SOL    HW121770   1.117   0.778   2.744  1.7852  3.1124 -2.2513
 3436SOL    HW221771   1.175   0.749   2.607  0.1398 -1.4818 -0.3000
 3437SOL     OW21772   0.231   2.236   9.685 -0.0341  0.0949  0.6237
 3437SOL    HW121773   0.140   2.207   9.681  0.9597 -2.8861 -0.5824
 3437SOL    HW221774   0.208   2.315   9.733  0.8954  0.1015  1.0658
 3438SOL     OW21775   0.090   2.986   4.345 -0.3201 -0.1110 -0.1531
 3438SOL    HW121776   0.075   3.067   4.394  0.2133 -0.2917  0.3084
 3438SOL    HW221777   0.006   2.979   4.299 -0.7551 -2.1610  0.9573
 3439SOL     OW21778   1.870   3.009   8.610 -0.0996 -0.4331  0.0710
 3439SOL    HW121779   1.947   3.018   8.554  0.2090 -2.7154  0.1441
 3439SOL    HW221780   1.913   3.006   8.695  0.4249  2.2108 -0.0827
 3440SOL     OW21781   2.589   1.356   2.595  0.1797 -0.1154  0.4142
 3440SOL    HW121782   2.565   1.279   2.544 -1.5737  0.4901  0.3311
 3440SOL    HW221783   2.544   1.341   2.678 -1.8254  1.5907 -0.3735
 3441SOL     OW21784   0.028   2.449   9.220  0.0887  0.0954 -0.2506
 3441SOL    HW121785   4.680   2.388   9.232  1.0775 -0.8285  0.9841
 3441SOL    HW221786   4.696   2.524   9.201  0.2503  0.1852 -0.3746
 3442SOL     OW21787   3.761   3.686   7.627  0.1738 -0.1469 -0.3313
 3442SOL    HW121788   3.692   3.716   7.567 -0.0779  1.0932  0.5778
 3442SOL    HW221789   3.718   3.608   7.662  0.2993 -0.6611 -1.3269
 3443SOL     OW21790   3.572   1.593   4.777 -0.7435 -0.6898 -0.5252
 3443SOL    HW121791   3.526   1.676   4.789  1.5039  0.4291  0.3675
 3443SOL    HW221792   3.534   1.566   4.694 -0.5644  2.1104 -1.4889
 3444SOL     OW21793   2.333   3.088  16.727 -0.5843 -0.1852  0.7128
 3444SOL    HW121794   2.362   3.116  16.640  0.5648  2.7347  2.0487
 3444SOL    HW221795   2.273   3.159  16.750  0.2855 -0.0276  2.4746
 3445SOL     OW21796   0.622   3.668   8.406 -0.5196 -0.5239  0.0180
 3445SOL    HW121797   0.614   3.585   8.358 -2.9845  0.0403 -0.5237
 3445SOL    HW221798   0.549   3.667   8.468 -1.3416 -0.4494 -0.9695
 3446SOL     OW21799   1.549   4.151   8.790  0.2116 -0.2843  0.2270
 3446SOL    HW121800   1.566   4.077   8.848  2.4977 -1.6122 -2.1516
 3446SOL    HW221801   1.523   4.104   8.710 -0.5503 -0.4790  0.5943
 3447SOL     OW21802   3.999   2.924   9.850 -0.6277 -0.1523  0.5367
 3447SOL    HW121803   4.034   2.850   9.801 -0.3041  0.5636 -0.3170
 3447SOL    HW221804   4.003   2.983   9.775 -0.2707  0.3597  0.9527
 3448SOL     OW21805   3.209   0.428  11.213  0.0595  0.5726  0.3493
 3448SOL    HW121806   3.194   0.397  11.124  1.9627  0.9583 -0.1081
 3448SOL    HW221807   3.147   0.501  11.221  1.4015  1.9112 -1.4817
 3449SOL     OW21808   3.004   0.884  11.062 -0.0951 -0.9471  0.1162
 3449SOL    HW121809   2.947   0.920  11.130  0.2583  1.2964 -0.8019
 3449SOL    HW221810   2.982   0.946  10.993 -0.9559 -1.1125  0.2406
 3450SOL     OW21811   1.248   1.064   7.260 -0.4478  0.3743  0.0493
 3450SOL    HW121812   1.154   1.069   7.242 -0.6442  0.6813  1.1709
 3450SOL    HW221813   1.249   1.118   7.340 -0.0142  0.4389 -0.0017
 3451SOL     OW21814   0.376   4.221   0.613 -0.5274 -0.5871  0.2232
 3451SOL    HW121815   0.287   4.219   0.649 -0.0001 -5.6180  1.1967
 3451SOL    HW221816   0.384   4.315   0.594 -0.9101 -0.6386 -0.1926
 3452SOL     OW21817   1.471   2.469  10.910  0.1911  0.9215 -0.8043
 3452SOL    HW121818   1.519   2.480  10.992  2.1438 -2.5173 -1.4974
 3452SOL    HW221819   1.514   2.512  10.836  0.9397 -0.2699 -1.0650
 3453SOL     OW21820   1.490   4.359   6.088 -0.2267  0.0482 -0.0107
 3453SOL    HW121821   1.579   4.349   6.124 -0.2153 -0.8842 -0.2870
 3453SOL    HW221822   1.504   4.397   6.002  0.4202 -1.5600 -0.6266
 3454SOL     OW21823   2.149   2.901   9.091 -0.1502  0.5490  0.2630
 3454SOL    HW121824   2.162   2.807   9.103 -1.3654  0.1385 -1.7198
 3454SOL    HW221825   2.240   2.929   9.103 -0.2220  0.2543  1.5250
 3455SOL     OW21826   1.329   4.132   8.567 -0.1484 -0.0243 -0.1560
 3455SOL    HW121827   1.308   4.090   8.484  0.3778 -0.3697 -0.1126
 3455SOL    HW221828   1.314   4.065   8.633  0.7784 -0.0456  0.0377
 3456SOL     OW21829   3.367   0.933   6.671 -0.3110  0.2041  0.0981
 3456SOL    HW121830   3.420   1.013   6.672 -0.9436  0.6329 -0.1629
 3456SOL    HW221831   3.279   0.973   6.671 -0.7597 -0.7979 -1.1560
 3457SOL     OW21832   2.525   0.081   8.921  0.2827 -0.2317  0.5352
 3457SOL    HW121833   2.544   0.045   8.835 -0.4638 -0.8940  0.6540
 3457SOL    HW221834   2.445   0.125   8.894 -0.6412 -2.2840 -0.1156
 3458SOL     OW21835   0.434   4.631   5.104 -0.2917 -0.4605  0.4610
 3458SOL    HW121836   0.385   4.554   5.076 -1.3970 -0.4986  2.4999
 3458SOL    HW221837   0.487   4.638   5.025 -2.6311  0.6408 -1.0050
 3459SOL     OW21838   1.696   3.936   5.195  0.2379  0.9195  0.0928
 3459SOL    HW121839   1.725   3.973   5.112 -3.8851 -0.2223 -1.8640
 3459SOL    HW221840   1.730   3.995   5.262  3.2745 -0.5750 -0.1456
 3460SOL     OW21841   1.802   1.736  12.682  0.0527 -0.2255 -0.1557
 3460SOL    HW121842   1.889   1.695  12.687  0.7308  1.0217 -1.8807
 3460SOL    HW221843   1.792   1.754  12.775  1.2974 -1.5244  0.2374
 3461SOL     OW21844   2.839   2.483  17.446  0.4457  0.3820 -0.6003
 3461SOL    HW121845   2.822   2.420  17.517 -0.8272  1.7717  0.3325
 3461SOL    HW221846   2.896   2.430  17.390 -0.9130 -0.7536 -0.9303
 3462SOL     OW21847   0.485   1.180   5.561 -0.1770  0.1847 -0.2033
 3462SOL    HW121848   0.518   1.219   5.642  2.0482 -1.6912 -0.1888
 3462SOL    HW221849   0.533   1.097   5.560 -0.0744  0.2342  2.0641
 3463SOL     OW21850   4.538   0.610  16.903  0.2745 -0.3721  0.5169
 3463SOL    HW121851   4.508   0.650  16.822  1.1127  1.1837  0.9711
 3463SOL    HW221852   4.493   0.526  16.904 -0.1140 -0.1699 -0.4299
 3464SOL     OW21853   2.818   2.501   7.783 -0.0798 -0.3509  0.5415
 3464SOL    HW121854   2.847   2.592   7.777 -2.2473  0.3754  1.0834
 3464SOL    HW221855   2.892   2.453   7.820  0.3198 -0.2110 -0.0864
 3465SOL     OW21856   4.125   0.011  16.972 -0.3405 -0.2922 -0.1203
 3465SOL    HW121857   4.051   0.020  16.912 -0.1353 -0.6198 -0.4285
 3465SOL    HW221858   4.165   0.091  16.940 -0.0788  0.8973  3.2555
 3466SOL     OW21859   0.553   2.185   3.682  0.1345 -0.4060 -0.2062
 3466SOL    HW121860   0.506   2.264   3.709 -2.6716 -1.8211 -0.9302
 3466SOL    HW221861   0.588   2.158   3.766 -0.7353 -0.2206  0.2200
 3467SOL     OW21862   1.882   3.805  16.306  0.7943 -0.0213  0.3769
 3467SOL    HW121863   1.853   3.723  16.268  1.2210  1.0914 -2.4102
 3467SOL    HW221864   1.971   3.773  16.324 -0.1598 -2.6598  0.3227
 3468SOL     OW21865   1.486   1.432   5.103 -0.1080  0.0221  0.5266
 3468SOL    HW121866   1.518   1.348   5.137  1.3012  0.0740 -0.6484
 3468SOL    HW221867   1.493   1.411   5.010 -2.4808 -1.8633  0.7932
 3469SOL     OW21868   4.015   2.840  16.416 -0.5441 -0.4788  0.0665
 3469SOL    HW121869   4.018   2.870  16.325 -2.3159  0.9996  0.4894
 3469SOL    HW221870   3.936   2.785  16.425 -1.5165  0.5082 -2.3864
 3470SOL     OW21871   1.836   0.531   1.844  0.3787 -0.2861 -0.5955
 3470SOL    HW121872   1.774   0.537   1.771  1.2445  0.5350 -1.2643
 3470SOL    HW221873   1.915   0.490   1.807  1.0517 -1.0600  1.6784
 3471SOL     OW21874   2.677   2.535   2.445  0.2393 -0.0097  0.3025
 3471SOL    HW121875   2.722   2.554   2.528  0.9254  1.9636 -0.5360
 3471SOL    HW221876   2.604   2.482   2.479  0.7372 -1.3983 -0.8086
 3472SOL     OW21877   1.894   4.297  11.848  0.9542 -0.2187  0.3057
 3472SOL    HW121878   1.857   4.318  11.933 -0.1150 -0.7774 -0.0142
 3472SOL    HW221879   1.980   4.279  11.884 -0.3072 -1.0215  2.9319
 3473SOL     OW21880   3.137   4.586   6.660  0.2870  0.5866 -0.5269
 3473SOL    HW121881   3.085   4.511   6.688  1.2581  0.7385  1.6997
 3473SOL    HW221882   3.078   4.631   6.599 -0.8018 -1.0068 -0.6254
 3474SOL     OW21883   1.008   1.286   6.126 -0.2567 -0.0330 -0.0478
 3474SOL    HW121884   0.936   1.343   6.153  0.4722 -0.0292  1.9394
 3474SOL    HW221885   1.086   1.339   6.144 -0.0808 -0.0407 -0.7961
 3475SOL     OW21886   3.734   1.586  10.332  0.1239  0.5132 -0.0287
 3475SOL    HW121887   3.687   1.622  10.257  0.3607 -2.4605 -1.6157
 3475SOL    HW221888   3.798   1.536  10.282  0.7778  0.6799  0.6407
 3476SOL     OW21889   0.415   4.187  14.282 -0.5409  0.5266 -0.5124
 3476SOL    HW121890   0.326   4.169  14.311 -0.5495  1.2659 -0.0697
 3476SOL    HW221891   0.424   4.277  14.313 -1.1461  1.0565 -1.9174
 3477SOL     OW21892   2.866   2.711   8.910 -0.2617  0.5901  0.4721
 3477SOL    HW121893   2.912   2.640   8.955 -1.9276 -1.2567 -0.7653
 3477SOL    HW221894   2.855   2.687   8.818 -0.6040  0.3158  0.5820
 3478SOL     OW21895   1.062   3.687   0.693  0.0183  0.3199 -0.5242
 3478SOL    HW121896   1.155   3.704   0.680  0.5404 -0.5175  2.1027
 3478SOL    HW221897   1.035   3.671   0.602 -0.6082 -0.0057 -0.2784
 3479SOL     OW21898   1.426   3.082   5.833  0.0093  0.0461 -0.3087
 3479SOL    HW121899   1.410   3.170   5.798 -0.7632  0.3754  0.8571
 3479SOL    HW221900   1.446   3.109   5.923 -1.3374  0.1297 -0.0325
 3480SOL     OW21901   4.124   0.214   7.626 -0.2263 -0.2110  0.2502
 3480SOL    HW121902   4.215   0.234   7.648  0.0822 -2.3881  1.0027
 3480SOL    HW221903   4.071   0.272   7.680 -0.7788 -0.8520  0.4008
 3481SOL     OW21904   2.025   2.079   6.302  0.1976 -0.4325  0.4178
 3481SOL    HW121905   2.094   2.125   6.349 -1.3665  0.0557  2.2307
 3481SOL    HW221906   2.070   2.076   6.217  0.6593 -0.7418  0.6756
 3482SOL     OW21907   3.173   3.581  12.561  0.1095 -0.3953  0.0121
 3482SOL    HW121908   3.259   3.587  12.603 -0.6627  0.3118  1.4706
 3482SOL    HW221909   3.160   3.487  12.570  0.2337 -0.4707 -0.5991
 3483SOL     OW21910   0.102   0.818   2.899  0.0187 -0.2938 -0.8170
 3483SOL    HW121911   0.195   0.798   2.891  0.5044  1.7128 -0.2563
 3483SOL    HW221912   0.080   0.814   2.806 -2.4452  0.2170 -0.2426
 3484SOL     OW21913   0.580   4.630  16.498 -0.2911 -0.5410 -0.4197
 3484SOL    HW121914   0.595   4.719  16.531  1.8336 -0.3041 -2.0062
 3484SOL    HW221915   0.672   4.617  16.475  0.1968 -2.3592  2.5677
 3485SOL     OW21916   3.574   1.670  17.297 -0.1120 -0.0283 -0.3642
 3485SOL    HW121917   3.521   1.596  17.268  0.3516 -0.3671 -0.3339
 3485SOL    HW221918   3.514   1.697  17.367  0.4852 -0.2675  0.2382
 3486SOL     OW21919   1.760   0.082   8.221 -0.1597  0.4735  0.6966
 3486SOL    HW121920   1.695   0.152   8.214 -1.1848 -0.6318 -0.7185
 3486SOL    HW221921   1.726   0.030   8.294 -1.3357 -0.6430 -0.6364
 3487SOL     OW21922   3.448   2.194  10.904  0.1468  0.1804 -0.2731
 3487SOL    HW121923   3.538   2.164  10.914 -0.6268 -1.8534  0.5184
 3487SOL    HW221924   3.452   2.241  10.820 -0.4711 -0.0439 -0.4265
 3488SOL     OW21925   1.210   0.106   7.075  0.1035 -0.4621  0.4968
 3488SOL    HW121926   1.137   0.160   7.043  0.2726  0.0861  1.0396
 3488SOL    HW221927   1.167   0.027   7.107  0.1357 -0.2049  1.1790
 3489SOL     OW21928   3.759   3.291   1.814  0.0603 -0.3806 -0.7634
 3489SOL    HW121929   3.834   3.232   1.807  0.9116  0.5601  0.5344
 3489SOL    HW221930   3.776   3.335   1.897  1.3031 -2.0339 -0.1510
 3490SOL     OW21931   4.663   0.391   4.702  0.0737 -0.2189 -0.0170
 3490SOL    HW121932   4.716   0.403   4.781  1.4119 -0.3619 -0.8957
 3490SOL    HW221933   4.575   0.380   4.739  0.3177  0.5866  0.8233
 3491SOL     OW21934   2.014   1.803  13.756  0.3278 -0.2341 -0.0401
 3491SOL    HW121935   2.036   1.710  13.765 -1.1123 -0.3898  1.8356
 3491SOL    HW221936   1.921   1.795  13.738  0.4760  0.1790 -0.9571
 3492SOL     OW21937   3.757   3.388   5.484  0.0511  0.0237 -0.4600
 3492SOL    HW121938   3.737   3.420   5.572  3.5471  0.1052  0.3328
 3492SOL    HW221939   3.696   3.314   5.475  0.2043 -0.2313  0.5288
 3493SOL     OW21940   3.956   3.072  13.156  0.3521 -0.1703  0.0113
 3493SOL    HW121941   3.936   3.056  13.248  1.9309 -1.4725  0.1202
 3493SOL    HW221942   4.038   3.121  13.158 -0.4321  1.0403  2.0794
 3494SOL     OW21943   1.177   0.325   5.793 -0.4545 -0.0099 -0.4773
 3494SOL    HW121944   1.109   0.307   5.858  1.3231  0.6956  1.5609
 3494SOL    HW221945   1.251   0.350   5.847 -0.2939  0.2269 -0.8030
 3495SOL     OW21946   0.242   1.873   7.508  0.0619  0.4123  0.1057
 3495SOL    HW121947   0.209   1.829   7.429  2.3224  0.5710 -0.9252
 3495SOL    HW221948   0.248   1.793   7.561 -0.2812 -0.4314 -1.1072
 3496SOL     OW21949   2.333   1.849   6.409 -0.0164 -0.2643  0.3219
 3496SOL    HW121950   2.396   1.847   6.337 -2.7314  1.8078 -2.1600
 3496SOL    HW221951   2.387   1.833   6.486  0.4249 -0.5432 -0.0484
 3497SOL     OW21952   3.872   3.123   3.214  0.3039 -1.0355 -0.7909
 3497SOL    HW121953   3.807   3.117   3.144  0.7140 -1.2290 -1.1495
 3497SOL    HW221954   3.949   3.148   3.163  1.2733 -1.7506  0.3088
 3498SOL     OW21955   1.238   2.589  11.717 -0.1040  0.1391 -0.2282
 3498SOL    HW121956   1.190   2.666  11.687  1.3099  0.4907 -1.5542
 3498SOL    HW221957   1.295   2.627  11.784 -0.5330  1.8430 -0.8257
 3499SOL     OW21958   3.239   2.927   1.401 -0.1275  0.0300 -0.2573
 3499SOL    HW121959   3.320   2.894   1.362  0.5745  1.3132  0.1153
 3499SOL    HW221960   3.262   2.922   1.494  4.3147 -0.0673 -1.3533
 3500SOL     OW21961   1.888   2.680   1.053 -0.0809 -0.0449 -0.5482
 3500SOL    HW121962   1.887   2.775   1.047  0.0591  0.1265  1.9309
 3500SOL    HW221963   1.948   2.673   1.128  0.8924 -1.8802 -1.4977
 3501SOL     OW21964   2.939   0.805   5.817 -0.5969  0.5776 -0.2129
 3501SOL    HW121965   3.002   0.823   5.746  1.5573  2.5934  2.2091
 3501SOL    HW221966   2.880   0.869   5.776 -0.7244  1.8179  1.8950
 3502SOL     OW21967   3.465   4.723   4.015  0.2286  0.0244 -0.6604
 3502SOL    HW121968   3.560   0.004   4.023  0.3764 -1.9487 -1.1188
 3502SOL    HW221969   3.452   0.044   4.099 -0.4124  1.8689 -1.7562
 3503SOL     OW21970   4.517   1.562   5.057 -0.0210  0.1941  0.2778
 3503SOL    HW121971   4.487   1.495   4.996  2.5171 -0.4731 -0.2387
 3503SOL    HW221972   4.581   1.514   5.110 -1.9911 -1.0612  1.4760
 3504SOL     OW21973   2.237   3.829   4.749  0.4916  0.8921  0.3443
 3504SOL    HW121974   2.169   3.893   4.730 -0.4232 -0.1359  0.1184
 3504SOL    HW221975   2.278   3.880   4.819 -0.9303  1.7290  0.5763
 3505SOL     OW21976   4.319   2.756   3.341 -0.3751 -0.2297  0.3787
 3505SOL    HW121977   4.287   2.845   3.329  0.7547  0.1329  0.0529
 3505SOL    HW221978   4.271   2.723   3.417 -0.3674  2.3059  1.4932
 3506SOL     OW21979   1.065   2.368   2.666  0.4442 -0.0727 -0.6606
 3506SOL    HW121980   1.033   2.299   2.607  0.4054 -0.2878 -0.3918
 3506SOL    HW221981   1.120   2.319   2.727 -0.2585 -2.5726 -2.0391
 3507SOL     OW21982   3.602   4.279  15.700 -0.3278 -0.0628 -0.1549
 3507SOL    HW121983   3.571   4.370  15.704 -1.7778 -0.4958 -1.6394
 3507SOL    HW221984   3.533   4.229  15.743 -1.0589  1.2201  0.1538
 3508SOL     OW21985   0.449   3.042   8.293 -0.2866  0.5950 -0.0593
 3508SOL    HW121986   0.478   3.017   8.381  0.9291  0.9291 -0.3757
 3508SOL    HW221987   0.532   3.059   8.248  0.7609 -0.8980  1.3391
 3509SOL     OW21988   1.726   0.670   7.398 -0.2001  0.3662 -0.0561
 3509SOL    HW121989   1.753   0.760   7.411 -1.4358  0.8037 -0.5105
 3509SOL    HW221990   1.636   0.692   7.374 -0.6864 -1.5033  0.0548
 3510SOL     OW21991   0.113   4.640   6.608 -0.1822 -0.2331 -0.4881
 3510SOL    HW121992   0.164   4.655   6.528 -0.2659  1.1820 -0.2652
 3510SOL    HW221993   0.147   4.553   6.631 -0.6002 -0.4459 -0.6767
 3511SOL     OW21994   1.105   2.214  13.347 -0.5695 -0.0325 -0.1764
 3511SOL    HW121995   1.176   2.160  13.380 -0.8614 -1.3650 -1.7378
 3511SOL    HW221996   1.055   2.160  13.285 -3.2503  1.7677  0.4063
 3512SOL     OW21997   1.762   0.310   9.254 -0.6249  0.2920 -0.4749
 3512SOL    HW121998   1.774   0.287   9.162 -0.5754  1.8947 -0.8620
 3512SOL    HW221999   1.837   0.261   9.290 -0.6420  1.5857  1.3115
 3513SOL     OW22000   2.139   1.761  12.108 -0.2039 -0.6557  0.1114
 3513SOL    HW122001   2.136   1.710  12.189  1.2829  0.3368  0.7791
 3513SOL    HW222002   2.234   1.774  12.111 -0.2646  0.1237 -1.7333
 3514SOL     OW22003   1.731   3.962   6.646  0.0478  0.0004 -0.3910
 3514SOL    HW122004   1.657   3.920   6.691  1.5616 -1.8500  0.3863
 3514SOL    HW222005   1.794   3.962   6.719 -2.8931  3.4432  2.1506
 3515SOL     OW22006   0.533   3.970   8.400  1.4814 -0.5146  0.0480
 3515SOL    HW122007   0.490   3.890   8.429 -2.5737  1.6599  0.2149
 3515SOL    HW222008   0.585   3.993   8.476  3.1781  1.2764 -1.6443
 3516SOL     OW22009   3.883   1.500  12.966  0.4575 -0.3820  0.0996
 3516SOL    HW122010   3.827   1.448  12.907 -2.3319  1.3427  1.1961
 3516SOL    HW222011   3.924   1.550  12.895  1.0595  2.6555  2.6054
 3517SOL     OW22012   4.076   0.831   3.579  0.4194  0.3532 -0.2090
 3517SOL    HW122013   4.121   0.804   3.499  0.2629  0.4649 -0.3333
 3517SOL    HW222014   4.145   0.799   3.638  1.4609  0.0973 -1.5789
 3518SOL     OW22015   0.563   4.602   5.370 -0.0762 -0.3157  1.3463
 3518SOL    HW122016   0.571   4.694   5.395 -2.2153  0.6835 -1.6589
 3518SOL    HW222017   0.582   4.589   5.277 -0.5438  0.7429  1.1084
 3519SOL     OW22018   2.609   0.474   9.133 -0.2568  0.4332  0.4171
 3519SOL    HW122019   2.571   0.435   9.054 -2.6941 -1.3351  2.4061
 3519SOL    HW222020   2.566   0.558   9.150  0.6410  0.7193  1.2445
 3520SOL     OW22021   1.251   2.603   5.772 -0.3288 -0.5399  0.4053
 3520SOL    HW122022   1.344   2.617   5.791 -0.3148  1.0030 -0.8889
 3520SOL    HW222023   1.232   2.692   5.743  0.9643 -0.5097 -0.3178
 3521SOL     OW22024   3.399   1.611   5.907 -0.0816  0.4543  0.2270
 3521SOL    HW122025   3.349   1.534   5.935 -1.5896  1.3469 -0.0530
 3521SOL    HW222026   3.393   1.666   5.985 -1.7066  2.4707 -1.3132
 3522SOL     OW22027   3.778   4.161   8.413 -0.7907 -0.3936  0.6310
 3522SOL    HW122028   3.697   4.125   8.377 -1.5635  0.6001  1.3726
 3522SOL    HW222029   3.733   4.210   8.483  0.1709  3.1191 -1.1971
 3523SOL     OW22030   4.008   2.552   8.851  0.0509  0.7878  0.5422
 3523SOL    HW122031   3.926   2.578   8.811  0.9998  1.4940 -0.9514
 3523SOL    HW222032   4.026   2.466   8.813  1.0091  0.8756  0.7765
 3524SOL     OW22033   3.552   0.802   3.715 -0.1004 -0.1574  0.8149
 3524SOL    HW122034   3.536   0.896   3.707 -0.0103 -0.4629 -3.0331
 3524SOL    HW222035   3.648   0.794   3.709 -0.2211 -0.3170 -0.8554
 3525SOL     OW22036   3.333   0.877   6.270  0.0967 -0.4845 -0.5448
 3525SOL    HW122037   3.284   0.955   6.298  0.2306 -0.5340 -0.1744
 3525SOL    HW222038   3.363   0.917   6.188 -1.0939 -0.7517 -1.1136
 3526SOL     OW22039   2.869   2.660   1.327 -0.0658 -0.3064 -0.3707
 3526SOL    HW122040   2.804   2.644   1.259 -1.4134 -0.8394  1.0447
 3526SOL    HW222041   2.857   2.576   1.371 -2.1013 -0.3383 -1.0191
 3527SOL     OW22042   4.525   1.207   9.673  0.1566 -0.0166 -0.1963
 3527SOL    HW122043   4.529   1.277   9.608 -0.7314  0.6714  0.4942
 3527SOL    HW222044   4.450   1.234   9.726  0.2046  1.7516 -1.0186
 3528SOL     OW22045   0.341   0.104   7.406 -0.8482 -0.1458 -0.4649
 3528SOL    HW122046   0.348   0.142   7.494 -0.2166 -0.5938 -0.3206
 3528SOL    HW222047   0.353   0.010   7.422 -0.9351 -0.6580 -3.3957
 3529SOL     OW22048   1.260   2.542   4.144 -0.3036 -0.4678  0.6065
 3529SOL    HW122049   1.177   2.495   4.148 -0.4943 -0.2075 -0.4728
 3529SOL    HW222050   1.313   2.484   4.199  0.2356 -0.3750  0.1830
 3530SOL     OW22051   3.592   1.811   6.234  0.0971 -0.0370  0.5300
 3530SOL    HW122052   3.646   1.890   6.244  0.6818 -0.4117  0.3441
 3530SOL    HW222053   3.641   1.773   6.161 -1.2458 -0.5240 -0.1315
 3531SOL     OW22054   0.935   3.702   9.392 -0.7736  0.3400 -0.4087
 3531SOL    HW122055   0.996   3.739   9.328 -0.2586 -0.4596 -0.3886
 3531SOL    HW222056   0.866   3.662   9.339 -1.5599 -0.2469  1.0573
 3532SOL     OW22057   0.181   3.268   5.824  0.7434 -0.2581 -0.2951
 3532SOL    HW122058   0.116   3.310   5.881  1.0166  1.0623 -0.9645
 3532SOL    HW222059   0.183   3.335   5.756 -1.2697  0.8933  0.7674
 3533SOL     OW22060   3.392   3.148  13.990 -0.2067  0.0659  0.4213
 3533SOL    HW122061   3.422   3.233  14.022 -1.0233  0.5721 -0.1622
 3533SOL    HW222062   3.350   3.107  14.066 -0.6124  0.2322  0.2879
 3534SOL     OW22063   4.444   4.096  13.519 -0.5655  0.0574 -0.3959
 3534SOL    HW122064   4.409   4.147  13.446  1.1287  0.6111 -0.8248
 3534SOL    HW222065   4.533   4.075  13.492 -0.4115  0.1327  0.0543
 3535SOL     OW22066   0.023   0.962   5.375  0.5114  0.1855 -0.0405
 3535SOL    HW122067   4.654   0.942   5.364  0.7798 -0.0485 -2.0605
 3535SOL    HW222068   0.055   0.904   5.444 -0.9565 -1.6352 -0.8811
 3536SOL     OW22069   3.376   3.176   8.765 -0.4034 -0.1369  0.4962
 3536SOL    HW122070   3.392   3.214   8.852  0.8156 -1.3558  0.8053
 3536SOL    HW222071   3.408   3.086   8.766 -0.6546 -0.2081  1.9726
 3537SOL     OW22072   1.716   3.207   8.511 -0.1807 -0.3744  0.1135
 3537SOL    HW122073   1.775   3.230   8.440  0.4426 -1.4534  0.2911
 3537SOL    HW222074   1.758   3.127   8.543  0.2762 -1.5062 -3.4043
 3538SOL     OW22075   1.700   4.432   8.589 -0.2514  0.3836  0.2444
 3538SOL    HW122076   1.751   4.414   8.669 -1.6744 -1.5815  0.6933
 3538SOL    HW222077   1.662   4.349   8.562  0.3979  0.0658  0.2830
 3539SOL     OW22078   3.091   1.670   8.306 -0.5589  0.4520  0.5870
 3539SOL    HW122079   3.121   1.708   8.388 -0.9966  0.6049  0.6784
 3539SOL    HW222080   3.134   1.732   8.246  0.5140 -0.1932  0.7048
 3540SOL     OW22081   1.425   2.599  12.699  0.0306  0.1195 -0.0709
 3540SOL    HW122082   1.360   2.532  12.677  1.4343 -1.0894 -0.5326
 3540SOL    HW222083   1.370   2.668  12.735 -0.0534  0.1602 -0.2740
 3541SOL     OW22084   3.285   1.597   4.353 -0.0163  0.4840  0.0177
 3541SOL    HW122085   3.308   1.574   4.263 -0.6224  1.1619 -0.3042
 3541SOL    HW222086   3.354   1.658   4.379 -0.6120 -0.0870  2.9733
 3542SOL     OW22087   3.222   1.074  11.600 -0.3419 -0.3489 -0.0424
 3542SOL    HW122088   3.188   1.147  11.652 -0.1718 -1.6293  1.8245
 3542SOL    HW222089   3.171   0.998  11.626  1.7721 -2.3489 -1.7176
 3543SOL     OW22090   1.324   3.537   4.257  0.2443 -0.4060 -0.0382
 3543SOL    HW122091   1.356   3.497   4.176  0.9334 -1.5981  0.8272
 3543SOL    HW222092   1.344   3.473   4.325 -0.6854 -1.6934 -0.9737
 3544SOL     OW22093   4.376   1.228  16.269  0.6302 -0.2613  0.5996
 3544SOL    HW122094   4.304   1.287  16.291 -0.2214 -0.9596 -0.3428
 3544SOL    HW222095   4.397   1.201  16.358  1.3662 -1.1479  0.1557
 3545SOL     OW22096   1.585   0.925   8.242 -0.3376  0.1094 -0.1733
 3545SOL    HW122097   1.510   0.905   8.186  0.3951 -1.6243 -0.5272
 3545SOL    HW222098   1.558   0.878   8.321  0.4779 -0.8858 -0.4920
 3546SOL     OW22099   3.900   3.293  15.348  0.2976 -0.4793  0.1595
 3546SOL    HW122100   3.910   3.386  15.326 -0.1701 -1.4660 -4.2324
 3546SOL    HW222101   3.808   3.291  15.375  0.9250  0.4538  2.3918
 3547SOL     OW22102   4.656   3.597   7.772  0.0788 -0.0626 -0.1784
 3547SOL    HW122103   4.608   3.516   7.782 -1.6157  0.7946 -1.3685
 3547SOL    HW222104   4.650   3.627   7.863  0.3052 -2.1182  0.5135
 3548SOL     OW22105   0.988   4.154  11.629 -0.0687  0.5523  0.1327
 3548SOL    HW122106   1.074   4.192  11.647 -0.5332  1.5871  0.1435
 3548SOL    HW222107   0.920   4.214  11.658 -0.4427  0.2331 -0.0863
 3549SOL     OW22108   2.901   2.165  14.657  0.4472 -0.8163 -0.1445
 3549SOL    HW122109   2.922   2.248  14.613  0.1533 -2.0485 -2.6328
 3549SOL    HW222110   2.809   2.188  14.669  0.2189 -0.7477 -2.0234
 3550SOL     OW22111   3.250   3.279  11.355 -0.7684  0.3907 -0.1328
 3550SOL    HW122112   3.337   3.286  11.314 -0.2473 -1.6863  0.6139
 3550SOL    HW222113   3.269   3.330  11.434  1.0048 -0.3239 -0.0967
 3551SOL     OW22114   1.532   2.660   5.704 -0.3520 -0.1893  0.0826
 3551SOL    HW122115   1.587   2.635   5.630 -2.3395 -1.7366 -0.8423
 3551SOL    HW222116   1.544   2.576   5.748 -2.1434 -1.7884 -2.4814
 3552SOL     OW22117   0.481   4.340   7.384  0.1985 -0.3107  0.1102
 3552SOL    HW122118   0.474   4.260   7.332 -1.3959 -0.5319  0.6498
 3552SOL    HW222119   0.395   4.338   7.426 -1.1307  0.7420 -2.5364
 3553SOL     OW22120   4.228   4.633   4.555  0.0895 -0.2112  0.2740
 3553SOL    HW122121   4.270   4.684   4.485 -2.2933  1.6924  0.2589
 3553SOL    HW222122   4.150   4.596   4.515  0.0186 -0.7715  0.9368
 3554SOL     OW22123   0.590   3.909   2.087  0.5772 -0.0635  0.2653
 3554SOL    HW122124   0.615   3.918   2.179  1.7506  0.3150 -0.0867
 3554SOL    HW222125   0.591   3.997   2.049  0.0213  0.8048  2.2421
 3555SOL     OW22126   1.302   4.109   3.546 -0.1060  0.1058 -0.0605
 3555SOL    HW122127   1.242   4.174   3.584 -1.8239 -1.2752 -0.4091
 3555SOL    HW222128   1.365   4.102   3.617  0.5413  1.0394 -0.5447
 3556SOL     OW22129   1.019   0.349   3.845  0.0013  0.1686  0.2084
 3556SOL    HW122130   1.003   0.280   3.909 -0.7728  0.6013  0.4777
 3556SOL    HW222131   1.103   0.388   3.871  0.5277 -1.3820  0.8404
 3557SOL     OW22132   3.996   1.833  12.241  0.3346 -0.7988 -0.0884
 3557SOL    HW122133   3.967   1.747  12.271  1.7414 -1.1583  0.2331
 3557SOL    HW222134   4.091   1.833  12.249  0.3962  1.2651 -0.8268
 3558SOL     OW22135   0.238   1.509  15.494 -0.8672 -0.2737  0.5117
 3558SOL    HW122136   0.259   1.416  15.494 -0.3330 -0.1530  0.1932
 3558SOL    HW222137   0.302   1.536  15.428  0.6833 -0.7154  1.8428
 3559SOL     OW22138   0.662   0.393   8.209  0.1141  0.2809  0.0907
 3559SOL    HW122139   0.680   0.410   8.301 -2.9820  1.1340  0.5682
 3559SOL    HW222140   0.593   0.327   8.214 -1.0339  1.7377  3.7739
 3560SOL     OW22141   1.714   4.318  10.539  0.3307  0.0626  0.3728
 3560SOL    HW122142   1.756   4.378  10.600 -1.8943  2.1992 -0.2005
 3560SOL    HW222143   1.626   4.312  10.577 -0.4736  3.5817 -0.9196
 3561SOL     OW22144   1.650   0.720   9.079  0.0919 -0.5782 -0.4280
 3561SOL    HW122145   1.598   0.657   9.029 -2.8706 -0.1208  2.0572
 3561SOL    HW222146   1.655   0.674   9.163  2.4776 -1.0669 -0.8431
 3562SOL     OW22147   0.213   1.597   7.625  0.3015  0.0586  0.2593
 3562SOL    HW122148   0.176   1.521   7.581 -1.4692 -0.0072  1.9024
 3562SOL    HW222149   0.152   1.620   7.695  1.1766  1.3269  0.6144
 3563SOL     OW22150   3.233   2.979   6.510  0.0101  0.3503  0.1306
 3563SOL    HW122151   3.190   3.001   6.427 -0.5512 -0.1068  0.3045
 3563SOL    HW222152   3.241   3.067   6.547 -1.4013  0.5027  0.0616
 3564SOL     OW22153   0.657   0.271  17.506  0.1164  0.2915  0.0979
 3564SOL    HW122154   0.730   0.212  17.523  0.5108 -0.0759 -3.0064
 3564SOL    HW222155   0.663   0.333  17.579 -1.8070  0.6047 -0.0208
 3565SOL     OW22156   1.550   2.250  16.166  1.0039 -0.4555  0.3892
 3565SOL    HW122157   1.616   2.293  16.220  0.8239 -0.3022  0.4915
 3565SOL    HW222158   1.503   2.185  16.218  1.5390 -0.5474  0.7496
 3566SOL     OW22159   0.806   1.446   6.197  0.1377  0.8391  0.3196
 3566SOL    HW122160   0.751   1.468   6.272  1.1451 -3.5187  2.3264
 3566SOL    HW222161   0.819   1.535   6.164  2.5359  0.9513  1.6461
 3567SOL     OW22162   4.205   4.665  15.177 -0.5228 -0.9089 -0.2235
 3567SOL    HW122163   4.295   4.684  15.150 -1.0611  1.1053 -0.5733
 3567SOL    HW222164   4.162   4.664  15.091  0.1622 -0.2142 -0.5708
 3568SOL     OW22165   0.311   4.216  16.432  0.4167 -0.3682  0.1050
 3568SOL    HW122166   0.243   4.275  16.466 -1.0247 -2.0404  0.1329
 3568SOL    HW222167   0.259   4.183  16.359  0.9444 -0.4967 -0.2092
 3569SOL     OW22168   3.151   1.596  11.672  0.2004  0.4998 -0.1358
 3569SOL    HW122169   3.063   1.631  11.686  0.4705  1.2999 -0.4317
 3569SOL    HW222170   3.208   1.653  11.724 -0.9377 -0.0839  1.7679
 3570SOL     OW22171   2.425   0.026   5.852  0.5187 -0.0460  0.1685
 3570SOL    HW122172   2.333   0.020   5.829  0.9093  0.7749 -1.6078
 3570SOL    HW222173   2.417   0.050   5.944 -1.1924  0.1084 -0.0318
 3571SOL     OW22174   3.175   4.248  17.074  0.3353  0.0209  0.3533
 3571SOL    HW122175   3.080   4.261  17.080 -0.1396 -3.1345 -0.3015
 3571SOL    HW222176   3.185   4.235  16.979 -1.7154  2.6254 -0.2299
 3572SOL     OW22177   1.214   0.497   4.998  0.4126  0.1430 -0.4446
 3572SOL    HW122178   1.237   0.570   5.055  1.0167 -0.6325  0.3070
 3572SOL    HW222179   1.218   0.431   5.068  0.9481 -0.9829 -1.5328
 3573SOL     OW22180   1.599   3.676   5.536  0.2252  0.5179 -0.1950
 3573SOL    HW122181   1.634   3.703   5.451 -0.8963  1.3582 -0.3856
 3573SOL    HW222182   1.673   3.630   5.574 -1.0695 -1.2943  0.1318
 3574SOL     OW22183   3.408   1.690   2.144  0.4860 -0.3706  0.3669
 3574SOL    HW122184   3.462   1.701   2.222 -0.3574  0.0454  0.8772
 3574SOL    HW222185   3.371   1.778   2.149  2.6969  0.4326  2.8484
 3575SOL     OW22186   4.223   1.765   0.151 -0.6511 -0.4857  0.3410
 3575SOL    HW122187   4.151   1.702   0.158  0.2317 -1.7457 -2.0574
 3575SOL    HW222188   4.300   1.723   0.112  0.3278  1.6162  0.0015
 3576SOL     OW22189   0.928   0.599   7.439 -0.3987 -0.5463 -0.5284
 3576SOL    HW122190   0.874   0.676   7.455 -1.0717 -0.9291 -0.9232
 3576SOL    HW222191   0.959   0.569   7.525  0.5311 -2.0903 -1.3842
 3577SOL     OW22192   4.449   0.067  11.230 -0.5297  0.0315  0.9082
 3577SOL    HW122193   4.539   0.101  11.232  0.2312 -1.7515 -2.3511
 3577SOL    HW222194   4.417   0.090  11.142  1.3085  0.4339  0.3340
 3578SOL     OW22195   3.543   4.048   5.335  0.1409  0.1187  0.9577
 3578SOL    HW122196   3.576   3.962   5.308  1.8896  1.1109 -0.0566
 3578SOL    HW222197   3.544   4.038   5.430  0.3969  2.5109  1.2099
 3579SOL     OW22198   1.533   2.524   4.405 -0.1294 -0.4190  0.1687
 3579SOL    HW122199   1.554   2.447   4.352  0.0705  1.3110 -2.2379
 3579SOL    HW222200   1.476   2.484   4.471 -1.4019  1.0613 -0.0448
 3580SOL     OW22201   0.307   2.526   0.614 -0.2745  0.2691  0.2224
 3580SOL    HW122202   0.254   2.449   0.595 -0.1075 -0.6862  3.6231
 3580SOL    HW222203   0.274   2.547   0.702  0.8694 -0.0136  0.7220
 3581SOL     OW22204   3.686   1.545   6.426  0.3678  0.5138 -0.4641
 3581SOL    HW122205   3.608   1.529   6.374  1.7849 -0.8632 -2.1990
 3581SOL    HW222206   3.759   1.521   6.368  1.0053 -1.1179  1.0229
 3582SOL     OW22207   4.112   3.667   8.147 -0.0080  0.6002  0.1859
 3582SOL    HW122208   4.052   3.609   8.193  1.4381  0.1254  1.4626
 3582SOL    HW222209   4.055   3.681   8.071  0.7028  2.2083 -0.0460
 3583SOL     OW22210   3.679   1.994   5.142 -0.5162  0.7765  0.4515
 3583SOL    HW122211   3.612   1.931   5.166  1.9012 -1.2303  1.9623
 3583SOL    HW222212   3.748   1.948   5.191 -0.9000 -0.0788  0.1774
 3584SOL     OW22213   0.600   1.176   2.400 -0.3717  0.5063 -0.2252
 3584SOL    HW122214   0.694   1.184   2.383 -0.3145  1.4027  0.5018
 3584SOL    HW222215   0.601   1.165   2.495 -1.4952  2.7444  0.0624
 3585SOL     OW22216   1.678   2.966   2.798 -0.1649  0.2000  0.5133
 3585SOL    HW122217   1.678   2.919   2.715 -0.7632  0.8518  0.1395
 3585SOL    HW222218   1.664   3.058   2.776  1.1938  0.3778  0.3960
 3586SOL     OW22219   3.396   2.603   7.634 -0.2413 -0.9854 -0.2496
 3586SOL    HW122220   3.370   2.695   7.623  0.5051 -0.7193  0.2189
 3586SOL    HW222221   3.370   2.570   7.720 -0.3525 -0.8194 -0.2177
 3587SOL     OW22222   4.030   0.349  14.506 -0.0079  0.3393 -0.1421
 3587SOL    HW122223   4.052   0.377  14.418  1.2291 -1.1003 -0.3001
 3587SOL    HW222224   3.946   0.393  14.520  0.7651  2.0044 -0.7661
 3588SOL     OW22225   2.409   4.511   3.941  0.1468 -0.3311  0.2863
 3588SOL    HW122226   2.330   4.564   3.941  1.0274  0.9747 -1.0416
 3588SOL    HW222227   2.398   4.453   3.865  1.0846  1.5098 -1.2457
 3589SOL     OW22228   0.848   1.037   3.395 -0.3920  0.5681  0.2514
 3589SOL    HW122229   0.812   0.976   3.460  1.6206 -1.0717 -0.1609
 3589SOL    HW222230   0.845   1.117   3.447  1.1410 -0.3234  1.7052
 3590SOL     OW22231   2.200   3.111   2.123  0.1700 -0.3789  0.1955
 3590SOL    HW122232   2.198   3.022   2.158 -0.0508 -0.8309 -0.9508
 3590SOL    HW222233   2.292   3.136   2.132  0.9016 -2.5971 -1.0240
 3591SOL     OW22234   4.555   2.938   5.617 -0.3398 -0.0945  0.4852
 3591SOL    HW122235   4.598   3.008   5.568  0.6996 -0.3376  1.0572
 3591SOL    HW222236   4.587   2.954   5.705  1.1540 -0.3959 -0.0067
 3592SOL     OW22237   0.269   0.323   1.885 -0.9973 -0.2835  0.4427
 3592SOL    HW122238   0.195   0.367   1.845 -1.3090 -1.6342 -0.4563
 3592SOL    HW222239   0.333   0.381   1.845  0.5986 -0.2006  3.0946
 3593SOL     OW22240   3.480   2.597   1.310  0.1950  0.6939 -0.1320
 3593SOL    HW122241   3.453   2.528   1.248  1.9099  1.2857 -1.5208
 3593SOL    HW222242   3.562   2.624   1.270 -0.4318  1.6060 -0.8093
 3594SOL     OW22243   2.736   1.384   8.332 -0.3128  0.2161  0.3080
 3594SOL    HW122244   2.763   1.421   8.416  1.2381  0.8660 -0.4703
 3594SOL    HW222245   2.787   1.440   8.274  0.6073  1.8291  2.6756
 3595SOL     OW22246   0.508   2.475   2.274  0.4325  0.1368  0.2731
 3595SOL    HW122247   0.589   2.511   2.312  2.2808 -3.1856 -0.4962
 3595SOL    HW222248   0.469   2.547   2.223 -0.6307 -0.6193  0.0327
 3596SOL     OW22249   0.894   4.402  16.750 -0.6347 -0.2427 -0.1215
 3596SOL    HW122250   0.960   4.336  16.731 -2.1276 -1.0779 -2.3861
 3596SOL    HW222251   0.875   4.384  16.842 -0.1178 -1.3231 -0.2335
 3597SOL     OW22252   0.828   1.255  16.164  0.2016  0.4023 -0.1158
 3597SOL    HW122253   0.757   1.217  16.214  0.6005 -0.8156 -0.4782
 3597SOL    HW222254   0.807   1.245  16.071 -1.0517  1.5800  0.0455
 3598SOL     OW22255   0.775   2.466  13.676  0.8129 -0.0191  0.6290
 3598SOL    HW122256   0.774   2.412  13.755 -0.9128  1.6133  1.7223
 3598SOL    HW222257   0.751   2.408  13.604  2.8423 -0.6592  0.4552
 3599SOL     OW22258   1.698   0.816  11.487  0.4806 -0.0022  0.4524
 3599SOL    HW122259   1.695   0.892  11.544 -1.5874 -0.0981  0.4418
 3599SOL    HW222260   1.614   0.776  11.507  0.9301 -1.1581  0.0705
 3600SOL     OW22261   3.234   3.074   0.956  0.5518 -0.4144  0.2158
 3600SOL    HW122262   3.315   3.092   1.005  1.3168 -2.5626 -0.2692
 3600SOL    HW222263   3.240   2.983   0.928 -0.4924 -0.3234 -0.2894
 3601SOL     OW22264   1.670   3.373  10.086  0.0517  0.5445 -0.4589
 3601SOL    HW122265   1.675   3.378  10.182  2.5664 -0.8792 -0.5134
 3601SOL    HW222266   1.762   3.399  10.076  0.6737 -1.6713 -0.4910
 3602SOL     OW22267   3.303   2.644  11.786 -0.3915  0.1558 -0.6281
 3602SOL    HW122268   3.343   2.559  11.801 -1.8694 -0.4630 -0.2717
 3602SOL    HW222269   3.274   2.673  11.872  2.4175  2.8168 -0.5383
 3603SOL     OW22270   3.799   3.525   6.922  0.5180  0.0227  0.1440
 3603SOL    HW122271   3.800   3.436   6.888 -0.1797 -0.3832  1.1701
 3603SOL    HW222272   3.874   3.565   6.879 -1.2337  0.3644 -2.5750
 3604SOL     OW22273   4.046   3.522   6.832 -0.2026  0.2859 -0.6311
 3604SOL    HW122274   4.095   3.498   6.911  0.7380 -0.5663 -1.4758
 3604SOL    HW222275   4.081   3.459   6.770  0.1605  0.3984 -0.5366
 3605SOL     OW22276   4.262   0.717   8.828  0.1712 -0.2151  0.1019
 3605SOL    HW122277   4.215   0.637   8.853 -0.7637  0.5115  0.6817
 3605SOL    HW222278   4.325   0.719   8.900  1.1233  2.2448 -0.7933
 3606SOL     OW22279   1.173   4.286   1.946  0.1325 -0.3591  0.1144
 3606SOL    HW122280   1.162   4.191   1.953 -0.6074 -0.3138 -0.5154
 3606SOL    HW222281   1.158   4.298   1.853 -0.6101 -1.2778  0.1125
 3607SOL     OW22282   1.297   0.526  11.935  0.0605  0.6495  0.3629
 3607SOL    HW122283   1.343   0.585  11.995 -1.6835 -0.0354  2.3842
 3607SOL    HW222284   1.256   0.593  11.880 -0.3571  0.2459  0.1879
 3608SOL     OW22285   0.974   3.925   3.747  0.2839 -0.3972  0.2559
 3608SOL    HW122286   0.905   3.991   3.757 -0.2319 -1.0200  0.7797
 3608SOL    HW222287   1.002   3.948   3.658 -1.0437 -2.0362 -0.5857
 3609SOL     OW22288   3.345   2.265   7.929 -0.6161  0.2672  0.0964
 3609SOL    HW122289   3.358   2.360   7.935  0.4672  0.1410 -0.1635
 3609SOL    HW222290   3.425   2.225   7.964 -1.2665 -0.7055  0.4583
 3610SOL     OW22291   4.237   2.286   5.780 -0.5345 -0.0153  0.0084
 3610SOL    HW122292   4.184   2.352   5.825  0.3298  0.0765  0.9024
 3610SOL    HW222293   4.323   2.327   5.778 -1.0535  1.2016  1.7072
 3611SOL     OW22294   0.147   2.605   6.033 -0.0617 -0.2441 -0.6805
 3611SOL    HW122295   0.065   2.640   5.998 -0.6448 -0.7999  0.1181
 3611SOL    HW222296   0.191   2.689   6.050 -1.7226  0.6525 -0.7661
 3612SOL     OW22297   0.984   0.237   0.525 -0.8712  0.0437 -0.0482
 3612SOL    HW122298   0.892   0.214   0.532 -1.1828  1.1726 -0.4395
 3612SOL    HW222299   1.006   0.238   0.618 -1.2413 -0.8131  0.0486
 3613SOL     OW22300   0.442   2.828   0.787 -0.1457  0.1423  0.1432
 3613SOL    HW122301   0.446   2.746   0.836  1.7322  1.4630  2.2462
 3613SOL    HW222302   0.450   2.890   0.860  0.8046  0.1908 -0.0001
 3614SOL     OW22303   1.476   4.627   2.389 -0.3649  0.3048 -0.2423
 3614SOL    HW122304   1.410   4.675   2.439  0.4655  1.0811  0.0933
 3614SOL    HW222305   1.421   4.614   2.311  0.2115 -0.8166 -0.4574
 3615SOL     OW22306   2.924   4.709   3.030  0.0054  0.5367  0.9321
 3615SOL    HW122307   2.936   4.616   3.015 -3.5715  0.2678 -0.2211
 3615SOL    HW222308   2.874   0.010   2.952 -0.5753 -4.5571 -0.3065
 3616SOL     OW22309   3.595   3.263   7.470  0.4318 -0.0948 -0.3204
 3616SOL    HW122310   3.566   3.292   7.557 -0.9302  0.7980 -1.0532
 3616SOL    HW222311   3.571   3.328   7.404 -1.2844  0.2074  0.5810
 3617SOL     OW22312   2.522   1.957   9.825 -0.2469 -0.0494  0.2018
 3617SOL    HW122313   2.508   1.889   9.759 -1.3900  0.2013  0.1840
 3617SOL    HW222314   2.514   1.913   9.909 -0.2907  0.7221  0.5981
 3618SOL     OW22315   0.179   1.582   2.330  0.1194 -0.1310 -1.0607
 3618SOL    HW122316   0.085   1.596   2.316  0.0953  2.1541  1.3664
 3618SOL    HW222317   0.206   1.663   2.286 -1.5495 -0.7418 -3.2411
 3619SOL     OW22318   3.432   4.196   4.337  0.1523  0.0539  0.1569
 3619SOL    HW122319   3.464   4.146   4.412  2.2364  0.9532 -0.1457
 3619SOL    HW222320   3.337   4.198   4.347  0.1429 -2.9873  0.9211
 3620SOL     OW22321   0.895   2.020   8.669 -0.2119  0.5194 -0.3841
 3620SOL    HW122322   0.952   1.952   8.706 -0.6696  0.5722  0.4259
 3620SOL    HW222323   0.820   1.971   8.635  0.3638  0.5523 -1.6817
 3621SOL     OW22324   3.511   2.021  14.052 -0.6277 -0.2193 -0.6510
 3621SOL    HW122325   3.445   2.081  14.018  1.6129  2.0865 -0.9746
 3621SOL    HW222326   3.461   1.940  14.063  1.1396 -1.1292  0.6058
 3622SOL     OW22327   3.999   3.589   6.174 -0.3574  0.8854  0.4688
 3622SOL    HW122328   3.934   3.618   6.238 -1.5585  2.1738 -1.3342
 3622SOL    HW222329   4.063   3.660   6.172 -1.5959  2.0440  2.4443
 3623SOL     OW22330   4.279   0.757   8.329  0.0991  0.3414 -0.0306
 3623SOL    HW122331   4.276   0.680   8.386  2.3809 -0.2353 -0.6959
 3623SOL    HW222332   4.321   0.723   8.250  2.0097  1.3686  0.5508
 3624SOL     OW22333   2.446   1.274   3.557 -0.7963 -0.6715  0.3559
 3624SOL    HW122334   2.424   1.328   3.481  1.6880  0.6377  0.5645
 3624SOL    HW222335   2.541   1.272   3.548 -0.7630  2.3510  0.3387
 3625SOL     OW22336   1.208   1.251  11.371  0.1206  0.3351  0.0301
 3625SOL    HW122337   1.241   1.289  11.290  1.5193  0.3412  0.6037
 3625SOL    HW222338   1.290   1.227  11.415 -0.3643 -2.3480 -0.4826
 3626SOL     OW22339   0.690   2.737   6.751  0.4339 -0.0196  0.1338
 3626SOL    HW122340   0.780   2.748   6.720  0.2795  2.7683  0.6847
 3626SOL    HW222341   0.656   2.826   6.762  0.9624  0.1338  0.5368
 3627SOL     OW22342   1.321   2.637   1.646  0.1226  0.0124 -0.3012
 3627SOL    HW122343   1.360   2.679   1.569  1.6455  1.0102  1.0012
 3627SOL    HW222344   1.406   2.631   1.690  0.0435  0.6264 -0.0606
 3628SOL     OW22345   0.395   3.865   4.522 -0.3529 -0.1751  0.0962
 3628SOL    HW122346   0.447   3.876   4.601 -0.3522 -1.6742  0.3048
 3628SOL    HW222347   0.391   3.770   4.516 -0.6411 -0.2878  2.1484
 3629SOL     OW22348   3.137   2.657   0.311  0.2310 -0.1807 -0.2097
 3629SOL    HW122349   3.124   2.591   0.380  0.0000  0.1822  0.0899
 3629SOL    HW222350   3.104   2.737   0.351  0.5978  0.5669 -1.3978
 3630SOL     OW22351   4.272   0.853  15.297 -0.4087 -0.1376 -0.2698
 3630SOL    HW122352   4.340   0.878  15.234  0.1059 -1.5349 -0.2689
 3630SOL    HW222353   4.325   0.800  15.356 -1.1162  1.3302  1.6772
 3631SOL     OW22354   4.407   3.860  17.683  0.0485  0.2441 -0.2735
 3631SOL    HW122355   4.493   3.823   0.008  0.2391  0.3086 -0.8609
 3631SOL    HW222356   4.431   3.943  17.642 -1.3726 -0.3513 -2.2948
 3632SOL     OW22357   4.153   2.709   0.150 -0.2772 -0.0019  0.5073
 3632SOL    HW122358   4.146   2.737   0.058  1.2701 -0.6578  0.1863
 3632SOL    HW222359   4.080   2.749   0.196  0.4564  0.2210  1.4740
 3633SOL     OW22360   0.323   3.892   6.220 -0.0735 -0.2323  0.5472
 3633SOL    HW122361   0.255   3.928   6.276 -0.6923 -1.0521  0.3318
 3633SOL    HW222362   0.351   3.818   6.273  0.1230 -3.4127 -3.9908
 3634SOL     OW22363   3.057   3.098   4.921  0.3544  0.0659  0.6402
 3634SOL    HW122364   3.143   3.133   4.899  0.3292 -1.5895 -2.0262
 3634SOL    HW222365   3.050   3.135   5.009  2.4299 -1.7360  1.5295
 3635SOL     OW22366   2.071   0.277  17.065  0.2565 -0.5475  0.2981
 3635SOL    HW122367   2.105   0.325  17.141  0.6116  1.2894 -1.0092
 3635SOL    HW222368   2.113   0.339  17.005  0.8351 -1.6166 -0.4094
 3636SOL     OW22369   3.189   2.464   0.138  0.2555  0.2150 -0.2399
 3636SOL    HW122370   3.155   2.535   0.192  0.7373  1.6122 -1.7526
 3636SOL    HW222371   3.201   2.516   0.058 -2.1757 -0.7575 -1.2220
 3637SOL     OW22372   2.968   4.675   6.478  0.2237 -0.1961 -0.1039
 3637SOL    HW122373   2.985   4.724   6.397 -0.1140 -3.0207 -1.8764
 3637SOL    HW222374   2.902   0.007   6.518  0.1055  0.4960 -1.2488
 3638SOL     OW22375   2.946   4.004   5.880  0.7119 -0.0142  0.3465
 3638SOL    HW122376   2.962   4.081   5.825  0.8132  0.3000  0.8197
 3638SOL    HW222377   3.039   3.985   5.892  0.2710 -2.4829 -0.1254
 3639SOL     OW22378   3.581   2.079   3.956  0.2734 -0.0662  0.7792
 3639SOL    HW122379   3.522   2.062   4.029 -0.0353 -1.1251  0.2843
 3639SOL    HW222380   3.607   1.991   3.927  2.3909  0.0828  2.2797
 3640SOL     OW22381   4.564   0.281  10.540 -0.4768  0.4695 -0.0525
 3640SOL    HW122382   4.591   0.294  10.631 -1.7531  0.0466  0.3884
 3640SOL    HW222383   4.645   0.298  10.491 -0.7590  0.5705 -0.4867
 3641SOL     OW22384   3.575   4.172   4.092 -0.5043  0.0546 -0.0263
 3641SOL    HW122385   3.557   4.078   4.082  0.5510 -0.1450 -0.0782
 3641SOL    HW222386   3.537   4.182   4.179  1.8992  3.0663  0.6686
 3642SOL     OW22387   3.280   2.385   2.282 -0.6387  0.0742  0.3388
 3642SOL    HW122388   3.308   2.311   2.228 -1.8929  0.7676 -1.2744
 3642SOL    HW222389   3.214   2.347   2.341 -0.1936  0.7954  1.3058
 3643SOL     OW22390   3.717   4.459   7.419 -0.0744  0.1627 -0.0361
 3643SOL    HW122391   3.723   4.488   7.510 -1.7252 -0.3194  0.2356
 3643SOL    HW222392   3.623   4.470   7.401  0.3186 -0.4786 -2.4648
 3644SOL     OW22393   2.875   3.218   6.537 -0.7178 -0.5048 -0.1145
 3644SOL    HW122394   2.944   3.170   6.583 -0.3749 -0.1563 -0.2632
 3644SOL    HW222395   2.829   3.246   6.616 -0.4763 -2.0475  0.5657
 3645SOL     OW22396   3.623   1.391   3.101  0.6406  0.3422 -0.5488
 3645SOL    HW122397   3.548   1.417   3.048 -0.5949 -0.0912  0.9980
 3645SOL    HW222398   3.612   1.443   3.181  1.0037  0.9664 -0.9012
 3646SOL     OW22399   3.214   3.912   4.413 -0.7235  0.0446  0.3553
 3646SOL    HW122400   3.238   3.982   4.474 -1.8632 -0.3454  1.2656
 3646SOL    HW222401   3.232   3.833   4.465 -0.2051  0.5695  0.9762
 3647SOL     OW22402   0.816   2.164  10.882 -0.3445 -0.3366  0.0570
 3647SOL    HW122403   0.882   2.094  10.881  0.5321  0.4827  0.7506
 3647SOL    HW222404   0.837   2.210  10.801 -0.9272 -1.3182 -0.6499
 3648SOL     OW22405   1.434   0.757  11.490  0.1653  0.4631 -0.2285
 3648SOL    HW122406   1.428   0.819  11.418 -1.4458 -0.3852 -0.8384
 3648SOL    HW222407   1.349   0.715  11.473  1.5568 -2.6182  0.2868
 3649SOL     OW22408   0.429   0.526   5.301 -0.3249 -0.3162 -0.0740
 3649SOL    HW122409   0.384   0.538   5.384  0.0128  1.5225 -0.1529
 3649SOL    HW222410   0.514   0.569   5.313 -0.6835 -0.5209  3.0180
 3650SOL     OW22411   1.696   2.642   6.703  0.3841  0.0739 -0.5633
 3650SOL    HW122412   1.679   2.728   6.666  1.2644  1.1269  1.4982
 3650SOL    HW222413   1.636   2.581   6.659  1.5043 -0.1708 -1.7414
 3651SOL     OW22414   4.342   3.683   2.214 -0.4401  0.5479 -0.1772
 3651SOL    HW122415   4.437   3.672   2.222 -0.1224  2.7915 -0.7223
 3651SOL    HW222416   4.310   3.597   2.242  1.2649 -0.1898 -0.5408
 3652SOL     OW22417   1.482   4.172   6.725  0.0907 -0.2586 -0.0054
 3652SOL    HW122418   1.422   4.226   6.776  1.2829  0.8565  0.2044
 3652SOL    HW222419   1.497   4.230   6.650  2.0796 -0.1636  0.4857
 3653SOL     OW22420   3.537   3.996   2.634  0.4910  0.1379  0.2846
 3653SOL    HW122421   3.574   4.009   2.547  0.7495  0.8488  0.5038
 3653SOL    HW222422   3.615   3.972   2.684  0.6647  3.4480  1.6008
 3654SOL     OW22423   0.839   4.313  17.009  0.2075  0.3718 -0.0437
 3654SOL    HW122424   0.814   4.224  17.036  0.2590 -0.0166 -1.3087
 3654SOL    HW222425   0.754   4.346  16.981 -0.1732 -1.5467 -1.0980
 3655SOL     OW22426   2.058   2.812   7.903 -0.6643  0.0090 -0.1544
 3655SOL    HW122427   2.131   2.768   7.946 -0.8052  1.3489  1.4691
 3655SOL    HW222428   2.010   2.740   7.861 -0.3346  0.1292 -0.7361
 3656SOL     OW22429   1.664   1.117  11.089  0.5021 -0.2240  0.0110
 3656SOL    HW122430   1.570   1.116  11.071  0.6882  1.1574 -1.0607
 3656SOL    HW222431   1.674   1.047  11.154  0.6810  1.7207  2.1155
 3657SOL     OW22432   3.822   2.838   2.249 -0.1575  0.2534 -0.3625
 3657SOL    HW122433   3.883   2.766   2.270 -1.6499 -1.6294 -2.4984
 3657SOL    HW222434   3.756   2.802   2.190 -0.0832  2.0269 -1.5196
 3658SOL     OW22435   3.403   0.307   5.228  0.4994  0.3601 -0.0945
 3658SOL    HW122436   3.499   0.309   5.235  0.4348  0.6771  0.6645
 3658SOL    HW222437   3.388   0.212   5.225  0.8998  0.3286 -1.1555
 3659SOL     OW22438   1.755   1.778  13.661 -0.2913  0.9478  0.0165
 3659SOL    HW122439   1.751   1.792  13.567 -0.5455 -2.0501 -0.3925
 3659SOL    HW222440   1.688   1.837  13.696  0.4127  0.5448  2.0338
 3660SOL     OW22441   1.893   2.287  12.030 -0.1930  0.0560 -0.5557
 3660SOL    HW122442   1.798   2.300  12.038 -0.0725  0.4397  0.3078
 3660SOL    HW222443   1.910   2.259  12.120  1.9161 -0.6463 -1.1843
 3661SOL     OW22444   3.053   3.712   6.362 -0.3251  0.0250 -0.5067
 3661SOL    HW122445   3.148   3.710   6.349 -0.5359 -2.0948 -1.6800
 3661SOL    HW222446   3.019   3.796   6.392  0.4288  0.5110 -1.0037
 3662SOL     OW22447   0.913   2.184   9.865 -0.0957 -0.2442  0.6718
 3662SOL    HW122448   0.887   2.126   9.793 -1.7603  2.0989 -0.5868
 3662SOL    HW222449   0.830   2.216   9.900  1.0625  0.7646  2.4814
 3663SOL     OW22450   4.605   2.858   1.972  0.4178 -0.3932  0.1103
 3663SOL    HW122451   4.521   2.863   2.018 -0.5971  0.5281 -1.8285
 3663SOL    HW222452   4.631   2.950   1.965  1.4378 -0.5573  1.6827
 3664SOL     OW22453   1.432   3.204   6.095 -0.1907 -0.4507  0.4046
 3664SOL    HW122454   1.510   3.203   6.150  0.4234  1.2082 -0.4672
 3664SOL    HW222455   1.403   3.294   6.110  2.6572  0.7358 -1.4603
 3665SOL     OW22456   2.022   2.943  10.057 -0.2517  0.2152  0.0001
 3665SOL    HW122457   1.951   3.001  10.085 -0.6230 -0.1639 -0.1727
 3665SOL    HW222458   2.042   2.883  10.129  1.4794  2.1053  1.0911
 3666SOL     OW22459   0.488   2.431  14.600 -0.0419 -0.3146  0.2428
 3666SOL    HW122460   0.544   2.491  14.551 -0.5299 -1.4937 -1.7684
 3666SOL    HW222461   0.548   2.410  14.671 -0.9009  0.1104  1.0948
 3667SOL     OW22462   4.540   3.453   2.023  0.7684 -0.1891  0.3983
 3667SOL    HW122463   4.536   3.419   1.933  1.9714  0.2189  0.1903
 3667SOL    HW222464   4.503   3.377   2.067 -0.3765  0.5030  0.6506
 3668SOL     OW22465   2.761   2.305   0.846  0.5819 -0.0703 -0.0059
 3668SOL    HW122466   2.767   2.296   0.941  1.1963  0.7103  0.0234
 3668SOL    HW222467   2.684   2.253   0.819 -0.4452  0.8348  1.1991
 3669SOL     OW22468   2.219   3.506  11.101  0.3952 -0.5287 -0.4211
 3669SOL    HW122469   2.266   3.433  11.060 -0.7791 -1.6887  0.2831
 3669SOL    HW222470   2.245   3.580  11.047  0.4766 -0.4130 -0.2219
 3670SOL     OW22471   3.885   2.219  17.467  0.7080  0.1533  0.2997
 3670SOL    HW122472   3.898   2.137  17.418  1.3252  0.1805  0.4203
 3670SOL    HW222473   3.813   2.189  17.523 -0.3288 -1.5728 -1.9517
 3671SOL     OW22474   3.699   1.619   6.081 -0.2328 -0.1295 -0.1907
 3671SOL    HW122475   3.635   1.574   6.137  0.1498  1.2341  1.3328
 3671SOL    HW222476   3.697   1.561   6.005  0.3700  0.3599 -0.5693
 3672SOL     OW22477   0.858   1.651   5.217  0.3036  0.0698 -0.2665
 3672SOL    HW122478   0.893   1.575   5.263  0.1036 -1.3852 -2.5427
 3672SOL    HW222479   0.910   1.648   5.137  1.2500  0.0705  0.3406
 3673SOL     OW22480   0.297   1.125  12.832  0.2932 -0.3495  0.6956
 3673SOL    HW122481   0.384   1.146  12.867  0.0569 -0.5309  1.3927
 3673SOL    HW222482   0.259   1.211  12.849  1.8073  0.4225  0.2251
 3674SOL     OW22483   2.040   3.692   5.872  0.3012  0.2527 -0.2534
 3674SOL    HW122484   2.083   3.607   5.875  0.0191  0.0922 -0.7018
 3674SOL    HW222485   2.116   3.746   5.848  0.3767 -0.3987 -1.5161
 3675SOL     OW22486   2.862   3.177  13.392  0.4649  0.2719 -0.7325
 3675SOL    HW122487   2.888   3.228  13.469 -1.0146 -0.5212  0.2810
 3675SOL    HW222488   2.770   3.163  13.412  0.4562 -1.9241 -2.2643
 3676SOL     OW22489   2.094   3.211   5.756 -0.1845 -0.1015  0.2702
 3676SOL    HW122490   2.094   3.179   5.665 -0.7897  0.0852  0.2096
 3676SOL    HW222491   2.127   3.131   5.799  1.5660 -0.6259 -2.0294
 3677SOL     OW22492   1.087   1.519  16.787  0.0307 -0.3197 -0.1064
 3677SOL    HW122493   1.001   1.503  16.747 -0.6732  0.5388  1.0801
 3677SOL    HW222494   1.087   1.451  16.854  1.4286  0.2554  0.4612
 3678SOL     OW22495   4.220   2.275  15.214 -0.3514 -0.2271 -0.3314
 3678SOL    HW122496   4.305   2.256  15.254  0.7177  1.4148 -1.8161
 3678SOL    HW222497   4.191   2.343  15.275 -2.1590  0.1370 -1.6034
 3679SOL     OW22498   0.921   1.639  10.238 -0.6095 -0.5715 -0.1476
 3679SOL    HW122499   0.954   1.727  10.222 -1.6867 -0.9360 -4.2818
 3679SOL    HW222500   0.848   1.644  10.176 -0.3904 -2.9452 -0.6166
 3680SOL     OW22501   0.488   0.115  15.537  0.4338 -0.1603 -0.8587
 3680SOL    HW122502   0.468   0.207  15.525  1.7611  0.1313 -0.8408
 3680SOL    HW222503   0.400   0.080  15.549  0.1640  0.3715 -1.2994
 3681SOL     OW22504   1.962   3.941  10.816 -0.1051  0.0454  0.3589
 3681SOL    HW122505   1.893   4.005  10.831 -0.5078  0.0277 -1.4376
 3681SOL    HW222506   2.025   3.988  10.761 -0.5872  0.3499  0.0732
 3682SOL     OW22507   3.972   2.084  16.138  0.5444 -0.6002 -0.6288
 3682SOL    HW122508   3.929   2.112  16.218 -1.1151 -2.1549 -0.9854
 3682SOL    HW222509   3.985   1.992  16.158  0.2036 -0.9691 -2.0755
 3683SOL     OW22510   3.932   2.261   3.205  0.4001 -0.6672 -0.2440
 3683SOL    HW122511   3.931   2.167   3.187  2.1590 -1.0225  1.5642
 3683SOL    HW222512   3.862   2.304   3.156 -1.0092 -2.6076  0.0255
 3684SOL     OW22513   2.516   1.594  13.973 -0.2896 -0.2375 -0.0793
 3684SOL    HW122514   2.518   1.581  13.878 -1.9275  1.4516 -0.3434
 3684SOL    HW222515   2.471   1.520  14.014 -3.3999  0.5844 -1.9564
 3685SOL     OW22516   2.988   3.788   2.594  0.5688  0.0936 -0.2668
 3685SOL    HW122517   3.078   3.801   2.567  0.2056 -0.1724 -1.5858
 3685SOL    HW222518   2.960   3.879   2.584  1.1426  0.2915 -0.0685
 3686SOL     OW22519   3.110   0.398   7.174 -0.2181  0.4706 -0.2715
 3686SOL    HW122520   3.162   0.473   7.205  0.7565 -0.3129 -0.0018
 3686SOL    HW222521   3.026   0.421   7.212  0.7339  0.0718  2.0939
 3687SOL     OW22522   3.905   4.601   2.947  0.0050 -0.3119 -0.4539
 3687SOL    HW122523   3.928   4.508   2.941 -0.4539 -0.3011 -2.2579
 3687SOL    HW222524   3.873   4.626   2.860 -0.7137  2.5704  0.6457
 3688SOL     OW22525   0.356   3.162   2.498 -0.1241 -0.1425  0.7392
 3688SOL    HW122526   0.319   3.215   2.568  0.8512  0.5034  0.7708
 3688SOL    HW222527   0.424   3.104   2.533 -1.0256 -1.3508  0.4668
 3689SOL     OW22528   0.893   0.241   2.616 -0.4205 -0.0572 -0.5755
 3689SOL    HW122529   0.866   0.310   2.556 -1.8117  0.3711  0.5404
 3689SOL    HW222530   0.936   0.291   2.685  0.9827 -1.7942 -0.1766
 3690SOL     OW22531   4.714   3.229   2.829 -0.2636 -0.0525  0.1067
 3690SOL    HW122532   0.017   3.160   2.890  0.0424 -2.3642 -2.6749
 3690SOL    HW222533   4.673   3.176   2.762 -0.5821 -0.2934  0.4931
 3691SOL     OW22534   4.105   1.272   7.688 -0.0928  0.1777  0.3013
 3691SOL    HW122535   4.043   1.345   7.679 -0.6334 -0.1525  1.3713
 3691SOL    HW222536   4.113   1.261   7.783  2.4993  0.1031  0.0633
 3692SOL     OW22537   4.412   0.927   6.643 -0.8572  0.3974  0.4438
 3692SOL    HW122538   4.321   0.927   6.673 -1.2602 -0.7518 -0.7556
 3692SOL    HW222539   4.403   0.944   6.549  1.6020  0.9242  0.3245
 3693SOL     OW22540   2.549   2.703   9.454 -0.0498  0.4435  0.3517
 3693SOL    HW122541   2.460   2.671   9.468 -0.5352  2.4928  1.9370
 3693SOL    HW222542   2.549   2.730   9.362 -0.1749  1.4641  0.6519
 3694SOL     OW22543   3.696   2.008  11.164  0.3558  0.6685 -0.6752
 3694SOL    HW122544   3.698   2.058  11.082  0.4577 -1.6615 -2.0991
 3694SOL    HW222545   3.623   1.947  11.154  1.7778 -1.2520  0.7575
 3695SOL     OW22546   1.596   2.252  12.578  0.5232 -0.2607 -0.5579
 3695SOL    HW122547   1.575   2.164  12.611  0.6921 -0.0883  0.0069
 3695SOL    HW222548   1.544   2.250  12.498 -2.1679 -1.1161  1.2272
 3696SOL     OW22549   3.977   2.724   5.503  0.6775 -0.5698  0.0755
 3696SOL    HW122550   4.040   2.684   5.444  0.4855 -1.5448  0.5320
 3696SOL    HW222551   3.981   2.657   5.571  1.9184 -1.4585 -0.8922
 3697SOL     OW22552   3.037   2.755  12.410  0.0070 -0.0703 -0.2099
 3697SOL    HW122553   3.062   2.697  12.339 -2.4035  0.0027 -1.1278
 3697SOL    HW222554   2.991   2.818  12.354 -1.0051 -1.4146 -0.8974
 3698SOL     OW22555   0.931   2.002   5.926 -0.3446  0.1474  0.0360
 3698SOL    HW122556   0.964   1.921   5.889 -0.6358 -0.4602  1.1161
 3698SOL    HW222557   0.923   1.980   6.019  2.1023 -1.9828 -0.2710
 3699SOL     OW22558   3.155   0.495   7.973 -0.7682 -0.6431 -0.6404
 3699SOL    HW122559   3.080   0.515   8.030  0.1027 -1.4095  0.7917
 3699SOL    HW222560   3.163   0.555   7.899 -1.5590  0.9174  0.5458
 3700SOL     OW22561   4.409   4.322   4.976  0.1307 -0.1638 -0.2686
 3700SOL    HW122562   4.457   4.351   4.899 -0.7211 -0.7938 -1.0394
 3700SOL    HW222563   4.389   4.234   4.944  1.5538  0.9705 -4.2339
 3701SOL     OW22564   1.874   1.368  12.433  0.2114  0.1150  0.2378
 3701SOL    HW122565   1.939   1.435  12.409  0.4108  0.6444  2.2321
 3701SOL    HW222566   1.814   1.434  12.468  0.8547  0.5116  0.6039
 3702SOL     OW22567   0.644   3.517   8.937  0.0480 -0.7114  0.6112
 3702SOL    HW122568   0.628   3.423   8.943  1.3000 -0.9680 -0.2396
 3702SOL    HW222569   0.707   3.524   8.865 -3.2748  0.1394 -2.2330
 3703SOL     OW22570   3.220   2.902   8.094  0.4155 -0.1607 -0.0791
 3703SOL    HW122571   3.136   2.862   8.116  0.9166 -1.8572 -1.2155
 3703SOL    HW222572   3.257   2.899   8.182 -2.0079  0.3511  0.9318
 3704SOL     OW22573   3.082   0.612   3.943 -0.6523  0.8269 -0.6692
 3704SOL    HW122574   3.152   0.573   3.995 -2.3774 -1.5514 -0.1638
 3704SOL    HW222575   3.007   0.555   3.963  1.5515 -1.6888  0.3808
 3705SOL     OW22576   3.188   2.598   5.530 -0.0776  0.7088 -1.2018
 3705SOL    HW122577   3.250   2.638   5.591 -0.4027 -0.9992  0.2576
 3705SOL    HW222578   3.225   2.510   5.520  1.6159  1.3159 -0.1536
 3706SOL     OW22579   4.121   1.433   3.814 -0.1921  0.6695 -0.3510
 3706SOL    HW122580   4.158   1.442   3.902 -1.7648 -0.5667  0.4309
 3706SOL    HW222581   4.081   1.347   3.824 -0.9063  1.2257  1.5350
 3707SOL     OW22582   3.682   0.207   5.519  0.4593  0.2210 -0.5639
 3707SOL    HW122583   3.754   0.151   5.549 -0.5128 -1.1142 -0.7157
 3707SOL    HW222584   3.698   0.291   5.560  1.3134  0.4235 -1.3126
 3708SOL     OW22585   3.387   0.990   5.815 -0.3044  0.0950  0.2887
 3708SOL    HW122586   3.358   0.991   5.724  3.4521  0.7231 -0.9052
 3708SOL    HW222587   3.322   0.924   5.841 -0.9907  0.8593  0.5241
 3709SOL     OW22588   3.071   3.592   5.876 -0.3541  0.0485 -0.1117
 3709SOL    HW122589   2.983   3.589   5.916 -0.7650 -0.4065 -1.0440
 3709SOL    HW222590   3.060   3.591   5.781  0.5342 -2.1833 -0.2030
 3710SOL     OW22591   1.969   4.049   3.788 -0.4612  0.2231 -0.1580
 3710SOL    HW122592   2.029   3.981   3.757 -1.7340 -0.4075 -1.2732
 3710SOL    HW222593   1.908   4.056   3.714 -1.3145  0.0504  0.5295
 3711SOL     OW22594   3.066   3.454   6.410 -0.5445 -0.2643 -0.1134
 3711SOL    HW122595   3.030   3.541   6.399 -2.5550 -1.0255  0.5417
 3711SOL    HW222596   2.993   3.401   6.378  0.5225  0.5113 -3.8610
 3712SOL     OW22597   2.514   3.441   2.384  0.2173 -0.5459  0.3527
 3712SOL    HW122598   2.443   3.384   2.413 -0.4626  0.7139  1.1736
 3712SOL    HW222599   2.571   3.381   2.336  1.5131  1.5815 -0.7921
 3713SOL     OW22600   1.694   1.273  13.305  0.2309  0.2080 -0.8304
 3713SOL    HW122601   1.738   1.210  13.362  0.3157 -0.1088 -1.2475
 3713SOL    HW222602   1.655   1.331  13.370  0.3455  0.2327 -0.7847
 3714SOL     OW22603   0.172   2.665  10.465 -0.5498 -0.0570 -0.1196
 3714SOL    HW122604   0.139   2.737  10.411  0.5947  1.3822  1.1205
 3714SOL    HW222605   0.114   2.666  10.541 -0.7271 -1.6183 -0.2316
 3715SOL     OW22606   4.205   3.781   3.390 -0.4983 -0.3739 -0.1990
 3715SOL    HW122607   4.210   3.866   3.434 -2.9675 -0.7108  0.7228
 3715SOL    HW222608   4.290   3.779   3.345 -0.9357 -1.6510 -0.9583
 3716SOL     OW22609   1.553   3.465   2.389 -0.3675 -0.2143 -0.4864
 3716SOL    HW122610   1.499   3.396   2.350 -0.1265 -1.6199  1.6988
 3716SOL    HW222611   1.641   3.435   2.366  0.1544  0.2792  0.8652
 3717SOL     OW22612   0.556   0.270  10.252  0.1452  0.4100 -0.3399
 3717SOL    HW122613   0.567   0.181  10.286  0.7667  0.5817 -0.1011
 3717SOL    HW222614   0.546   0.318  10.334  0.8167  0.9807 -0.5861
 3718SOL     OW22615   3.411   2.579   6.030  0.4611  0.8077 -0.3832
 3718SOL    HW122616   3.322   2.550   6.008  0.9480 -1.0742  0.1390
 3718SOL    HW222617   3.419   2.551   6.121  0.1117  0.6933 -0.3877
 3719SOL     OW22618   2.044   2.431   4.836 -0.3305 -0.1473 -0.4864
 3719SOL    HW122619   2.076   2.486   4.908 -0.6680  1.6691 -1.7131
 3719SOL    HW222620   1.976   2.383   4.881 -0.0671  0.1146  0.1944
 3720SOL     OW22621   2.894   4.450  10.868 -0.4073  0.4197 -0.7258
 3720SOL    HW122622   2.947   4.379  10.830  1.5384  0.7855  1.3570
 3720SOL    HW222623   2.943   4.485  10.942 -0.4498  0.6213 -0.7931
 3721SOL     OW22624   2.477   3.175   2.145  0.2899  0.0086  0.4263
 3721SOL    HW122625   2.534   3.242   2.109  0.2614 -0.5403 -0.6298
 3721SOL    HW222626   2.504   3.168   2.237  0.9165  0.2305  0.2581
 3722SOL     OW22627   2.738   1.662   2.078  0.3145 -0.3963  0.1521
 3722SOL    HW122628   2.715   1.733   2.017 -2.1495 -2.4575 -1.3209
 3722SOL    HW222629   2.830   1.652   2.053  0.3070  0.3999 -0.1939
 3723SOL     OW22630   3.337   3.785   6.350  0.7046  0.2263 -0.1228
 3723SOL    HW122631   3.415   3.768   6.403 -0.3838  0.4369  1.5506
 3723SOL    HW222632   3.364   3.856   6.291  0.0595  1.0101  0.5320
 3724SOL     OW22633   1.808   0.907   1.770  0.9235  0.5275 -0.5612
 3724SOL    HW122634   1.835   0.844   1.836 -0.5975  1.0053  0.5256
 3724SOL    HW222635   1.890   0.953   1.751  1.1686 -0.9447 -3.0783
 3725SOL     OW22636   1.029   0.716   3.261  0.0390 -0.0831 -0.0535
 3725SOL    HW122637   1.088   0.658   3.214  0.8664  1.4824 -0.9733
 3725SOL    HW222638   1.062   0.718   3.351 -2.0121 -0.5525  0.6947
 3726SOL     OW22639   3.056   2.359  13.380 -0.3137  0.3900  0.4627
 3726SOL    HW122640   3.021   2.324  13.298  2.8799  1.4432 -1.3391
 3726SOL    HW222641   3.036   2.283  13.434 -0.1260 -0.5351 -0.7758
 3727SOL     OW22642   4.226   3.379   5.545  0.0206 -0.2797 -0.0917
 3727SOL    HW122643   4.204   3.329   5.466 -1.2140 -0.3727  0.3101
 3727SOL    HW222644   4.150   3.357   5.599 -0.1467 -0.0844 -0.2485
 3728SOL     OW22645   0.463   0.870  14.369  0.0581 -0.4278  0.3218
 3728SOL    HW122646   0.441   0.819  14.291 -0.9235  0.1461  0.2186
 3728SOL    HW222647   0.545   0.911  14.342 -0.6740  0.5963 -0.3416
 3729SOL     OW22648   3.402   0.242   3.869 -0.0651 -0.6528  0.0245
 3729SOL    HW122649   3.391   0.150   3.895 -1.1174 -0.8131 -0.9913
 3729SOL    HW222650   3.471   0.225   3.805 -0.7078  2.1654 -1.4062
 3730SOL     OW22651   2.145   4.285  15.739 -0.6231  0.1870  0.1519
 3730SOL    HW122652   2.082   4.222  15.705  0.4124 -2.0177  2.2992
 3730SOL    HW222653   2.208   4.284  15.666 -0.2168 -1.0539  0.5277
 3731SOL     OW22654   4.277   1.149  10.004 -0.1263  0.5329 -0.1397
 3731SOL    HW122655   4.277   1.053  10.004 -1.2013  0.5373  0.2832
 3731SOL    HW222656   4.183   1.150   9.986  0.4563  1.1471 -3.2659
 3732SOL     OW22657   2.034   2.547   4.183  0.1641 -0.1402 -0.3843
 3732SOL    HW122658   1.978   2.625   4.187 -0.7442 -0.9199  1.9619
 3732SOL    HW222659   2.016   2.518   4.094 -0.5771  1.3732 -0.7216
 3733SOL     OW22660   2.034   0.435  15.348 -0.0266  0.5071 -0.1934
 3733SOL    HW122661   2.034   0.435  15.252 -0.8981 -0.2488 -0.1978
 3733SOL    HW222662   1.968   0.499  15.373 -2.5967 -1.9112 -0.7644
 3734SOL     OW22663   3.264   2.232   3.158 -0.6887  0.1963  0.4343
 3734SOL    HW122664   3.208   2.214   3.083  0.2599  1.4538 -0.5913
 3734SOL    HW222665   3.212   2.291   3.212 -0.7502 -1.3085  2.0383
 3735SOL     OW22666   4.290   3.460   2.527  0.5080  0.0938  0.1461
 3735SOL    HW122667   4.359   3.459   2.593 -0.3053 -1.5370  0.9852
 3735SOL    HW222668   4.208   3.462   2.576 -0.2437  0.5501 -1.1325
 3736SOL     OW22669   2.835   1.391   5.492 -0.0452  0.5946 -0.4318
 3736SOL    HW122670   2.921   1.428   5.471  0.8796 -0.2855  1.8875
 3736SOL    HW222671   2.869   1.323   5.549 -0.1296  0.5959 -0.3790
 3737SOL     OW22672   2.962   3.467   6.819 -0.5620  0.0005 -0.4340
 3737SOL    HW122673   3.022   3.477   6.745 -2.0466  1.1306 -1.5020
 3737SOL    HW222674   3.009   3.401   6.868 -0.6314  1.3685  1.4769
 3738SOL     OW22675   0.995   3.994   4.758 -0.3441 -0.4113  0.5148
 3738SOL    HW122676   0.990   3.903   4.784  1.2247 -0.6469 -0.0143
 3738SOL    HW222677   1.032   3.980   4.671  0.6333  1.4150  0.6345
 3739SOL     OW22678   0.890   4.567   2.467  0.1805 -0.4025  0.5495
 3739SOL    HW122679   0.862   4.610   2.386 -0.7564 -0.9970  0.5543
 3739SOL    HW222680   0.816   4.583   2.527 -1.8201 -1.6949 -1.5836
 3740SOL     OW22681   3.631   0.190  13.965  0.0274 -0.0192  0.3400
 3740SOL    HW122682   3.645   0.170  13.872  0.0724 -1.2786  0.6243
 3740SOL    HW222683   3.720   0.201  13.996  0.4862  0.3050 -1.0783
 3741SOL     OW22684   1.390   0.704   2.295 -0.3363 -0.0896  0.1853
 3741SOL    HW122685   1.403   0.678   2.386  2.4303  3.7067  0.8955
 3741SOL    HW222686   1.402   0.624   2.245  2.4684  1.1644 -1.1671
 3742SOL     OW22687   1.918   3.527  15.544  0.1959 -0.0988 -0.3429
 3742SOL    HW122688   1.873   3.493  15.467  0.7669  0.3794 -0.8950
 3742SOL    HW222689   1.969   3.607  15.527  0.0817  0.3161  1.2965
 3743SOL     OW22690   2.586   2.144   1.649  0.3217 -0.1669  0.0034
 3743SOL    HW122691   2.648   2.126   1.719 -0.5105  2.4124  1.3801
 3743SOL    HW222692   2.504   2.164   1.692 -1.4511  1.3397 -4.0393
 3744SOL     OW22693   0.820   3.685   3.496  0.0967 -0.3565 -0.1371
 3744SOL    HW122694   0.742   3.702   3.443 -0.7463  1.3140  1.5988
 3744SOL    HW222695   0.782   3.700   3.583 -1.6826 -1.0539 -0.7999
 3745SOL     OW22696   2.483   2.200   8.937  0.5412 -0.9660 -0.2325
 3745SOL    HW122697   2.450   2.110   8.939  0.7979 -1.0327  1.5000
 3745SOL    HW222698   2.519   2.211   8.849  1.7268 -0.2332  0.3264
 3746SOL     OW22699   1.897   3.363   3.329  0.4162 -0.6541 -0.0332
 3746SOL    HW122700   1.887   3.352   3.424  0.8484 -1.0344 -0.0291
 3746SOL    HW222701   1.991   3.350   3.318  0.8680 -0.1725  3.1354
 3747SOL     OW22702   1.073   0.502   8.814 -0.0866 -0.3106 -0.4461
 3747SOL    HW122703   0.991   0.456   8.794 -0.3413  0.1937 -0.5813
 3747SOL    HW222704   1.077   0.467   8.903  3.2175  1.8201  0.2230
 3748SOL     OW22705   4.491   1.652   8.261 -0.5542 -0.0121  0.2326
 3748SOL    HW122706   4.538   1.709   8.321  1.9592 -0.0989 -1.6318
 3748SOL    HW222707   4.534   1.566   8.270 -1.4449 -0.6697 -1.7087
 3749SOL     OW22708   2.967   4.390   5.019 -0.0368  0.7035 -0.5217
 3749SOL    HW122709   2.972   4.302   4.982 -0.8380  0.0997  0.8317
 3749SOL    HW222710   3.026   4.434   4.958 -1.1394 -0.2675 -2.2849
 3750SOL     OW22711   3.723   3.722   7.069  0.7877 -0.2072 -0.3278
 3750SOL    HW122712   3.741   3.644   7.016  2.1608 -0.2943  0.2741
 3750SOL    HW222713   3.727   3.791   7.003  0.4705  1.0255  0.9294
 3751SOL     OW22714   0.605   0.270   1.863  0.3672 -0.4271 -0.0759
 3751SOL    HW122715   0.608   0.272   1.958 -2.1148  1.5111 -0.0363
 3751SOL    HW222716   0.517   0.305   1.848  0.2278 -1.7608 -2.4391
 3752SOL     OW22717   3.572   4.612  15.467  0.5395 -0.1087 -0.3586
 3752SOL    HW122718   3.524   4.555  15.406  0.5903  1.1696 -1.5955
 3752SOL    HW222719   3.537   4.578  15.550 -0.3587 -0.5545 -0.9204
 3753SOL     OW22720   1.371   3.421   7.816 -0.0293 -0.5859 -0.1298
 3753SOL    HW122721   1.287   3.383   7.793 -0.2679 -0.0325 -0.1886
 3753SOL    HW222722   1.346   3.452   7.904  3.6077 -0.9561  1.0351
 3754SOL     OW22723   3.057   0.674   6.133 -0.4372  0.3028  0.5325
 3754SOL    HW122724   3.119   0.676   6.207  0.5600 -0.3506 -0.2740
 3754SOL    HW222725   3.024   0.585   6.145  0.4109  0.0030  0.6498
 3755SOL     OW22726   4.371   2.702   1.622  0.1359  0.3618 -0.3255
 3755SOL    HW122727   4.447   2.661   1.582  0.0623  0.7320 -0.8439
 3755SOL    HW222728   4.376   2.795   1.601 -1.8316 -0.2664 -3.4492
 3756SOL     OW22729   2.231   2.372   6.904  0.1710 -0.1022  0.5646
 3756SOL    HW122730   2.304   2.381   6.965  1.9458 -0.8446 -1.4332
 3756SOL    HW222731   2.255   2.439   6.840 -0.3324  0.4065  0.9019
 3757SOL     OW22732   3.650   0.897   2.724  0.9759  0.1151  0.1205
 3757SOL    HW122733   3.704   0.850   2.788 -0.8345 -1.1217  0.7574
 3757SOL    HW222734   3.680   0.842   2.652  0.0319  0.1165 -0.2708
 3758SOL     OW22735   3.312   0.254   9.376 -0.7722  0.3482  0.5295
 3758SOL    HW122736   3.371   0.199   9.427  1.5844  1.0087 -1.4309
 3758SOL    HW222737   3.244   0.286   9.434 -0.8257  0.0491  0.6302
 3759SOL     OW22738   3.492   4.246   3.183 -0.1093 -0.0306 -0.3026
 3759SOL    HW122739   3.397   4.261   3.190  0.4659  3.4036  0.4526
 3759SOL    HW222740   3.500   4.199   3.266 -1.0479 -1.3232 -0.9399
 3760SOL     OW22741   2.076   4.137   1.482  0.0482 -0.2329  0.4427
 3760SOL    HW122742   2.092   4.228   1.457 -2.7973 -0.5777 -2.5296
 3760SOL    HW222743   2.089   4.136   1.577 -0.9791  1.4899  0.6084
 3761SOL     OW22744   1.867   0.032   4.769 -0.1628  0.2319  0.3326
 3761SOL    HW122745   1.844   4.721   4.683  1.2744 -0.7028  0.3410
 3761SOL    HW222746   1.812   4.697   4.820 -1.3841  1.6117  0.6039
 3762SOL     OW22747   0.476   4.318   5.962 -0.4919  0.3737  0.5213
 3762SOL    HW122748   0.382   4.334   5.967 -0.2205  1.0670  3.6493
 3762SOL    HW222749   0.478   4.260   6.038 -2.3039 -0.5702 -0.1465
 3763SOL     OW22750   0.532   2.132   9.361 -0.2615  0.0400  0.7516
 3763SOL    HW122751   0.600   2.197   9.377  1.1337 -1.2615  0.2013
 3763SOL    HW222752   0.581   2.051   9.377 -0.3593 -0.1614  0.0498
 3764SOL     OW22753   0.067   4.232   8.558 -0.0178  1.1273 -0.3807
 3764SOL    HW122754   0.086   4.147   8.516  0.0479  2.1514 -2.4570
 3764SOL    HW222755   4.698   4.235   8.577  0.2276  1.2054  0.7803
 3765SOL     OW22756   1.946   1.525   6.785 -0.1472 -0.0582  0.0669
 3765SOL    HW122757   1.859   1.527   6.824  0.0958 -3.5977  0.8120
 3765SOL    HW222758   1.955   1.611   6.744  1.5451  0.6920  2.0021
 3766SOL     OW22759   3.420   2.519   1.574 -0.3550  0.3020  0.2822
 3766SOL    HW122760   3.452   2.593   1.625 -0.8988  1.4781 -1.1117
 3766SOL    HW222761   3.447   2.544   1.486  0.2641  0.2349  0.4572
 3767SOL     OW22762   0.517   0.130  13.067 -0.8014  0.0362  0.4854
 3767SOL    HW122763   0.563   0.201  13.022  1.9963 -2.4398 -0.5671
 3767SOL    HW222764   0.477   0.071  13.003  0.5249 -0.5302  0.1730
 3768SOL     OW22765   3.158   4.608   8.502  0.6016 -0.1979 -0.5873
 3768SOL    HW122766   3.217   4.655   8.443 -0.1772 -1.2693 -2.2331
 3768SOL    HW222767   3.133   4.541   8.438 -1.2836 -1.4381  1.4326
 3769SOL     OW22768   0.313   0.004   6.416  0.4549 -0.1596  0.1272
 3769SOL    HW122769   0.274   0.090   6.431  0.8151  0.5382 -3.1344
 3769SOL    HW222770   0.385   0.010   6.479 -0.3056 -1.2470  1.1044
 3770SOL     OW22771   0.802   0.065   6.788  0.4142 -0.1018  0.0810
 3770SOL    HW122772   0.753   0.017   6.854 -0.0192  3.3000  2.2263
 3770SOL    HW222773   0.879   0.090   6.839  1.2841 -0.2358 -1.1539
 3771SOL     OW22774   1.961   3.535   3.956  0.7905 -0.1164  0.4212
 3771SOL    HW122775   1.950   3.630   3.951 -0.2155 -0.3453 -1.8950
 3771SOL    HW222776   1.988   3.532   4.048 -0.8668  1.6062  0.9736
 3772SOL     OW22777   3.471   3.381  10.149  0.5595 -0.4902  1.0763
 3772SOL    HW122778   3.544   3.380  10.211  1.1641  1.1569  0.4025
 3772SOL    HW222779   3.417   3.304  10.163  1.3812 -1.0827  0.9490
 3773SOL     OW22780   4.633   2.571  15.451  0.0874  0.6624  0.6253
 3773SOL    HW122781   4.641   2.616  15.534 -1.8828  1.5404  0.3403
 3773SOL    HW222782   4.677   2.488  15.471 -0.3504  0.2150 -0.2215
 3774SOL     OW22783   0.082   0.397  14.240  0.6732 -0.1093  0.0665
 3774SOL    HW122784   0.159   0.451  14.222  1.9405 -1.8602  0.1679
 3774SOL    HW222785   0.016   0.463  14.259  0.4461  0.3039 -2.2115
 3775SOL     OW22786   1.486   2.042   8.862 -0.3555 -1.0663  0.3532
 3775SOL    HW122787   1.451   2.119   8.816 -1.3672 -2.1007 -0.6221
 3775SOL    HW222788   1.564   2.017   8.813 -0.1392 -1.8175  1.0897
 3776SOL     OW22789   3.585   1.254  14.880  0.5327  0.2407  0.6273
 3776SOL    HW122790   3.629   1.301  14.951  1.6181 -1.9240  1.3820
 3776SOL    HW222791   3.600   1.302  14.798 -0.5938 -0.0131  0.2798
 3777SOL     OW22792   0.535   3.122   0.819  0.2284 -0.2161  0.3392
 3777SOL    HW122793   0.607   3.087   0.871  0.2631 -0.3073  0.2293
 3777SOL    HW222794   0.528   3.211   0.854  0.5329 -0.4841  1.0906
 3778SOL     OW22795   2.237   3.027   7.975 -0.4438  0.8588  0.1050
 3778SOL    HW122796   2.187   2.948   7.956  0.4016  0.1478  0.7677
 3778SOL    HW222797   2.304   3.005   8.040 -0.3072  0.2760 -0.2362
 3779SOL     OW22798   1.114   1.708   3.181 -0.0707  0.0965 -0.4585
 3779SOL    HW122799   1.077   1.663   3.257  0.2715  3.1623  1.5409
 3779SOL    HW222800   1.196   1.737   3.222  0.4971  1.0584 -2.2832
 3780SOL     OW22801   2.607   1.222  12.187  0.5847 -0.5256  0.2565
 3780SOL    HW122802   2.689   1.175  12.199  0.2799 -0.6886  1.7187
 3780SOL    HW222803   2.564   1.203  12.270 -1.3374  0.6103 -0.4796
 3781SOL     OW22804   2.910   3.272   3.412  0.0789  0.1902 -0.3296
 3781SOL    HW122805   2.914   3.310   3.500  0.5170 -2.3415  0.7481
 3781SOL    HW222806   2.826   3.307   3.383 -0.3030 -0.7902 -0.4171
 3782SOL     OW22807   3.719   4.549   7.700 -0.8241  0.2241  0.6713
 3782SOL    HW122808   3.698   4.639   7.726  1.1339  0.8162  0.1409
 3782SOL    HW222809   3.813   4.554   7.685 -0.9142  0.7849  0.3067
 3783SOL     OW22810   1.998   3.143  15.767  0.4328 -0.2722 -0.1664
 3783SOL    HW122811   2.031   3.150  15.677  1.6135  3.9843  0.6259
 3783SOL    HW222812   2.002   3.234  15.793  1.1977  0.0089 -1.2308
 3784SOL     OW22813   2.823   4.048   4.046  0.0130  0.4446 -0.3571
 3784SOL    HW122814   2.873   3.996   4.109  0.4939 -2.1984 -2.9394
 3784SOL    HW222815   2.849   4.137   4.071  0.0835  0.1761  0.5261
 3785SOL     OW22816   2.015   2.274   1.119  0.7046  0.0162 -0.5006
 3785SOL    HW122817   1.922   2.273   1.096  0.4949  1.5365  0.2320
 3785SOL    HW222818   2.044   2.351   1.069 -0.0441 -0.0779 -1.0802
 3786SOL     OW22819   0.373   0.245   6.744  0.2740  0.3133 -0.6310
 3786SOL    HW122820   0.303   0.228   6.807 -0.8625 -1.5779 -2.3944
 3786SOL    HW222821   0.316   0.267   6.670  1.5413  2.4940 -0.9398
 3787SOL     OW22822   2.778   1.225   6.746  0.1041  0.1491  0.3051
 3787SOL    HW122823   2.708   1.171   6.709  0.7444 -0.8459  0.5549
 3787SOL    HW222824   2.778   1.217   6.841  0.4224  0.3840  0.3263
 3788SOL     OW22825   0.315   1.977   9.705  0.3192 -0.0249  0.0475
 3788SOL    HW122826   0.225   1.946   9.701  0.2599  0.4467 -2.1094
 3788SOL    HW222827   0.303   2.062   9.748 -1.2302 -1.3417  2.2356
 3789SOL     OW22828   4.286   1.595   4.048  0.6153 -0.2164  0.6130
 3789SOL    HW122829   4.308   1.514   4.094 -0.1748 -0.7626  0.0256
 3789SOL    HW222830   4.368   1.605   4.000  0.8368 -0.2467  0.9818
 3790SOL     OW22831   0.296   3.057   3.771 -0.1292 -0.1497 -0.2635
 3790SOL    HW122832   0.334   3.037   3.856 -0.4455 -1.6421 -0.4830
 3790SOL    HW222833   0.289   2.970   3.733  0.6553 -0.2727 -0.1157
 3791SOL     OW22834   0.395   2.441  10.935  0.2162  0.7562  0.1395
 3791SOL    HW122835   0.355   2.507  10.878 -0.5997 -0.0040 -0.1753
 3791SOL    HW222836   0.411   2.373  10.870  0.0176  2.2171 -1.4564
 3792SOL     OW22837   3.831   2.951   6.471  0.0812  0.3096  0.0376
 3792SOL    HW122838   3.885   2.883   6.511 -0.5032 -0.3926 -0.3674
 3792SOL    HW222839   3.805   2.900   6.395  1.5778  1.8095 -1.4733
 3793SOL     OW22840   0.646   1.434   2.695  0.7819  0.3296  0.1820
 3793SOL    HW122841   0.625   1.345   2.666 -1.4902  0.3802  1.6881
 3793SOL    HW222842   0.710   1.459   2.628  0.3850 -0.5808 -0.5352
 3794SOL     OW22843   1.127   2.268   3.918  0.4992  0.1772  0.4245
 3794SOL    HW122844   1.101   2.274   4.010 -1.2883 -0.4411 -0.0593
 3794SOL    HW222845   1.038   2.264   3.883 -0.1705 -1.4370  2.3297
 3795SOL     OW22846   0.430   4.534  12.669  0.0284  0.3113 -0.3731
 3795SOL    HW122847   0.352   4.527  12.614 -0.4114 -1.3042  0.4651
 3795SOL    HW222848   0.475   4.450  12.668 -2.3839 -0.9591 -0.9005
 3796SOL     OW22849   2.510   3.678   3.652 -0.1985  0.6267  0.2611
 3796SOL    HW122850   2.524   3.773   3.660 -0.0434  0.8818 -2.9150
 3796SOL    HW222851   2.415   3.672   3.644 -0.2217 -0.1765  1.1291
 3797SOL     OW22852   1.975   1.164   6.912  0.2470 -0.0004  0.3776
 3797SOL    HW122853   1.889   1.201   6.892  0.2808  0.0953  0.4115
 3797SOL    HW222854   1.976   1.086   6.857  1.8790  0.6564 -0.5186
 3798SOL     OW22855   4.104   0.881   2.854 -0.5480  0.1573  0.1545
 3798SOL    HW122856   4.060   0.835   2.783 -2.4471  0.6881  0.9725
 3798SOL    HW222857   4.037   0.887   2.923  0.3142 -0.1452  1.0259
 3799SOL     OW22858   0.158   1.279  16.765 -0.0297  0.4897  0.1811
 3799SOL    HW122859   0.236   1.255  16.715  0.4018  1.9321  0.1735
 3799SOL    HW222860   0.089   1.257  16.702  0.7818  0.4187 -0.6887
 3800SOL     OW22861   4.048   0.054  10.038 -0.1090 -0.1172  0.0698
 3800SOL    HW122862   4.086   0.041  10.125 -0.9037 -0.4345  0.3666
 3800SOL    HW222863   3.957   0.073  10.061 -0.5705  0.7129 -2.3849
 3801SOL     OW22864   2.008   1.472   5.366 -0.0795  0.3186  0.0644
 3801SOL    HW122865   1.984   1.504   5.453 -0.4527 -0.0153  0.0878
 3801SOL    HW222866   1.919   1.457   5.333  0.2217 -0.1113 -0.5516
 3802SOL     OW22867   4.450   1.142   4.811 -0.1643 -0.6758 -0.2016
 3802SOL    HW122868   4.504   1.078   4.859 -0.0750  0.6144  1.4173
 3802SOL    HW222869   4.372   1.091   4.788 -0.3657 -0.8657  0.8692
 3803SOL     OW22870   1.230   3.749  15.854 -0.3781 -0.2483 -0.2292
 3803SOL    HW122871   1.175   3.715  15.924  1.3334  0.9832  1.7125
 3803SOL    HW222872   1.163   3.729  15.789 -0.8165  0.4145  0.0221
 3804SOL     OW22873   2.893   1.871  10.815  0.5094 -0.2540  0.2688
 3804SOL    HW122874   2.967   1.858  10.875  0.8732 -1.4473 -0.4349
 3804SOL    HW222875   2.942   1.921  10.749  0.9476  0.6350  1.2673
 3805SOL     OW22876   3.051   1.934  14.525 -0.1458  0.1729  0.2698
 3805SOL    HW122877   3.080   1.866  14.586 -1.2256 -0.6260 -0.1040
 3805SOL    HW222878   2.979   1.972  14.575 -1.4188 -0.9117 -0.7558
 3806SOL     OW22879   1.560   3.409  16.065 -0.8169  0.3158 -0.0455
 3806SOL    HW122880   1.501   3.337  16.085 -4.4009  3.7494  1.8904
 3806SOL    HW222881   1.569   3.421  15.970 -0.6848  2.0109  0.1698
 3807SOL     OW22882   0.412   4.344   3.969 -0.4697 -0.4807  0.5599
 3807SOL    HW122883   0.364   4.267   3.939  0.1169  0.6076 -3.1807
 3807SOL    HW222884   0.352   4.383   4.033  1.1660  2.3920  0.3664
 3808SOL     OW22885   0.980   2.467   5.543  0.0955 -0.3334  0.3534
 3808SOL    HW122886   0.968   2.378   5.509 -0.5872  0.0671 -0.4453
 3808SOL    HW222887   1.038   2.513   5.483 -2.9923  3.3045  0.1722
 3809SOL     OW22888   2.672   3.210  16.350 -0.0896 -0.3992 -0.0613
 3809SOL    HW122889   2.754   3.161  16.344 -0.6894 -1.4050  0.1214
 3809SOL    HW222890   2.709   3.297  16.365  2.1882 -1.0614 -1.8353
 3810SOL     OW22891   3.680   2.583   7.789  0.0383 -0.3342  0.0778
 3810SOL    HW122892   3.708   2.553   7.875  0.0354  0.9832  0.5390
 3810SOL    HW222893   3.631   2.658   7.821  1.1537 -0.2449  1.5918
 3811SOL     OW22894   4.563   4.658   7.367 -0.2318  0.9603  0.2195
 3811SOL    HW122895   4.570   0.016   7.320  0.2448 -0.0859 -1.5297
 3811SOL    HW222896   4.644   4.613   7.345 -0.7456  1.2893 -2.3806
 3812SOL     OW22897   0.350   1.979  10.725  0.2454  0.5162 -0.1146
 3812SOL    HW122898   0.430   2.004  10.772  0.4690 -0.5616  0.0575
 3812SOL    HW222899   0.319   2.067  10.703  0.3098  0.0662 -2.0157
 3813SOL     OW22900   4.003   0.478   8.737  0.1498 -0.1651  0.5009
 3813SOL    HW122901   4.052   0.444   8.813  1.3020 -0.1188 -0.2142
 3813SOL    HW222902   3.956   0.556   8.764  0.6679 -0.1397  1.3411
 3814SOL     OW22903   2.306   4.022   0.066 -0.0291  0.2473  0.0368
 3814SOL    HW122904   2.242   4.002   0.135  0.9323 -0.1334  0.8177
 3814SOL    HW222905   2.243   4.013  17.692  2.0592 -0.1295 -1.7486
 3815SOL     OW22906   3.338   1.645   2.685 -0.6131  0.3750 -0.5472
 3815SOL    HW122907   3.306   1.567   2.641  0.7561 -1.6714  2.0808
 3815SOL    HW222908   3.275   1.665   2.755 -1.3404 -0.8931 -0.8471
 3816SOL     OW22909   1.656   1.063   4.162  0.2745 -0.1513  0.1032
 3816SOL    HW122910   1.665   0.979   4.208 -1.6154 -0.9111 -0.9076
 3816SOL    HW222911   1.746   1.090   4.176  0.7398 -1.0649 -1.2027
 3817SOL     OW22912   1.742   0.688   2.408  0.0483 -0.0842 -0.7064
 3817SOL    HW122913   1.731   0.717   2.317  0.8500  0.0511 -0.7542
 3817SOL    HW222914   1.798   0.757   2.443  0.9714 -0.9485 -0.4667
 3818SOL     OW22915   2.547   2.378   3.780  0.5514 -0.0234  0.0842
 3818SOL    HW122916   2.575   2.328   3.857  0.1358  1.3243  1.1021
 3818SOL    HW222917   2.558   2.464   3.820  1.7775 -0.4428  0.6448
 3819SOL     OW22918   2.627   1.923   0.306 -0.2374 -0.1278  0.2295
 3819SOL    HW122919   2.714   1.925   0.266  0.0094  0.3441  0.7806
 3819SOL    HW222920   2.589   1.916   0.219  0.7260 -0.0669 -0.2012
 3820SOL     OW22921   3.257   0.801   5.145 -0.6574 -0.3440 -0.0792
 3820SOL    HW122922   3.260   0.713   5.182 -0.2524 -0.2373  0.1447
 3820SOL    HW222923   3.194   0.849   5.199 -1.4198 -2.4952  0.9547
 3821SOL     OW22924   3.835   4.666  15.564  0.8086  0.2538  0.1025
 3821SOL    HW122925   3.749   4.651  15.525  0.1311  0.9338  1.3246
 3821SOL    HW222926   3.885   4.717  15.500 -0.4140  0.1648 -0.9194
 3822SOL     OW22927   3.726   0.351   5.756  0.0497 -0.0491 -0.0463
 3822SOL    HW122928   3.697   0.265   5.787  0.4400 -0.3581 -0.5543
 3822SOL    HW222929   3.641   0.395   5.766 -0.3498 -0.9872  0.7143
 3823SOL     OW22930   2.074   1.331  16.487 -0.3376  0.2225  0.0209
 3823SOL    HW122931   2.156   1.378  16.499  0.8320 -1.3119 -1.9491
 3823SOL    HW222932   2.100   1.247  16.525 -2.4621  0.1389  1.3028
 3824SOL     OW22933   3.727   3.083  16.431  0.0679 -0.3669  0.0154
 3824SOL    HW122934   3.689   3.167  16.459  1.6658  0.6785 -0.9271
 3824SOL    HW222935   3.753   3.042  16.513  0.2452  2.1204  1.2178
 3825SOL     OW22936   0.687   1.484   1.820 -0.4454 -0.9161  0.1120
 3825SOL    HW122937   0.606   1.435   1.830 -1.4867  0.4827 -1.4805
 3825SOL    HW222938   0.744   1.415   1.785  2.4605  1.4988  0.0381
 3826SOL     OW22939   3.034   2.643   2.222  0.7062 -0.2457  0.0360
 3826SOL    HW122940   3.063   2.596   2.301  0.5667 -0.1711  0.1318
 3826SOL    HW222941   2.985   2.575   2.176  1.4882  0.4326 -1.7857
 3827SOL     OW22942   3.315   2.250   2.027  0.0012  0.1044  0.1021
 3827SOL    HW122943   3.223   2.224   2.038  0.0096 -1.4018 -3.3975
 3827SOL    HW222944   3.300   2.310   1.954 -0.5312 -2.2967 -1.7436
 3828SOL     OW22945   3.755   4.079   9.395 -0.1426 -0.2780 -0.6434
 3828SOL    HW122946   3.723   4.092   9.306 -1.5906 -1.5200 -0.3112
 3828SOL    HW222947   3.829   4.021   9.376 -0.4630 -0.8435 -0.1617
 3829SOL     OW22948   2.265   2.306   5.065  0.8306 -0.5407 -0.1112
 3829SOL    HW122949   2.329   2.277   5.000  0.6719 -0.9078 -0.1089
 3829SOL    HW222950   2.203   2.234   5.055 -1.3552  1.4167 -0.4498
 3830SOL     OW22951   2.956   4.450   2.031  0.2778  0.0516 -0.1842
 3830SOL    HW122952   2.957   4.542   2.060 -2.3213  1.0324 -3.2049
 3830SOL    HW222953   2.861   4.434   2.028  0.2973 -0.1549  0.2755
 3831SOL     OW22954   3.437   2.061   5.343  0.3049 -0.5051  0.2567
 3831SOL    HW122955   3.431   1.991   5.278 -2.0393 -1.4346  1.4703
 3831SOL    HW222956   3.388   2.015   5.412  1.1269 -0.0275  1.1616
 3832SOL     OW22957   4.572   2.198   4.406  0.6726  0.6407  0.1634
 3832SOL    HW122958   4.574   2.173   4.498  2.0786  0.1101 -0.0046
 3832SOL    HW222959   4.581   2.292   4.419  0.7355  0.2652  2.8115
 3833SOL     OW22960   1.721   4.148   0.386  0.1174 -0.2161 -0.3908
 3833SOL    HW122961   1.736   4.062   0.424 -1.4208 -0.7440 -0.9534
 3833SOL    HW222962   1.813   4.174   0.391 -0.3704  1.2642  1.0239
 3834SOL     OW22963   0.339   3.503   7.653  0.5289 -0.5935  0.0126
 3834SOL    HW122964   0.278   3.541   7.589  4.7524 -0.7855 -4.1417
 3834SOL    HW222965   0.278   3.488   7.725 -1.0223 -1.1180 -1.3895
 3835SOL     OW22966   4.624   3.150   6.670  0.4288  0.5702 -0.4635
 3835SOL    HW122967   4.699   3.091   6.663 -0.6592 -0.6864 -1.4773
 3835SOL    HW222968   4.664   3.232   6.700 -1.8354  2.0304 -1.4311
 3836SOL     OW22969   3.835   4.365   6.658  0.3383 -0.1287 -0.1678
 3836SOL    HW122970   3.828   4.357   6.753  0.1372  1.0274 -0.0952
 3836SOL    HW222971   3.930   4.358   6.648  0.2931 -1.9979  0.6603
 3837SOL     OW22972   2.927   2.628   7.439 -0.3328  0.2746 -0.0172
 3837SOL    HW122973   2.979   2.563   7.486 -1.6971  0.5375  1.8531
 3837SOL    HW222974   2.989   2.700   7.424 -1.0426  1.4702  2.7735
 3838SOL     OW22975   4.194   1.211   2.044 -0.1232 -0.3990  0.2314
 3838SOL    HW122976   4.256   1.168   1.984  1.1966  0.8268  0.7176
 3838SOL    HW222977   4.212   1.305   2.038  0.1092 -0.5225 -1.0274
 3839SOL     OW22978   0.775   3.508   0.759  0.5529 -0.2667 -0.3583
 3839SOL    HW122979   0.788   3.464   0.674  1.6486  1.4857 -1.0905
 3839SOL    HW222980   0.681   3.517   0.742  0.1637 -2.1150  0.8466
 3840SOL     OW22981   4.414   0.180   3.248 -0.5396  0.9150 -0.3350
 3840SOL    HW122982   4.356   0.127   3.302 -0.8025 -0.0929 -1.6158
 3840SOL    HW222983   4.499   0.162   3.287 -0.9812 -0.0807  0.1422
 3841SOL     OW22984   4.402   1.195  13.942 -0.0726  0.6728  0.4338
 3841SOL    HW122985   4.327   1.212  13.884 -0.5254  0.7114  1.0238
 3841SOL    HW222986   4.387   1.259  14.011 -1.4366  2.1846 -1.2617
 3842SOL     OW22987   4.019   0.006   6.507  0.4064  0.5079  0.5640
 3842SOL    HW122988   4.031   4.640   6.476 -1.0111  0.1104  1.2142
 3842SOL    HW222989   4.082   0.018   6.578 -0.0320 -0.7198  1.1703
 3843SOL     OW22990   1.182   1.994   4.731  0.2296  0.4063  0.6650
 3843SOL    HW122991   1.102   1.942   4.744 -0.6950  1.4795 -0.7000
 3843SOL    HW222992   1.221   1.950   4.656 -0.2255 -0.6795  1.0654
 3844SOL     OW22993   3.388   3.550   5.652 -0.2670  0.4172 -0.1542
 3844SOL    HW122994   3.332   3.474   5.635  0.2187  0.1303 -0.4469
 3844SOL    HW222995   3.435   3.560   5.570  0.5531 -3.1567 -0.1261
 3845SOL     OW22996   1.767   1.114  17.484  0.1171  0.3774  0.0934
 3845SOL    HW122997   1.671   1.113  17.489  0.0677 -1.8737 -1.2867
 3845SOL    HW222998   1.791   1.191  17.537 -2.3380  0.2775  1.4041
 3846SOL     OW22999   1.540   3.658   6.229  0.5655  0.6491  0.2192
 3846SOL    HW123000   1.531   3.745   6.268 -0.6932 -0.4988  2.4786
 3846SOL    HW223001   1.624   3.663   6.184  0.2375 -1.2298 -0.6053
 3847SOL     OW23002   1.818   0.377   6.640  0.0981  0.1529 -0.8192
 3847SOL    HW123003   1.885   0.308   6.647  0.8402  1.0497  0.7792
 3847SOL    HW223004   1.843   0.442   6.704 -0.7525 -0.2298 -0.0978
 3848SOL     OW23005   1.381   1.936   8.570  0.2611 -0.1511 -0.0520
 3848SOL    HW123006   1.379   2.032   8.572  1.7611 -0.0628 -2.5808
 3848SOL    HW223007   1.296   1.918   8.530  0.1186  1.5478 -0.5022
 3849SOL     OW23008   3.339   4.475  17.141  0.0180 -0.7641  0.2478
 3849SOL    HW123009   3.252   4.509  17.160  0.5161  0.9080 -0.4730
 3849SOL    HW223010   3.399   4.548  17.154  1.0152 -1.1610 -1.9466
 3850SOL     OW23011   0.113   0.628   6.457 -0.1773  0.2978  0.2279
 3850SOL    HW123012   0.101   0.549   6.508  1.2207  0.2832  0.5349
 3850SOL    HW223013   0.042   0.682   6.490 -0.9324 -1.1908  1.0160
 3851SOL     OW23014   3.123   1.938   2.220 -1.2545  0.2123 -0.2236
 3851SOL    HW123015   3.074   2.003   2.169  0.7891  1.3914 -0.6572
 3851SOL    HW223016   3.212   1.950   2.188 -0.9264 -0.4148  0.4564
 3852SOL     OW23017   0.546   3.575   8.078  0.4861 -0.5181 -0.0987
 3852SOL    HW123018   0.487   3.511   8.116  1.5624 -0.9871  0.7873
 3852SOL    HW223019   0.627   3.525   8.086 -0.1040 -1.4112  0.2343
 3853SOL     OW23020   1.715   1.150   9.402  0.1733  0.7998 -0.3663
 3853SOL    HW123021   1.626   1.186   9.409 -0.8445 -1.6699 -0.4504
 3853SOL    HW223022   1.771   1.186   9.470 -0.2798 -1.1846  1.0482
 3854SOL     OW23023   2.855   1.348   9.990  0.0471 -0.0757  0.1271
 3854SOL    HW123024   2.930   1.292  10.010  1.0318  0.1607 -2.8034
 3854SOL    HW223025   2.803   1.345  10.070  1.6797 -1.8142  1.1146
 3855SOL     OW23026   1.103   4.028   6.240 -0.0327 -0.0698  0.0992
 3855SOL    HW123027   1.133   3.937   6.237 -0.8603 -0.2670 -1.9284
 3855SOL    HW223028   1.184   4.074   6.262 -0.8996  0.4336  2.2250
 3856SOL     OW23029   1.891   2.572  12.252  0.2211 -0.0414  0.5883
 3856SOL    HW123030   1.889   2.632  12.327  0.2940  1.3393 -0.5159
 3856SOL    HW223031   1.912   2.488  12.293  1.5240 -0.6458 -1.3299
 3857SOL     OW23032   1.990   1.156   5.907  0.3319 -0.0965  0.1680
 3857SOL    HW123033   1.998   1.239   5.955  0.9452 -0.7289  1.1593
 3857SOL    HW223034   2.014   1.187   5.820  0.2551  0.9784  0.5280
 3858SOL     OW23035   3.806   0.879   5.760 -0.5981 -0.0493  0.2394
 3858SOL    HW123036   3.852   0.910   5.838 -0.0096  0.6927 -0.4058
 3858SOL    HW223037   3.864   0.811   5.725 -1.6058 -0.1792 -1.1744
 3859SOL     OW23038   2.473   0.247   5.698 -0.7212  0.3378 -0.2315
 3859SOL    HW123039   2.444   0.168   5.743  1.5102 -0.5670 -0.3998
 3859SOL    HW223040   2.496   0.289   5.781  1.1743 -0.8974 -0.1319
 3860SOL     OW23041   0.378   2.712   4.146  0.0151 -0.1346  0.0288
 3860SOL    HW123042   0.435   2.757   4.209  0.8551 -0.9646 -0.1323
 3860SOL    HW223043   0.352   2.783   4.089  2.7203 -0.4481 -1.5905
 3861SOL     OW23044   3.595   4.222   2.914  0.8669  0.2305 -0.1116
 3861SOL    HW123045   3.567   4.233   3.005 -2.9010 -2.0989 -1.0199
 3861SOL    HW223046   3.669   4.161   2.921 -1.4768 -2.0899  4.3739
 3862SOL     OW23047   1.351   3.608   5.522 -0.6270  0.4585 -0.1131
 3862SOL    HW123048   1.439   3.646   5.514 -0.8844  1.4274  1.6499
 3862SOL    HW223049   1.309   3.686   5.559 -1.8603 -0.8869  1.3036
 3863SOL     OW23050   1.848   1.852  11.454  0.3116 -0.1890  0.5056
 3863SOL    HW123051   1.889   1.868  11.369 -1.0989 -0.2045 -0.1685
 3863SOL    HW223052   1.902   1.903  11.515 -0.4013  0.5801  0.4922
 3864SOL     OW23053   0.796   2.021   4.587 -0.1561  0.5646 -0.1265
 3864SOL    HW123054   0.748   1.941   4.570  0.8170 -0.5199  2.3005
 3864SOL    HW223055   0.847   2.018   4.506  1.1590  0.5878  0.6916
 3865SOL     OW23056   1.260   3.575   3.802  0.2042  0.5532  0.1713
 3865SOL    HW123057   1.258   3.481   3.819 -0.0003  0.5499  0.1377
 3865SOL    HW223058   1.165   3.585   3.799  0.0617 -0.9734 -0.1414
 3866SOL     OW23059   2.367   1.193  17.428 -0.2765  0.1668 -0.3053
 3866SOL    HW123060   2.308   1.221  17.358  0.4869  1.8082 -0.2860
 3866SOL    HW223061   2.411   1.272  17.459  0.6917  0.0027 -1.2910
 3867SOL     OW23062   0.293   4.397   8.492 -0.3321 -0.6286 -0.0882
 3867SOL    HW123063   0.204   4.361   8.494 -0.9048  0.7530 -0.7197
 3867SOL    HW223064   0.295   4.467   8.558 -0.2340 -2.4300  1.8305
 3868SOL     OW23065   0.074   2.493   6.293  0.4553 -0.1464  0.1066
 3868SOL    HW123066   0.103   2.549   6.221 -1.7958 -3.0743 -3.0523
 3868SOL    HW223067   0.094   2.410   6.250  0.1456 -0.3233  0.3027
 3869SOL     OW23068   4.538   2.696   1.076  0.7071 -0.3952  0.5611
 3869SOL    HW123069   4.558   2.621   1.133  1.4395 -0.3787  0.3205
 3869SOL    HW223070   4.459   2.730   1.118 -0.2423  1.5092 -2.8066
 3870SOL     OW23071   1.890   1.232  16.313 -0.3029  0.0410 -0.1831
 3870SOL    HW123072   1.932   1.148  16.330  0.8474  0.3712 -1.4828
 3870SOL    HW223073   1.950   1.293  16.356  1.1743 -1.6946  0.2130
 3871SOL     OW23074   2.816   3.601  12.165  0.2190 -0.4314  0.7254
 3871SOL    HW123075   2.866   3.584  12.245  2.3963  2.3891 -0.0485
 3871SOL    HW223076   2.845   3.688  12.138 -0.2406 -0.9166 -1.2959
 3872SOL     OW23077   2.237   4.298   4.105 -0.0967 -0.1472 -0.2001
 3872SOL    HW123078   2.207   4.384   4.136 -0.4074 -1.4647  3.1813
 3872SOL    HW223079   2.195   4.300   4.020 -0.9500  2.2291  0.2673
 3873SOL     OW23080   0.886   3.234   4.120  0.0444 -0.3608 -0.2850
 3873SOL    HW123081   0.939   3.303   4.160 -1.3127 -0.5379  1.8338
 3873SOL    HW223082   0.796   3.245   4.151 -0.9701 -4.2044 -1.7505
 3874SOL     OW23083   1.761   0.101   7.043  0.7382  0.6724 -0.6834
 3874SOL    HW123084   1.811   0.111   7.124  0.7049  1.7601 -0.8023
 3874SOL    HW223085   1.684   0.058   7.082 -0.1236  1.5543 -1.4325
 3875SOL     OW23086   3.249   0.693  14.831  0.5636 -0.0397 -0.1435
 3875SOL    HW123087   3.283   0.605  14.813 -0.8183 -0.9808  1.7756
 3875SOL    HW223088   3.325   0.749  14.846  1.6445 -1.5731  0.1319
 3876SOL     OW23089   3.214   0.027   0.862  0.0584 -0.3087  0.3356
 3876SOL    HW123090   3.202   0.032   0.768 -0.3416 -1.2151  0.3370
 3876SOL    HW223091   3.242   0.114   0.890  0.7640 -0.6250  0.6380
 3877SOL     OW23092   3.466   2.864   0.462  0.1114  0.1782  0.6934
 3877SOL    HW123093   3.493   2.826   0.546  1.2964  0.8543  0.6172
 3877SOL    HW223094   3.443   2.954   0.486 -1.3001  0.6371 -2.4678
 3878SOL     OW23095   2.995   3.540   5.604 -0.1030  0.6432 -0.1406
 3878SOL    HW123096   2.900   3.548   5.608 -0.0996  1.2294 -1.1094
 3878SOL    HW223097   3.000   3.504   5.515 -0.4495  2.9884 -1.1215
 3879SOL     OW23098   0.779   1.259   4.690 -0.4319  0.1327  0.2358
 3879SOL    HW123099   0.730   1.338   4.711 -0.1070  0.8621 -1.7825
 3879SOL    HW223100   0.861   1.305   4.673 -0.3864 -0.3328 -0.8016
 3880SOL     OW23101   3.867   2.610   5.877  0.0532 -0.0493 -0.4181
 3880SOL    HW123102   3.955   2.646   5.884 -0.0515 -0.2956  2.0195
 3880SOL    HW223103   3.813   2.656   5.941  0.6286  0.7604 -0.5132
 3881SOL     OW23104   2.051   3.766   6.930 -0.2169  0.5558  0.0490
 3881SOL    HW123105   1.973   3.819   6.947 -1.4508 -1.1536 -0.3177
 3881SOL    HW223106   2.104   3.756   7.009  0.0412 -0.2868 -0.2325
 3882SOL     OW23107   1.163   2.748  16.130  0.3709  0.5790 -0.1394
 3882SOL    HW123108   1.241   2.759  16.075  1.4466  0.6484  1.4016
 3882SOL    HW223109   1.192   2.790  16.211  0.5726  0.7041 -0.2766
 3883SOL     OW23110   2.662   3.396  17.090  0.6762  0.3825  0.0856
 3883SOL    HW123111   2.644   3.469  17.150 -2.2140 -2.2104  2.3732
 3883SOL    HW223112   2.607   3.418  17.014 -0.4323  1.5272  1.2088
 3884SOL     OW23113   3.011   3.519  12.347  0.0390  0.2987  0.2560
 3884SOL    HW123114   3.064   3.534  12.425 -0.3667 -1.2601  0.8261
 3884SOL    HW223115   3.078   3.526  12.279 -1.4121  1.6234 -1.0530
 3885SOL     OW23116   4.312   2.375  10.645 -0.0764  0.3502  0.4286
 3885SOL    HW123117   4.320   2.346  10.736 -1.2673 -0.9531  0.1097
 3885SOL    HW223118   4.239   2.436  10.652  1.3848  2.4283 -2.5612
 3886SOL     OW23119   0.156   3.242   3.526 -0.6262  0.2717  0.4165
 3886SOL    HW123120   0.081   3.296   3.501 -0.1005  0.6608 -0.3263
 3886SOL    HW223121   0.128   3.157   3.491 -2.7886  1.4337 -0.6965
 3887SOL     OW23122   3.387   1.337   3.633 -0.2409  0.0507 -0.6161
 3887SOL    HW123123   3.352   1.399   3.696  1.3552 -1.0096  1.3193
 3887SOL    HW223124   3.308   1.309   3.587 -0.1765  0.3550 -0.9152
 3888SOL     OW23125   0.551   4.684   0.529 -0.8612 -0.0645  0.1395
 3888SOL    HW123126   0.633   4.706   0.573 -0.7878 -0.9243  0.4327
 3888SOL    HW223127   0.563   4.704   0.436  1.7802 -0.5290  0.3870
 3889SOL     OW23128   0.903   2.342  14.661 -0.2680 -0.5606  0.0266
 3889SOL    HW123129   0.931   2.270  14.718 -1.2791 -0.9417  0.0397
 3889SOL    HW223130   0.982   2.397  14.662 -1.4297  1.1138  0.2529
 3890SOL     OW23131   1.999   3.673  12.871  0.3749  0.3046 -0.0391
 3890SOL    HW123132   2.061   3.603  12.891 -0.4356 -0.2725  0.4510
 3890SOL    HW223133   2.019   3.694  12.779  3.2433 -2.0073  0.0787
 3891SOL     OW23134   4.405   0.820  17.073  0.0792  0.5216  0.0301
 3891SOL    HW123135   4.460   0.754  17.032  2.9319  1.3832  2.4561
 3891SOL    HW223136   4.411   0.801  17.167 -0.3923 -0.9426 -0.2374
 3892SOL     OW23137   3.790   3.961  13.856  0.1051 -0.1155  0.1924
 3892SOL    HW123138   3.782   4.035  13.916  0.1888 -1.3927  1.7494
 3892SOL    HW223139   3.830   4.003  13.780 -2.0224  3.3988  1.0299
 3893SOL     OW23140   3.358   3.930  16.110 -0.1239 -0.1401  0.2260
 3893SOL    HW123141   3.273   3.927  16.067 -1.5844 -0.7733  3.1523
 3893SOL    HW223142   3.378   3.836  16.106 -0.9392 -0.3621  1.2049
 3894SOL     OW23143   1.134   2.818   1.703 -0.6843  0.0244 -0.5281
 3894SOL    HW123144   1.181   2.736   1.693  1.4390  1.3566 -1.3590
 3894SOL    HW223145   1.157   2.843   1.793  1.4349 -0.6392 -0.9055
 3895SOL     OW23146   0.503   2.357   0.818  0.0048  0.1461  0.0429
 3895SOL    HW123147   0.431   2.403   0.862 -0.3913  1.4280 -1.9979
 3895SOL    HW223148   0.523   2.418   0.748  1.3134 -0.0456  0.2509
 3896SOL     OW23149   1.073   0.708   4.126  0.4967  0.1481  0.2698
 3896SOL    HW123150   1.158   0.663   4.124 -0.0780 -0.8670 -1.5951
 3896SOL    HW223151   1.029   0.652   4.063  1.2866 -0.4740  0.2746
 3897SOL     OW23152   0.411   2.526   2.669 -0.3055  0.0912 -0.1666
 3897SOL    HW123153   0.359   2.449   2.692 -0.4841  1.2166  3.1842
 3897SOL    HW223154   0.493   2.487   2.639 -1.2751 -2.6993  0.8712
 3898SOL     OW23155   3.344   2.744   9.617 -0.5261  0.1135  0.8558
 3898SOL    HW123156   3.330   2.662   9.570 -0.1164  1.3406 -1.3941
 3898SOL    HW223157   3.295   2.808   9.567 -1.3327  0.2444  1.8129
 3899SOL     OW23158   1.570   2.334   7.444 -0.5331 -0.0273  0.0689
 3899SOL    HW123159   1.483   2.344   7.482  0.7912  1.7294  2.6599
 3899SOL    HW223160   1.554   2.263   7.382  0.9509 -0.3455  0.0555
 3900SOL     OW23161   1.329   0.627  13.686 -0.1274  0.0410 -0.0089
 3900SOL    HW123162   1.246   0.669  13.709 -0.9993 -1.3505 -0.6569
 3900SOL    HW223163   1.361   0.596  13.771  1.3610  1.5881 -0.0005
 3901SOL     OW23164   2.794   1.195  17.367  0.0225 -0.0325  0.0356
 3901SOL    HW123165   2.742   1.221  17.443 -0.4982 -0.1963 -0.2732
 3901SOL    HW223166   2.731   1.153  17.309 -0.7638  2.5143 -0.9440
 3902SOL     OW23167   4.234   4.593   2.784  0.1362  0.5145 -0.1471
 3902SOL    HW123168   4.280   4.636   2.856  0.9205  0.4642 -0.6267
 3902SOL    HW223169   4.165   4.547   2.832  2.3725 -0.9521  1.6466
 3903SOL     OW23170   1.050   3.155  12.254  0.1813 -0.2713  0.1997
 3903SOL    HW123171   1.097   3.091  12.306 -1.3325 -1.6190 -0.0932
 3903SOL    HW223172   0.960   3.146  12.284  0.0547 -1.6959 -0.6275
 3904SOL     OW23173   0.310   2.798   2.471 -0.2913  0.1814  0.2530
 3904SOL    HW123174   0.290   2.790   2.564 -2.5217  1.0939 -0.1421
 3904SOL    HW223175   0.396   2.839   2.469 -1.5669  2.8895  0.5014
 3905SOL     OW23176   1.723   4.550   3.670  0.8136  0.1399  0.0165
 3905SOL    HW123177   1.740   4.548   3.576 -0.3438 -0.4636 -0.1816
 3905SOL    HW223178   1.798   4.503   3.705  1.0156 -0.5001 -1.2867
 3906SOL     OW23179   0.197   1.970  16.899  0.2309 -0.0229  0.3639
 3906SOL    HW123180   0.176   1.987  16.991 -0.9004  0.5273  0.0063
 3906SOL    HW223181   0.286   2.000  16.881  0.7612 -0.3306  2.4197
 3907SOL     OW23182   2.852   1.237   0.829  0.2546 -0.4659  0.1747
 3907SOL    HW123183   2.861   1.154   0.875  0.4002 -0.4714  0.1364
 3907SOL    HW223184   2.759   1.234   0.806  0.6633  3.5987 -1.9890
 3908SOL     OW23185   1.098   1.608  12.911 -0.1916 -0.4656 -0.0876
 3908SOL    HW123186   1.046   1.546  12.961  0.5291 -1.2512 -0.3203
 3908SOL    HW223187   1.029   1.667  12.879 -1.6965 -1.8845  0.5594
 3909SOL     OW23188   1.855   1.625   3.011  0.1494  0.4655 -0.1185
 3909SOL    HW123189   1.787   1.561   3.034  0.6206  0.0220  0.0468
 3909SOL    HW223190   1.929   1.569   2.989 -0.9134 -0.4008 -1.5170
 3910SOL     OW23191   2.258   1.310  14.028  0.0217 -0.2147 -0.2297
 3910SOL    HW123192   2.250   1.336  14.120 -0.3281  2.2958 -0.9594
 3910SOL    HW223193   2.183   1.252  14.015  0.3518 -0.4572 -1.0968
 3911SOL     OW23194   3.007   2.667  16.288  0.2219 -0.2972  0.0360
 3911SOL    HW123195   2.933   2.620  16.325  1.1228 -1.0490  0.8914
 3911SOL    HW223196   3.023   2.739  16.349  0.7592  0.4322 -0.9635
 3912SOL     OW23197   0.501   1.985  14.226  0.1862  0.1434 -0.1594
 3912SOL    HW123198   0.434   1.939  14.276 -1.4515  2.0689 -0.5795
 3912SOL    HW223199   0.454   2.059  14.187  0.5569  0.3865 -0.1515
 3913SOL     OW23200   3.396   4.314   2.721 -0.2821  0.0188  0.5287
 3913SOL    HW123201   3.463   4.314   2.790  1.3167 -1.6340 -1.0206
 3913SOL    HW223202   3.402   4.396   2.673 -0.2548 -0.2936 -0.0112
 3914SOL     OW23203   3.512   0.401   4.253 -0.3841  0.0402  0.5995
 3914SOL    HW123204   3.597   0.428   4.218 -0.8203  1.3016  0.5286
 3914SOL    HW223205   3.505   0.418   4.347  0.1491  0.4218  0.5692
 3915SOL     OW23206   0.959   1.505   8.821  0.0423 -0.1250  0.1096
 3915SOL    HW123207   0.908   1.580   8.792  0.8374 -1.2127 -4.1505
 3915SOL    HW223208   0.904   1.442   8.773  0.6572 -1.6256  1.3670
 3916SOL     OW23209   3.750   4.305   2.353  0.2889 -0.0913 -0.0395
 3916SOL    HW123210   3.832   4.294   2.306  0.0822 -0.3006 -0.3460
 3916SOL    HW223211   3.692   4.252   2.299 -0.6930  1.9602 -1.0268
 3917SOL     OW23212   3.741   4.699   6.512  0.0432  0.0584 -0.9295
 3917SOL    HW123213   3.836   4.698   6.525 -0.3269  1.1349  1.7449
 3917SOL    HW223214   3.699   0.016   6.587 -1.6006  0.7281 -2.2209
 3918SOL     OW23215   0.619   3.373   8.315  0.2975  0.9004 -0.0979
 3918SOL    HW123216   0.671   3.295   8.293 -2.0531 -0.0954 -2.0479
 3918SOL    HW223217   0.556   3.336   8.376 -0.4213  0.4194 -1.1406
 3919SOL     OW23218   1.209   1.388  15.222  0.7178  0.3026 -0.7386
 3919SOL    HW123219   1.269   1.429  15.160  1.4682  0.8803  0.3799
 3919SOL    HW223220   1.125   1.398  15.177 -0.7377 -1.1644  1.6558
 3920SOL     OW23221   2.238   4.037   7.088 -0.0252 -0.2827 -0.3099
 3920SOL    HW123222   2.196   3.952   7.078 -0.5449 -0.2220  1.4699
 3920SOL    HW223223   2.240   4.053   7.182 -1.2202  0.0910 -0.3402
 3921SOL     OW23224   2.177   3.776   6.667  1.0641  0.5211 -0.2250
 3921SOL    HW123225   2.118   3.776   6.742  0.7824  1.0670 -0.4468
 3921SOL    HW223226   2.260   3.759   6.713 -1.0551  0.0512  3.4298
 3922SOL     OW23227   4.664   1.562   4.777  0.5502 -0.3682  0.2220
 3922SOL    HW123228   4.569   1.550   4.774  0.5073  0.4608 -1.9208
 3922SOL    HW223229   4.682   1.546   4.684  1.7424  3.3807 -0.2053
 3923SOL     OW23230   3.261   4.578   6.197  0.0170  0.0074  0.1157
 3923SOL    HW123231   3.254   4.642   6.126 -0.8847  0.1668  0.3375
 3923SOL    HW223232   3.318   4.628   6.255 -0.1439  0.2719  0.0447
 3924SOL     OW23233   1.717   0.171   5.473  0.0150 -0.0106  0.1408
 3924SOL    HW123234   1.645   0.113   5.448 -0.2417 -0.1613  1.2440
 3924SOL    HW223235   1.775   0.106   5.513  0.9929 -0.6642 -2.3149
 3925SOL     OW23236   0.294   3.246  17.084 -0.0854  0.3344  0.1318
 3925SOL    HW123237   0.294   3.322  17.026  0.8660  0.5495  0.4255
 3925SOL    HW223238   0.326   3.174  17.029 -2.4107  0.3520 -1.2518
 3926SOL     OW23239   3.921   4.360  16.671  0.2166  0.0191 -0.2031
 3926SOL    HW123240   3.834   4.399  16.664  0.3466  0.1727 -0.9086
 3926SOL    HW223241   3.956   4.368  16.582 -0.0026 -1.9971 -0.4766
 3927SOL     OW23242   1.040   0.287   4.575 -0.4988 -0.2623 -0.1685
 3927SOL    HW123243   1.055   0.293   4.669  0.8012 -2.3253 -0.2525
 3927SOL    HW223244   1.002   0.373   4.559  1.2729  0.6969  0.7867
 3928SOL     OW23245   0.984   3.467   2.819 -0.3021  0.1272  0.2877
 3928SOL    HW123246   0.939   3.505   2.744 -1.0856 -1.1252  0.1249
 3928SOL    HW223247   0.943   3.514   2.891  2.5389  1.9650  0.7400
 3929SOL     OW23248   0.932   2.369   1.026  0.1043  0.6972 -0.1869
 3929SOL    HW123249   1.008   2.327   0.985 -0.7310 -0.8540 -0.1473
 3929SOL    HW223250   0.983   2.419   1.089  2.6381 -1.3153 -0.6410
 3930SOL     OW23251   2.750   1.103   3.038  0.8782 -0.2124  0.0233
 3930SOL    HW123252   2.822   1.066   3.088  0.1643 -2.4524 -0.5726
 3930SOL    HW223253   2.700   1.142   3.110  1.8245 -1.5637  1.4175
 3931SOL     OW23254   4.042   1.328  13.593 -0.0669 -0.4091  0.0089
 3931SOL    HW123255   4.005   1.248  13.556  0.9253 -0.5610 -0.6449
 3931SOL    HW223256   3.991   1.390  13.540  2.1088  0.6437 -0.8544
 3932SOL     OW23257   4.233   4.343  12.095  0.2089 -0.3063 -0.3922
 3932SOL    HW123258   4.193   4.312  12.176 -0.6366 -2.3659 -1.6031
 3932SOL    HW223259   4.247   4.435  12.120  1.2326 -0.9383  1.3476
 3933SOL     OW23260   3.401   0.537   4.558  0.4704  0.1771  0.4499
 3933SOL    HW123261   3.494   0.539   4.534  0.1724 -0.5751 -0.7798
 3933SOL    HW223262   3.399   0.457   4.611 -0.5959 -0.1598 -0.1043
 3934SOL     OW23263   4.199   4.286   4.742  0.1504  0.0722 -0.2178
 3934SOL    HW123264   4.153   4.238   4.673  1.6908  2.6298 -3.0428
 3934SOL    HW223265   4.133   4.286   4.811 -1.3561 -2.8376 -1.6734
 3935SOL     OW23266   4.202   1.109  14.210  0.2016  0.1776  0.1795
 3935SOL    HW123267   4.197   1.143  14.121  2.1028 -0.6247 -0.2444
 3935SOL    HW223268   4.263   1.152  14.271  1.0667 -0.2337 -0.3857
 3936SOL     OW23269   2.432   1.867   6.674  0.7462 -0.2651 -0.2259
 3936SOL    HW123270   2.351   1.895   6.716  0.2556  0.5452 -1.7502
 3936SOL    HW223271   2.495   1.855   6.745  0.5867  0.4933  0.0400
 3937SOL     OW23272   3.749   2.039   6.136  0.4722 -0.2178 -0.4079
 3937SOL    HW123273   3.729   1.991   6.056  1.1164 -2.3462  0.7256
 3937SOL    HW223274   3.841   2.060   6.123  0.7226  1.0080  3.2932
 3938SOL     OW23275   0.675   4.315   6.443  0.3417 -0.3028  0.7433
 3938SOL    HW123276   0.740   4.259   6.400  0.0655  2.1443 -2.8035
 3938SOL    HW223277   0.694   4.403   6.411 -2.5703  0.9002  2.2517
 3939SOL     OW23278   3.935   4.246   9.549  0.4693  0.0745 -1.1112
 3939SOL    HW123279   3.872   4.212   9.485 -0.1841  1.1542 -1.0324
 3939SOL    HW223280   3.946   4.163   9.595 -0.7145 -0.8264 -2.4477
 3940SOL     OW23281   0.583   2.828  15.199  0.0719  0.7148  0.2079
 3940SOL    HW123282   0.575   2.900  15.261 -1.6693 -0.2308  1.0586
 3940SOL    HW223283   0.540   2.870  15.124  0.7928  1.9313  0.4705
 3941SOL     OW23284   1.464   0.477  12.929 -0.1353  0.1853 -0.0773
 3941SOL    HW123285   1.428   0.539  12.865  1.8271  0.8218 -0.5646
 3941SOL    HW223286   1.466   0.395  12.881  0.2888  0.4818 -0.5663
 3942SOL     OW23287   1.322   4.615   7.797  0.3386  0.1813 -0.1118
 3942SOL    HW123288   1.379   4.687   7.769  0.5564  0.1471  0.2480
 3942SOL    HW223289   1.365   4.576   7.873  0.1095  0.0762 -0.0355
 3943SOL     OW23290   1.094   4.087   6.806 -0.2958  0.0856 -0.0740
 3943SOL    HW123291   1.142   4.166   6.831  0.7445 -1.5845  3.1698
 3943SOL    HW223292   1.050   4.064   6.888 -0.6693 -0.9388 -0.5548
 3944SOL     OW23293   3.792   3.212  14.867 -0.2821  0.0795 -0.6797
 3944SOL    HW123294   3.811   3.188  14.776 -0.8186 -1.0593 -0.4896
 3944SOL    HW223295   3.854   3.165  14.923 -0.9879 -0.9910 -0.8053
 3945SOL     OW23296   1.770   1.823   7.660  0.1950  0.8652 -0.2644
 3945SOL    HW123297   1.865   1.831   7.650  0.4966 -2.3208  0.3064
 3945SOL    HW223298   1.766   1.729   7.643  0.8238  0.4544  1.8499
 3946SOL     OW23299   0.883   2.754   1.609 -0.4932  0.2488  0.2145
 3946SOL    HW123300   0.974   2.768   1.637 -0.2422 -1.4370  0.2490
 3946SOL    HW223301   0.861   2.682   1.668 -1.2824  0.4577  0.1679
 3947SOL     OW23302   3.932   2.942   7.871 -0.1735 -0.3521  0.2676
 3947SOL    HW123303   3.920   3.036   7.858  1.0102 -0.0433  1.4336
 3947SOL    HW223304   3.890   2.893   7.800  0.1918  0.7112 -0.6796
 3948SOL     OW23305   4.340   2.772   5.558 -0.0020  0.2040 -0.4150
 3948SOL    HW123306   4.405   2.842   5.563  0.4150 -0.1205 -1.3232
 3948SOL    HW223307   4.287   2.804   5.631  1.7265  0.1071  0.8835
 3949SOL     OW23308   2.914   3.925   6.529 -0.5200 -0.2825  0.2453
 3949SOL    HW123309   2.992   3.952   6.578 -1.2330  3.2966 -0.5868
 3949SOL    HW223310   2.852   3.892   6.594 -0.6257 -1.3544 -0.3940
 3950SOL     OW23311   1.467   2.988  13.637  0.0943 -0.2760  0.0022
 3950SOL    HW123312   1.460   3.012  13.544 -1.7674  0.6412  0.3744
 3950SOL    HW223313   1.374   2.979  13.655  0.5915 -2.0866  1.6295
 3951SOL     OW23314   0.498   3.419   7.008 -0.6641  0.2046 -0.2894
 3951SOL    HW123315   0.404   3.430   6.996 -0.5595  0.4032 -0.9583
 3951SOL    HW223316   0.519   3.429   6.915 -0.9126  0.7295 -0.2909
 3952SOL     OW23317   2.000   2.920   9.328 -0.0898 -0.3077  0.1797
 3952SOL    HW123318   1.971   2.829   9.319 -0.6342 -0.1089 -0.0725
 3952SOL    HW223319   2.039   2.919   9.241  1.9183  1.0041  1.0803
 3953SOL     OW23320   4.236   3.786   5.895 -0.4201 -0.4178 -0.3226
 3953SOL    HW123321   4.221   3.798   5.988 -1.9824 -3.1302 -0.2487
 3953SOL    HW223322   4.182   3.859   5.862  1.5929  0.5501 -1.4789
 3954SOL     OW23323   3.704   4.341   5.526 -0.7945 -0.3799  0.2659
 3954SOL    HW123324   3.651   4.323   5.604 -1.3734 -0.2170 -0.0960
 3954SOL    HW223325   3.794   4.327   5.555 -0.4572 -2.3184 -1.6905
 3955SOL     OW23326   2.092   3.879   1.574  0.2791 -0.2099  0.0483
 3955SOL    HW123327   2.108   3.969   1.545  0.8543 -0.8959 -1.7007
 3955SOL    HW223328   2.174   3.846   1.611 -0.5079 -1.2462  0.8966
 3956SOL     OW23329   2.925   3.543   2.714  0.3572 -0.4562 -1.0521
 3956SOL    HW123330   2.935   3.616   2.653  0.8141  1.4119  1.2581
 3956SOL    HW223331   3.015   3.524   2.740 -0.0211  1.5905  1.7681
 3957SOL     OW23332   2.663   1.207   6.998 -0.1203 -0.4873  0.0589
 3957SOL    HW123333   2.569   1.196   7.013 -0.2832 -2.1018 -2.0642
 3957SOL    HW223334   2.695   1.127   7.039  3.9506  0.8109 -0.6779
 3958SOL     OW23335   1.787   2.933   7.588  0.2177  0.1723  0.0040
 3958SOL    HW123336   1.834   3.015   7.574  1.1432 -0.6012 -1.3629
 3958SOL    HW223337   1.698   2.967   7.579 -0.5274 -1.6357  0.4324
 3959SOL     OW23338   3.437   4.404   5.358  0.0688  0.0771  0.2776
 3959SOL    HW123339   3.460   4.467   5.426  0.2599 -0.1886  0.4616
 3959SOL    HW223340   3.342   4.403   5.362  0.1080 -1.1273  0.9398
 3960SOL     OW23341   1.475   2.115   4.497 -0.0126  0.2396 -0.3636
 3960SOL    HW123342   1.557   2.121   4.449  0.2411  0.1748  0.0652
 3960SOL    HW223343   1.464   2.023   4.523  0.3759  0.6763  1.3358
 3961SOL     OW23344   3.604   3.674   3.871  0.1444  0.2206 -0.9493
 3961SOL    HW123345   3.550   3.708   3.799  0.9231  0.7695 -1.2671
 3961SOL    HW223346   3.612   3.580   3.856  0.4673  0.4736 -2.3327
 3962SOL     OW23347   4.385   1.894  11.969  0.4974 -0.0220 -0.2580
 3962SOL    HW123348   4.451   1.945  12.015 -0.0036 -1.3993  1.9615
 3962SOL    HW223349   4.358   1.836  12.040 -0.5705 -0.2052 -0.8124
 3963SOL     OW23350   2.709   2.395   6.185 -0.1555  0.8531  0.1736
 3963SOL    HW123351   2.731   2.480   6.146 -0.1167  0.8361  0.1578
 3963SOL    HW223352   2.768   2.399   6.260 -0.9102  2.7600  0.6777
 3964SOL     OW23353   1.849   2.212   3.027 -0.1656 -0.5932  0.3042
 3964SOL    HW123354   1.849   2.234   3.121 -3.2453  1.6968 -0.1970
 3964SOL    HW223355   1.910   2.139   3.018  2.0443  1.2491  0.3118
 3965SOL     OW23356   4.622   1.876  11.800 -0.3748  0.2010 -0.2385
 3965SOL    HW123357   4.542   1.898  11.848  0.4809  0.2603  1.1542
 3965SOL    HW223358   4.671   1.869  11.882 -2.0983 -1.4892  0.6549
 3966SOL     OW23359   3.724   4.054  10.471 -0.2196 -0.2637  0.2529
 3966SOL    HW123360   3.812   4.018  10.476 -0.8335 -1.8721 -0.4384
 3966SOL    HW223361   3.709   4.098  10.554 -0.3591  0.7833 -0.3236
 3967SOL     OW23362   2.597   2.127   9.480  0.0689  0.2624  0.3411
 3967SOL    HW123363   2.507   2.155   9.497 -0.7310 -2.2445  0.2153
 3967SOL    HW223364   2.590   2.045   9.432 -0.7277  1.0153 -0.8174
 3968SOL     OW23365   4.056   4.211   4.161  0.4326  0.7850 -0.0269
 3968SOL    HW123366   3.961   4.226   4.163  0.3524  0.2268  0.6213
 3968SOL    HW223367   4.071   4.162   4.242  2.1402  1.9552  0.3613
 3969SOL     OW23368   2.777   4.430   2.445 -0.4748  0.0421 -0.3558
 3969SOL    HW123369   2.766   4.468   2.358  1.1057 -0.5273 -0.8002
 3969SOL    HW223370   2.800   4.341   2.420  1.1054  0.5631 -0.7775
 3970SOL     OW23371   2.473   0.464   2.191 -0.0842  0.6693  0.2081
 3970SOL    HW123372   2.488   0.370   2.178 -1.2763  0.2472  1.9228
 3970SOL    HW223373   2.553   0.501   2.154 -0.4623 -0.4733 -1.7838
 3971SOL     OW23374   4.631   2.002  11.566  0.1485 -0.3108 -0.1505
 3971SOL    HW123375   4.618   1.990  11.660  0.1349 -2.2704 -0.3916
 3971SOL    HW223376   4.690   1.933  11.533 -0.9196 -0.4324 -1.8073
 3972SOL     OW23377   3.239   0.589   9.023 -0.3393 -0.0883  0.0268
 3972SOL    HW123378   3.152   0.625   9.005  1.1969  2.8760 -1.4894
 3972SOL    HW223379   3.210   0.509   9.066 -2.7583 -0.1806 -1.7664
 3973SOL     OW23380   1.127   2.446  15.215  0.3373 -0.1184  0.5270
 3973SOL    HW123381   1.118   2.356  15.185 -0.3772  0.2954 -0.4923
 3973SOL    HW223382   1.043   2.485  15.189 -0.6154 -1.5273  1.4517
 3974SOL     OW23383   0.895   2.325  14.992  0.0437  0.4963 -0.0391
 3974SOL    HW123384   0.977   2.284  14.967 -0.2373  0.1289 -0.3511
 3974SOL    HW223385   0.872   2.291  15.079 -0.2212 -0.3191 -0.4312
 3975SOL     OW23386   4.431   0.447   3.362  0.0173 -0.1754 -0.2416
 3975SOL    HW123387   4.408   0.361   3.326 -0.0887 -0.2922  0.1095
 3975SOL    HW223388   4.414   0.503   3.286 -3.4169  0.3178  0.8745
 3976SOL     OW23389   4.363   2.078  10.192 -0.0062 -0.3160 -0.0747
 3976SOL    HW123390   4.274   2.055  10.165  0.0511  0.8133 -1.2585
 3976SOL    HW223391   4.357   2.079  10.287 -0.1806 -1.1526 -0.0810
 3977SOL     OW23392   0.351   4.203   7.172 -0.0155 -0.3429  0.3119
 3977SOL    HW123393   0.302   4.128   7.205 -0.3328 -0.4005 -0.2904
 3977SOL    HW223394   0.275   4.248   7.135  1.4970  0.2389 -2.1241
 3978SOL     OW23395   1.236   3.798   8.380 -0.4333  0.1160  0.3897
 3978SOL    HW123396   1.247   3.890   8.355 -0.8060  0.0390 -0.0639
 3978SOL    HW223397   1.195   3.763   8.301  0.3717  2.6712 -1.1753
 3979SOL     OW23398   4.370   3.716  11.550 -0.2328  0.1205 -0.2296
 3979SOL    HW123399   4.395   3.780  11.616  0.1790  0.0366 -0.3057
 3979SOL    HW223400   4.315   3.652  11.594 -1.5904  1.9658  0.7463
 3980SOL     OW23401   1.606   3.576   7.887  0.2572 -0.5471  0.1499
 3980SOL    HW123402   1.549   3.501   7.871 -0.5589  0.4044 -1.4890
 3980SOL    HW223403   1.594   3.584   7.982  1.0541 -1.0452  0.2907
 3981SOL     OW23404   3.247   4.720   1.277  0.3843  0.2156 -0.4715
 3981SOL    HW123405   3.235   0.091   1.272 -0.3196  0.2653  2.0875
 3981SOL    HW223406   3.160   4.681   1.267  0.5942 -0.4655  0.3571
 3982SOL     OW23407   4.050   4.089   1.525  0.5161 -0.1638  0.6132
 3982SOL    HW123408   4.145   4.080   1.520  0.3743 -0.3815 -1.9337
 3982SOL    HW223409   4.047   4.183   1.541  1.8806  0.0046 -0.1222
 3983SOL     OW23410   2.400   3.765   3.140 -0.0735  0.0086  0.1805
 3983SOL    HW123411   2.455   3.750   3.064  0.5618 -1.4129  0.9322
 3983SOL    HW223412   2.313   3.756   3.102  1.0426  2.7133 -2.9865
 3984SOL     OW23413   3.971   4.540   8.272  0.5117 -0.3992 -0.7845
 3984SOL    HW123414   4.010   4.584   8.348 -1.3245 -2.5425  1.4006
 3984SOL    HW223415   3.884   4.580   8.278  1.5921  1.7725  0.3842
 3985SOL     OW23416   1.965   2.017   3.776 -0.2810  0.3297  0.7596
 3985SOL    HW123417   1.980   2.043   3.867 -3.0564 -1.2621  1.6415
 3985SOL    HW223418   2.043   2.059   3.737  0.7288  0.0835  2.5105
 3986SOL     OW23419   0.615   2.457  11.131  0.6806  0.6007 -0.2345
 3986SOL    HW123420   0.557   2.497  11.195  3.0387  0.3241  2.0642
 3986SOL    HW223421   0.545   2.439  11.068 -0.7459  1.2083  1.1705
 3987SOL     OW23422   2.602   4.152   6.030 -0.0131  0.0926 -0.4640
 3987SOL    HW123423   2.629   4.189   5.946  1.9758 -0.1497  0.0636
 3987SOL    HW223424   2.686   4.165   6.075 -0.0530  0.4770 -0.5016
 3988SOL     OW23425   3.803   2.419   8.020 -0.3336 -0.2420 -0.4901
 3988SOL    HW123426   3.848   2.436   8.103 -1.8823 -0.8097  0.4729
 3988SOL    HW223427   3.868   2.360   7.982 -1.9784 -0.5640 -2.7859
 3989SOL     OW23428   2.239   4.433  16.570 -0.7007 -0.1357 -0.5475
 3989SOL    HW123429   2.296   4.506  16.544 -1.8591  0.8381 -0.3716
 3989SOL    HW223430   2.172   4.480  16.618 -0.3311 -0.6438  0.4579
 3990SOL     OW23431   0.893   1.747   7.475  0.4400 -0.5756 -0.3989
 3990SOL    HW123432   0.910   1.794   7.557 -0.3143  0.4341 -0.8291
 3990SOL    HW223433   0.831   1.804   7.431  0.8762  0.3619  0.1979
 3991SOL     OW23434   3.100   4.452   8.263 -0.5660 -0.3422 -0.4989
 3991SOL    HW123435   3.026   4.391   8.262 -0.3504 -0.6117 -0.2335
 3991SOL    HW223436   3.102   4.497   8.179  0.7214  0.9295  0.2159
 3992SOL     OW23437   1.241   2.615  14.073 -0.2469  0.2048  0.4185
 3992SOL    HW123438   1.297   2.580  14.143 -0.0140  0.9728  0.6177
 3992SOL    HW223439   1.313   2.620  14.010 -1.7548 -0.6000 -1.3398
 3993SOL     OW23440   2.291   3.502  10.683 -0.2256 -0.0888 -0.5217
 3993SOL    HW123441   2.299   3.596  10.698  0.0357 -0.4001  1.2086
 3993SOL    HW223442   2.202   3.494  10.649  0.3841  0.5552 -2.3295
 3994SOL     OW23443   2.988   3.823   7.023 -0.0828 -0.0288  0.2787
 3994SOL    HW123444   3.042   3.812   6.945  0.0566 -0.7331  0.4708
 3994SOL    HW223445   2.922   3.885   6.993 -0.5167 -0.7024 -0.1707
 3995SOL     OW23446   3.384   3.575   1.839 -0.2760  0.0365 -0.4524
 3995SOL    HW123447   3.389   3.532   1.754 -3.1525  0.1809 -0.6928
 3995SOL    HW223448   3.454   3.640   1.840 -0.9965  0.8020  0.7483
 3996SOL     OW23449   4.688   1.257   2.329 -0.6366 -0.3722 -0.2770
 3996SOL    HW123450   4.664   1.261   2.422 -0.4093 -0.4492 -0.2137
 3996SOL    HW223451   0.004   1.170   2.323 -0.0670 -0.1551  0.4100
 3997SOL     OW23452   1.089   1.121   8.304  0.9551 -0.5385 -0.3489
 3997SOL    HW123453   1.160   1.183   8.317  2.2896 -1.6439 -2.2352
 3997SOL    HW223454   1.037   1.147   8.227  2.6035  0.6297 -1.0496
 3998SOL     OW23455   4.138   3.879   0.785 -0.1925  0.0700 -0.1674
 3998SOL    HW123456   4.142   3.785   0.764  3.1372  0.3571 -0.7962
 3998SOL    HW223457   4.048   3.882   0.817  0.0294  1.1628  0.3752
 3999SOL     OW23458   3.449   2.041   3.119  0.2193  0.0584  0.3337
 3999SOL    HW123459   3.489   2.085   3.044  0.0789 -0.5614 -0.1023
 3999SOL    HW223460   3.375   2.099   3.136  0.5688  0.2392  1.2222
 4000SOL     OW23461   3.262   2.398  13.641  0.3762 -0.0912  0.1739
 4000SOL    HW123462   3.258   2.421  13.548 -1.3976 -0.3230  0.1865
 4000SOL    HW223463   3.312   2.317  13.633  1.2806  0.5986 -1.1109
 4001SOL     OW23464   2.916   0.313  10.031  0.1795  0.5481  0.5535
 4001SOL    HW123465   2.895   0.227   9.994 -0.9647  1.7377 -1.5608
 4001SOL    HW223466   2.895   0.292  10.122  2.4234 -1.2273  0.6750
 4002SOL     OW23467   2.450   0.041   6.996 -0.5051  0.0499  0.2497
 4002SOL    HW123468   2.402   0.112   7.039 -2.6158 -0.6043 -1.0246
 4002SOL    HW223469   2.383   4.717   6.947  0.7108  1.6787 -2.9735
 4003SOL     OW23470   2.022   0.434   9.453 -0.1300 -0.0534  0.4890
 4003SOL    HW123471   2.071   0.486   9.389  1.0128  0.3673  1.6891
 4003SOL    HW223472   2.098   0.406   9.504  1.3451  2.2818 -0.4461
 4004SOL     OW23473   1.447   4.231   8.214  0.7717 -0.1660 -0.0249
 4004SOL    HW123474   1.510   4.159   8.216  0.3866 -0.5054 -0.0211
 4004SOL    HW223475   1.512   4.301   8.220  1.7501 -0.9589 -1.1542
 4005SOL     OW23476   2.980   2.202  13.165 -0.1585  0.6079 -0.0448
 4005SOL    HW123477   2.928   2.224  13.088  1.9251  1.7522 -1.1137
 4005SOL    HW223478   2.942   2.115  13.178 -0.5778  1.0064  1.4444
 4006SOL     OW23479   1.201   3.786   4.610 -0.5232  0.8283 -1.0384
 4006SOL    HW123480   1.270   3.847   4.637  0.0956  0.3227 -1.4648
 4006SOL    HW223481   1.223   3.787   4.517 -0.0728 -0.2267 -0.9415
 4007SOL     OW23482   1.347   3.148  14.185  0.1980 -0.4278  0.3473
 4007SOL    HW123483   1.320   3.190  14.104 -0.5598 -0.2780  0.6745
 4007SOL    HW223484   1.276   3.085  14.196 -0.5646  0.2713 -0.6441
 4008SOL     OW23485   4.355   1.551   6.651 -0.2750 -0.1874 -0.6910
 4008SOL    HW123486   4.328   1.564   6.742 -1.5601 -1.5010 -0.8741
 4008SOL    HW223487   4.276   1.583   6.607  0.1794  0.0438 -1.3418
 4009SOL     OW23488   1.924   0.919   4.662  0.4196  0.4578  0.7563
 4009SOL    HW123489   1.909   0.892   4.571  2.0224  3.0581 -0.2906
 4009SOL    HW223490   2.012   0.957   4.658  1.3247 -1.6085  0.7768
 4010SOL     OW23491   1.567   4.107   7.838  0.1346  0.2436 -0.0460
 4010SOL    HW123492   1.656   4.074   7.832 -0.1406 -0.8243  1.7963
 4010SOL    HW223493   1.577   4.202   7.837 -0.1794  0.2776  0.0451
 4011SOL     OW23494   0.890   3.362   5.265 -0.1881 -0.0068 -0.3476
 4011SOL    HW123495   0.891   3.266   5.268 -0.7718 -0.0624 -2.0154
 4011SOL    HW223496   0.983   3.383   5.266 -0.4278  1.0159  1.7083
 4012SOL     OW23497   0.042   3.374  10.871 -0.3983  0.8821  0.7927
 4012SOL    HW123498   0.072   3.413  10.953 -0.7054  0.2305  1.2084
 4012SOL    HW223499   0.080   3.432  10.805 -0.6154  1.2118  0.9549
 4013SOL     OW23500   2.425   2.853   9.124 -0.5578  0.4322  0.0185
 4013SOL    HW123501   2.515   2.855   9.092 -0.7617 -1.5912 -0.6324
 4013SOL    HW223502   2.391   2.778   9.077 -0.2983 -1.0435  2.1654
 4014SOL     OW23503   3.898   0.260   6.461 -0.0195  0.1863 -0.1072
 4014SOL    HW123504   3.930   0.170   6.466  1.5978  0.7783  0.3515
 4014SOL    HW223505   3.809   0.241   6.431  1.2788 -4.2133 -1.1516
 4015SOL     OW23506   2.258   4.297   5.912  0.1494  0.1329 -0.7492
 4015SOL    HW123507   2.203   4.222   5.890  0.6332 -0.1643 -0.9430
 4015SOL    HW223508   2.268   4.343   5.829  2.1319  1.7052  0.3672
 4016SOL     OW23509   0.032   1.238  13.169  0.1831 -0.8824  0.0975
 4016SOL    HW123510   0.067   1.149  13.158  0.1923 -0.8313 -0.3106
 4016SOL    HW223511   0.028   1.269  13.078 -0.2618  0.1843  0.4882
 4017SOL     OW23512   4.562   0.408   7.972 -0.2678  0.1277 -0.2772
 4017SOL    HW123513   4.523   0.322   7.987 -1.3044  0.4090 -1.3918
 4017SOL    HW223514   4.547   0.423   7.878 -0.9059 -1.7990 -0.4860
 4018SOL     OW23515   1.970   3.849  11.076  0.1248  0.2066  0.2513
 4018SOL    HW123516   1.926   3.885  10.999  2.5888 -0.3030 -1.4093
 4018SOL    HW223517   2.010   3.927  11.113  0.2343 -0.4824  1.5748
 4019SOL     OW23518   4.645   2.467   1.228  0.1593 -0.4047 -0.4512
 4019SOL    HW123519   4.709   2.426   1.287 -0.5162 -1.8172 -0.6924
 4019SOL    HW223520   4.614   2.387   1.186 -0.0149  0.6953 -2.4107
 4020SOL     OW23521   2.518   0.229   1.106  0.5545 -0.2872 -0.0386
 4020SOL    HW123522   2.475   0.206   1.189  0.2578 -2.0148 -0.6796
 4020SOL    HW223523   2.507   0.324   1.096 -2.3157 -0.6551 -0.3405
 4021SOL     OW23524   2.031   0.726  11.459 -0.3373  0.5865  0.5617
 4021SOL    HW123525   2.067   0.813  11.477  1.8213 -0.6025  2.0087
 4021SOL    HW223526   1.948   0.757  11.423 -0.3333  1.5903  1.4070
 4022SOL     OW23527   2.270   1.374  12.918 -0.1198  0.2471  0.2724
 4022SOL    HW123528   2.278   1.394  12.824 -0.1311 -2.8435 -0.3716
 4022SOL    HW223529   2.287   1.458  12.962  2.1118  0.9553 -1.8974
 4023SOL     OW23530   3.463   3.214   3.265 -0.1531 -0.2210 -0.3798
 4023SOL    HW123531   3.387   3.218   3.207 -0.3855  0.0767 -0.0582
 4023SOL    HW223532   3.473   3.121   3.287  0.9916  0.0960  0.4233
 4024SOL     OW23533   2.265   1.149   4.541  0.2680  0.7482 -0.2245
 4024SOL    HW123534   2.250   1.055   4.531  1.2744  0.4546  1.0264
 4024SOL    HW223535   2.247   1.171   4.450 -0.9277 -0.1357 -0.2089
 4025SOL     OW23536   4.105   3.274   5.808  0.4105 -0.8391 -0.8912
 4025SOL    HW123537   4.175   3.329   5.843 -1.5977 -0.1233  2.0382
 4025SOL    HW223538   4.033   3.323   5.847 -0.3571 -1.0653 -2.0264
 4026SOL     OW23539   0.160   4.678   3.154 -0.6664 -0.6433 -0.7514
 4026SOL    HW123540   0.151   0.041   3.115  1.1395 -0.5855 -1.0605
 4026SOL    HW223541   0.248   4.645   3.134 -0.5109 -0.7719  0.1146
 4027SOL     OW23542   2.075   0.515   8.483  0.7152  0.0619  0.6126
 4027SOL    HW123543   1.995   0.506   8.535 -0.4339 -2.3196 -1.6010
 4027SOL    HW223544   2.049   0.586   8.424 -1.2200  0.7164  2.2395
 4028SOL     OW23545   3.235   4.426   1.883  0.5294  0.5589  0.2623
 4028SOL    HW123546   3.258   4.493   1.819  0.1931 -0.7497 -1.2049
 4028SOL    HW223547   3.148   4.446   1.917 -0.0423  0.6050 -1.2680
 4029SOL     OW23548   1.604   0.106   5.989  0.0654  0.2778 -0.1471
 4029SOL    HW123549   1.528   0.058   6.022 -1.9757  2.8015 -1.1583
 4029SOL    HW223550   1.612   0.174   6.056  1.0145 -0.0119  0.0226
 4030SOL     OW23551   2.298   3.733   8.744  1.0877 -0.3652  0.2836
 4030SOL    HW123552   2.245   3.688   8.678 -0.2256 -0.3886  1.3605
 4030SOL    HW223553   2.362   3.666   8.766 -0.7471 -1.8798  1.0113
 4031SOL     OW23554   0.164   1.651   9.373  0.1857  0.2752  0.3447
 4031SOL    HW123555   0.103   1.588   9.411 -0.1904 -0.0696 -0.8500
 4031SOL    HW223556   0.245   1.614   9.408 -1.6868 -2.4283  1.8535
 4032SOL     OW23557   0.897   2.687   7.613 -0.0340 -0.0765  0.4016
 4032SOL    HW123558   0.962   2.749   7.646 -0.5969  0.0436  1.3010
 4032SOL    HW223559   0.905   2.698   7.518 -0.8551 -0.8049  0.2448
 4033SOL     OW23560   0.459   0.308   9.986  0.1900 -0.0168  0.1323
 4033SOL    HW123561   0.374   0.349  10.001  1.3311  1.2639  3.1675
 4033SOL    HW223562   0.487   0.298  10.077 -0.1749  1.1140  0.3675
 4034SOL     OW23563   3.574   4.524   5.791  0.4842 -0.5322 -0.4366
 4034SOL    HW123564   3.643   4.519   5.857  0.4213  1.2225 -0.2478
 4034SOL    HW223565   3.498   4.482   5.832  0.1711  1.4468  0.9950
 4035SOL     OW23566   2.098   4.199   8.740  1.1880  0.1855  0.4259
 4035SOL    HW123567   2.013   4.177   8.778 -0.0746  2.8766 -0.8578
 4035SOL    HW223568   2.064   4.221   8.654  0.7315  0.8291  0.7709
 4036SOL     OW23569   3.308   0.011   7.322 -0.1994 -0.6777 -0.0167
 4036SOL    HW123570   3.323   0.085   7.264  2.6213 -1.2709 -0.0340
 4036SOL    HW223571   3.321   0.049   7.409  2.7717 -1.6535 -0.0460
 4037SOL     OW23572   0.967   1.666  16.442  0.5121 -0.2152 -0.6746
 4037SOL    HW123573   0.988   1.615  16.364 -1.6848 -2.5697  0.2666
 4037SOL    HW223574   0.918   1.601  16.492 -0.4743  0.4494 -0.7626
 4038SOL     OW23575   1.021   0.654   6.117  0.2022 -0.3640 -0.2949
 4038SOL    HW123576   1.091   0.655   6.182  0.1967 -1.9423 -0.2592
 4038SOL    HW223577   1.084   0.663   6.045 -0.7015  1.4713 -0.8486
 4039SOL     OW23578   1.025   2.013   5.645  0.7958 -0.3814  0.4999
 4039SOL    HW123579   0.961   1.950   5.611  0.9967 -0.1169 -0.3592
 4039SOL    HW223580   0.988   2.053   5.724 -1.8761 -2.2723  0.2170
 4040SOL     OW23581   3.454   1.431  17.225  0.6114 -0.3600  0.2480
 4040SOL    HW123582   3.473   1.353  17.276  4.3249  0.6411  0.4087
 4040SOL    HW223583   3.359   1.419  17.225  0.5912 -0.1957  0.4538
 4041SOL     OW23584   3.698   4.138   3.656 -0.7877  0.0306 -0.3298
 4041SOL    HW123585   3.671   4.202   3.721  0.0691 -0.4237  0.4730
 4041SOL    HW223586   3.738   4.075   3.716  0.1807  0.2466 -0.7489
 4042SOL     OW23587   1.587   2.110  12.201  0.7725  0.0584  0.0934
 4042SOL    HW123588   1.530   2.101  12.124 -1.0587  1.7153  1.2293
 4042SOL    HW223589   1.626   2.197  12.195  0.0038  0.1972 -3.0690
 4043SOL     OW23590   0.537   4.609  16.817  0.0007 -0.0584  0.1438
 4043SOL    HW123591   0.528   4.621  16.723  0.2666  0.0082  0.1260
 4043SOL    HW223592   0.581   4.692  16.835  0.9751 -0.1809 -1.7221
 4044SOL     OW23593   1.691   4.210   6.919 -0.7463  0.1408 -0.5174
 4044SOL    HW123594   1.654   4.185   7.003  0.3031 -2.8265 -0.9210
 4044SOL    HW223595   1.620   4.189   6.858 -1.1673  1.6483 -0.5622
 4045SOL     OW23596   1.989   4.525   6.341 -0.3464  0.2207 -0.3679
 4045SOL    HW123597   1.951   4.442   6.368  1.2861  0.1296  1.6319
 4045SOL    HW223598   2.064   4.495   6.290  0.6785  0.0443  1.2479
 4046SOL     OW23599   4.382   2.974   7.477  0.0400 -0.6111  0.1100
 4046SOL    HW123600   4.293   2.966   7.443 -0.3542  1.7753  0.6062
 4046SOL    HW223601   4.438   2.935   7.410 -1.6296 -0.9129 -1.1191
 4047SOL     OW23602   0.937   1.690   8.371  0.1938 -0.3231 -0.1156
 4047SOL    HW123603   0.859   1.745   8.383  1.0904  0.5527  1.7233
 4047SOL    HW223604   0.894   1.607   8.352  2.1801 -1.5575  0.7721
 4048SOL     OW23605   1.252   1.427   4.160 -0.0511 -0.1514  0.1534
 4048SOL    HW123606   1.291   1.401   4.243 -2.5222  0.0505  1.3967
 4048SOL    HW223607   1.312   1.372   4.109 -0.4536 -1.5341  1.1688
 4049SOL     OW23608   4.337   1.592   2.723 -0.0224 -0.0676  0.8083
 4049SOL    HW123609   4.415   1.542   2.699 -0.8938 -0.6285 -0.8705
 4049SOL    HW223610   4.284   1.536   2.667 -1.4752  1.7318  0.3757
 4050SOL     OW23611   3.210   4.257  17.332 -0.2973  0.3971 -0.9985
 4050SOL    HW123612   3.200   4.260  17.236 -0.1123  1.3706 -0.9850
 4050SOL    HW223613   3.223   4.348  17.359 -0.6537 -0.5193  2.1805
 4051SOL     OW23614   1.675   2.524   7.841 -0.6418 -0.1347 -0.1691
 4051SOL    HW123615   1.586   2.533   7.808 -1.3438  2.4882  2.3984
 4051SOL    HW223616   1.702   2.615   7.858  1.3839 -0.6552 -0.6276
 4052SOL     OW23617   3.984   3.536   8.371 -0.1072 -0.2141 -0.3328
 4052SOL    HW123618   3.900   3.523   8.416 -0.4186  0.0982 -0.8313
 4052SOL    HW223619   4.003   3.623   8.406  0.0246 -0.0965 -0.6911
 4053SOL     OW23620   3.712   3.871   5.971 -0.8221 -0.5700  0.0381
 4053SOL    HW123621   3.728   3.886   5.878 -0.1441  0.3544  0.3088
 4053SOL    HW223622   3.727   3.776   5.969 -0.8737 -0.6277  2.0426
 4054SOL     OW23623   3.707   3.998   2.429  0.4351 -0.1723  0.2426
 4054SOL    HW123624   3.778   4.055   2.401 -0.6207 -0.1714 -2.4247
 4054SOL    HW223625   3.650   3.993   2.353  2.3083 -0.2701 -1.1459
 4055SOL     OW23626   0.877   1.731   1.432 -0.0689 -1.0367  0.3720
 4055SOL    HW123627   0.814   1.694   1.369 -0.4390 -1.6238  1.0887
 4055SOL    HW223628   0.853   1.824   1.431  1.4197 -0.6238  2.2887
 4056SOL     OW23629   2.821   4.528   4.582  0.2430 -0.4306 -0.0582
 4056SOL    HW123630   2.912   4.557   4.593  0.2170 -0.0215 -0.9670
 4056SOL    HW223631   2.777   4.584   4.519 -2.0414 -0.7100  1.3125
 4057SOL     OW23632   3.189   1.719   3.676  0.1035  0.1208  0.3879
 4057SOL    HW123633   3.279   1.717   3.643 -0.4910  2.9673 -1.4126
 4057SOL    HW223634   3.143   1.705   3.593  0.8412 -1.2429  0.2159
 4058SOL     OW23635   3.781   3.207   8.935 -0.2626 -0.4519 -0.2909
 4058SOL    HW123636   3.869   3.189   8.902 -0.5068  0.4192 -1.4354
 4058SOL    HW223637   3.750   3.270   8.870  2.3145  1.1856  0.0634
 4059SOL     OW23638   0.737   1.909   1.013  0.3816  0.1913  0.2783
 4059SOL    HW123639   0.826   1.879   0.999  0.4876  0.7408 -0.2331
 4059SOL    HW223640   0.695   1.852   1.077  1.3288 -1.0292 -0.1887
 4060SOL     OW23641   3.157   4.550   7.997 -0.0721 -0.1175 -0.4631
 4060SOL    HW123642   3.174   4.576   7.907  1.2558 -0.8987 -0.4435
 4060SOL    HW223643   3.164   4.636   8.038  2.7605  0.5081 -2.2550
 4061SOL     OW23644   2.492   2.695   3.795 -0.1614 -0.2210 -0.3398
 4061SOL    HW123645   2.565   2.683   3.856 -1.1461 -3.4295  0.1788
 4061SOL    HW223646   2.505   2.789   3.781  2.5870 -0.8179 -1.7175
 4062SOL     OW23647   2.614   2.931   0.519 -0.1108 -0.0274 -0.6154
 4062SOL    HW123648   2.647   3.014   0.482  0.5754  0.2442  0.6043
 4062SOL    HW223649   2.685   2.916   0.581 -1.7371  0.2036  1.2892
 4063SOL     OW23650   1.199   2.780   4.487  0.6179  0.1628 -0.3630
 4063SOL    HW123651   1.190   2.686   4.504 -0.9744  0.0054 -2.1005
 4063SOL    HW223652   1.107   2.805   4.496  0.6263 -0.3715  1.1714
 4064SOL     OW23653   0.650   3.972   9.667  0.6019  0.0372 -0.4154
 4064SOL    HW123654   0.592   4.043   9.693  0.4225 -0.2910  0.0836
 4064SOL    HW223655   0.638   3.916   9.743  3.2300 -0.2711 -0.2155
 4065SOL     OW23656   3.002   2.957   4.189 -0.6307  0.2838  0.0789
 4065SOL    HW123657   2.962   2.943   4.275 -2.6684 -0.9695 -1.0819
 4065SOL    HW223658   2.924   2.993   4.147  0.6037  2.2753 -0.4972
 4066SOL     OW23659   1.003   2.468   2.188 -0.2638 -0.6736 -0.3476
 4066SOL    HW123660   1.001   2.403   2.118 -2.5838 -1.5366  0.5269
 4066SOL    HW223661   1.080   2.450   2.243 -1.7842 -1.7018  1.4273
 4067SOL     OW23662   1.397   1.576   3.700  0.2910  0.0177 -0.2479
 4067SOL    HW123663   1.455   1.554   3.773  1.9801 -1.2100 -1.9770
 4067SOL    HW223664   1.311   1.576   3.743 -0.0475 -0.3121 -0.9297
 4068SOL     OW23665   4.625   0.589   2.799  0.0447 -0.1238  0.2971
 4068SOL    HW123666   4.540   0.610   2.838  0.1633  1.7371 -0.4543
 4068SOL    HW223667   4.599   0.552   2.715  2.1822 -1.2497  0.1378
 4069SOL     OW23668   0.361   3.656   3.952  0.3083  0.3780  0.3620
 4069SOL    HW123669   0.434   3.712   3.977  1.4591 -0.8736 -0.1757
 4069SOL    HW223670   0.328   3.640   4.040  0.8082 -0.0368  0.4737
 4070SOL     OW23671   0.190   3.421  12.124 -0.3409 -0.3592 -0.5043
 4070SOL    HW123672   0.210   3.443  12.215  0.4791  2.2025 -1.3062
 4070SOL    HW223673   0.250   3.348  12.107 -0.7024 -1.0372  1.1198
 4071SOL     OW23674   1.719   0.228  11.519  0.1878  0.4877 -0.1645
 4071SOL    HW123675   1.732   0.182  11.437  0.8186  2.4640 -1.1766
 4071SOL    HW223676   1.643   0.283  11.503 -0.0436  0.0633 -0.5187
 4072SOL     OW23677   1.878   0.097   5.948  0.4183 -0.1850 -0.2294
 4072SOL    HW123678   1.786   0.111   5.971  0.0841 -1.7623 -0.5478
 4072SOL    HW223679   1.909   0.111   6.037 -2.0355  0.8444  0.4804
 4073SOL     OW23680   3.332   1.148  16.971  0.1115  0.5745  0.2509
 4073SOL    HW123681   3.255   1.175  16.921 -0.2113 -1.1684 -0.1811
 4073SOL    HW223682   3.298   1.091  17.040 -1.2345 -0.3695 -1.1880
 4074SOL     OW23683   0.427   3.235   7.695  0.5555 -0.0495 -0.1393
 4074SOL    HW123684   0.364   3.263   7.762  0.9295  1.2827 -0.3328
 4074SOL    HW223685   0.463   3.318   7.664  1.3916 -0.2916  0.1906
 4075SOL     OW23686   3.840   1.148  13.847  0.0879 -0.1583 -0.2642
 4075SOL    HW123687   3.872   1.092  13.776  0.3996 -0.9708  0.5220
 4075SOL    HW223688   3.774   1.206  13.808  0.8942  0.5412 -0.6088
 4076SOL     OW23689   2.925   1.960  14.893 -0.9063  0.0445  0.0928
 4076SOL    HW123690   2.966   2.033  14.847  0.5957  1.0031  2.9612
 4076SOL    HW223691   2.875   1.908  14.830  0.5949 -0.8878 -0.3277
 4077SOL     OW23692   4.241   1.568   4.765  0.5516  0.5679  0.2571
 4077SOL    HW123693   4.313   1.509   4.786 -0.0775  0.0956  1.0729
 4077SOL    HW223694   4.241   1.561   4.669 -2.2171 -1.0982  0.3656
 4078SOL     OW23695   2.986   4.556   1.239  0.4890 -0.0534 -0.1170
 4078SOL    HW123696   2.931   4.602   1.302  2.0349 -1.6104  2.3537
 4078SOL    HW223697   2.942   4.588   1.160 -0.6083 -1.2186  0.0143
 4079SOL     OW23698   4.500   2.275   8.648  0.1018  0.0958 -0.1575
 4079SOL    HW123699   4.411   2.279   8.611 -0.4854 -1.8783  1.0300
 4079SOL    HW223700   4.526   2.185   8.628 -3.3587 -0.8257 -0.5862
 4080SOL     OW23701   4.573   3.187   3.477  0.8941 -0.4121  0.2258
 4080SOL    HW123702   4.588   3.103   3.522 -0.6580 -0.7423  0.1433
 4080SOL    HW223703   4.576   3.245   3.553  2.0126  0.2440 -0.3205
 4081SOL     OW23704   0.676   2.989   2.647  0.8121  0.3335 -0.7608
 4081SOL    HW123705   0.674   3.060   2.584  0.5722  1.9636  1.0735
 4081SOL    HW223706   0.764   2.956   2.628 -0.1475 -2.5498 -0.1503
 4082SOL     OW23707   3.153   1.084   6.382  0.2899 -0.1754  0.5370
 4082SOL    HW123708   3.180   1.133   6.459 -1.7416 -0.9975  1.7397
 4082SOL    HW223709   3.073   1.135   6.371  0.3291 -0.6417 -1.9818
 4083SOL     OW23710   1.867   2.115   0.782 -0.5931  0.4969 -0.0487
 4083SOL    HW123711   1.958   2.117   0.813 -0.9833 -1.4577  1.1508
 4083SOL    HW223712   1.857   2.201   0.741 -3.4946 -0.1512 -0.6438
 4084SOL     OW23713   1.193   1.231   2.202 -0.6257  0.7240  0.7133
 4084SOL    HW123714   1.169   1.158   2.145 -0.6307  1.3969 -0.1451
 4084SOL    HW223715   1.210   1.310   2.151 -0.4217  0.1781 -0.0652
 4085SOL     OW23716   4.337   3.758  14.693  0.4478  0.2671  0.2531
 4085SOL    HW123717   4.326   3.664  14.682  1.3478 -0.3531  4.5354
 4085SOL    HW223718   4.307   3.789  14.607  0.1665 -2.6843 -0.7159
 4086SOL     OW23719   0.738   1.221   1.749  0.0630 -0.3797  0.0303
 4086SOL    HW123720   0.677   1.171   1.695 -1.1928  2.8272 -1.5526
 4086SOL    HW223721   0.819   1.174   1.729 -0.0350 -0.4304 -0.2380
 4087SOL     OW23722   0.521   0.213   2.760  0.1747  0.5221 -0.0850
 4087SOL    HW123723   0.516   0.224   2.665 -2.9442  0.3446  0.0536
 4087SOL    HW223724   0.606   0.171   2.778  0.1693  0.3454 -0.4875
 4088SOL     OW23725   0.628   2.642   2.886  1.0203 -0.0896  0.1718
 4088SOL    HW123726   0.595   2.574   2.946 -1.7098  2.1599  1.2359
 4088SOL    HW223727   0.639   2.599   2.802  0.9261 -0.8383  0.5428
 4089SOL     OW23728   0.028   3.207   7.060 -0.2210  0.1749 -0.2487
 4089SOL    HW123729   4.718   3.124   7.025 -0.5386 -0.1474  0.8131
 4089SOL    HW223730   4.683   3.222   7.125  0.4030 -0.0987  0.4771
 4090SOL     OW23731   4.196   1.916  14.271  0.1778 -0.6179  0.0713
 4090SOL    HW123732   4.271   1.901  14.212  1.6386 -0.4726  1.8874
 4090SOL    HW223733   4.162   1.993  14.226 -0.3506 -1.0544 -0.2783
 4091SOL     OW23734   2.415   0.566  12.025 -0.2186  0.1453 -0.0429
 4091SOL    HW123735   2.324   0.597  12.028 -0.9481 -2.0692  0.9136
 4091SOL    HW223736   2.433   0.540  12.116 -2.6753 -0.3315  0.3104
 4092SOL     OW23737   0.326   1.873   7.811 -0.0572 -0.3895  0.1549
 4092SOL    HW123738   0.420   1.887   7.803 -0.1934 -0.3062 -1.4872
 4092SOL    HW223739   0.297   1.900   7.723  2.1680 -2.8861 -1.3522
 4093SOL     OW23740   0.301   2.441   9.225  0.0853 -0.1498 -0.3672
 4093SOL    HW123741   0.287   2.359   9.272 -0.6999  1.2537  1.8853
 4093SOL    HW223742   0.209   2.462   9.208  0.4198 -0.3760 -2.4636
 4094SOL     OW23743   1.889   4.527   2.676  0.2755 -0.5281  0.4837
 4094SOL    HW123744   1.848   4.575   2.749  2.3154  1.8969  0.0636
 4094SOL    HW223745   1.819   4.532   2.611 -0.9703  0.8128  1.9260
 4095SOL     OW23746   2.928   1.483   4.676 -0.7129  0.1876 -0.4351
 4095SOL    HW123747   2.950   1.528   4.594 -0.9414 -0.7668 -1.0149
 4095SOL    HW223748   3.014   1.452   4.703 -0.5703 -0.1386 -1.2646
 4096SOL     OW23749   0.872   3.508   8.255  0.7007 -0.4894  0.5028
 4096SOL    HW123750   0.788   3.474   8.286  0.4141  0.9571  1.3230
 4096SOL    HW223751   0.888   3.456   8.177  0.7311  1.5599 -0.8640
 4097SOL     OW23752   1.695   0.859   7.045 -0.0055  0.3203 -0.1583
 4097SOL    HW123753   1.744   0.915   7.105  1.4664  0.2695 -1.3078
 4097SOL    HW223754   1.609   0.884   7.078  0.1926  0.2266  0.4187
 4098SOL     OW23755   0.756   4.495   8.659  0.0175 -0.0118 -0.6223
 4098SOL    HW123756   0.790   4.417   8.614  0.5680 -0.9919  1.5272
 4098SOL    HW223757   0.697   4.462   8.726  0.7434  0.7196  0.3840
 4099SOL     OW23758   4.065   2.717   4.706 -0.3277  0.4059 -0.6730
 4099SOL    HW123759   4.045   2.791   4.762  1.9203  0.8977 -0.5091
 4099SOL    HW223760   4.150   2.684   4.734  0.2542  0.7463 -2.0446
 4100SOL     OW23761   4.177   0.507   8.526 -1.4724 -0.2743  0.3519
 4100SOL    HW123762   4.110   0.508   8.458  0.3957 -0.3719 -1.4763
 4100SOL    HW223763   4.129   0.507   8.609 -0.4340 -2.0258  0.9582
 4101SOL     OW23764   3.625   1.801   0.784  0.2779 -0.0650 -0.3216
 4101SOL    HW123765   3.720   1.816   0.788  0.0236  1.5494 -0.6294
 4101SOL    HW223766   3.618   1.744   0.707  1.9818  0.8790 -1.1723
 4102SOL     OW23767   4.470   0.676   6.314  0.2133  0.3339  0.0885
 4102SOL    HW123768   4.396   0.717   6.269  0.0573 -0.7518 -0.6397
 4102SOL    HW223769   4.432   0.591   6.335 -0.5315  0.5568 -0.3718
 4103SOL     OW23770   3.248   3.220   8.543 -0.4483 -0.0187 -0.5259
 4103SOL    HW123771   3.208   3.140   8.509 -2.5854  0.3310  1.1135
 4103SOL    HW223772   3.289   3.190   8.624 -1.7947  2.0788  0.9638
 4104SOL     OW23773   2.799   1.025   8.110  0.0232  0.3111 -0.1434
 4104SOL    HW123774   2.889   1.048   8.131  0.2743  0.1872 -1.0743
 4104SOL    HW223775   2.816   0.977   8.029  1.0549 -0.8956  0.7926
 4105SOL     OW23776   1.842   4.303   7.315  0.2914 -1.2908 -0.0239
 4105SOL    HW123777   1.913   4.368   7.313  0.5365 -1.5611  0.0164
 4105SOL    HW223778   1.855   4.253   7.395  0.1465 -0.8306  0.2885
 4106SOL     OW23779   0.755   2.321   8.081  0.1822 -0.9008  1.1230
 4106SOL    HW123780   0.689   2.386   8.059 -1.0186 -1.5725  2.7178
 4106SOL    HW223781   0.735   2.254   8.016  0.8258 -1.4780  1.5111
 4107SOL     OW23782   2.309   3.752  16.274 -0.3871  0.3946 -0.1270
 4107SOL    HW123783   2.358   3.680  16.236  0.2205  1.3279 -1.1242
 4107SOL    HW223784   2.219   3.719  16.280  0.1570 -1.2472 -1.0977
 4108SOL     OW23785   1.839   0.586   8.576 -0.5187  0.2172  0.1392
 4108SOL    HW123786   1.770   0.601   8.640  0.9571  1.3369  1.4394
 4108SOL    HW223787   1.850   0.677   8.548 -1.9779  0.8927  1.7733
 4109SOL     OW23788   0.428   1.183  10.333  0.1571 -0.2844  0.3001
 4109SOL    HW123789   0.421   1.106  10.276  3.0007  0.0573 -0.4741
 4109SOL    HW223790   0.488   1.243  10.290 -2.1274  1.7201 -0.1327
 4110SOL     OW23791   4.103   0.198   5.126 -0.2103  0.0666  0.1297
 4110SOL    HW123792   4.127   0.196   5.219 -0.6319 -1.6333  0.2046
 4110SOL    HW223793   4.049   0.119   5.118 -0.4450  0.2861 -0.4589
 4111SOL     OW23794   1.288   3.561   7.327  0.4249  0.2619 -0.4069
 4111SOL    HW123795   1.238   3.534   7.404  1.5338 -1.8230 -0.4170
 4111SOL    HW223796   1.355   3.493   7.330  3.1502  2.9400  0.0658
 4112SOL     OW23797   0.944   4.556   0.468  0.3258 -0.2447 -0.0708
 4112SOL    HW123798   0.932   4.569   0.374 -0.8095 -2.5983 -0.2656
 4112SOL    HW223799   0.978   4.466   0.473  0.2981 -0.5137 -4.3159
 4113SOL     OW23800   2.887   0.563   1.959 -0.4020  0.3613  0.6282
 4113SOL    HW123801   2.848   0.646   1.930 -1.0938 -0.5109 -0.9383
 4113SOL    HW223802   2.982   0.577   1.966 -0.3367  0.5587 -0.6050
 4114SOL     OW23803   0.227   4.470   4.668 -0.5688  0.8974  0.2608
 4114SOL    HW123804   0.175   4.428   4.736  0.0197 -0.9561 -0.4509
 4114SOL    HW223805   0.201   4.427   4.587  1.2013  1.1528 -0.4299
 4115SOL     OW23806   4.070   2.996  12.297  0.0035 -0.1847  0.1279
 4115SOL    HW123807   3.980   2.963  12.290 -1.5573  3.8488  1.4915
 4115SOL    HW223808   4.044   3.056  12.367 -0.7171 -0.9271  0.4903
 4116SOL     OW23809   0.992   3.240   3.637  0.6193 -0.4322  0.1489
 4116SOL    HW123810   1.066   3.232   3.577 -0.6783  0.2750 -1.5448
 4116SOL    HW223811   0.994   3.159   3.687 -0.7928  0.0243  0.9386
 4117SOL     OW23812   3.737   2.187   7.755 -0.2898 -0.2049  0.0198
 4117SOL    HW123813   3.824   2.225   7.765 -0.5142  0.0533  0.9815
 4117SOL    HW223814   3.690   2.270   7.757 -2.6324 -1.4758 -1.7160
 4118SOL     OW23815   2.038   1.942   8.397  0.0742  0.4697 -0.3344
 4118SOL    HW123816   1.958   1.911   8.441  1.0092 -1.1921  0.1624
 4118SOL    HW223817   2.112   1.915   8.452 -1.0540 -0.8526  0.5344
 4119SOL     OW23818   2.703   4.676   9.461  0.0142 -0.3039  0.3294
 4119SOL    HW123819   2.615   4.655   9.492 -0.1623 -0.6816 -0.4131
 4119SOL    HW223820   2.747   4.688   9.545 -0.0049  1.4910  0.0880
 4120SOL     OW23821   1.171   2.413   8.698 -0.4091  0.0145 -0.1613
 4120SOL    HW123822   1.205   2.497   8.666 -0.9072  0.7840  1.3530
 4120SOL    HW223823   1.129   2.369   8.624  0.1097 -2.6467  1.1522
 4121SOL     OW23824   0.031   2.615   8.568  0.0774  0.5438  0.0849
 4121SOL    HW123825   4.707   2.541   8.531 -0.6232  0.5060  1.0609
 4121SOL    HW223826   0.001   2.678   8.504  0.3805 -1.4132 -1.9846
 4122SOL     OW23827   2.600   2.137   4.487  0.1942  0.1810 -0.4862
 4122SOL    HW123828   2.512   2.112   4.515  0.8340 -1.4301  0.0718
 4122SOL    HW223829   2.569   2.199   4.421  0.9029 -0.3187 -1.2943
 4123SOL     OW23830   0.553   3.615   5.632 -0.3151 -0.1217  0.5727
 4123SOL    HW123831   0.488   3.651   5.692 -4.0160 -2.2739 -2.1135
 4123SOL    HW223832   0.498   3.586   5.559 -0.6691 -0.8854  1.1422
 4124SOL     OW23833   1.793   3.886  14.111  1.1101  0.7208 -0.2090
 4124SOL    HW123834   1.789   3.921  14.200 -0.8825 -0.9689  0.3530
 4124SOL    HW223835   1.875   3.836  14.111  0.1497 -0.8423  1.9528
 4125SOL     OW23836   4.612   4.614   3.192 -0.3394 -0.3892  0.2114
 4125SOL    HW123837   4.627   4.582   3.281  1.2509 -1.1521 -0.3317
 4125SOL    HW223838   4.704   4.636   3.176 -1.2162  3.8083  0.8460
 4126SOL     OW23839   4.646   0.168   7.555 -0.0369 -0.1166  0.0206
 4126SOL    HW123840   4.685   0.247   7.517  0.9423  0.0062  1.3117
 4126SOL    HW223841   4.649   0.104   7.484 -1.8551  1.5057 -1.5179
 4127SOL     OW23842   2.472   1.623   2.604 -0.0354  0.5052 -0.0477
 4127SOL    HW123843   2.532   1.551   2.622 -0.4175  0.2933  0.3921
 4127SOL    HW223844   2.392   1.578   2.632  0.1002 -0.2868 -0.9504
 4128SOL     OW23845   3.864   1.727  13.629 -0.5377  0.4660 -0.0700
 4128SOL    HW123846   3.940   1.785  13.623  0.8317 -1.3582 -0.4658
 4128SOL    HW223847   3.796   1.793  13.621 -0.1517  0.9001  0.2782
 4129SOL     OW23848   1.692   1.354  15.047  0.0265 -0.4116  0.1517
 4129SOL    HW123849   1.611   1.383  15.089 -0.7941 -1.9642 -0.3800
 4129SOL    HW223850   1.706   1.433  14.994 -1.5024 -0.3718 -0.2080
 4130SOL     OW23851   3.622   3.408   3.863  0.3551  0.3106 -0.0723
 4130SOL    HW123852   3.608   3.359   3.943 -1.5645 -0.9275 -1.1857
 4130SOL    HW223853   3.707   3.369   3.841  0.0407 -0.0486 -0.6566
 4131SOL     OW23854   2.293   0.548   1.061  0.1102 -0.1463  0.0127
 4131SOL    HW123855   2.277   0.509   1.147  0.6973  0.4693  0.3999
 4131SOL    HW223856   2.388   0.535   1.066  0.1292  0.2510  0.7313
 4132SOL     OW23857   3.596   1.748   7.474 -0.7631 -0.4756 -0.3507
 4132SOL    HW123858   3.624   1.807   7.543 -0.5849 -1.0462  0.0636
 4132SOL    HW223859   3.539   1.806   7.423  1.2549  0.3562 -1.6179
 4133SOL     OW23860   2.606   3.597   8.422  0.0008 -0.5257  0.7012
 4133SOL    HW123861   2.591   3.638   8.507  0.1944  0.9247  0.0262
 4133SOL    HW223862   2.553   3.652   8.364 -1.2570 -1.0773  1.3092
 4134SOL     OW23863   3.847   3.352  13.277  0.3605 -0.1124 -0.2892
 4134SOL    HW123864   3.936   3.318  13.269  0.4595  0.0695  0.0511
 4134SOL    HW223865   3.813   3.309  13.355 -0.5043  1.3724  0.1406
 4135SOL     OW23866   3.640   1.418   9.357  0.0223 -0.2555  0.3082
 4135SOL    HW123867   3.696   1.467   9.296 -1.5371  0.7297 -0.3110
 4135SOL    HW223868   3.554   1.434   9.318 -0.2637 -1.3285  0.5026
 4136SOL     OW23869   4.686   0.445   7.148  0.0379 -0.0052 -0.5340
 4136SOL    HW123870   0.026   0.485   7.207  0.2305 -0.1480 -0.6434
 4136SOL    HW223871   4.605   0.477   7.187  0.7258  1.7513 -0.5373
 4137SOL     OW23872   0.024   3.065  13.226 -0.4348 -0.8553 -0.1907
 4137SOL    HW123873   0.109   3.044  13.188  0.0505  0.1041  0.3685
 4137SOL    HW223874   4.700   2.982  13.223  1.1458 -1.8098  0.5619
 4138SOL     OW23875   1.695   1.794  13.397 -1.0301 -0.5902  0.3604
 4138SOL    HW123876   1.613   1.745  13.398 -1.9686  0.9888 -0.9140
 4138SOL    HW223877   1.705   1.814  13.304  1.4697 -1.2849  0.4651
 4139SOL     OW23878   1.272   0.479   3.572 -0.0279  0.0468 -0.6503
 4139SOL    HW123879   1.259   0.387   3.546 -0.2151  0.1382 -0.8758
 4139SOL    HW223880   1.271   0.471   3.667 -1.0583 -0.8560 -0.7343
 4140SOL     OW23881   0.705   3.175   6.027 -0.1220 -0.1861 -0.2737
 4140SOL    HW123882   0.654   3.146   6.103 -0.5159 -0.9864 -0.8407
 4140SOL    HW223883   0.743   3.259   6.050 -0.8590  0.0548  0.0696
 4141SOL     OW23884   2.154   2.589   2.985  0.7562 -0.3002 -0.5239
 4141SOL    HW123885   2.210   2.519   3.018 -0.6965 -0.7097  1.0824
 4141SOL    HW223886   2.216   2.660   2.969  0.5020  0.3927  1.5458
 4142SOL     OW23887   1.843   3.666   0.276  0.1660  0.1997  0.4614
 4142SOL    HW123888   1.811   3.588   0.231  0.0282 -0.2803  1.3837
 4142SOL    HW223889   1.884   3.705   0.199  0.9335  0.1891  0.8660
 4143SOL     OW23890   0.597   3.328  15.225  0.1693 -0.5693  0.3333
 4143SOL    HW123891   0.535   3.398  15.204 -1.1102 -1.2056  2.0326
 4143SOL    HW223892   0.663   3.330  15.155  0.2199 -2.0737  0.3230
 4144SOL     OW23893   4.715   0.265  10.809 -0.3624  0.2167 -0.3735
 4144SOL    HW123894   4.688   0.357  10.813 -0.1715  0.3497 -1.9838
 4144SOL    HW223895   0.046   0.259  10.887  0.7466  2.1292 -1.0061
 4145SOL     OW23896   4.350   1.038  13.572  0.1918  0.2803 -0.0185
 4145SOL    HW123897   4.421   1.101  13.584  0.0492  0.2882  0.7535
 4145SOL    HW223898   4.357   0.997  13.659 -0.3964 -1.5069 -0.8075
 4146SOL     OW23899   1.037   1.294   7.801 -0.1104  0.0940  0.0566
 4146SOL    HW123900   0.941   1.285   7.803 -0.0732 -0.1583  0.5783
 4146SOL    HW223901   1.053   1.201   7.789  2.4838  0.4194  1.0993
 4147SOL     OW23902   4.649   1.175   4.243 -0.4498  0.2451  0.2590
 4147SOL    HW123903   4.715   1.210   4.184  0.9397 -0.4183  1.4108
 4147SOL    HW223904   4.625   1.254   4.291  1.1947  0.2797  1.0221
 4148SOL     OW23905   1.285   2.341   5.453 -0.5567  0.1621 -0.6910
 4148SOL    HW123906   1.295   2.432   5.425 -0.5381  0.4792  0.3479
 4148SOL    HW223907   1.204   2.350   5.503 -0.8504 -2.4340 -0.6839
 4149SOL     OW23908   3.944   1.430   8.373  0.2622  0.0820 -0.1131
 4149SOL    HW123909   3.965   1.371   8.446 -0.5573  1.5304  1.3048
 4149SOL    HW223910   4.024   1.439   8.322  0.9141  2.5077  1.3341
 4150SOL     OW23911   2.797   4.273   6.834 -0.1902 -0.1297  0.4881
 4150SOL    HW123912   2.788   4.284   6.739  0.8591 -1.4653  0.2372
 4150SOL    HW223913   2.847   4.350   6.862 -1.5426  0.6306  0.8200
 4151SOL     OW23914   2.055   4.266   3.911 -0.1679 -0.3290 -0.4117
 4151SOL    HW123915   2.028   4.186   3.866 -0.9127 -0.3534  0.0716
 4151SOL    HW223916   1.992   4.277   3.982  1.5098 -2.5947  1.4177
 4152SOL     OW23917   4.409   0.732   7.504  0.3786 -0.5487  0.2010
 4152SOL    HW123918   4.327   0.769   7.470 -0.5630 -2.5692  0.2703
 4152SOL    HW223919   4.421   0.774   7.589  3.3222  1.6236 -1.2880
 4153SOL     OW23920   1.101   0.762  13.693 -0.2966  0.9793 -0.2459
 4153SOL    HW123921   1.048   0.778  13.771  0.1197 -3.6066  0.9730
 4153SOL    HW223922   1.162   0.835  13.694  2.5259 -1.4069  0.9774
 4154SOL     OW23923   1.648   2.037   9.996 -0.0119  0.5754  0.4487
 4154SOL    HW123924   1.743   2.049  10.009  0.4890 -2.7224 -0.2799
 4154SOL    HW223925   1.637   2.116   9.943  1.5648  0.9824  0.6959
 4155SOL     OW23926   0.151   0.257  17.538 -0.4941  0.1891 -0.1066
 4155SOL    HW123927   0.226   0.315  17.530  0.2238 -0.7686 -0.4276
 4155SOL    HW223928   0.082   0.322  17.534 -0.2292  0.4222 -0.8334
 4156SOL     OW23929   1.716   1.620  11.164 -0.4469 -0.1336 -0.1317
 4156SOL    HW123930   1.694   1.630  11.071 -0.9206  0.6316  0.0553
 4156SOL    HW223931   1.780   1.692  11.171  0.4611 -0.7831 -1.6768
 4157SOL     OW23932   2.833   1.867  15.936  0.1726 -0.0639  0.3416
 4157SOL    HW123933   2.876   1.829  15.860  0.0486  2.0355 -0.7751
 4157SOL    HW223934   2.842   1.960  15.914  2.5235 -0.0102  1.5226
 4158SOL     OW23935   3.063   3.934  16.021 -0.0449  0.6595 -0.0676
 4158SOL    HW123936   3.010   3.862  16.056 -2.3025  1.2068 -2.3232
 4158SOL    HW223937   3.109   3.891  15.948 -0.7026  0.9149 -0.6333
 4159SOL     OW23938   2.412   4.509   4.814 -0.0107 -0.0044 -0.2759
 4159SOL    HW123939   2.460   4.427   4.822  0.7973  0.3871 -1.1434
 4159SOL    HW223940   2.357   4.485   4.739 -1.5066 -0.1828  0.8799
 4160SOL     OW23941   3.098   3.089   7.941  0.0442  0.6394 -0.0160
 4160SOL    HW123942   3.005   3.093   7.963 -0.3570  0.5885 -1.6854
 4160SOL    HW223943   3.136   3.030   8.006  1.5560 -0.2997 -1.7578
 4161SOL     OW23944   2.946   0.589   8.143  0.1397 -0.2739 -0.0133
 4161SOL    HW123945   2.970   0.677   8.172  0.4676 -0.4859  0.3638
 4161SOL    HW223946   2.869   0.617   8.094  2.0097  0.4676 -2.5252
 4162SOL     OW23947   3.210   3.685   0.865 -0.8789  0.5029 -0.5259
 4162SOL    HW123948   3.253   3.601   0.883  1.1478  1.4503 -0.9077
 4162SOL    HW223949   3.177   3.711   0.951  1.7061  0.1280  0.5993
 4163SOL     OW23950   3.852   4.536   9.010  0.4670 -0.2056 -0.2457
 4163SOL    HW123951   3.842   4.529   9.105 -0.2305 -2.9301 -0.5129
 4163SOL    HW223952   3.778   4.596   9.010 -0.3513 -1.2208  0.8544
 4164SOL     OW23953   1.236   2.487   7.353  0.5068 -0.0342 -0.4245
 4164SOL    HW123954   1.203   2.435   7.280 -1.2363  1.8363 -0.9718
 4164SOL    HW223955   1.168   2.553   7.368  0.8078  0.2934 -0.4804
 4165SOL     OW23956   2.574   3.432   5.496  0.2890 -0.5035  0.7549
 4165SOL    HW123957   2.578   3.528   5.498  0.1609 -0.5262  2.3167
 4165SOL    HW223958   2.608   3.416   5.585  2.0451 -2.8162 -0.3312
 4166SOL     OW23959   3.406   0.013  13.479 -0.2408  0.7251  0.1520
 4166SOL    HW123960   3.445   4.689  13.551  0.9555  1.4500 -0.0190
 4166SOL    HW223961   3.393   4.665  13.418  0.8851  0.8048 -0.1751
 4167SOL     OW23962   2.629   4.228  10.269 -0.4249  0.4213 -0.3526
 4167SOL    HW123963   2.710   4.204  10.223 -0.3792 -1.3344  0.6601
 4167SOL    HW223964   2.628   4.324  10.272  0.0669  0.4167  0.0050
 4168SOL     OW23965   1.744   2.352   0.373  0.1263  0.0277 -0.3853
 4168SOL    HW123966   1.743   2.376   0.281  3.2399  0.7381 -0.2388
 4168SOL    HW223967   1.838   2.333   0.369  0.2927  0.8934 -0.5257
 4169SOL     OW23968   4.582   0.529   3.611 -0.4368 -0.4057 -0.1359
 4169SOL    HW123969   4.524   0.540   3.535 -1.0059  0.3871  0.4113
 4169SOL    HW223970   4.521   0.484   3.668 -1.0748  1.2020  0.4535
 4170SOL     OW23971   2.294   1.801   4.921  0.0085 -0.1304 -0.3616
 4170SOL    HW123972   2.224   1.788   4.858 -1.2136  0.7221  0.8214
 4170SOL    HW223973   2.377   1.811   4.873 -0.7620 -0.7689 -1.8103
 4171SOL     OW23974   1.680   2.588   5.496  0.1493 -0.0947  0.8296
 4171SOL    HW123975   1.706   2.650   5.428 -0.1665 -1.7873 -0.8130
 4171SOL    HW223976   1.665   2.508   5.446  1.4498  1.7532 -2.5606
 4172SOL     OW23977   1.635   2.017   5.935  0.2432  0.1492  0.2536
 4172SOL    HW123978   1.670   1.983   6.018  0.0336  0.5034  0.4841
 4172SOL    HW223979   1.708   2.049   5.881  0.7330 -1.1255  0.1382
 4173SOL     OW23980   2.736   0.522   4.501  0.0667 -1.0244  0.2916
 4173SOL    HW123981   2.655   0.571   4.487 -0.7071 -2.0039  1.3876
 4173SOL    HW223982   2.810   0.582   4.508 -1.4504  0.4927  3.2797
 4174SOL     OW23983   3.201   4.440   3.455  0.1557  0.2020  0.3218
 4174SOL    HW123984   3.256   4.497   3.403 -0.1434  1.2752  1.1873
 4174SOL    HW223985   3.268   4.399   3.509 -1.0263 -2.0807  0.0733
 4175SOL     OW23986   3.878   0.636   6.984 -0.1908 -0.1937 -0.2175
 4175SOL    HW123987   3.942   0.655   6.915 -1.2597  1.4408 -0.7552
 4175SOL    HW223988   3.801   0.670   6.938  0.2032  1.5052  0.3746
 4176SOL     OW23989   3.402   3.434   4.503 -0.3152 -0.4554  0.4083
 4176SOL    HW123990   3.490   3.408   4.530  0.1132 -1.9788 -2.4700
 4176SOL    HW223991   3.413   3.487   4.424 -0.1933 -1.0555  0.0242
 4177SOL     OW23992   2.661   3.795  12.474  0.4502  0.3647 -0.4526
 4177SOL    HW123993   2.711   3.716  12.492  0.9313  1.0890  1.4381
 4177SOL    HW223994   2.613   3.778  12.393 -1.1066 -0.3961  0.6309
 4178SOL     OW23995   3.086   3.395   1.685  0.1594  0.0355  0.4616
 4178SOL    HW123996   3.164   3.425   1.638 -0.2873  0.9044  0.2591
 4178SOL    HW223997   3.108   3.302   1.691 -1.8320 -0.4524  0.3410
 4179SOL     OW23998   4.006   2.128   7.179 -0.0743 -0.8930 -0.1372
 4179SOL    HW123999   4.024   2.065   7.109  0.1019 -1.0490  0.0513
 4179SOL    HW224000   3.970   2.071   7.247  0.7985 -1.8428 -0.4766
 4180SOL     OW24001   1.583   2.427  11.688 -0.3514 -0.1252 -0.5917
 4180SOL    HW124002   1.622   2.345  11.659 -1.3909 -1.0383  0.6215
 4180SOL    HW224003   1.494   2.392  11.683  0.0557 -0.9515 -2.0314
 4181SOL     OW24004   0.031   4.475   0.770 -0.5701  0.3072  0.3320
 4181SOL    HW124005   4.670   4.477   0.812 -0.4463 -1.9520  0.6828
 4181SOL    HW224006   0.090   4.450   0.841 -1.0115 -1.0983  0.1994
 4182SOL     OW24007   4.221   4.556   1.707 -0.3568  0.1573  0.0412
 4182SOL    HW124008   4.140   4.524   1.748 -0.0710  0.3858  0.7772
 4182SOL    HW224009   4.287   4.552   1.776  1.4267 -1.2192 -1.7441
 4183SOL     OW24010   3.189   3.378  13.838 -0.0458 -0.4103 -0.6724
 4183SOL    HW124011   3.117   3.435  13.809 -1.3793 -2.3975 -1.2950
 4183SOL    HW224012   3.157   3.344  13.921 -0.5296 -0.3387 -0.8234
 4184SOL     OW24013   3.040   0.919  10.238 -0.5313 -0.4988 -0.3715
 4184SOL    HW124014   3.113   0.956  10.287 -1.5855 -0.4831  1.2102
 4184SOL    HW224015   3.043   0.828  10.269  2.7077  0.1234  1.1567
 4185SOL     OW24016   0.598   0.620   4.529 -0.0857  0.3980  0.0272
 4185SOL    HW124017   0.632   0.551   4.472 -2.0783 -0.9016  0.4093
 4185SOL    HW224018   0.671   0.639   4.588 -0.2901  0.1119  0.3705
 4186SOL     OW24019   2.594   3.991   4.463  0.1321  0.2287 -0.3302
 4186SOL    HW124020   2.603   3.933   4.387 -2.8549  0.7598 -1.0862
 4186SOL    HW224021   2.636   4.070   4.430  2.3632  0.4009  2.9352
 4187SOL     OW24022   3.016   1.502   0.465  0.5458 -0.4277  0.2397
 4187SOL    HW124023   3.014   1.415   0.506  1.2864  0.4760  2.2008
 4187SOL    HW224024   3.018   1.559   0.541  0.3912 -0.7072  0.4533
 4188SOL     OW24025   3.468   0.107   3.294  0.1309  0.1393 -0.0806
 4188SOL    HW124026   3.560   0.082   3.294 -0.0695 -0.6254 -0.6228
 4188SOL    HW224027   3.467   0.157   3.212 -1.3443  1.4114  0.7109
 4189SOL     OW24028   0.875   0.056  11.130  0.4196  0.1545 -0.0036
 4189SOL    HW124029   0.942   0.058  11.062 -1.3177 -2.1500 -1.7629
 4189SOL    HW224030   0.858   4.686  11.119  0.2806  0.1313  0.4019
 4190SOL     OW24031   0.065   0.577   7.972 -0.0100 -0.2759  0.0284
 4190SOL    HW124032   4.715   0.516   7.973 -1.2460  1.2199 -0.2761
 4190SOL    HW224033   0.083   0.574   8.066  1.4967 -0.2153 -0.2579
 4191SOL     OW24034   0.535   4.258   3.701  0.0626  0.2017 -0.1635
 4191SOL    HW124035   0.514   4.292   3.788  0.6223  3.3823 -1.2736
 4191SOL    HW224036   0.502   4.338   3.660  0.9482  0.5869 -0.1299
 4192SOL     OW24037   2.630   0.797   3.378  0.1962  0.0556  0.1184
 4192SOL    HW124038   2.722   0.772   3.378 -0.0104 -0.7031 -1.9103
 4192SOL    HW224039   2.599   0.720   3.331  1.2307  0.2583 -0.8964
 4193SOL     OW24040   3.315   0.045   8.353  0.4313  0.8869  0.4059
 4193SOL    HW124041   3.405   0.050   8.384  0.7865 -1.1815 -0.2540
 4193SOL    HW224042   3.332   0.095   8.273  0.1417  0.8494  0.3191
 4194SOL     OW24043   2.779   2.024   9.160 -0.0739  0.6711 -0.0211
 4194SOL    HW124044   2.851   1.979   9.117 -0.4627  2.8061 -2.9108
 4194SOL    HW224045   2.780   1.977   9.243  2.6395  1.3786  0.3295
 4195SOL     OW24046   4.025   3.135   2.680 -0.0825 -0.3666  0.8798
 4195SOL    HW124047   4.006   3.047   2.647  0.3233  0.0603 -0.4983
 4195SOL    HW224048   3.954   3.184   2.638 -1.3284 -2.5670  0.4023
 4196SOL     OW24049   2.910   3.738   8.538 -0.5624 -0.2115  0.0565
 4196SOL    HW124050   2.855   3.708   8.465 -1.7476  0.4740  0.6598
 4196SOL    HW224051   2.979   3.776   8.484  0.6690  0.7758  2.3434
 4197SOL     OW24052   2.757   4.315  10.602  0.0948  0.2337 -0.2636
 4197SOL    HW124053   2.827   4.306  10.667 -0.8609 -0.5606  0.6500
 4197SOL    HW224054   2.767   4.405  10.573 -1.2314  0.7518  0.9307
 4198SOL     OW24055   1.941   3.116  12.632  0.2723 -0.2798 -0.1073
 4198SOL    HW124056   2.009   3.176  12.601  0.8251 -0.3396  0.9940
 4198SOL    HW224057   1.943   3.048  12.564  0.1239  0.0818 -0.4716
 4199SOL     OW24058   1.423   0.972  14.494 -0.2017  0.4284  0.1634
 4199SOL    HW124059   1.475   0.927  14.561 -1.1115  0.9952  1.2596
 4199SOL    HW224060   1.466   1.057  14.482 -1.1634  1.2475  2.4004
 4200SOL     OW24061   4.163   2.358   2.721 -0.0359 -0.2295  0.3854
 4200SOL    HW124062   4.246   2.311   2.706 -1.3927 -2.6734  0.4181
 4200SOL    HW224063   4.120   2.277   2.747 -3.5671  0.9989 -1.6363
 4201SOL     OW24064   4.240   1.365   3.322 -0.3156 -0.1193 -0.2277
 4201SOL    HW124065   4.238   1.378   3.416 -1.2396 -3.4019  0.1954
 4201SOL    HW224066   4.154   1.332   3.298 -0.5373 -0.3071  0.8547
 4202SOL     OW24067   2.343   2.572   6.254  0.4328  0.3000 -0.1900
 4202SOL    HW124068   2.301   2.614   6.329  1.1427 -1.2743  1.0934
 4202SOL    HW224069   2.285   2.498   6.238 -1.6857  2.2565 -1.5147
 4203SOL     OW24070   4.186   2.035   2.530  0.0250  0.0543  0.6033
 4203SOL    HW124071   4.248   2.105   2.550 -1.0958  1.1506  0.2000
 4203SOL    HW224072   4.243   1.974   2.483 -0.9731 -0.1634 -0.3160
 4204SOL     OW24073   1.284   2.215   3.176 -0.2025  0.1355 -0.5490
 4204SOL    HW124074   1.293   2.294   3.123 -1.9945  0.2768 -0.6473
 4204SOL    HW224075   1.309   2.147   3.113 -0.0634  1.8413 -2.3456
 4205SOL     OW24076   0.351   4.146   5.328  0.2910 -0.0910 -0.4562
 4205SOL    HW124077   0.266   4.110   5.352 -0.6426  1.7389 -1.0291
 4205SOL    HW224078   0.376   4.199   5.404  1.8609 -0.5118 -0.6889
 4206SOL     OW24079   2.847   4.040   6.968 -0.0203  0.2016 -0.4325
 4206SOL    HW124080   2.835   4.115   6.909 -2.4686  2.2997  2.7802
 4206SOL    HW224081   2.765   3.993   6.982  1.0056 -1.3871  0.2350
 4207SOL     OW24082   1.620   4.492   3.253  0.0501  0.3086 -0.2399
 4207SOL    HW124083   1.688   4.455   3.309  1.2023  1.5276 -0.8310
 4207SOL    HW224084   1.679   4.542   3.197 -1.1719 -1.0747 -2.7479
 4208SOL     OW24085   3.943   1.227   5.673 -0.1931 -0.7148  0.0126
 4208SOL    HW124086   4.038   1.235   5.669 -0.1887 -0.6745  0.2346
 4208SOL    HW224087   3.942   1.255   5.764 -3.4450  1.8455 -0.7894
 4209SOL     OW24088   3.892   3.979  10.221  0.0690 -0.1063  0.0295
 4209SOL    HW124089   3.911   3.885  10.216  2.5952  0.5513 -2.2269
 4209SOL    HW224090   3.917   3.990  10.312 -2.3663  0.8909  0.6007
 4210SOL     OW24091   3.665   3.465   2.084  0.3723 -0.6096 -0.1783
 4210SOL    HW124092   3.758   3.474   2.103  0.9394 -0.8507 -2.7891
 4210SOL    HW224093   3.656   3.544   2.029 -1.4519 -1.0888 -0.5743
 4211SOL     OW24094   2.847   4.018   3.744  0.7236  0.0914 -0.0088
 4211SOL    HW124095   2.891   4.103   3.731  0.0917  0.6375  1.4246
 4211SOL    HW224096   2.815   4.023   3.834 -0.2854 -1.5582 -0.2864
 4212SOL     OW24097   2.001   2.407   2.446  0.1676 -0.0767  0.0361
 4212SOL    HW124098   2.059   2.402   2.370  1.4732  0.9347  0.9493
 4212SOL    HW224099   1.974   2.499   2.452  0.2548 -0.0450 -0.0576
 4213SOL     OW24100   3.911   0.699  12.651  0.3593  0.0398 -0.3809
 4213SOL    HW124101   3.898   0.781  12.605 -0.1281  0.1798 -0.0035
 4213SOL    HW224102   3.983   0.719  12.711  1.9113 -1.0081 -1.9037
 4214SOL     OW24103   3.396   4.246  10.218  0.0395  0.1160  0.5686
 4214SOL    HW124104   3.402   4.165  10.269  1.5823 -0.2815 -0.2406
 4214SOL    HW224105   3.433   4.220  10.134 -2.8981 -1.9447 -0.0986
 4215SOL     OW24106   4.010   1.885  15.427  0.4687  0.2585 -0.6098
 4215SOL    HW124107   3.929   1.863  15.383  0.5790  0.5004 -0.9374
 4215SOL    HW224108   4.060   1.806  15.406  1.0713  0.2025  1.0564
 4216SOL     OW24109   3.196   3.004   2.054  0.2287  0.0602  0.1142
 4216SOL    HW124110   3.170   3.096   2.053 -1.0093 -0.3026 -0.6442
 4216SOL    HW224111   3.133   2.975   2.120  0.1694 -1.8603 -0.7979
 4217SOL     OW24112   2.385   4.661   9.488 -0.5558  0.0180 -0.0862
 4217SOL    HW124113   2.370   4.605   9.412  2.2347  0.0565 -0.6696
 4217SOL    HW224114   2.384   4.606   9.567  1.1674 -2.2576 -1.6403
 4218SOL     OW24115   3.418   1.065   3.072  0.1161  0.1648  0.4971
 4218SOL    HW124116   3.511   1.083   3.060  0.3967 -3.0388 -2.2640
 4218SOL    HW224117   3.422   1.006   3.147  3.0006 -0.8751 -0.4810
 4219SOL     OW24118   1.896   1.897   1.986 -0.2333  0.4520  0.3055
 4219SOL    HW124119   1.852   1.973   2.023 -2.3735  0.1762 -1.7274
 4219SOL    HW224120   1.868   1.830   2.048 -1.6420  1.2050  0.4702
 4220SOL     OW24121   4.459   0.110   7.952  0.0769 -0.5456 -0.5430
 4220SOL    HW124122   4.484   0.021   7.977 -1.5833 -0.7563  0.3814
 4220SOL    HW224123   4.380   0.118   8.006  1.5174  2.5480  1.1541
 4221SOL     OW24124   0.690   0.764   7.144  0.6838  0.1127 -0.3692
 4221SOL    HW124125   0.615   0.741   7.089  1.3529 -0.4579 -1.0414
 4221SOL    HW224126   0.712   0.853   7.119  2.0917  0.2937  1.5625
 4222SOL     OW24127   4.206   3.040   7.798 -0.4353 -0.2929 -0.0785
 4222SOL    HW124128   4.150   3.028   7.874  1.5426 -0.2147  1.3719
 4222SOL    HW224129   4.269   2.970   7.813 -0.5378 -0.3212  0.2216
 4223SOL     OW24130   4.488   3.575   7.415  0.0170  0.1494 -0.2727
 4223SOL    HW124131   4.411   3.601   7.466  0.4821 -0.3931  0.6994
 4223SOL    HW224132   4.499   3.481   7.431  2.3315 -0.1422 -3.6621
 4224SOL     OW24133   2.650   1.881   1.940  0.5342 -0.7014  0.6117
 4224SOL    HW124134   2.599   1.959   1.964 -0.3316 -1.3828  1.0060
 4224SOL    HW224135   2.700   1.920   1.869 -0.0889  0.7827  0.9851
 4225SOL     OW24136   1.579   2.240   3.875 -0.6737 -0.3373 -0.0979
 4225SOL    HW124137   1.493   2.213   3.843 -0.5593 -3.4893  2.2040
 4225SOL    HW224138   1.624   2.177   3.819 -2.2619 -1.5647  0.0105
 4226SOL     OW24139   1.850   3.704   7.808 -0.2413 -0.2758 -0.3708
 4226SOL    HW124140   1.762   3.674   7.832 -0.7833  0.4673 -1.4156
 4226SOL    HW224141   1.903   3.643   7.860  0.2649  2.1146  1.9482
 4227SOL     OW24142   2.971   2.616   6.470 -0.7103 -0.1184  0.1626
 4227SOL    HW124143   2.898   2.632   6.529  0.2766 -0.9883  1.6135
 4227SOL    HW224144   2.949   2.526   6.443  1.9615 -1.0130  0.9523
 4228SOL     OW24145   3.586   0.998   3.975  0.0853  0.1533  0.1950
 4228SOL    HW124146   3.546   1.036   3.897 -2.2628 -0.8580  0.8968
 4228SOL    HW224147   3.503   0.985   4.021 -0.4278 -2.7409 -1.5536
 4229SOL     OW24148   3.624   0.746   5.969  0.0895 -0.4966  0.7330
 4229SOL    HW124149   3.651   0.770   5.880 -1.5841  0.6090  0.5279
 4229SOL    HW224150   3.629   0.832   6.010  1.2057 -1.3141  2.2914
 4230SOL     OW24151   0.061   1.492  17.177  0.1080 -0.0301 -0.5265
 4230SOL    HW124152   0.127   1.425  17.196  3.2429  2.3978 -3.0034
 4230SOL    HW224153   0.002   1.437  17.124  0.1824  0.6131 -1.2730
 4231SOL     OW24154   4.354   4.333  11.180  0.3276 -0.9826 -0.4535
 4231SOL    HW124155   4.326   4.305  11.268  0.7055 -0.1263 -0.0597
 4231SOL    HW224156   4.280   4.329  11.121 -1.3980 -0.0635  1.6530
 4232SOL     OW24157   0.703   3.077  10.048 -0.5963  0.2327  0.2687
 4232SOL    HW124158   0.703   3.172  10.031  0.1152  0.4623  1.5602
 4232SOL    HW224159   0.673   3.077  10.139  0.6034 -0.9709  0.6580
 4233SOL     OW24160   2.088   4.014  11.757  0.3292 -0.1630  0.2862
 4233SOL    HW124161   2.102   4.078  11.827  2.0194 -1.8119  1.4507
 4233SOL    HW224162   1.992   4.012  11.762  0.2908  1.9693  0.3230
 4234SOL     OW24163   2.721   4.029  16.705  0.6531  0.0177 -0.1692
 4234SOL    HW124164   2.626   4.043  16.701  0.5639 -0.7290 -0.5395
 4234SOL    HW224165   2.734   3.963  16.774 -3.1112 -2.4866 -1.8760
 4235SOL     OW24166   1.072   2.587  16.970  0.2097  0.2145 -0.2528
 4235SOL    HW124167   1.047   2.653  16.905  2.0795  0.2029 -0.9778
 4235SOL    HW224168   1.039   2.503  16.939 -0.0393  0.3924 -0.4762
 4236SOL     OW24169   0.187   0.659  14.405 -0.2330 -0.1048 -0.0391
 4236SOL    HW124170   0.147   0.745  14.393  1.0162  0.4873  0.0592
 4236SOL    HW224171   0.236   0.632  14.328 -0.9832  0.5931 -0.7575
 4237SOL     OW24172   3.907   0.991   6.882 -0.1851  0.0409 -0.1674
 4237SOL    HW124173   3.964   0.971   6.809 -1.6577 -1.1273 -1.0087
 4237SOL    HW224174   3.851   0.914   6.873 -1.0508  0.4830  1.3343
 4238SOL     OW24175   0.002   4.473   8.067  0.1788  0.0722 -0.0436
 4238SOL    HW124176   4.711   4.400   8.128 -2.3197 -0.4860 -1.3515
 4238SOL    HW224177   0.092   4.444   8.050  0.4005  0.7565 -0.0424
 4239SOL     OW24178   2.956   2.649   9.264  0.2926  0.1611  0.2916
 4239SOL    HW124179   2.967   2.617   9.354  2.4984 -1.3597 -0.5245
 4239SOL    HW224180   2.972   2.569   9.215  0.9123 -1.0811  2.4886
 4240SOL     OW24181   1.091   0.537  12.320 -0.5740  0.3549 -0.3033
 4240SOL    HW124182   1.068   0.502  12.234 -0.1758 -1.2951  0.2641
 4240SOL    HW224183   1.182   0.563  12.326 -1.0227  2.4748 -2.7474
 4241SOL     OW24184   4.723   4.302   6.348  0.1965  0.6233  0.4558
 4241SOL    HW124185   4.712   4.233   6.413 -1.6219  0.9286  0.4865
 4241SOL    HW224186   4.652   4.365   6.365 -0.5853 -0.5619  1.5800
 4242SOL     OW24187   4.632   3.624   4.484  0.1013 -0.1927 -0.2802
 4242SOL    HW124188   4.555   3.582   4.521 -0.1062 -1.3991 -2.0860
 4242SOL    HW224189   4.665   3.664   4.564 -0.2200 -2.2956  0.8921
 4243SOL     OW24190   1.214   0.771   6.961  0.4083 -0.5825 -0.2823
 4243SOL    HW124191   1.169   0.852   6.935 -0.2459 -0.3117  1.6749
 4243SOL    HW224192   1.272   0.754   6.887  0.7907 -3.4550  0.6948
 4244SOL     OW24193   2.382   0.403  17.191  0.1455  0.1153  0.2506
 4244SOL    HW124194   2.447   0.374  17.255  0.0718  1.5224  0.9545
 4244SOL    HW224195   2.305   0.401  17.248 -1.0494 -2.8424 -1.4715
 4245SOL     OW24196   2.611   0.505   1.912  0.6829  0.5631  0.0623
 4245SOL    HW124197   2.702   0.476   1.909  0.7232  0.6102  0.8539
 4245SOL    HW224198   2.564   0.437   1.863  0.9816  0.2546  0.2104
 4246SOL     OW24199   4.471   4.525  11.309  0.1292 -0.3542  0.1036
 4246SOL    HW124200   4.452   4.614  11.278  0.9807 -0.2383 -0.0743
 4246SOL    HW224201   4.423   4.464  11.254  1.5006 -1.0320 -0.3233
 4247SOL     OW24202   1.123   3.648  15.054 -0.4435  0.0682 -0.0145
 4247SOL    HW124203   1.150   3.655  14.963 -0.7327  2.9453  0.1395
 4247SOL    HW224204   1.179   3.571  15.066 -1.1661 -0.4613 -0.0820
 4248SOL     OW24205   3.124   2.986   2.345  0.0381 -0.3979 -0.0068
 4248SOL    HW124206   3.193   2.933   2.385  2.3252  3.1239  0.6931
 4248SOL    HW224207   3.168   3.070   2.336  2.2456 -1.6769 -1.2478
 4249SOL     OW24208   0.130   3.847   5.143  0.2528 -0.1327 -0.6863
 4249SOL    HW124209   0.074   3.794   5.199  0.5989 -0.1498 -0.3568
 4249SOL    HW224210   0.192   3.775   5.135  0.3247 -0.2836  1.3388
 4250SOL     OW24211   1.757   1.484  13.072  0.2482 -0.2553 -0.4664
 4250SOL    HW124212   1.774   1.427  13.147 -0.7041 -0.4437 -0.3968
 4250SOL    HW224213   1.672   1.520  13.097 -0.2053 -2.9176  1.8782
 4251SOL     OW24214   4.124   2.896  15.350 -0.8179 -0.1164  0.0745
 4251SOL    HW124215   4.072   2.816  15.348  1.3578 -1.5847  2.0394
 4251SOL    HW224216   4.103   2.936  15.434 -0.4451 -0.7323  0.4593
 4252SOL     OW24217   0.381   3.728   5.807 -0.1019 -0.7602 -0.8809
 4252SOL    HW124218   0.340   3.814   5.806 -0.6316 -0.9706  3.6202
 4252SOL    HW224219   0.373   3.714   5.902 -1.6434 -2.1578 -1.2264
 4253SOL     OW24220   3.662   1.269   9.602 -0.0231  0.2297  0.6254
 4253SOL    HW124221   3.703   1.201   9.548 -0.2873  1.5287 -1.2368
 4253SOL    HW224222   3.646   1.335   9.535 -0.6682  1.6409  2.1935
 4254SOL     OW24223   2.025   2.524  14.393 -0.1537  0.0297  0.2527
 4254SOL    HW124224   2.042   2.616  14.372 -3.1632  0.3499 -0.8268
 4254SOL    HW224225   1.945   2.532  14.444 -1.2114 -2.6609 -0.9831
 4255SOL     OW24226   3.560   3.293   6.498 -0.0936  0.7054  0.3957
 4255SOL    HW124227   3.555   3.259   6.587 -0.3746  0.7791  0.4078
 4255SOL    HW224228   3.468   3.292   6.472  0.4584 -0.2743 -1.5374
 4256SOL     OW24229   2.151   3.581   3.077  0.0875  0.8739  0.3317
 4256SOL    HW124230   2.185   3.494   3.058  0.4497  0.8627  1.0224
 4256SOL    HW224231   2.071   3.577   3.024  0.2231  1.4605  0.0903
 4257SOL     OW24232   0.924   4.621   6.439  0.0376  0.3203 -0.5106
 4257SOL    HW124233   0.917   4.716   6.438  0.7244  0.3814  1.7085
 4257SOL    HW224234   0.830   4.602   6.436  0.1357 -0.1602 -0.5794
 4258SOL     OW24235   3.234   0.231   0.466 -0.4544  0.4276 -0.1328
 4258SOL    HW124236   3.328   0.232   0.487 -0.7091 -0.5054  1.0138
 4258SOL    HW224237   3.199   0.153   0.508  0.8641 -1.5279 -2.6611
 4259SOL     OW24238   4.593   4.654  14.601  0.4166  0.6530 -0.2888
 4259SOL    HW124239   4.536   4.577  14.608  0.4022  0.8075  1.2863
 4259SOL    HW224240   4.635   4.661  14.686 -1.6903 -1.6265  0.9368
 4260SOL     OW24241   3.901   2.248   8.413 -1.0573  0.0843  0.6408
 4260SOL    HW124242   3.851   2.186   8.358 -0.2767  2.6696 -2.9850
 4260SOL    HW224243   3.828   2.287   8.461 -0.7093  2.7346 -0.9930
 4261SOL     OW24244   0.408   0.032  15.828  0.1198 -0.1599 -0.0871
 4261SOL    HW124245   0.471   0.105  15.824  0.4250 -0.5092 -1.6861
 4261SOL    HW224246   0.331   0.079  15.859 -0.0358 -0.5170  0.0547
 4262SOL     OW24247   2.715   0.229   4.431  0.1449 -0.1467  0.0119
 4262SOL    HW124248   2.699   0.319   4.460  0.4435 -0.8807  2.4369
 4262SOL    HW224249   2.653   0.173   4.478 -4.1582  1.9704 -3.0642
 4263SOL     OW24250   4.484   4.267   2.556 -0.0216 -0.0954  0.5188
 4263SOL    HW124251   4.509   4.337   2.497 -1.2286 -1.5485 -1.7210
 4263SOL    HW224252   4.402   4.295   2.596 -1.1284 -1.4039 -0.8530
 4264SOL     OW24253   0.666   3.878   2.337  0.0151  0.1061 -0.1337
 4264SOL    HW124254   0.714   3.832   2.406  0.5865 -1.2096 -1.4235
 4264SOL    HW224255   0.583   3.885   2.384  1.0358 -0.0053  1.6925
 4265SOL     OW24256   2.687   2.699   0.834 -0.8436 -0.2356 -0.0037
 4265SOL    HW124257   2.746   2.771   0.853  0.7050 -1.4542 -0.1771
 4265SOL    HW224258   2.603   2.729   0.867 -0.9916  0.4632 -1.0236
 4266SOL     OW24259   2.304   0.068   3.310  0.0979 -0.3551 -0.3548
 4266SOL    HW124260   2.376   0.100   3.255 -0.2319 -0.6841 -0.9663
 4266SOL    HW224261   2.336   4.711   3.349  0.8506 -0.3671 -0.9918
 4267SOL     OW24262   4.638   4.120  13.162  0.1403 -0.6919  0.3629
 4267SOL    HW124263   4.707   4.061  13.130  0.9052 -0.3984  1.4500
 4267SOL    HW224264   4.640   4.097  13.255  2.2496 -1.7046  0.0793
 4268SOL     OW24265   2.845   1.896   7.707  0.1474 -0.3530  0.8434
 4268SOL    HW124266   2.813   1.962   7.646 -0.2748 -1.6498 -0.3584
 4268SOL    HW224267   2.840   1.938   7.792 -0.0287 -0.1203  0.7186
 4269SOL     OW24268   3.379   3.702   8.665  0.1610 -0.0866  0.1818
 4269SOL    HW124269   3.312   3.761   8.700  0.8716  2.2854 -2.3834
 4269SOL    HW224270   3.341   3.617   8.688 -0.0040 -0.4057 -1.2696
 4270SOL     OW24271   0.805   3.262   6.654 -0.4253 -0.4751  0.3247
 4270SOL    HW124272   0.855   3.344   6.645  0.8315 -1.1644  0.9791
 4270SOL    HW224273   0.873   3.206   6.692  0.2512  0.7393  0.9392
 4271SOL     OW24274   4.712   1.671   2.737  0.3699 -0.8639 -0.2916
 4271SOL    HW124275   4.714   1.725   2.817 -3.3021 -2.0023  0.5858
 4271SOL    HW224276   4.652   1.729   2.690  0.3415 -1.9000 -1.5483
 4272SOL     OW24277   0.186   0.880  11.449 -0.1688  0.0540  0.0877
 4272SOL    HW124278   0.194   0.941  11.375  1.4479  0.2667  0.4445
 4272SOL    HW224279   0.177   0.938  11.525 -0.9659  0.5939 -0.4159
 4273SOL     OW24280   0.460   1.628   8.277 -0.0182 -0.1186 -0.2468
 4273SOL    HW124281   0.545   1.622   8.233 -0.4036  1.1827 -1.1771
 4273SOL    HW224282   0.401   1.616   8.203 -0.3504 -0.1541  0.0219
 4274SOL     OW24283   4.516   3.822   7.055  0.2186  0.0852  0.3464
 4274SOL    HW124284   4.587   3.776   7.100  2.8296  1.5489 -2.2231
 4274SOL    HW224285   4.455   3.819   7.128  0.1692  2.4352  0.4084
 4275SOL     OW24286   4.613   2.476  14.976  0.2415 -0.3933 -0.2455
 4275SOL    HW124287   4.572   2.484  15.062  2.5792 -1.8882  1.0154
 4275SOL    HW224288   4.657   2.392  14.992 -0.9547 -0.9673  0.0634
 4276SOL     OW24289   0.023   1.380   1.646  0.5089 -0.2950 -0.0388
 4276SOL    HW124290   4.714   1.410   1.561  1.0215 -0.2161 -0.2156
 4276SOL    HW224291   0.067   1.298   1.624 -3.4980 -2.5169  0.2317
 4277SOL     OW24292   3.234   0.773   0.532 -0.0517 -0.2886  0.1107
 4277SOL    HW124293   3.235   0.678   0.536  2.0740 -0.2239  1.1768
 4277SOL    HW224294   3.146   0.779   0.569 -0.2957  0.6460 -0.6129
 4278SOL     OW24295   3.073   1.747   2.434  0.1509 -0.7216  0.5480
 4278SOL    HW124296   3.113   1.671   2.391 -1.3732 -2.0707  1.5321
 4278SOL    HW224297   3.069   1.814   2.365  1.7137 -1.0789  0.0973
 4279SOL     OW24298   3.205   0.745   2.210  0.1331 -0.7928 -0.0049
 4279SOL    HW124299   3.180   0.819   2.264  2.3400  0.2753 -0.4506
 4279SOL    HW224300   3.300   0.743   2.218  0.1837  0.1273 -0.4152
 4280SOL     OW24301   0.839   2.396   1.344 -0.1705 -0.5522  0.2406
 4280SOL    HW124302   0.915   2.416   1.289 -0.2912  1.4411  0.7731
 4280SOL    HW224303   0.775   2.394   1.274 -1.1573  1.9166  1.0580
 4281SOL     OW24304   3.586   2.425   7.553  0.2937 -0.3408  0.1529
 4281SOL    HW124305   3.500   2.456   7.579  0.3643 -0.8698  1.0184
 4281SOL    HW224306   3.639   2.491   7.598 -0.3298 -1.2241  2.1725
 4282SOL     OW24307   3.340   0.211  16.304 -0.2136 -0.5506 -0.1038
 4282SOL    HW124308   3.328   0.118  16.290  1.7262 -0.9119  0.5501
 4282SOL    HW224309   3.251   0.245  16.295  0.2465  0.2109 -1.8385
 4283SOL     OW24310   0.520   1.765   3.771 -0.2277 -0.0030 -0.1159
 4283SOL    HW124311   0.599   1.759   3.717  0.3472  2.0537  0.5132
 4283SOL    HW224312   0.532   1.854   3.805  0.0790 -0.9265  2.1384
 4284SOL     OW24313   3.626   4.309   9.513 -0.7263 -0.3671  1.3646
 4284SOL    HW124314   3.639   4.227   9.466  1.4044  1.0047 -0.4423
 4284SOL    HW224315   3.637   4.282   9.604 -0.0844 -0.2624  1.3177
 4285SOL     OW24316   4.120   2.720   5.820  0.1891  0.4461  0.1737
 4285SOL    HW124317   4.152   2.808   5.837  0.2034  0.8129 -1.7080
 4285SOL    HW224318   4.200   2.674   5.845  1.2810  2.1718 -0.1645
 4286SOL     OW24319   2.162   3.414   5.926 -0.3905  0.4093  0.3461
 4286SOL    HW124320   2.154   3.375   6.013  1.4584 -1.9452 -0.5217
 4286SOL    HW224321   2.122   3.345   5.872 -1.5441  1.6351 -0.3659
 4287SOL     OW24322   1.940   0.331   8.740  0.0045 -0.5476 -0.6257
 4287SOL    HW124323   1.966   0.421   8.758 -1.6954 -0.3999  1.1594
 4287SOL    HW224324   1.880   0.351   8.668  0.7532 -0.4184 -1.2149
 4288SOL     OW24325   3.587   2.958   5.905 -0.5190 -0.0791 -0.7053
 4288SOL    HW124326   3.608   2.924   5.818 -0.4243 -0.0940 -0.6758
 4288SOL    HW224327   3.498   2.990   5.890  0.2832  2.2518 -0.4269
 4289SOL     OW24328   3.963   1.798   4.687 -0.2994 -0.4792  0.3327
 4289SOL    HW124329   3.944   1.722   4.741  0.4946  0.1478  1.4893
 4289SOL    HW224330   3.978   1.868   4.751  1.1841  0.3923 -0.9751
 4290SOL     OW24331   3.834   3.949  11.351  0.4540 -0.1854 -0.1045
 4290SOL    HW124332   3.926   3.951  11.377 -0.1534 -1.0292  2.1482
 4290SOL    HW224333   3.801   3.906  11.430  0.4194  1.5549  0.8240
 4291SOL     OW24334   2.357   3.924   9.080  0.5894  0.2673 -1.0176
 4291SOL    HW124335   2.343   4.012   9.115  2.5463 -0.4379  1.4837
 4291SOL    HW224336   2.378   3.874   9.159 -0.1991  0.6650 -0.5507
 4292SOL     OW24337   3.858   3.735   1.724  0.4378 -0.0819  0.0920
 4292SOL    HW124338   3.918   3.776   1.786  1.7243 -2.2742  0.2919
 4292SOL    HW224339   3.843   3.806   1.662 -2.4224 -0.5720  0.2026
 4293SOL     OW24340   4.418   3.974   4.443 -0.2902  0.2022 -0.2071
 4293SOL    HW124341   4.511   3.992   4.430 -0.2912  1.3942  1.4462
 4293SOL    HW224342   4.409   3.916   4.519  0.6807 -1.5535 -1.4334
 4294SOL     OW24343   1.790   0.352   9.655  0.0615 -0.5267 -0.2854
 4294SOL    HW124344   1.738   0.373   9.732  1.9335  0.9916  0.5674
 4294SOL    HW224345   1.773   0.258   9.653  0.4051 -0.5636 -1.7297
 4295SOL     OW24346   4.116   0.830   2.339 -0.1995 -0.3598  0.4427
 4295SOL    HW124347   4.113   0.865   2.250 -2.8189  1.8743  1.4232
 4295SOL    HW224348   4.023   0.842   2.360 -0.6983 -1.5803 -1.0121
 4296SOL     OW24349   3.582   0.709   8.573  0.1197 -0.0350  0.6602
 4296SOL    HW124350   3.668   0.699   8.533  0.3559 -1.5862  1.5643
 4296SOL    HW224351   3.558   0.802   8.566  4.2691  0.8758 -1.5405
 4297SOL     OW24352   0.430   0.067   2.239  0.0952  0.4076 -0.1764
 4297SOL    HW124353   0.398   0.056   2.150  0.8812  0.5737 -0.4785
 4297SOL    HW224354   0.357   0.027   2.286  0.0109  2.5042  1.5127
 4298SOL     OW24355   1.971   1.934   7.873 -0.0341 -0.5027 -0.2731
 4298SOL    HW124356   1.909   1.872   7.911 -1.0315  1.9982  2.1442
 4298SOL    HW224357   2.043   1.908   7.930  0.1613  0.0684 -0.2518
 4299SOL     OW24358   2.769   4.332  12.428  0.1652 -0.4828 -0.1755
 4299SOL    HW124359   2.763   4.289  12.343 -1.6622 -1.7467  0.5920
 4299SOL    HW224360   2.681   4.369  12.441  0.1159 -0.5032 -0.4684
 4300SOL     OW24361   0.336   2.284   7.487  0.5546 -0.2748  0.2614
 4300SOL    HW124362   0.304   2.358   7.435  0.7701 -0.9416 -0.8307
 4300SOL    HW224363   0.399   2.246   7.425  0.4280 -0.1112  0.0340
 4301SOL     OW24364   3.982   3.177   2.280  0.0544  0.0932 -0.9834
 4301SOL    HW124365   4.019   3.257   2.315 -1.2936  0.4467 -0.3477
 4301SOL    HW224366   4.057   3.119   2.294 -0.3736 -0.3957 -0.6867
 4302SOL     OW24367   1.694   3.045   6.859  0.7271 -0.0009  0.0078
 4302SOL    HW124368   1.676   3.021   6.950 -0.9858 -1.1074 -0.6343
 4302SOL    HW224369   1.769   3.104   6.865 -0.4006  1.2776  1.5275
 4303SOL     OW24370   3.470   2.571  13.770  0.5798  0.6965 -0.4265
 4303SOL    HW124371   3.402   2.542  13.710  0.7609 -1.6946  0.5286
 4303SOL    HW224372   3.525   2.631  13.718  2.5310 -1.5063 -0.9008
 4304SOL     OW24373   3.587   1.308   8.463  0.1638 -0.0399  0.0019
 4304SOL    HW124374   3.499   1.343   8.475  0.2121 -0.0572  0.4037
 4304SOL    HW224375   3.638   1.384   8.492 -1.3223  1.2743 -0.8412
 4305SOL     OW24376   2.173   4.626   5.780  0.3169  0.5503  0.4891
 4305SOL    HW124377   2.104   4.606   5.844 -1.2028 -1.5108 -1.7664
 4305SOL    HW224378   2.140   4.709   5.745  0.7100  0.8530  0.8429
 4306SOL     OW24379   4.619   2.488  15.848 -0.6175 -0.3869 -0.1817
 4306SOL    HW124380   4.574   2.418  15.894 -1.8006  0.5733  0.1069
 4306SOL    HW224381   4.546   2.547  15.830  0.0088  0.7172  0.8555
 4307SOL     OW24382   3.438   1.179   6.578  0.4002 -0.0413 -0.0845
 4307SOL    HW124383   3.494   1.245   6.618  0.4300  0.5559 -1.1067
 4307SOL    HW224384   3.365   1.233   6.546  0.1717 -0.1192  0.3163
 4308SOL     OW24385   1.434   2.733   1.433 -0.3563 -0.2216 -0.2819
 4308SOL    HW124386   1.524   2.704   1.417  0.2794  0.0111  2.9068
 4308SOL    HW224387   1.449   2.824   1.407 -2.0098  0.4060  0.9796
 4309SOL     OW24388   1.375   2.563   8.023 -0.1741 -0.1175 -0.1221
 4309SOL    HW124389   1.285   2.596   8.032 -0.5035 -0.8262 -0.8810
 4309SOL    HW224390   1.389   2.518   7.940 -0.9148  0.2213 -0.4310
 4310SOL     OW24391   4.605   4.180   2.760 -0.0338 -0.2360 -0.4371
 4310SOL    HW124392   4.589   4.219   2.674 -1.4356  1.6889  0.6902
 4310SOL    HW224393   4.603   4.253   2.821  3.4758  0.6516 -1.4396
 4311SOL     OW24394   2.071   0.171   2.536 -0.9393  0.1272  0.8459
 4311SOL    HW124395   2.072   0.096   2.476  1.9837  2.8150 -2.4983
 4311SOL    HW224396   2.005   0.223   2.490 -1.3589 -2.4047 -1.3735
 4312SOL     OW24397   0.339   0.465  14.664  0.2126 -0.3050 -0.7324
 4312SOL    HW124398   0.415   0.417  14.697 -0.4737  0.3241  1.8046
 4312SOL    HW224399   0.355   0.468  14.570 -2.6938 -0.4120 -1.2351
 4313SOL     OW24400   1.595   3.942  13.876  0.2193  0.4294 -0.6582
 4313SOL    HW124401   1.660   4.013  13.881  0.0273  0.6542 -1.4701
 4313SOL    HW224402   1.617   3.907  13.962 -1.7857 -0.4047 -0.4879
 4314SOL     OW24403   0.701   2.659  17.548 -0.0126 -0.0550  0.0761
 4314SOL    HW124404   0.688   2.746  17.585 -1.2044 -0.3203  0.2964
 4314SOL    HW224405   0.678   2.602  17.622  0.8629  0.5159  0.8019
 4315SOL     OW24406   1.474   0.800   4.791 -0.0031 -0.4656  0.0119
 4315SOL    HW124407   1.462   0.732   4.725  0.7630 -1.6781  1.1270
 4315SOL    HW224408   1.547   0.776   4.848  1.2974  0.8172 -1.1136
 4316SOL     OW24409   3.960   1.533   7.644 -0.4854 -0.4907  0.5743
 4316SOL    HW124410   3.869   1.506   7.629 -0.5639  0.0433  0.0968
 4316SOL    HW224411   3.956   1.608   7.703  0.4783  2.0290 -2.6232
 4317SOL     OW24412   0.985   3.580   4.092 -0.1776  0.5666 -0.1955
 4317SOL    HW124413   0.946   3.667   4.084 -1.3753  0.1599  1.4182
 4317SOL    HW224414   0.961   3.546   4.006  1.5267  2.0263 -1.2449
 4318SOL     OW24415   3.962   2.704  15.735  0.2971 -0.0665 -0.1682
 4318SOL    HW124416   3.885   2.658  15.699 -0.0699  0.8825 -0.6036
 4318SOL    HW224417   3.991   2.649  15.808 -0.5452 -3.2071 -2.1837
 4319SOL     OW24418   3.368   3.734   7.850  0.0366 -0.3102 -0.0800
 4319SOL    HW124419   3.286   3.720   7.897  0.8668 -0.4048  1.3512
 4319SOL    HW224420   3.402   3.807   7.901  1.5748 -1.4661  0.5463
 4320SOL     OW24421   0.085   1.197  17.275 -0.8088  0.2994 -0.3738
 4320SOL    HW124422   0.011   1.141  17.301 -0.9989  0.7463  0.0435
 4320SOL    HW224423   0.106   1.167  17.186 -0.6782  0.1727 -0.3015
 4321SOL     OW24424   2.385   3.945   5.477  0.0764 -0.3365  0.4981
 4321SOL    HW124425   2.298   3.954   5.517  0.0937 -0.1703  0.4967
 4321SOL    HW224426   2.423   4.031   5.491  2.9487 -1.3322 -1.1900
 4322SOL     OW24427   0.250   0.529  12.778  0.0352 -0.2455 -0.4223
 4322SOL    HW124428   0.209   0.521  12.864  0.6035  1.5577  0.0194
 4322SOL    HW224429   0.254   0.436  12.754  2.3675 -0.2828  0.1468
 4323SOL     OW24430   0.337   2.528   5.785 -0.6092  0.3995  0.5021
 4323SOL    HW124431   0.411   2.580   5.755  0.1927  0.3022  2.2721
 4323SOL    HW224432   0.369   2.439   5.770 -1.3221  0.0737  0.8848
 4324SOL     OW24433   2.435   2.225   6.382 -0.6225 -0.0425 -0.1484
 4324SOL    HW124434   2.359   2.200   6.330  1.2690 -0.7998 -2.5678
 4324SOL    HW224435   2.501   2.175   6.334 -0.5075  1.3808 -1.4587
 4325SOL     OW24436   3.934   4.034   7.442  0.4651 -0.1639 -0.3493
 4325SOL    HW124437   3.890   3.958   7.404  2.5663 -0.4967 -2.1488
 4325SOL    HW224438   4.008   4.054   7.384 -0.0859  2.2942 -0.2084
 4326SOL     OW24439   0.759   2.226   2.772  0.0851  0.0604  0.5249
 4326SOL    HW124440   0.811   2.237   2.852  0.9791  0.9416 -0.1674
 4326SOL    HW224441   0.683   2.177   2.804  0.8959 -1.1736  0.5971
 4327SOL     OW24442   1.907   0.146  14.720  0.2524  0.4017  0.1283
 4327SOL    HW124443   1.932   0.057  14.745 -0.8181  0.4422  1.3554
 4327SOL    HW224444   1.878   0.139  14.629 -0.5355 -0.1326  0.4191
 4328SOL     OW24445   3.783   1.896   2.322  0.2359  0.3415  0.2653
 4328SOL    HW124446   3.838   1.933   2.391  0.4130  0.8041 -0.1197
 4328SOL    HW224447   3.751   1.973   2.274 -1.1033  0.3026  1.0860
 4329SOL     OW24448   2.768   2.197   7.058  0.4494 -0.5719  0.0325
 4329SOL    HW124449   2.784   2.279   7.103 -1.2574 -0.1058 -0.1915
 4329SOL    HW224450   2.711   2.221   6.984  0.0794 -0.4930  0.3431
 4330SOL     OW24451   1.830   1.236   2.636 -0.0786  0.0696  0.3842
 4330SOL    HW124452   1.873   1.155   2.663  0.8500  0.6245  0.5905
 4330SOL    HW224453   1.908   1.286   2.611 -0.6174  1.2264  1.0139
 4331SOL     OW24454   0.088   2.153  15.995  0.0282  0.0403 -0.3165
 4331SOL    HW124455   4.718   2.141  15.983 -0.2207  0.5035  1.1258
 4331SOL    HW224456   0.109   2.209  15.921  1.3477  0.0700  0.0743
 4332SOL     OW24457   0.841   3.852   1.566  0.0341 -0.3155 -0.1495
 4332SOL    HW124458   0.861   3.858   1.473  1.4390  1.5223  0.2613
 4332SOL    HW224459   0.753   3.817   1.557  0.4848 -2.3773  3.1568
 4333SOL     OW24460   1.976   1.109  14.319 -0.3021 -0.0542  0.0597
 4333SOL    HW124461   1.917   1.126  14.393  0.7906  2.5801  0.3343
 4333SOL    HW224462   2.047   1.170  14.340 -0.0796 -0.2511 -0.1219
 4334SOL     OW24463   1.452   0.108   6.525 -0.0707  0.4979 -0.5614
 4334SOL    HW124464   1.388   0.162   6.479 -1.0855 -0.7650 -0.6275
 4334SOL    HW224465   1.479   0.179   6.583 -1.8097  0.8727 -0.2395
 4335SOL     OW24466   0.200   1.205   9.602 -0.2034 -0.3241  0.0727
 4335SOL    HW124467   0.264   1.149   9.559  2.0934  2.5890 -0.3806
 4335SOL    HW224468   0.128   1.204   9.539 -0.5366 -1.1668  0.4690
 4336SOL     OW24469   0.523   4.300   8.410  0.7870  0.9485  0.0115
 4336SOL    HW124470   0.529   4.227   8.472  0.3800  0.1025 -0.9383
 4336SOL    HW224471   0.437   4.335   8.431  0.2754  0.4580 -1.2851
 4337SOL     OW24472   3.118   2.900   7.107 -0.2596  0.4324 -0.1673
 4337SOL    HW124473   3.088   2.815   7.140  0.2079 -0.1465 -1.2555
 4337SOL    HW224474   3.140   2.875   7.017  0.6580  2.4750 -0.5137
 4338SOL     OW24475   2.968   1.030  13.466  0.0500 -0.1521  0.3667
 4338SOL    HW124476   3.046   1.086  13.469  1.0308 -1.5283  0.6241
 4338SOL    HW224477   2.922   1.045  13.548  0.1188 -0.1800  0.4107
 4339SOL     OW24478   2.499   4.669  11.233  0.2318  0.4644  0.3843
 4339SOL    HW124479   2.498   4.599  11.299 -0.8455  2.2284  2.2514
 4339SOL    HW224480   2.480   4.623  11.152 -1.8835  0.8374  0.6598
 4340SOL     OW24481   2.266   1.530   2.951  0.3589 -0.2752 -0.0739
 4340SOL    HW124482   2.206   1.479   3.006 -2.7295  1.4430 -1.8657
 4340SOL    HW224483   2.206   1.579   2.896 -0.3341  1.5346  2.2920
 4341SOL     OW24484   0.189   2.499  12.981  0.1027 -0.3283 -0.6768
 4341SOL    HW124485   0.238   2.424  13.015  1.5960 -0.2187 -2.6276
 4341SOL    HW224486   0.256   2.564  13.004  0.7595 -1.2331 -0.0284
 4342SOL     OW24487   0.420   4.717   8.883  0.0018 -0.7040 -0.3029
 4342SOL    HW124488   0.383   4.690   8.967  0.3902 -0.9508 -0.2140
 4342SOL    HW224489   0.444   0.083   8.905 -3.7009  0.3292 -0.4648
 4343SOL     OW24490   0.019   1.489   3.557  0.4714 -0.1674  0.2737
 4343SOL    HW124491   4.691   1.567   3.578  0.0871 -0.4073  0.1934
 4343SOL    HW224492   4.690   1.463   3.482 -1.8660  2.7538  0.9265
 4344SOL     OW24493   1.162   3.725   7.715 -0.0368  0.0897  0.1832
 4344SOL    HW124494   1.212   3.677   7.649 -0.1030  0.4498 -0.1281
 4344SOL    HW224495   1.217   3.797   7.745  1.6291 -0.9234 -0.4362
 4345SOL     OW24496   1.465   1.999   9.133  0.1525 -0.5348 -0.0833
 4345SOL    HW124497   1.390   1.955   9.094 -0.4878 -0.0046  0.5375
 4345SOL    HW224498   1.499   2.040   9.054 -1.0065  1.1654  0.2974
 4346SOL     OW24499   0.782   4.116   8.311 -0.0385  0.2222 -0.3158
 4346SOL    HW124500   0.688   4.106   8.321 -0.0620  0.5250 -0.2289
 4346SOL    HW224501   0.806   4.030   8.345  0.4235 -0.4032 -2.2254
 4347SOL     OW24502   1.630   1.030   2.323  0.0827 -0.0998  0.8992
 4347SOL    HW124503   1.594   0.993   2.243  0.1819 -0.9472  1.2455
 4347SOL    HW224504   1.552   1.077   2.353  0.4848  0.7868  0.5557
 4348SOL     OW24505   1.467   0.376   7.029 -0.3846 -0.3212 -0.0504
 4348SOL    HW124506   1.407   0.448   7.047 -1.8933 -1.9911  1.5564
 4348SOL    HW224507   1.501   0.363   7.118 -3.5466 -4.6931  0.5014
 4349SOL     OW24508   4.378   2.824   7.768  0.0939  0.2896  0.0018
 4349SOL    HW124509   4.341   2.738   7.785 -1.7829  1.1281  0.1796
 4349SOL    HW224510   4.388   2.812   7.674 -0.1075  0.0005  0.0201
 4350SOL     OW24511   1.966   1.020   2.724 -0.0111  0.0205  0.4037
 4350SOL    HW124512   1.913   0.952   2.766  2.0850 -2.7980 -1.4535
 4350SOL    HW224513   2.046   1.009   2.776  0.8179 -0.6605 -1.0202
 4351SOL     OW24514   4.434   3.281  13.176 -0.2278 -0.1906  0.6204
 4351SOL    HW124515   4.517   3.303  13.134 -0.8280  1.0005  0.0691
 4351SOL    HW224516   4.471   3.256  13.261  0.9203 -0.0895  0.1474
 4352SOL     OW24517   3.046   0.799   2.978 -0.4194 -0.0014 -0.0612
 4352SOL    HW124518   3.107   0.734   2.945  1.5467  0.9797  1.6390
 4352SOL    HW224519   3.093   0.881   2.957  0.5582 -0.8544 -1.2237
 4353SOL     OW24520   4.463   4.694   4.021  0.1199 -1.0635 -0.3753
 4353SOL    HW124521   4.534   4.650   3.975 -0.5990 -1.2207 -1.3514
 4353SOL    HW224522   4.428   0.023   3.949  1.1067  0.4534  0.2823
 4354SOL     OW24523   0.429   2.441  14.916 -0.2723  0.0594  0.3389
 4354SOL    HW124524   0.485   2.386  14.861 -0.6844 -0.7805  0.7490
 4354SOL    HW224525   0.370   2.474  14.848 -2.5890 -0.7891  1.9132
 4355SOL     OW24526   1.906   3.833  17.483  0.2643  0.0219  0.0016
 4355SOL    HW124527   1.876   3.889  17.411  0.5450  1.5872  1.0959
 4355SOL    HW224528   1.839   3.765  17.477  0.7784 -0.5064  0.3007
 4356SOL     OW24529   3.207   0.546   8.672 -0.0638  0.4364  0.1094
 4356SOL    HW124530   3.118   0.523   8.701 -0.4890  1.8391 -0.0577
 4356SOL    HW224531   3.264   0.509   8.739 -0.5626  0.7314  0.6968
 4357SOL     OW24532   4.719   0.764   6.229 -0.3549 -0.5915 -0.0313
 4357SOL    HW124533   0.052   0.720   6.292  1.6050  4.6256  1.8072
 4357SOL    HW224534   4.633   0.732   6.258  0.1201 -1.0545  0.8500
 4358SOL     OW24535   2.075   4.492   4.211 -0.0116  0.0270 -0.4829
 4358SOL    HW124536   2.100   4.481   4.302  2.2125  1.0559 -0.9566
 4358SOL    HW224537   1.985   4.525   4.216  0.9487  2.8537 -1.7170
 4359SOL     OW24538   1.795   4.627   8.816 -0.3709 -0.0616  0.2340
 4359SOL    HW124539   1.703   4.649   8.830 -0.6055  0.1924 -1.6430
 4359SOL    HW224540   1.801   4.565   8.888  1.9119 -0.8163 -0.6049
 4360SOL     OW24541   4.037   4.363   1.543 -0.1114 -0.0298  0.4828
 4360SOL    HW124542   3.991   4.393   1.621  0.7320  2.7952 -0.1298
 4360SOL    HW224543   4.072   4.442   1.502 -0.7308  0.3363  0.6779
 4361SOL     OW24544   0.308   3.405   3.845  0.3878 -0.2682  0.0890
 4361SOL    HW124545   0.313   3.362   3.931 -2.9230  0.5398  0.6709
 4361SOL    HW224546   0.330   3.494   3.873 -1.1762  0.9769 -2.6215
 4362SOL     OW24547   0.718   4.481   5.958 -0.0649 -0.1572  0.5486
 4362SOL    HW124548   0.693   4.455   5.869  0.9651  0.4249  0.0920
 4362SOL    HW224549   0.649   4.440   6.011  0.7251 -0.7813  1.0991
 4363SOL     OW24550   0.253   2.176   5.221 -0.1566  0.2110 -0.3179
 4363SOL    HW124551   0.210   2.140   5.299  0.7820 -2.5840 -1.0895
 4363SOL    HW224552   0.238   2.105   5.158  0.4909  0.5715 -0.8660
 4364SOL     OW24553   3.218   0.111   9.150 -0.5983  0.7400 -0.3536
 4364SOL    HW124554   3.249   0.143   9.234  1.6352 -0.1894 -0.8119
 4364SOL    HW224555   3.259   0.025   9.155 -2.1129  0.0879  0.6983
 4365SOL     OW24556   0.539   0.950   4.552 -0.1525 -0.1516 -0.3976
 4365SOL    HW124557   0.620   0.899   4.547  1.7458  2.6672  1.9344
 4365SOL    HW224558   0.539   0.964   4.457 -0.2188 -1.9438 -0.6533
 4366SOL     OW24559   1.067   0.940   6.796 -0.4350 -0.0727  0.2623
 4366SOL    HW124560   0.982   0.903   6.818 -0.3077 -1.6116 -1.9033
 4366SOL    HW224561   1.082   0.914   6.705 -1.7173 -0.4267  0.1584
 4367SOL     OW24562   4.487   0.509   5.017  0.3799 -0.3620 -0.2498
 4367SOL    HW124563   4.480   0.565   4.940  1.0462 -0.9297 -0.7151
 4367SOL    HW224564   4.538   0.570   5.072  0.7179 -0.0530 -0.9025
 4368SOL     OW24565   1.349   2.955   6.174 -0.0194  0.2519 -0.4944
 4368SOL    HW124566   1.358   3.048   6.151 -0.6703  0.7544  1.2909
 4368SOL    HW224567   1.259   2.943   6.145 -0.4194 -1.5692  1.5088
 4369SOL     OW24568   2.599   4.106  10.545  0.1411 -0.0748  0.3099
 4369SOL    HW124569   2.670   4.041  10.544  2.2686  2.2900 -1.3056
 4369SOL    HW224570   2.644   4.184  10.579 -0.4622  0.6652 -0.5941
 4370SOL     OW24571   2.379   0.276   1.348 -0.2396 -0.1686 -0.1149
 4370SOL    HW124572   2.295   0.245   1.382 -0.1138  0.0975  0.4385
 4370SOL    HW224573   2.354   0.368   1.356 -0.7090 -0.3294  0.2792
 4371SOL     OW24574   3.524   1.090   3.708 -0.5299 -1.0914  1.0368
 4371SOL    HW124575   3.615   1.107   3.681 -0.7951 -0.7713  0.3374
 4371SOL    HW224576   3.501   1.182   3.713  2.3282 -0.2743 -1.2541
 4372SOL     OW24577   3.258   4.615   1.688 -0.0900  0.1674 -0.0491
 4372SOL    HW124578   3.179   4.667   1.702  0.1476  0.0882  1.5737
 4372SOL    HW224579   3.306   4.670   1.626  0.8800  0.9276  1.3639
 4373SOL     OW24580   2.401   2.371   7.471 -1.0284  0.2422  0.1088
 4373SOL    HW124581   2.482   2.417   7.452 -0.4696 -1.7589 -2.3136
 4373SOL    HW224582   2.344   2.418   7.410  1.2786  1.0469 -1.3956
 4374SOL     OW24583   4.338   3.291   4.718  0.0857 -0.4355 -0.0350
 4374SOL    HW124584   4.394   3.267   4.791  1.2420 -3.3494 -1.8876
 4374SOL    HW224585   4.346   3.209   4.670 -0.9548 -1.7242  1.9934
 4375SOL     OW24586   1.127   0.651   5.809 -0.4150 -0.0887  0.1374
 4375SOL    HW124587   1.175   0.685   5.734  0.0181 -1.9962 -0.4595
 4375SOL    HW224588   1.111   0.567   5.766  0.1481  0.4048 -1.0462
 4376SOL     OW24589   3.423   3.033  10.946 -0.1480 -0.5248  0.0930
 4376SOL    HW124590   3.363   3.093  10.990 -0.1041  1.2690 -2.2649
 4376SOL    HW224591   3.448   2.971  11.014  1.4321 -1.0737 -0.9910
 4377SOL     OW24592   1.552   1.547   9.862  0.2438 -0.1829  0.4931
 4377SOL    HW124593   1.547   1.465   9.812 -0.6287  0.5381 -0.6029
 4377SOL    HW224594   1.586   1.518   9.946 -2.9719  0.4027  2.0134
 4378SOL     OW24595   3.173   2.227   7.377 -0.2155  0.4865 -0.2551
 4378SOL    HW124596   3.145   2.202   7.289  0.3074 -0.3139 -0.1937
 4378SOL    HW224597   3.258   2.271   7.374  0.5726 -0.8611  1.9912
 4379SOL     OW24598   2.931   3.587   2.389 -0.2048 -0.2898 -0.0532
 4379SOL    HW124599   2.974   3.666   2.422  0.3307 -0.6814  0.2077
 4379SOL    HW224600   2.852   3.607   2.439 -0.0491 -1.3219  0.6342
 4380SOL     OW24601   0.672   3.507   2.113 -0.1571 -0.2059 -0.1003
 4380SOL    HW124602   0.689   3.553   2.031 -1.6246 -2.6878 -1.8122
 4380SOL    HW224603   0.753   3.526   2.161 -0.6343  0.3494  0.4756
 4381SOL     OW24604   0.092   1.749  17.280  0.4143  0.0352  0.0053
 4381SOL    HW124605   0.082   1.671  17.225  0.0489  0.1671 -0.1140
 4381SOL    HW224606   0.001   1.776  17.283  0.4974  0.1672  1.4265
 4382SOL     OW24607   0.950   2.332   5.927 -0.2327  0.3732 -0.0423
 4382SOL    HW124608   1.021   2.279   5.891  0.3047 -0.5386  2.3485
 4382SOL    HW224609   0.871   2.287   5.896  1.0283 -0.9732 -1.2632
 4383SOL     OW24610   1.736   1.899  12.434  0.1458 -0.9082 -0.3532
 4383SOL    HW124611   1.758   1.810  12.464  2.9999 -0.0943 -0.0874
 4383SOL    HW224612   1.725   1.891  12.339  0.7503  2.8535 -0.7259
 4384SOL     OW24613   3.996   2.207   2.856  0.6708  0.0621  0.4605
 4384SOL    HW124614   3.944   2.265   2.910 -1.8750 -0.2156 -1.7108
 4384SOL    HW224615   4.006   2.124   2.904  1.0665  0.7660  1.5812
 4385SOL     OW24616   2.193   0.963   2.896 -0.2671  0.1098 -0.1147
 4385SOL    HW124617   2.265   0.991   2.839 -1.1198  1.0256 -0.7469
 4385SOL    HW224618   2.230   0.907   2.964 -0.7510 -2.8116 -2.2036
 4386SOL     OW24619   0.683   3.115   9.228  0.1740 -0.2888 -0.5320
 4386SOL    HW124620   0.601   3.113   9.180  0.8627  1.1279 -1.7357
 4386SOL    HW224621   0.735   3.059   9.170 -2.2180  1.0083 -3.8995
 4387SOL     OW24622   0.027   1.044  12.136  0.2855 -0.2339  0.4205
 4387SOL    HW124623   0.110   1.034  12.184  0.5315  1.1128  0.2734
 4387SOL    HW224624   4.699   0.979  12.183 -0.1266  1.2479  2.0132
 4388SOL     OW24625   2.445   0.121  16.674 -0.4311 -0.0466 -0.5626
 4388SOL    HW124626   2.455   0.028  16.693  0.6180 -0.0529 -1.1426
 4388SOL    HW224627   2.379   0.132  16.605 -0.3511  0.9109 -0.4864
 4389SOL     OW24628   4.474   0.958  13.825  0.2882  0.4800  0.0806
 4389SOL    HW124629   4.563   0.933  13.848 -0.6143 -1.1210  1.8963
 4389SOL    HW224630   4.455   1.021  13.894 -1.9846 -1.2870  1.0960
 4390SOL     OW24631   3.776   0.790   0.589 -0.1746  0.1731 -0.2726
 4390SOL    HW124632   3.829   0.766   0.664 -2.4513 -1.3308  0.8615
 4390SOL    HW224633   3.729   0.868   0.619  0.3423  1.0442 -1.7435
 4391SOL     OW24634   3.416   3.108   2.493  0.0004 -0.5276  0.1907
 4391SOL    HW124635   3.489   3.048   2.475 -0.6239 -0.9608 -0.8754
 4391SOL    HW224636   3.381   3.130   2.407  2.9163  1.7405 -0.4426
 4392SOL     OW24637   2.094   0.475  12.314  0.2389  0.1560 -0.1784
 4392SOL    HW124638   2.155   0.510  12.379  1.4218 -0.8592 -0.7317
 4392SOL    HW224639   2.012   0.480  12.363 -1.0987  1.2329 -2.5377
 4393SOL     OW24640   2.284   3.566   4.785 -0.0012  0.2307 -0.1020
 4393SOL    HW124641   2.280   3.661   4.781  0.5586  0.2855  0.6702
 4393SOL    HW224642   2.201   3.551   4.741 -0.2720  0.4693  0.3380
 4394SOL     OW24643   4.645   3.116   2.077  1.0006 -0.2437 -0.1650
 4394SOL    HW124644   4.563   3.163   2.093  0.1409 -1.4790 -0.9182
 4394SOL    HW224645   4.669   3.087   2.165  1.7917 -0.2165 -0.3686
 4395SOL     OW24646   0.073   1.335   2.896  0.6298 -0.8106 -0.4537
 4395SOL    HW124647   4.709   1.340   2.932  1.1464 -1.0104  0.8297
 4395SOL    HW224648   0.099   1.427   2.890  0.6975 -0.8470 -0.7384
 4396SOL     OW24649   4.372   0.703  13.457  0.2045 -0.0871  0.5905
 4396SOL    HW124650   4.444   0.647  13.486  0.0028 -0.7395 -0.1731
 4396SOL    HW224651   4.331   0.729  13.539 -2.3994  0.1983 -0.7991
 4397SOL     OW24652   0.264   3.271   1.279 -0.0920 -0.0248  0.0227
 4397SOL    HW124653   0.240   3.361   1.304  1.2602  0.0815  0.9803
 4397SOL    HW224654   0.357   3.280   1.255  0.0315  2.8383  1.4933
 4398SOL     OW24655   4.548   2.125  15.972  0.2837 -0.6900 -0.4084
 4398SOL    HW124656   4.493   2.049  15.950 -0.2033 -1.2680  2.8217
 4398SOL    HW224657   4.482   2.165  16.028  0.2447  0.5861 -1.3527
 4399SOL     OW24658   4.445   2.891  15.578 -0.0352 -0.4407 -0.7510
 4399SOL    HW124659   4.493   2.910  15.497 -1.2209  0.3263 -1.2656
 4399SOL    HW224660   4.388   2.967  15.593  1.4907  0.5774 -0.1455
 4400SOL     OW24661   0.609   4.129   5.662 -0.4510 -0.6343 -0.0323
 4400SOL    HW124662   0.519   4.102   5.642  0.1497 -1.5763 -1.4925
 4400SOL    HW224663   0.627   4.108   5.754 -0.8367 -1.4841 -0.1451
 4401SOL     OW24664   0.876   2.898   0.228 -0.3973 -0.0867 -0.2978
 4401SOL    HW124665   0.850   2.973   0.282  0.9578 -0.3173  0.6807
 4401SOL    HW224666   0.798   2.844   0.241 -2.1927  2.8694  1.4521
 4402SOL     OW24667   3.011   1.237   7.042  0.6594 -0.1410  0.6224
 4402SOL    HW124668   2.986   1.194   7.124 -0.1358  0.0030  0.4505
 4402SOL    HW224669   2.961   1.319   7.047  0.4838 -0.1808 -0.5990
 4403SOL     OW24670   1.071   2.163   2.490  0.5032 -0.0954  0.2190
 4403SOL    HW124671   0.988   2.116   2.481 -0.2334  1.0231  1.1196
 4403SOL    HW224672   1.129   2.106   2.440  2.9305  0.9660  1.8511
 4404SOL     OW24673   1.775   3.795  13.030 -0.0576  0.2012 -0.0186
 4404SOL    HW124674   1.731   3.721  12.989  0.2802  0.3251 -0.6107
 4404SOL    HW224675   1.862   3.785  12.991  0.3575  1.3066  0.6366
 4405SOL     OW24676   2.651   1.293   0.127  0.1285  0.2757  0.4828
 4405SOL    HW124677   2.572   1.274   0.177  0.0096  1.7274  0.8429
 4405SOL    HW224678   2.720   1.295   0.194 -1.7871  0.5889  2.4392
 4406SOL     OW24679   2.170   4.642   3.968  0.0144 -0.5973  0.3250
 4406SOL    HW124680   2.156   4.607   4.056 -1.6089  0.1864  0.3758
 4406SOL    HW224681   2.176   0.012   3.984 -0.5585 -0.1748 -1.9118
 4407SOL     OW24682   2.047   2.022  13.357  0.5268  0.0469 -0.4283
 4407SOL    HW124683   2.076   1.993  13.443 -1.9510 -0.5483  0.1859
 4407SOL    HW224684   2.062   2.116  13.369  0.2460  0.3648 -2.4336
 4408SOL     OW24685   0.763   1.064   3.099 -0.1973  0.1792  0.1505
 4408SOL    HW124686   0.817   1.043   3.176  0.1948 -1.0285 -0.4378
 4408SOL    HW224687   0.705   0.988   3.099  0.0048  0.0254  0.9368
 4409SOL     OW24688   4.467   1.325   9.419 -0.6989 -0.0982  0.6907
 4409SOL    HW124689   4.376   1.299   9.435 -1.3041  0.6678 -1.5380
 4409SOL    HW224690   4.469   1.371   9.336  0.3508 -0.7262  0.3731
 4410SOL     OW24691   3.866   1.719  15.201 -0.2066 -0.2015  0.2582
 4410SOL    HW124692   3.799   1.654  15.222 -1.6296  1.3540  0.5934
 4410SOL    HW224693   3.817   1.774  15.139 -0.8665  1.2548  2.0906
 4411SOL     OW24694   3.105   3.844   8.399  0.1815 -0.1687 -0.3359
 4411SOL    HW124695   3.149   3.859   8.315 -1.8348  0.2671 -1.3180
 4411SOL    HW224696   3.133   3.920   8.450 -1.3427  0.7426 -0.8521
 4412SOL     OW24697   4.029   2.473   5.630  0.4998 -0.0613  0.1275
 4412SOL    HW124698   4.077   2.514   5.701 -0.7695  0.4268  0.6891
 4412SOL    HW224699   4.094   2.418   5.584  1.7063  1.0912  0.4574
 4413SOL     OW24700   3.070   2.368   7.802  0.1422  0.4486 -0.4550
 4413SOL    HW124701   3.089   2.299   7.865 -1.3766 -2.0642 -2.7521
 4413SOL    HW224702   3.130   2.437   7.830  0.1689  0.3820 -0.3463
 4414SOL     OW24703   4.130   1.448  14.008  0.0685 -0.3229 -0.0463
 4414SOL    HW124704   4.138   1.523  14.066  1.3025  0.5954 -1.4146
 4414SOL    HW224705   4.079   1.486  13.936 -0.2391  1.0835  0.9095
 4415SOL     OW24706   3.850   0.692   3.329 -0.2686 -0.8556  0.1507
 4415SOL    HW124707   3.936   0.671   3.291 -0.1439 -1.0457  0.5361
 4415SOL    HW224708   3.817   0.772   3.288 -0.7019 -0.9203  0.3704
 4416SOL     OW24709   4.372   3.630   1.212  0.2584 -0.4309 -0.4484
 4416SOL    HW124710   4.306   3.562   1.209  0.4937 -0.7220  1.0474
 4416SOL    HW224711   4.433   3.574   1.260 -2.4011 -1.3466  1.8568
 4417SOL     OW24712   1.055   0.993   3.163 -0.2917 -0.2962 -0.0508
 4417SOL    HW124713   1.039   0.899   3.175  0.4817 -0.5562 -1.0949
 4417SOL    HW224714   1.096   1.012   3.246  0.9739  0.5953 -0.8901
 4418SOL     OW24715   4.002   3.594  17.672 -0.3267  0.4361  0.3211
 4418SOL    HW124716   3.945   3.532  17.625 -0.2597 -0.6833  1.7011
 4418SOL    HW224717   4.015   3.541   0.053 -2.4019 -1.1553 -0.3814
 4419SOL     OW24718   1.986   1.500  15.643 -0.1369  0.6955 -0.8860
 4419SOL    HW124719   1.945   1.421  15.680 -1.9280  1.6562 -0.8086
 4419SOL    HW224720   2.023   1.534  15.724 -0.4277 -1.9901  0.3973
 4420SOL     OW24721   2.976   4.012   9.438 -0.8659  0.5176 -0.7815
 4420SOL    HW124722   3.026   4.092   9.421  3.0008 -1.3907  1.4529
 4420SOL    HW224723   2.899   4.052   9.478 -0.6871  1.8672 -1.7986
 4421SOL     OW24724   0.628   3.600  14.875 -0.1344  0.2347 -0.7602
 4421SOL    HW124725   0.562   3.575  14.940  0.6688  1.3284  0.4755
 4421SOL    HW224726   0.604   3.529  14.816  1.0963 -1.0760  0.2924
 4422SOL     OW24727   2.238   0.909   5.579 -0.0750 -0.3329 -0.1056
 4422SOL    HW124728   2.272   0.981   5.632  1.6476 -0.7588 -0.6289
 4422SOL    HW224729   2.148   0.895   5.607 -0.4522  1.4688 -0.4433
 4423SOL     OW24730   2.758   2.710   1.641  0.5348 -0.0437  0.6331
 4423SOL    HW124731   2.677   2.690   1.593  2.3373  1.6622 -3.1325
 4423SOL    HW224732   2.725   2.748   1.723 -2.5629  0.4051 -0.8177
 4424SOL     OW24733   2.137   4.575   9.276 -0.1465  0.4180  0.2004
 4424SOL    HW124734   2.083   4.627   9.215 -1.1280  2.0080  2.4319
 4424SOL    HW224735   2.222   4.585   9.234 -0.9543 -0.1629 -1.5698
 4425SOL     OW24736   2.806   3.448   7.851  0.3235  0.2319 -0.1765
 4425SOL    HW124737   2.835   3.407   7.932  0.0665  0.4056  0.0032
 4425SOL    HW224738   2.777   3.371   7.801 -1.4821  0.0057  1.2156
 4426SOL     OW24739   2.453   0.375   6.274 -0.8158  0.3307 -0.0311
 4426SOL    HW124740   2.431   0.467   6.284 -1.5867  0.0380  0.8965
 4426SOL    HW224741   2.387   0.327   6.324 -0.1570  1.0263  1.5242
 4427SOL     OW24742   1.832   2.897   6.397 -0.3872 -0.1189 -0.8943
 4427SOL    HW124743   1.917   2.912   6.438 -1.6130 -0.2936  1.6867
 4427SOL    HW224744   1.784   2.894   6.480  1.0892 -1.8527 -0.0966
 4428SOL     OW24745   3.315   3.146   3.963  0.3972  0.5327  0.2683
 4428SOL    HW124746   3.371   3.072   3.939  0.6279  0.9076 -0.3615
 4428SOL    HW224747   3.350   3.161   4.051  0.2399 -1.4665  0.6679
 4429SOL     OW24748   0.225   2.721   8.722 -0.5390  0.4535 -0.1164
 4429SOL    HW124749   0.167   2.673   8.663 -0.2095  0.9471 -0.8335
 4429SOL    HW224750   0.234   2.803   8.673 -3.5696  0.4224 -0.6916
 4430SOL     OW24751   1.913   2.363   4.355  0.2767  0.5471 -0.0173
 4430SOL    HW124752   1.829   2.385   4.315  0.2398 -0.8441 -0.7160
 4430SOL    HW224753   1.969   2.397   4.284 -0.8509 -0.4291 -1.3810
 4431SOL     OW24754   3.555   3.911  10.847  0.2267 -0.0910 -0.5929
 4431SOL    HW124755   3.485   3.905  10.912  0.0565  1.1802 -0.6599
 4431SOL    HW224756   3.637   3.924  10.896 -0.3565  0.4171  0.2507
 4432SOL     OW24757   4.238   2.701  16.485  0.4073  0.1807 -0.5802
 4432SOL    HW124758   4.155   2.741  16.456 -0.8342 -1.2526  1.0292
 4432SOL    HW224759   4.283   2.771  16.531 -0.0463 -0.5391  0.9584
 4433SOL     OW24760   0.615   0.363   4.390 -0.7119  0.5036  0.0369
 4433SOL    HW124761   0.594   0.295   4.326  1.7718  1.2589 -1.5774
 4433SOL    HW224762   0.642   0.321   4.472  0.1044 -0.2246 -0.6034
 4434SOL     OW24763   3.817   3.950   1.559 -0.0146 -0.3002  0.7925
 4434SOL    HW124764   3.785   3.998   1.482  0.3342  0.1046  0.9025
 4434SOL    HW224765   3.906   3.983   1.573 -0.0665  0.2775 -0.1991
 4435SOL     OW24766   2.913   0.362   4.286 -0.0112 -0.0679  0.2883
 4435SOL    HW124767   2.857   0.297   4.327  1.2322 -0.7302  0.9468
 4435SOL    HW224768   2.871   0.440   4.321 -0.9108 -0.0617 -0.7968
 4436SOL     OW24769   3.780   3.851   2.667 -0.3150 -0.1278  0.2541
 4436SOL    HW124770   3.781   3.758   2.643 -0.3018 -0.4213  1.3815
 4436SOL    HW224771   3.767   3.894   2.583  2.3842  0.9400  0.3811
 4437SOL     OW24772   4.634   2.454   1.988  0.0305  0.2923  0.2539
 4437SOL    HW124773   4.632   2.369   1.943 -0.4910  1.0844 -1.2223
 4437SOL    HW224774   4.563   2.504   1.948 -0.4930 -1.4473 -1.0313
 4438SOL     OW24775   2.557   1.289  12.919  0.1539  0.1220 -0.0723
 4438SOL    HW124776   2.475   1.336  12.930  0.1812 -0.3253  2.0080
 4438SOL    HW224777   2.536   1.221  12.983 -2.2836  2.2859  1.4496
 4439SOL     OW24778   4.556   4.571   4.823  0.0328  0.0119  0.6467
 4439SOL    HW124779   4.531   4.651   4.870 -1.1503  1.8993 -3.1939
 4439SOL    HW224780   4.549   4.600   4.732  1.4052  2.6027  1.3608
 4440SOL     OW24781   3.335   2.819   2.412  0.4427 -0.2639 -0.1497
 4440SOL    HW124782   3.429   2.835   2.404  0.1079  1.4085 -0.7733
 4440SOL    HW224783   3.321   2.725   2.419 -0.8278  0.0018  0.8884
 4441SOL     OW24784   1.679   4.058   7.442 -0.2128 -0.0884 -0.1890
 4441SOL    HW124785   1.644   3.970   7.457  1.1635 -0.5494  0.3236
 4441SOL    HW224786   1.674   4.050   7.346 -1.0508 -0.5451 -0.1079
 4442SOL     OW24787   4.275   1.438   3.564  0.4524  0.1199 -0.3188
 4442SOL    HW124788   4.358   1.433   3.612 -0.0248  0.4091  0.5528
 4442SOL    HW224789   4.211   1.440   3.635  0.4192 -0.5408 -0.3317
 4443SOL     OW24790   3.389   2.291  15.267 -0.0565  0.4436  0.6251
 4443SOL    HW124791   3.310   2.302  15.321 -0.0759  2.9007  0.0888
 4443SOL    HW224792   3.415   2.200  15.281  0.0621  0.4377  0.3553
 4444SOL     OW24793   3.187   1.085  16.078 -0.0021 -0.4908 -0.7970
 4444SOL    HW124794   3.245   1.110  16.151 -2.2251 -1.3082  1.2638
 4444SOL    HW224795   3.121   1.150  16.103  0.4997 -0.5059  0.5696
 4445SOL     OW24796   2.111   0.347   0.832 -0.1907 -0.5822  0.5789
 4445SOL    HW124797   2.187   0.403   0.818 -0.5452  0.1337  1.5320
 4445SOL    HW224798   2.047   0.407   0.869 -1.1211 -0.6957 -0.8568
 4446SOL     OW24799   4.683   1.666   1.129 -0.2355 -0.4227 -0.0533
 4446SOL    HW124800   4.711   1.633   1.044 -2.2463 -2.5999  0.1244
 4446SOL    HW224801   4.599   1.621   1.134  0.6598 -2.1627 -0.4058
 4447SOL     OW24802   3.949   3.464   2.044  0.4450  0.2838 -0.5625
 4447SOL    HW124803   3.999   3.397   1.998 -1.0360  0.2662 -2.1585
 4447SOL    HW224804   4.008   3.539   2.032 -0.9399  1.5148  0.3087
 4448SOL     OW24805   3.811   3.236  11.322  0.1338  0.0397  0.5001
 4448SOL    HW124806   3.808   3.149  11.364  0.9204 -0.7784 -1.1260
 4448SOL    HW224807   3.777   3.217  11.235 -1.0113 -3.8142  1.7751
 4449SOL     OW24808   4.166   0.262  11.002  0.4295 -0.4720  0.5728
 4449SOL    HW124809   4.233   0.305  10.948 -0.5013  1.0980  0.6591
 4449SOL    HW224810   4.096   0.327  10.989 -0.0032 -0.6390  2.0632
 4450SOL     OW24811   0.168   1.707  10.153 -0.3227  0.1147 -0.4568
 4450SOL    HW124812   0.228   1.652  10.203  1.3504 -0.3500 -2.9808
 4450SOL    HW224813   0.221   1.769  10.103 -0.1306  1.4307  1.4233
 4451SOL     OW24814   0.090   3.364   2.623 -0.5718 -0.4173 -0.1965
 4451SOL    HW124815   0.158   3.296   2.620  0.5930  0.5831  3.8181
 4451SOL    HW224816   0.041   3.344   2.703  1.9338  0.9415  1.6638
 4452SOL     OW24817   4.290   2.566   7.271  0.4820  0.3669  0.0772
 4452SOL    HW124818   4.341   2.576   7.190  0.8883  0.2245  0.3148
 4452SOL    HW224819   4.232   2.495   7.242 -2.0168  0.9956  3.5578
 4453SOL     OW24820   2.406   0.299   8.570 -0.0185  0.1553 -0.5547
 4453SOL    HW124821   2.314   0.279   8.588 -0.2031  1.4065 -0.1030
 4453SOL    HW224822   2.409   0.275   8.478  0.0507 -1.5863 -0.0886
 4454SOL     OW24823   3.470   0.139  13.245 -0.6470 -0.7856  0.1141
 4454SOL    HW124824   3.436   0.106  13.328  1.5279  0.2598  1.4030
 4454SOL    HW224825   3.391   0.128  13.192 -0.2006  1.8034 -1.1230
 4455SOL     OW24826   3.824   0.558   6.004 -0.2419  0.4909  0.1797
 4455SOL    HW124827   3.843   0.563   6.098 -2.8140  0.5761  0.7064
 4455SOL    HW224828   3.754   0.623   5.997 -1.4804 -0.5548  2.6786
 4456SOL     OW24829   4.384   0.631   8.095 -0.2939 -0.0698  0.3026
 4456SOL    HW124830   4.433   0.561   8.053 -1.4355 -0.6042 -0.1428
 4456SOL    HW224831   4.432   0.710   8.072 -0.3770  0.3860  1.7380
 4457SOL     OW24832   4.650   1.626  13.417 -0.3481  0.5316 -0.0996
 4457SOL    HW124833   4.569   1.659  13.377 -0.4453  1.2752  0.7107
 4457SOL    HW224834   4.674   1.687  13.486 -1.0142  0.8523 -0.1523
 4458SOL     OW24835   2.175   3.451   5.048 -0.8769  0.0114 -0.4337
 4458SOL    HW124836   2.080   3.463   5.050 -0.6793  1.4753  0.0876
 4458SOL    HW224837   2.197   3.439   4.956  0.1021  3.1972 -0.6008
 4459SOL     OW24838   4.501   4.092   3.089 -0.7349 -0.5549  0.7366
 4459SOL    HW124839   4.547   4.175   3.100 -0.4119 -0.8253  1.4328
 4459SOL    HW224840   4.436   4.107   3.158 -1.4678 -0.5332  0.0385
 4460SOL     OW24841   4.263   2.450   1.932  0.2214 -0.1661 -0.0224
 4460SOL    HW124842   4.304   2.368   1.960  1.4822  0.2650 -0.6190
 4460SOL    HW224843   4.336   2.511   1.937 -0.1683  0.3055 -0.1486
 4461SOL     OW24844   2.512   0.725   3.640 -0.0011  0.4474 -0.0514
 4461SOL    HW124845   2.574   0.732   3.568  0.8380  0.4980  0.6721
 4461SOL    HW224846   2.482   0.816   3.644  0.9067  0.8037 -1.4431
 4462SOL     OW24847   4.365   2.434   3.571  0.1460  0.0390  0.0294
 4462SOL    HW124848   4.347   2.365   3.634 -0.8983  1.4352  1.2527
 4462SOL    HW224849   4.460   2.423   3.562  0.0481 -0.1634 -0.8157
 4463SOL     OW24850   3.583   0.075  12.479  0.4862  0.3145 -1.0338
 4463SOL    HW124851   3.662   0.115  12.514  1.2741 -2.5613  0.4503
 4463SOL    HW224852   3.610   0.038  12.395  0.6430 -0.3928 -0.6722
 4464SOL     OW24853   3.857   2.987  11.465 -0.1456  0.4522 -0.3304
 4464SOL    HW124854   3.867   2.962  11.557 -1.0776 -0.1571 -0.3852
 4464SOL    HW224855   3.859   2.906  11.414  3.7753  1.9580 -2.5169
 4465SOL     OW24856   1.119   0.281   7.391 -0.3361 -0.2930 -0.0910
 4465SOL    HW124857   1.121   0.352   7.328  0.1246  1.1078  1.5130
 4465SOL    HW224858   1.050   0.221   7.363 -0.5577 -0.4001  0.6795
 4466SOL     OW24859   2.340   1.923   9.409  0.2155  0.2616  0.1963
 4466SOL    HW124860   2.275   1.878   9.356 -1.3636  1.4477  1.1124
 4466SOL    HW224861   2.293   2.001   9.440  1.9631  1.1985  0.5102
 4467SOL     OW24862   4.223   1.134   8.341 -0.2994 -0.1887  0.4118
 4467SOL    HW124863   4.214   1.047   8.379 -1.0106 -0.4255 -0.2934
 4467SOL    HW224864   4.265   1.184   8.411  1.7666 -1.1645 -0.1323
 4468SOL     OW24865   4.418   4.019   4.855  0.3823  0.3208  0.0818
 4468SOL    HW124866   4.481   3.971   4.908  1.2878  1.9293  0.4783
 4468SOL    HW224867   4.466   4.018   4.772  3.0238 -0.7639  1.6265
 4469SOL     OW24868   3.584   1.266   7.637  0.1055  0.2754 -0.0113
 4469SOL    HW124869   3.516   1.262   7.569  0.9961  1.2987 -0.9553
 4469SOL    HW224870   3.624   1.351   7.620 -0.6477  0.9483  1.5231
 4470SOL     OW24871   2.830   3.553   6.004 -0.1873 -0.7684  0.1608
 4470SOL    HW124872   2.840   3.637   6.049 -0.4239 -0.1427 -0.9412
 4470SOL    HW224873   2.742   3.525   6.029 -0.0491  1.5292  3.1861
 4471SOL     OW24874   2.208   2.460   9.678 -0.0057 -0.3738 -1.0958
 4471SOL    HW124875   2.268   2.488   9.747 -0.5807 -1.4170 -0.1770
 4471SOL    HW224876   2.146   2.403   9.724 -0.0061  1.6434  1.3805
 4472SOL     OW24877   4.627   2.087   7.033 -0.4719 -0.1537 -0.0895
 4472SOL    HW124878   4.574   2.011   7.056 -2.1040  0.7912 -0.6701
 4472SOL    HW224879   4.608   2.152   7.101 -0.1903  0.6336 -0.7561
 4473SOL     OW24880   1.860   3.979   7.810 -0.1379  0.1856 -0.1636
 4473SOL    HW124881   1.880   3.892   7.775  2.1834  0.3014  0.9249
 4473SOL    HW224882   1.937   4.008   7.857  0.3518 -3.2388  1.1771
 4474SOL     OW24883   2.275   4.004   9.863  0.2072  0.9736 -0.2187
 4474SOL    HW124884   2.359   3.962   9.846  0.3012  1.1625 -0.2243
 4474SOL    HW224885   2.228   3.957   9.795  0.8652  0.1934 -0.1443
 4475SOL     OW24886   4.160   0.475   4.377 -0.5876  0.4667 -0.3636
 4475SOL    HW124887   4.148   0.412   4.306  0.0139  0.5662 -0.5479
 4475SOL    HW224888   4.236   0.527   4.350  2.0025 -2.5756  1.1647
 4476SOL     OW24889   0.838   3.837   8.365 -0.0690  0.0996  0.0375
 4476SOL    HW124890   0.758   3.784   8.363 -0.3018  0.4683 -0.6420
 4476SOL    HW224891   0.878   3.816   8.280 -2.3459 -3.2411 -0.2383
 4477SOL     OW24892   2.567   4.181   3.327  0.0541 -0.2184  0.1893
 4477SOL    HW124893   2.525   4.095   3.326  1.3645 -0.8447 -0.0620
 4477SOL    HW224894   2.553   4.207   3.236 -0.0620 -0.9141  0.0107
 4478SOL     OW24895   0.583   0.340   5.526 -0.3307  0.1002 -0.3720
 4478SOL    HW124896   0.613   0.340   5.435 -0.7574  0.6252 -0.5114
 4478SOL    HW224897   0.627   0.261   5.558  2.3374  1.7133 -0.0838
 4479SOL     OW24898   2.327   2.711   7.103  0.0697 -0.2857 -0.5223
 4479SOL    HW124899   2.262   2.649   7.070 -1.4758  0.9814  0.1442
 4479SOL    HW224900   2.328   2.786   7.042 -1.7461  1.6638  1.8313
 4480SOL     OW24901   1.830   4.250   8.751 -0.0195 -0.0674  0.3057
 4480SOL    HW124902   1.835   4.228   8.844  0.5328 -0.6317  0.1456
 4480SOL    HW224903   1.753   4.198   8.730 -0.4504 -0.1478  2.0454
 4481SOL     OW24904   1.097   2.826   6.443  0.3994 -0.0091 -0.0148
 4481SOL    HW124905   1.193   2.821   6.437  0.4091  0.0746  0.0806
 4481SOL    HW224906   1.077   2.781   6.361  1.2957 -0.8928  0.2466
 4482SOL     OW24907   2.463   4.567  15.077  0.7579 -0.6349  0.2935
 4482SOL    HW124908   2.499   4.567  14.988  0.5598 -1.5050  0.2067
 4482SOL    HW224909   2.481   4.657  15.104 -3.2375  0.8594 -2.0298
 4483SOL     OW24910   3.377   2.386  11.590 -0.0323 -0.5913  0.1336
 4483SOL    HW124911   3.471   2.405  11.592 -0.2612  0.6229 -0.6867
 4483SOL    HW224912   3.372   2.296  11.622  0.4670 -0.6513  0.0378
 4484SOL     OW24913   0.563   1.114   8.228 -0.1386 -0.9300 -0.1441
 4484SOL    HW124914   0.468   1.117   8.241 -0.1443  0.8411 -0.4862
 4484SOL    HW224915   0.584   1.197   8.184 -3.2252  0.1759  0.4438
 4485SOL     OW24916   0.618   3.206   4.251  0.6095  0.3288 -0.7280
 4485SOL    HW124917   0.651   3.127   4.294  2.1401  0.9719 -0.7343
 4485SOL    HW224918   0.547   3.170   4.197 -0.2552 -0.1379  0.7065
 4486SOL     OW24919   3.880   1.760   7.873  0.3615  0.5283 -0.0210
 4486SOL    HW124920   3.873   1.847   7.913  1.1618  0.9033 -0.7113
 4486SOL    HW224921   3.823   1.702   7.925  2.7034 -2.1187 -0.3871
 4487SOL     OW24922   0.136   2.814   6.397 -0.3558  0.0513  0.0179
 4487SOL    HW124923   0.176   2.839   6.314 -0.9363  0.3802 -0.1588
 4487SOL    HW224924   0.215   2.784   6.442 -0.6486 -0.3011  0.3026
 4488SOL     OW24925   4.030   1.787  16.110  0.1574  0.2364  0.6407
 4488SOL    HW124926   3.995   1.711  16.158 -0.7409  0.0451 -0.3161
 4488SOL    HW224927   4.077   1.750  16.035 -0.4600  0.4948  0.1329
 4489SOL     OW24928   4.515   3.010   2.367 -0.8785  0.2027  0.3162
 4489SOL    HW124929   4.488   3.060   2.444 -0.0739  0.2244  0.5849
 4489SOL    HW224930   4.514   2.920   2.400 -1.8597  0.5072  1.1188
 4490SOL     OW24931   0.963   1.916  10.251  0.2996  0.3182 -0.6022
 4490SOL    HW124932   0.985   1.953  10.337  1.6309 -0.8883 -0.4184
 4490SOL    HW224933   0.998   1.966  10.177  0.8460  1.7124  0.5840
 4491SOL     OW24934   3.586   3.643   1.544 -0.2462  0.3973 -0.0845
 4491SOL    HW124935   3.607   3.574   1.607 -0.1298 -0.5527 -1.1539
 4491SOL    HW224936   3.674   3.680   1.536  0.3349 -1.2889 -1.4722
 4492SOL     OW24937   1.402   2.675  14.819 -0.2014  0.0509  0.2906
 4492SOL    HW124938   1.445   2.737  14.877 -0.8288  0.2721  0.5287
 4492SOL    HW224939   1.338   2.635  14.878 -0.0634 -0.9986 -0.2721
 4493SOL     OW24940   0.957   0.043  14.868  0.3999 -0.2909  0.1793
 4493SOL    HW124941   0.934   4.684  14.912  2.4865 -0.9661 -0.0441
 4493SOL    HW224942   1.007   0.083  14.939  1.5596  1.5752 -1.7092
 4494SOL     OW24943   3.899   1.990   2.583 -0.0939 -0.3886  0.3084
 4494SOL    HW124944   3.910   1.896   2.573 -0.5777 -0.2776 -1.2394
 4494SOL    HW224945   3.985   2.024   2.559  0.4472 -1.3721  0.8654
 4495SOL     OW24946   2.448   0.071   6.537  0.3974  0.4531  0.3223
 4495SOL    HW124947   2.494   0.055   6.619 -0.6066  1.3875  1.0746
 4495SOL    HW224948   2.426   4.703   6.519  0.7658  0.4483 -0.1234
 4496SOL     OW24949   3.764   3.900   7.795  0.2577  0.2271  0.4223
 4496SOL    HW124950   3.681   3.948   7.798  0.9515  1.3384  1.9076
 4496SOL    HW224951   3.736   3.816   7.759 -0.3462  0.8047 -0.4559
 4497SOL     OW24952   4.274   1.544   5.765 -0.1367 -0.1129 -0.1508
 4497SOL    HW124953   4.341   1.588   5.713 -0.2443 -1.3376 -1.3315
 4497SOL    HW224954   4.203   1.608   5.773  1.7665  2.1979 -1.6396
 4498SOL     OW24955   3.397   3.343   8.982 -0.3424 -0.2418  0.3578
 4498SOL    HW124956   3.468   3.407   8.980  1.9630 -2.8042  0.6680
 4498SOL    HW224957   3.414   3.299   9.065  2.0223  1.7989  0.9352
 4499SOL     OW24958   3.478   0.329  14.525 -0.4613  0.1997 -0.5482
 4499SOL    HW124959   3.390   0.364  14.542 -0.6923  0.1861 -1.6967
 4499SOL    HW224960   3.523   0.348  14.607 -0.9898  0.1193 -0.2396
 4500SOL     OW24961   2.148   0.559   8.749 -0.1652 -0.0626 -0.2218
 4500SOL    HW124962   2.120   0.549   8.657  1.4279 -0.8565 -0.6153
 4500SOL    HW224963   2.234   0.596   8.730 -0.0954 -0.4969 -0.7538
 4501SOL     OW24964   2.462   4.477   7.159  0.4866 -0.4342 -0.5911
 4501SOL    HW124965   2.385   4.469   7.103 -0.1655  2.3986 -0.0619
 4501SOL    HW224966   2.525   4.417   7.119  1.1262 -0.2112  0.0828
 4502SOL     OW24967   0.338   2.642   6.622 -0.4159 -0.8227 -0.2504
 4502SOL    HW124968   0.328   2.668   6.714  1.3233  1.4257 -0.6865
 4502SOL    HW224969   0.398   2.710   6.591  0.4970 -0.9272  1.2819
 4503SOL     OW24970   0.904   1.964   3.425  0.8418  0.0565  0.4894
 4503SOL    HW124971   0.865   1.957   3.338  1.0306  0.9243  0.3374
 4503SOL    HW224972   0.952   2.046   3.422 -0.0096  0.3083 -4.7064
 4504SOL     OW24973   0.204   2.395  12.723  0.2972 -0.2043 -0.5152
 4504SOL    HW124974   0.240   2.409  12.810  1.7801 -2.1878 -0.8089
 4504SOL    HW224975   0.213   2.485  12.690 -0.8604  0.2960  0.5208
 4505SOL     OW24976   2.145   0.209   8.632 -0.0011 -0.5680  0.2610
 4505SOL    HW124977   2.071   0.258   8.666  0.6184 -0.3830  1.3453
 4505SOL    HW224978   2.105   0.122   8.625  1.3089 -1.1013 -0.7225
 4506SOL     OW24979   1.709   2.343  10.633  0.2368 -0.0516 -0.4878
 4506SOL    HW124980   1.701   2.434  10.661  0.9334  0.0680 -0.6614
 4506SOL    HW224981   1.674   2.364  10.546  0.2403 -0.6742 -0.6384
 4507SOL     OW24982   2.639   0.027  12.196  0.1517  0.2126 -0.3446
 4507SOL    HW124983   2.696   4.709  12.132 -1.7016  0.0865 -1.9174
 4507SOL    HW224984   2.684   0.000  12.276  1.0967  2.2198 -0.2172
 4508SOL     OW24985   4.138   1.544   5.151 -0.1601 -0.2461 -0.1924
 4508SOL    HW124986   4.192   1.587   5.217 -0.0345 -0.8517  0.0991
 4508SOL    HW224987   4.150   1.453   5.176  0.1568 -0.2839 -0.4822
 4509SOL     OW24988   0.365   4.403   0.143  0.4560 -0.6027 -0.1939
 4509SOL    HW124989   0.400   4.378   0.058  2.0089 -0.1810  0.3215
 4509SOL    HW224990   0.283   4.443   0.115  0.0969  0.4875  2.3837
 4510SOL     OW24991   2.913   0.192   5.414  0.1535  0.1054  0.3446
 4510SOL    HW124992   2.927   0.207   5.507  0.1818  2.8195 -0.0943
 4510SOL    HW224993   2.819   0.210   5.407  0.3589  0.5032 -1.3579
 4511SOL     OW24994   3.541   1.594   5.550 -0.1041 -0.0443 -0.0919
 4511SOL    HW124995   3.615   1.535   5.565 -1.6692 -1.7239  0.8414
 4511SOL    HW224996   3.586   1.679   5.548  0.8399 -0.5589 -0.8921
 4512SOL     OW24997   1.918   3.369  10.190 -0.2732 -0.1103  0.2020
 4512SOL    HW124998   1.878   3.290  10.153  1.1282  0.7892 -3.1925
 4512SOL    HW224999   1.962   3.328  10.264  2.3623  3.5083  0.6557
 4513SOL     OW25000   0.064   0.363   5.201 -0.0078  0.3814  0.2682
 4513SOL    HW125001   0.093   0.273   5.220  2.2372  1.0731  0.1928
 4513SOL    HW225002   0.106   0.392   5.120 -1.2520  2.3406  0.3414
 4514SOL     OW25003   2.934   3.183   7.702 -0.3718  0.4599 -0.0905
 4514SOL    HW125004   2.965   3.137   7.624 -1.1500 -0.8275  0.3560
 4514SOL    HW225005   3.014   3.187   7.755 -0.2416 -1.7134 -0.1228
 4515SOL     OW25006   0.023   0.098   5.567 -0.1597  0.3110  0.2438
 4515SOL    HW125007   4.694   0.175   5.550  0.5949  1.1950  1.8969
 4515SOL    HW225008   4.689   0.023   5.571  1.7323 -1.0488  2.6521
 4516SOL     OW25009   3.913   0.479   3.522  0.1643  0.7773 -0.0115
 4516SOL    HW125010   3.880   0.478   3.433 -0.4352 -3.0770  0.2423
 4516SOL    HW225011   3.856   0.544   3.561 -1.5054 -1.3767  1.1249
 4517SOL     OW25012   4.151   4.331  11.012  0.1773  0.2502  0.5085
 4517SOL    HW125013   4.087   4.348  11.081  0.1456 -1.3760  0.8749
 4517SOL    HW225014   4.110   4.253  10.975  0.0732  0.2545  0.6132
 4518SOL     OW25015   0.386   2.360   0.225  0.5530  0.9638 -0.0176
 4518SOL    HW125016   0.337   2.296   0.174 -0.0650  0.8145  0.7574
 4518SOL    HW225017   0.383   2.317   0.311 -2.0580 -0.0861 -0.6300
 4519SOL     OW25018   3.965   4.528   3.790 -0.6806  0.1896  0.0394
 4519SOL    HW125019   4.047   4.480   3.788 -0.9211 -0.2594  1.0194
 4519SOL    HW225020   3.909   4.486   3.724 -0.8877 -0.7829  0.8355
 4520SOL     OW25021   4.493   3.057   7.897 -0.3419  0.2396  0.2460
 4520SOL    HW125022   4.459   2.975   7.861 -1.9096  0.2753  1.6333
 4520SOL    HW225023   4.447   3.063   7.981  1.5131  2.7801  1.0740
 4521SOL     OW25024   3.650   2.797  12.177 -0.0305 -0.4706  0.2074
 4521SOL    HW125025   3.595   2.762  12.247 -0.1975 -1.4921 -0.4398
 4521SOL    HW225026   3.618   2.747  12.102  0.2144  1.9037 -1.5018
 4522SOL     OW25027   2.178   1.870   1.974  0.4988 -0.6085 -0.0370
 4522SOL    HW125028   2.215   1.957   1.988 -0.7009  0.1789 -1.6887
 4522SOL    HW225029   2.086   1.896   1.985  0.1809 -1.3588 -0.9641
 4523SOL     OW25030   4.124   0.874  13.505  0.0463  0.3375 -0.3319
 4523SOL    HW125031   4.127   0.930  13.427  0.6177 -0.2332 -0.7180
 4523SOL    HW225032   4.217   0.882  13.525 -0.0976  0.6524  0.2167
 4524SOL     OW25033   3.593   1.322  11.595 -0.1965 -0.8556 -0.2635
 4524SOL    HW125034   3.568   1.412  11.615 -3.0374 -1.2298 -2.0951
 4524SOL    HW225035   3.549   1.307  11.511 -1.7672  0.1607  0.3693
 4525SOL     OW25036   3.006   1.282   3.134  0.3491 -0.3275  0.1670
 4525SOL    HW125037   3.007   1.195   3.173  0.2084 -0.9424 -1.2026
 4525SOL    HW225038   3.101   1.280   3.119  0.2757  1.3645 -0.6436
 4526SOL     OW25039   1.812   1.108  16.595  0.3015 -0.5460  0.6434
 4526SOL    HW125040   1.879   1.098  16.527  0.9813 -0.8671  1.3632
 4526SOL    HW225041   1.747   1.136  16.530  0.8960  0.3685  0.4540
 4527SOL     OW25042   2.381   4.226  14.019 -0.2856 -0.1553 -0.7243
 4527SOL    HW125043   2.335   4.156  14.065  1.9141 -2.6837 -2.4237
 4527SOL    HW225044   2.320   4.244  13.947 -0.4332  1.6952 -0.1553
 4528SOL     OW25045   1.257   0.346   2.341  0.7612  0.3950 -0.2900
 4528SOL    HW125046   1.203   0.267   2.342 -1.1112  1.6441 -3.3599
 4528SOL    HW225047   1.235   0.392   2.422 -0.8012  1.5394 -1.3667
 4529SOL     OW25048   0.935   1.184   8.062  0.0546 -0.7765 -0.0681
 4529SOL    HW125049   0.924   1.196   7.967 -0.6023  2.0497  0.3704
 4529SOL    HW225050   0.896   1.096   8.062  0.4929 -0.9524  2.5135
 4530SOL     OW25051   1.392   3.491  14.304 -0.1812 -0.6915  0.3717
 4530SOL    HW125052   1.365   3.476  14.214 -3.1668 -2.0580  1.5172
 4530SOL    HW225053   1.463   3.553  14.286 -0.1621 -0.2073  2.0672
 4531SOL     OW25054   3.464   3.286   2.091 -0.4960  0.3966 -0.1764
 4531SOL    HW125055   3.532   3.353   2.087 -0.1775  0.0354 -0.7831
 4531SOL    HW225056   3.422   3.289   2.005  0.8102 -0.6762 -0.8441
 4532SOL     OW25057   3.283   0.531   5.170 -0.0746 -0.3805 -0.0280
 4532SOL    HW125058   3.322   0.446   5.192  0.6226  0.3962  1.7101
 4532SOL    HW225059   3.197   0.523   5.210 -0.0837 -0.6526 -0.1022
 4533SOL     OW25060   2.699   1.949   4.867 -0.0047  0.8506  0.1445
 4533SOL    HW125061   2.702   2.029   4.814 -2.9302  2.9476  3.0478
 4533SOL    HW225062   2.789   1.924   4.850  0.4817  0.1212  3.6262
 4534SOL     OW25063   1.432   0.984   2.770 -0.2118  0.1110  0.0164
 4534SOL    HW125064   1.418   0.951   2.681 -3.8136 -0.2936  0.7521
 4534SOL    HW225065   1.525   0.959   2.776 -0.1602  0.5710  1.1017
 4535SOL     OW25066   3.019   2.913   8.733 -0.2135 -0.6363 -0.0601
 4535SOL    HW125067   2.933   2.897   8.773 -1.1055  0.1149 -1.6710
 4535SOL    HW225068   3.084   2.921   8.802  0.5331  0.1660 -0.8665
 4536SOL     OW25069   2.727   2.538   1.111  0.4623  0.7787  0.1773
 4536SOL    HW125070   2.643   2.492   1.108 -0.2464  2.1158 -0.5802
 4536SOL    HW225071   2.783   2.461   1.125  1.8417  1.6336 -0.5894
 4537SOL     OW25072   0.845   4.136   9.797 -0.3065 -0.4547 -0.3957
 4537SOL    HW125073   0.785   4.151   9.724  1.3524  0.0115 -1.6673
 4537SOL    HW225074   0.918   4.099   9.747 -1.2133 -0.3410 -1.8168
 4538SOL     OW25075   2.035   0.207   4.895 -0.5474 -0.1656 -0.0336
 4538SOL    HW125076   1.969   0.217   4.964 -0.5671 -0.3202 -0.0318
 4538SOL    HW225077   1.988   0.147   4.838 -1.7608  0.7646 -0.0082
 4539SOL     OW25078   3.217   0.058   5.993 -0.2150 -0.2176  0.2967
 4539SOL    HW125079   3.125   0.082   5.989 -0.5377 -1.4852  0.1530
 4539SOL    HW225080   3.236   0.081   5.901  3.0164 -1.1229  0.7225
 4540SOL     OW25081   0.490   3.386   0.862 -0.1173 -0.1346  0.2534
 4540SOL    HW125082   0.500   3.470   0.908  1.0914 -1.1646  1.9099
 4540SOL    HW225083   0.399   3.389   0.835  0.3510  2.0064 -1.0198
 4541SOL     OW25084   1.571   3.648   3.818 -0.3372 -0.4292 -0.2237
 4541SOL    HW125085   1.550   3.557   3.801 -1.0016 -0.5520  1.2613
 4541SOL    HW225086   1.493   3.671   3.869 -0.6189 -1.3373 -0.2484
 4542SOL     OW25087   3.366   2.504   6.485  0.2633  0.3571 -0.5105
 4542SOL    HW125088   3.325   2.588   6.506  0.4937  0.0880  1.0302
 4542SOL    HW225089   3.452   2.531   6.455 -0.2332 -0.1589 -2.3640
 4543SOL     OW25090   0.387   3.249   5.451 -0.4085  0.1854  0.2854
 4543SOL    HW125091   0.454   3.317   5.452 -0.2047 -0.0121 -0.3042
 4543SOL    HW225092   0.406   3.197   5.529 -1.0193 -1.1180 -0.4435
 4544SOL     OW25093   0.290   2.845  13.875  0.0788  0.0998  0.0907
 4544SOL    HW125094   0.266   2.863  13.966  2.6397 -0.4984  0.8989
 4544SOL    HW225095   0.212   2.865  13.824  0.4824  0.2988 -0.4553
 4545SOL     OW25096   3.138   1.759  15.828  0.3845 -0.0661 -0.0856
 4545SOL    HW125097   3.208   1.705  15.793  0.6603 -0.0392  0.4301
 4545SOL    HW225098   3.193   1.811  15.888 -0.3336  0.5104  0.0851
 4546SOL     OW25099   3.280   3.540   1.524  0.0551 -0.1896 -0.5032
 4546SOL    HW125100   3.313   3.628   1.540 -0.2337 -0.2355  0.3254
 4546SOL    HW225101   3.202   3.558   1.471 -1.2561  1.2782  1.9312
 4547SOL     OW25102   2.751   4.236   4.630 -0.2019 -0.3278  0.2816
 4547SOL    HW125103   2.663   4.249   4.665 -0.6517  1.3336 -1.4866
 4547SOL    HW225104   2.756   4.316   4.579 -1.5453 -0.6606 -0.3702
 4548SOL     OW25105   1.171   2.880   8.488  0.1230  0.3009 -0.0151
 4548SOL    HW125106   1.171   2.785   8.479  0.5664  0.5010 -2.0744
 4548SOL    HW225107   1.164   2.883   8.584  0.5925  0.1358  0.0236
 4549SOL     OW25108   1.902   0.127  16.649  0.2332 -0.5518 -0.2412
 4549SOL    HW125109   1.833   0.063  16.632  1.4964 -2.0491  0.2694
 4549SOL    HW225110   1.932   0.098  16.735 -0.4618 -0.0593  0.1621
 4550SOL     OW25111   1.404   1.530   2.554 -0.7180 -0.1677  0.2469
 4550SOL    HW125112   1.445   1.444   2.563 -0.5519 -0.1445 -0.3000
 4550SOL    HW225113   1.391   1.556   2.645 -0.3457 -2.3078  0.9142
 4551SOL     OW25114   1.270   4.541   7.459 -0.5328 -0.5070 -0.4813
 4551SOL    HW125115   1.262   4.465   7.516 -0.7703 -0.6751 -0.7429
 4551SOL    HW225116   1.230   4.604   7.518  4.3059  3.1240 -1.0844
 4552SOL     OW25117   0.678   3.116   5.216  0.1883  0.4101 -0.0571
 4552SOL    HW125118   0.752   3.057   5.226 -0.9122 -1.1877 -1.1547
 4552SOL    HW225119   0.624   3.082   5.287  1.1859 -1.6778 -0.3125
 4553SOL     OW25120   4.578   2.971   6.951  0.4187  0.4353 -0.2284
 4553SOL    HW125121   4.649   2.935   7.004 -3.3874 -3.4325  2.2442
 4553SOL    HW225122   4.627   2.974   6.869  1.3066  0.1483  0.2917
 4554SOL     OW25123   3.830   1.985   4.292  0.0383  0.4389  0.4327
 4554SOL    HW125124   3.811   2.039   4.368 -1.4043  0.8755 -0.2295
 4554SOL    HW225125   3.786   1.907   4.326  0.6661 -0.7240 -1.3656
 4555SOL     OW25126   4.719   3.387   3.050  0.1618 -0.3350  0.2133
 4555SOL    HW125127   0.003   3.360   2.958 -0.8639  0.9659 -0.2547
 4555SOL    HW225128   4.625   3.403   3.052  0.0169 -0.9765 -1.1060
 4556SOL     OW25129   0.508   2.499   3.330  0.3298  0.1417 -0.1396
 4556SOL    HW125130   0.603   2.488   3.324  0.2438 -0.2339 -0.7789
 4556SOL    HW225131   0.482   2.542   3.249  0.2993  1.0221  0.3403
 4557SOL     OW25132   3.573   2.015   8.650  0.4395  0.3583  0.0917
 4557SOL    HW125133   3.621   1.939   8.616  1.2415  1.8647 -2.1371
 4557SOL    HW225134   3.534   2.059   8.574  2.1686 -1.4013 -1.8106
 4558SOL     OW25135   0.603   3.875   4.708 -0.8356  0.2332  0.3605
 4558SOL    HW125136   0.634   3.870   4.799 -0.7730  2.6482  0.4823
 4558SOL    HW225137   0.610   3.784   4.679 -4.7514  0.4988 -1.3510
 4559SOL     OW25138   4.626   1.613   4.448  0.4099 -0.7773  0.4035
 4559SOL    HW125139   4.610   1.521   4.432  0.1141 -0.7196  0.3711
 4559SOL    HW225140   4.538   1.640   4.420  0.4323 -1.3740 -0.2250
 4560SOL     OW25141   1.416   0.899   7.094  0.2206 -0.2690 -0.2292
 4560SOL    HW125142   1.366   0.948   7.160  1.1774  2.5053 -1.5914
 4560SOL    HW225143   1.353   0.832   7.066 -0.8682 -0.0868  1.7676
 4561SOL     OW25144   1.953   3.862   2.905 -0.3135 -0.2033  0.0214
 4561SOL    HW125145   1.962   3.883   2.812  0.7248 -0.2803  0.1040
 4561SOL    HW225146   1.952   3.767   2.907 -0.4484 -0.1851  0.7805
 4562SOL     OW25147   2.300   3.566   5.565 -0.2454  0.0724 -0.3289
 4562SOL    HW125148   2.339   3.515   5.636 -2.3357 -0.8850  0.1452
 4562SOL    HW225149   2.370   3.629   5.548 -1.0595  1.1083  0.1983
 4563SOL     OW25150   3.614   4.506  15.018 -0.2032 -0.1954 -0.3340
 4563SOL    HW125151   3.586   4.417  14.999 -2.4802  0.1433  1.3796
 4563SOL    HW225152   3.704   4.505  14.985 -0.4063 -0.0231 -0.9025
 4564SOL     OW25153   1.739   4.049  11.424 -0.1372  0.0344  0.4289
 4564SOL    HW125154   1.771   4.117  11.483  0.5402 -2.0404  2.4127
 4564SOL    HW225155   1.657   4.022  11.466 -1.1743  2.7285  0.1429
 4565SOL     OW25156   2.825   4.681   6.085 -0.5383  0.5398  0.2611
 4565SOL    HW125157   2.787   0.006   6.158  3.7672  1.4599  1.8761
 4565SOL    HW225158   2.881   4.614   6.124  0.3577  0.7792 -0.6031
 4566SOL     OW25159   1.455   3.765   7.731  0.0121 -0.2466 -0.4938
 4566SOL    HW125160   1.494   3.706   7.796 -3.0100  1.3568  2.7141
 4566SOL    HW225161   1.430   3.846   7.775  1.1515 -0.5282  0.6741
 4567SOL     OW25162   0.455   1.385  15.808 -0.1687  0.1303 -0.4235
 4567SOL    HW125163   0.502   1.312  15.769  3.0471  0.4008  2.9719
 4567SOL    HW225164   0.494   1.389  15.895 -3.6831  1.6921  1.0919
 4568SOL     OW25165   4.044   2.167   6.860  0.1675 -0.0688 -0.1071
 4568SOL    HW125166   3.969   2.107   6.852 -0.3075  0.6631 -1.0549
 4568SOL    HW225167   4.014   2.254   6.834  1.7590  0.9517  1.4850
 4569SOL     OW25168   1.205   4.301  14.838 -0.6854 -0.9516  0.2843
 4569SOL    HW125169   1.221   4.207  14.832  1.3405 -0.4469 -2.0629
 4569SOL    HW225170   1.135   4.299  14.904 -0.9191 -0.3010  0.0536
 4570SOL     OW25171   4.369   0.976   9.290  0.1987  0.4885  0.3097
 4570SOL    HW125172   4.317   0.935   9.358  0.5484  1.1317  0.9638
 4570SOL    HW225173   4.456   0.942   9.311  0.1454  1.3789  1.9624
 4571SOL     OW25174   4.706   0.583   3.855  0.2368 -0.7009  0.1121
 4571SOL    HW125175   4.696   0.564   3.762  1.9004  0.9346 -0.3970
 4571SOL    HW225176   0.076   0.592   3.871 -0.1925  1.1016  1.5975
 4572SOL     OW25177   2.031   2.381   5.531  0.0103  0.5509  0.6331
 4572SOL    HW125178   1.966   2.413   5.593 -1.9329 -0.9728 -0.6247
 4572SOL    HW225179   1.968   2.328   5.483 -0.3758  0.3088  1.4115
 4573SOL     OW25180   0.487   3.071   5.656 -0.1733  0.4553  0.2058
 4573SOL    HW125181   0.480   3.018   5.735  2.0459  0.2716  0.2830
 4573SOL    HW225182   0.493   3.149   5.711 -1.6483 -0.0834  1.1128
 4574SOL     OW25183   3.907   0.992  13.643  0.1653  0.2421  0.3262
 4574SOL    HW125184   3.907   0.939  13.723 -2.8802 -0.2146  0.0175
 4574SOL    HW225185   3.974   0.941  13.596 -0.4735 -1.4505  1.2325
 4575SOL     OW25186   3.389   1.232  14.223 -0.2271  0.2142  0.3036
 4575SOL    HW125187   3.422   1.243  14.133 -0.5955  2.8660  0.4989
 4575SOL    HW225188   3.297   1.254  14.211 -0.3625  0.5751  2.0568
 4576SOL     OW25189   2.157   2.198   9.035 -0.4708 -0.2240  0.2998
 4576SOL    HW125190   2.178   2.105   9.029 -0.3691 -0.1107 -1.0014
 4576SOL    HW225191   2.086   2.207   8.971  2.0584 -1.4104 -2.6467
 4577SOL     OW25192   1.904   3.645  11.498 -0.3186 -0.1211 -0.2981
 4577SOL    HW125193   1.915   3.550  11.506  0.0282 -0.1631 -1.3488
 4577SOL    HW225194   1.971   3.669  11.435  0.1483 -0.8461 -0.0757
 4578SOL     OW25195   0.630   4.364   0.748 -0.5634  0.1620 -0.2903
 4578SOL    HW125196   0.716   4.385   0.786 -1.0632 -0.9982  1.4971
 4578SOL    HW225197   0.659   4.289   0.695 -0.0874  0.5573 -0.5923
 4579SOL     OW25198   2.013   4.628   7.041 -0.0295 -0.1318 -0.2629
 4579SOL    HW125199   1.923   4.630   7.009  0.1626 -0.0308 -0.7914
 4579SOL    HW225200   2.026   4.712   7.085  0.0183  0.4588 -1.4225
 4580SOL     OW25201   0.877   0.272  17.064  0.1374 -0.2107  0.1321
 4580SOL    HW125202   0.824   0.291  17.142  0.9410  2.3621  0.0221
 4580SOL    HW225203   0.891   0.356  17.021 -1.5019 -0.3496 -0.6750
 4581SOL     OW25204   3.089   2.672  10.596  0.0984 -0.0164 -0.3034
 4581SOL    HW125205   3.160   2.617  10.629 -0.8835 -1.6043 -0.8827
 4581SOL    HW225206   3.034   2.678  10.674 -0.7026 -0.6715 -0.8254
 4582SOL     OW25207   4.380   1.390  14.155 -0.4319  0.5998  0.0954
 4582SOL    HW125208   4.316   1.393  14.226  0.2344 -2.3699  0.8348
 4582SOL    HW225209   4.340   1.455  14.097 -1.4236 -1.1049 -1.1160
 4583SOL     OW25210   4.533   3.492   7.026  0.2102  0.1826  0.2772
 4583SOL    HW125211   4.445   3.519   7.000 -0.3993 -0.3823  1.7600
 4583SOL    HW225212   4.578   3.501   6.942  0.8183  0.5103  0.6333
 4584SOL     OW25213   2.363   1.855   2.501 -0.7405  0.0838 -0.1412
 4584SOL    HW125214   2.437   1.848   2.441 -1.2713 -0.5743 -0.7276
 4584SOL    HW225215   2.390   1.791   2.566 -2.1726 -0.8983 -0.5023
 4585SOL     OW25216   2.848   0.674   5.183  0.3410 -0.1492  0.2007
 4585SOL    HW125217   2.911   0.683   5.255 -0.6134  1.9887  0.7729
 4585SOL    HW225218   2.819   0.763   5.161 -0.8539 -0.5016  0.4016
 4586SOL     OW25219   1.820   2.007   0.431  0.7329  0.5817  0.4660
 4586SOL    HW125220   1.900   2.016   0.379 -0.0958 -1.7988 -1.2316
 4586SOL    HW225221   1.861   1.977   0.512  3.4439 -1.3194 -1.6317
 4587SOL     OW25222   4.134   0.155  14.729  0.4457  0.6942 -0.2312
 4587SOL    HW125223   4.205   0.132  14.669  0.7357 -0.0334  0.3939
 4587SOL    HW225224   4.137   0.250  14.720  2.4257  0.5497 -1.0006
 4588SOL     OW25225   3.875   0.737   4.744  0.1326 -0.1470 -0.2793
 4588SOL    HW125226   3.852   0.662   4.688  0.3782 -0.4002 -0.0428
 4588SOL    HW225227   3.830   0.805   4.694 -1.3813 -1.4028 -0.6314
 4589SOL     OW25228   1.277   4.291   6.865 -0.0641 -0.0094 -0.3572
 4589SOL    HW125229   1.223   4.370   6.858 -1.6474 -1.0139  0.2676
 4589SOL    HW225230   1.276   4.283   6.961  1.2357 -0.2127 -0.3683
 4590SOL     OW25231   3.777   0.954  14.055 -0.1659 -0.5034  0.0351
 4590SOL    HW125232   3.774   1.033  14.001 -0.5503 -1.4708 -1.3594
 4590SOL    HW225233   3.723   0.974  14.132 -0.2517 -1.1026  0.1256
 4591SOL     OW25234   3.841   2.615   7.556 -0.0280 -0.1435  0.0409
 4591SOL    HW125235   3.923   2.658   7.533 -0.2659 -0.8452 -2.1236
 4591SOL    HW225236   3.812   2.635   7.645  0.6225  0.4167  0.1327
 4592SOL     OW25237   2.737   3.563   5.719  0.3418  0.4924 -0.0110
 4592SOL    HW125238   2.647   3.593   5.707  0.4074  0.2962 -1.0005
 4592SOL    HW225239   2.758   3.577   5.811 -1.0746 -0.5069  0.4642
 4593SOL     OW25240   4.151   0.568   2.370 -0.3398 -0.2779  0.4376
 4593SOL    HW125241   4.172   0.644   2.317  0.7938  0.6894  2.2711
 4593SOL    HW225242   4.056   0.578   2.372 -0.3237  0.1039 -1.6388
 4594SOL     OW25243   2.292   2.126   8.560 -0.0670 -0.3179  0.3135
 4594SOL    HW125244   2.303   2.070   8.637  2.7509 -1.1043 -0.6457
 4594SOL    HW225245   2.215   2.177   8.586 -0.3714  0.4960 -2.2174
 4595SOL     OW25246   1.262   0.244   3.425  0.5311  0.0558 -0.2023
 4595SOL    HW125247   1.227   0.316   3.372 -0.2792 -1.0935 -1.2337
 4595SOL    HW225248   1.224   0.164   3.388 -0.2221 -0.3909  1.5065
 4596SOL     OW25249   0.300   2.735   4.782 -0.8787 -0.3794 -0.5989
 4596SOL    HW125250   0.244   2.691   4.718  0.0100 -1.2485 -0.7863
 4596SOL    HW225251   0.293   2.817   4.733 -2.3780  0.5564  1.1844
 4597SOL     OW25252   2.284   0.109   4.606  0.2542  0.3575  0.3929
 4597SOL    HW125253   2.227   0.126   4.682  1.3420  2.8617  0.6564
 4597SOL    HW225254   2.357   0.167   4.630  0.6733 -0.2188  0.4942
 4598SOL     OW25255   0.601   2.372   5.195  0.0693  0.2841 -0.0043
 4598SOL    HW125256   0.597   2.336   5.106 -0.1686 -0.2701  0.2344
 4598SOL    HW225257   0.686   2.416   5.202 -0.3784  0.9014  1.6336
 4599SOL     OW25258   0.441   3.687   8.800 -0.1296  0.3003  0.0387
 4599SOL    HW125259   0.505   3.662   8.866 -1.0308 -2.0915 -0.0102
 4599SOL    HW225260   0.423   3.593   8.797  0.8153  0.1350 -0.2894
 4600SOL     OW25261   1.840   0.371   3.737  0.0669  0.2950  0.2018
 4600SOL    HW125262   1.887   0.298   3.778  0.5586  0.6863  0.3373
 4600SOL    HW225263   1.833   0.348   3.644  0.0235  1.2557 -0.0318
 4601SOL     OW25264   3.350   2.908  10.357 -0.5893  0.2840 -0.5290
 4601SOL    HW125265   3.371   2.859  10.437 -0.2403 -0.2005 -0.9241
 4601SOL    HW225266   3.426   2.965  10.350  0.1628 -0.7936 -1.1603
 4602SOL     OW25267   0.491   4.592  17.249  0.2799  0.3130 -0.1975
 4602SOL    HW125268   0.575   4.632  17.224  1.3061 -1.9765 -0.4429
 4602SOL    HW225269   0.522   4.517  17.299 -0.6846 -1.0213 -1.6251
 4603SOL     OW25270   2.770   4.607   3.319 -0.1668  0.1408 -0.2045
 4603SOL    HW125271   2.826   4.680   3.294  1.4029 -0.4307  1.5819
 4603SOL    HW225272   2.834   4.541   3.346 -0.5598  0.2065  0.8928
 4604SOL     OW25273   2.306   3.536   8.119  0.5297  0.2658 -0.2863
 4604SOL    HW125274   2.304   3.500   8.031  0.2191 -0.3824 -0.0095
 4604SOL    HW225275   2.348   3.622   8.110  0.2649  0.3826 -0.4105
 4605SOL     OW25276   1.268   1.418   2.051  0.4717  0.2171 -0.1991
 4605SOL    HW125277   1.347   1.412   2.106  0.1568 -0.9880  0.1197
 4605SOL    HW225278   1.302   1.455   1.970 -1.5848  3.3860  0.4229
 4606SOL     OW25279   1.162   0.436   6.286 -0.1220  0.1164  0.4279
 4606SOL    HW125280   1.138   0.449   6.194 -2.7962  0.7173  1.2119
 4606SOL    HW225281   1.218   0.359   6.273  0.1950  0.3832  0.2025
 4607SOL     OW25282   3.134   2.135   2.941  0.4901  0.2670 -0.3007
 4607SOL    HW125283   3.178   2.109   2.860  1.6604  0.9808  0.0996
 4607SOL    HW225284   3.042   2.132   2.914  0.3292  4.1506 -0.1193
 4608SOL     OW25285   1.668   1.246   6.060 -0.2536 -0.4596 -0.5170
 4608SOL    HW125286   1.693   1.176   6.000 -0.5520 -0.3432 -0.7814
 4608SOL    HW225287   1.748   1.298   6.064 -0.6151 -0.0177  0.7853
 4609SOL     OW25288   2.152   1.217   5.406  0.6402 -0.2016  0.2273
 4609SOL    HW125289   2.107   1.157   5.465 -1.5217 -0.0473 -1.2791
 4609SOL    HW225290   2.081   1.280   5.398 -0.8239 -1.7978  0.5929
 4610SOL     OW25291   3.462   2.699   4.929  1.3462  0.1764 -0.7903
 4610SOL    HW125292   3.489   2.693   5.021  2.1278 -0.1417 -1.0434
 4610SOL    HW225293   3.374   2.662   4.935  1.8211 -0.6177  1.5078
 4611SOL     OW25294   4.188   4.633   5.830  0.3298  0.1938  0.2913
 4611SOL    HW125295   4.248   4.616   5.902 -0.9391 -0.5555  1.1570
 4611SOL    HW225296   4.219   4.721   5.806 -1.5057  0.5785 -0.6744
 4612SOL     OW25297   0.412   3.912   7.640 -0.3673 -0.8353 -0.0187
 4612SOL    HW125298   0.432   3.994   7.686 -0.0496 -1.0886  0.2978
 4612SOL    HW225299   0.326   3.891   7.676  0.0724  0.2638  1.6835
 4613SOL     OW25300   3.448   2.286   5.953 -0.0220  0.0474 -0.1061
 4613SOL    HW125301   3.421   2.285   6.045 -1.8538  1.9488 -0.6480
 4613SOL    HW225302   3.433   2.380   5.947 -1.5921 -0.1639  0.4644
 4614SOL     OW25303   2.056   2.147   9.469 -0.0991  0.1230 -0.3533
 4614SOL    HW125304   1.994   2.218   9.487 -0.0905 -0.2201  1.0867
 4614SOL    HW225305   1.992   2.108   9.410  0.6324 -0.1571 -0.9488
 4615SOL     OW25306   0.148   1.120  16.999 -0.1805  0.2555 -0.2760
 4615SOL    HW125307   0.153   1.178  16.923  0.4077  3.1915  2.0166
 4615SOL    HW225308   0.083   1.054  16.975  0.7968 -0.7761 -0.1016
 4616SOL     OW25309   2.665   1.610   0.062 -0.2427  0.2051  0.2770
 4616SOL    HW125310   2.631   1.529   0.023  1.5174 -0.2198 -0.3852
 4616SOL    HW225311   2.740   1.582   0.114  1.1327  2.1192 -0.6778
 4617SOL     OW25312   0.780   2.908   8.056  0.2011  0.2040 -0.1636
 4617SOL    HW125313   0.762   2.860   7.975 -0.5394  0.1933  0.0067
 4617SOL    HW225314   0.759   2.846   8.126 -0.7810 -0.0466 -0.6793
 4618SOL     OW25315   2.536   1.558  10.545  0.3705 -0.2752 -0.1555
 4618SOL    HW125316   2.618   1.577  10.592 -0.5141 -0.5973  1.5473
 4618SOL    HW225317   2.560   1.474  10.507  0.8185  0.7280 -2.0628
 4619SOL     OW25318   1.929   3.615  11.170  0.5122 -0.2658  0.0446
 4619SOL    HW125319   1.941   3.705  11.140  0.9379 -0.2073  0.3945
 4619SOL    HW225320   2.022   3.593  11.164  0.0947 -1.6418 -1.5228
 4620SOL     OW25321   1.719   2.900  13.617  0.8029 -0.5341 -0.2762
 4620SOL    HW125322   1.752   2.957  13.686 -1.6050  1.7733 -1.0420
 4620SOL    HW225323   1.629   2.932  13.622  1.5930  1.4874  0.9583
 4621SOL     OW25324   3.721   2.086   8.285  0.1520  0.3740 -0.0076
 4621SOL    HW125325   3.796   2.027   8.277 -0.5614 -0.4920 -0.3025
 4621SOL    HW225326   3.663   2.016   8.314  3.0616 -0.0791  4.7234
 4622SOL     OW25327   2.854   3.259  14.089 -0.2797 -0.1556  0.1758
 4622SOL    HW125328   2.924   3.310  14.128 -1.6515  1.1397  0.9286
 4622SOL    HW225329   2.880   3.268  13.998 -1.5889  0.8451 -0.1006
 4623SOL     OW25330   2.221   1.183   5.693  0.6977 -0.1007  0.0824
 4623SOL    HW125331   2.250   1.245   5.760 -0.5560  1.8917 -1.2197
 4623SOL    HW225332   2.219   1.243   5.618  0.8614 -0.2457 -0.0372
 4624SOL     OW25333   3.751   1.891   2.822  0.4898 -0.3642 -0.5991
 4624SOL    HW125334   3.798   1.865   2.742  0.0117 -1.2944 -0.5726
 4624SOL    HW225335   3.659   1.900   2.799 -0.5149 -0.6241  3.3587
 4625SOL     OW25336   4.319   3.964  10.372  0.2744 -0.0750 -0.5894
 4625SOL    HW125337   4.267   4.026  10.423  1.0820 -0.4080  0.6486
 4625SOL    HW225338   4.383   4.011  10.318 -1.0390  1.0875 -1.1235
 4626SOL     OW25339   0.944   2.186   6.910 -0.3398  0.1040  0.2247
 4626SOL    HW125340   0.858   2.221   6.934 -0.4333 -1.0055  1.4805
 4626SOL    HW225341   0.981   2.266   6.872  0.6244 -0.1192  0.6854
 4627SOL     OW25342   1.424   2.113  11.954  0.1453 -0.1672  0.2154
 4627SOL    HW125343   1.427   2.117  11.858 -2.0156 -2.0292  0.0618
 4627SOL    HW225344   1.398   2.200  11.982  1.6107 -0.5531  2.7571
 4628SOL     OW25345   2.350   1.927   5.147  0.1061 -0.0373 -0.2859
 4628SOL    HW125346   2.324   1.857   5.087  1.8850 -0.3579 -0.6873
 4628SOL    HW225347   2.285   1.993   5.125  0.5588 -0.0878 -1.8141
 4629SOL     OW25348   0.443   2.369   6.614  0.0057 -0.0920 -0.0170
 4629SOL    HW125349   0.466   2.392   6.524 -0.9099  3.0326  0.5481
 4629SOL    HW225350   0.395   2.439   6.659  1.3300  1.2013 -0.6235
 4630SOL     OW25351   0.370   1.630   3.093 -0.4091 -0.2618 -0.5373
 4630SOL    HW125352   0.419   1.576   3.031 -1.5535 -2.1224  0.1929
 4630SOL    HW225353   0.436   1.636   3.162  0.6250  2.2780 -1.7061
 4631SOL     OW25354   1.699   0.496   6.923 -0.4210 -0.1955  0.1388
 4631SOL    HW125355   1.772   0.440   6.948  0.4347  0.4191 -1.0017
 4631SOL    HW225356   1.624   0.448   6.960  1.3120 -2.2342  1.0232
 4632SOL     OW25357   2.477   3.144   5.565  0.2688 -0.3491 -0.3504
 4632SOL    HW125358   2.479   3.223   5.619 -0.5778  0.8306 -2.0399
 4632SOL    HW225359   2.441   3.189   5.488  2.6646 -0.9946 -1.8560
 4633SOL     OW25360   2.237   2.120   4.167  0.0531  0.0312 -0.2235
 4633SOL    HW125361   2.180   2.185   4.125  1.2026  1.7194  0.8352
 4633SOL    HW225362   2.179   2.090   4.237 -1.0775  0.1934 -1.0761
 4634SOL     OW25363   2.314   2.990   4.907 -0.4395  0.0470  0.2191
 4634SOL    HW125364   2.360   2.918   4.950 -0.8965 -0.9127 -0.8891
 4634SOL    HW225365   2.324   3.067   4.962  1.4831  0.7491 -1.0766
 4635SOL     OW25366   1.932   0.852   5.329  0.2484 -0.3199 -0.0058
 4635SOL    HW125367   2.027   0.838   5.323  0.7083  3.3861 -1.5895
 4635SOL    HW225368   1.888   0.769   5.310 -0.5128  0.5055 -1.8570
 4636SOL     OW25369   3.194   1.985   8.700 -0.4066  0.0689  0.0730
 4636SOL    HW125370   3.255   2.037   8.752 -0.3388  1.2512 -1.1668
 4636SOL    HW225371   3.130   1.971   8.769 -1.1261  1.2106 -0.3634
 4637SOL     OW25372   1.787   1.614   5.964  0.6704 -0.1379 -0.2832
 4637SOL    HW125373   1.829   1.690   5.924 -0.4180  0.3708 -0.4702
 4637SOL    HW225374   1.693   1.632   5.964  0.5053 -1.0458  1.1139
 4638SOL     OW25375   4.096   3.282  12.207 -0.1441  0.2244  0.3594
 4638SOL    HW125376   4.051   3.286  12.291  2.2315  2.5493  1.5074
 4638SOL    HW225377   4.083   3.190  12.184  2.0323 -1.1639  4.6265
 4639SOL     OW25378   2.191   4.666  11.000  0.3703  0.2342  0.2941
 4639SOL    HW125379   2.200   0.034  10.975 -0.0825 -0.2449 -1.6753
 4639SOL    HW225380   2.272   4.636  10.960 -0.8002 -0.6850 -1.4040
 4640SOL     OW25381   4.087   0.996  15.570 -0.0176  0.5671  0.1213
 4640SOL    HW125382   4.132   1.047  15.502  0.7313  0.7506  0.7613
 4640SOL    HW225383   4.157   0.976  15.632  1.1299 -0.2856 -1.4459
 4641SOL     OW25384   1.164   2.910  13.682 -0.5977  0.4390  0.4946
 4641SOL    HW125385   1.129   2.900  13.771 -1.5382  1.2554  0.2080
 4641SOL    HW225386   1.206   2.827  13.662  0.8585  1.0273  1.0657
 4642SOL     OW25387   2.344   3.556   3.364  0.2692  0.0299 -0.1401
 4642SOL    HW125388   2.377   3.599   3.286 -0.1759 -0.2887 -0.5035
 4642SOL    HW225389   2.296   3.484   3.324 -1.2212  0.7340  0.3599
 4643SOL     OW25390   3.013   4.455   8.815 -0.5031  0.1324 -0.4962
 4643SOL    HW125391   3.002   4.431   8.723 -0.3620 -0.5730 -0.3279
 4643SOL    HW225392   2.927   4.431   8.849  0.0632 -1.0370  0.0987
 4644SOL     OW25393   4.362   0.722   4.167  0.4228  0.3206  0.0535
 4644SOL    HW125394   4.434   0.665   4.138 -0.0279 -0.0043 -0.4155
 4644SOL    HW225395   4.413   0.803   4.173  2.0114 -0.7433  1.2483
 4645SOL     OW25396   4.032   3.954   5.905 -0.1229 -0.3697 -0.7062
 4645SOL    HW125397   3.970   4.007   5.855  1.1108  0.9847 -0.8136
 4645SOL    HW225398   3.976   3.888   5.946 -0.8087  0.7335  0.1218
 4646SOL     OW25399   2.465   1.239  12.404 -0.3215  0.1789 -0.0236
 4646SOL    HW125400   2.436   1.323  12.368  1.4497  0.5913 -0.4997
 4646SOL    HW225401   2.380   1.208  12.434  0.1036 -0.1129  0.8751
 4647SOL     OW25402   0.358   4.689   3.823 -0.6514  0.1777  0.6242
 4647SOL    HW125403   0.376   0.059   3.819  2.2685 -0.4536 -0.6914
 4647SOL    HW225404   0.400   4.662   3.905  1.7419  0.9604 -0.3515
 4648SOL     OW25405   0.370   0.013   4.474 -0.2099 -0.1742  0.1230
 4648SOL    HW125406   0.297   4.688   4.435 -0.5343  0.2366  0.2082
 4648SOL    HW225407   0.430   0.040   4.405 -0.1631  1.5198  0.8168
 4649SOL     OW25408   2.308   2.220   5.924 -0.0025 -0.2170 -0.2632
 4649SOL    HW125409   2.395   2.256   5.907 -0.2606  0.7122  0.3519
 4649SOL    HW225410   2.267   2.221   5.838  2.3031  0.6745 -1.3454
 4650SOL     OW25411   1.820   2.656  14.505  0.1028  0.0493 -0.0270
 4650SOL    HW125412   1.851   2.701  14.426  1.1524 -0.8062 -0.1029
 4650SOL    HW225413   1.748   2.602  14.475  0.2064 -0.2074  0.1873
 4651SOL     OW25414   0.489   2.185   9.691 -0.1184 -0.3535  0.0772
 4651SOL    HW125415   0.399   2.190   9.723  0.1399 -1.3789  0.9500
 4651SOL    HW225416   0.479   2.127   9.615  3.8882 -1.4299  0.4014
 4652SOL     OW25417   1.974   2.505   7.202 -0.3435 -0.3783  0.4047
 4652SOL    HW125418   1.973   2.431   7.263 -2.3014 -1.2184 -0.6321
 4652SOL    HW225419   1.919   2.464   7.135  0.0182  1.6835 -1.1324
 4653SOL     OW25420   3.195   1.509   3.876  0.0426 -0.1139  0.3941
 4653SOL    HW125421   3.227   1.572   3.941  0.7310 -2.1587  2.0201
 4653SOL    HW225422   3.181   1.567   3.801  1.2875  0.9252  0.9644
 4654SOL     OW25423   0.703   0.124  16.890 -0.3603 -0.1427 -0.3652
 4654SOL    HW125424   0.760   0.140  16.965  1.3810 -0.2126 -1.6912
 4654SOL    HW225425   0.728   0.197  16.834 -2.1307 -0.1910 -1.2453
 4655SOL     OW25426   2.381   2.194   7.870 -0.0865  0.1830 -0.2748
 4655SOL    HW125427   2.467   2.153   7.869 -0.4043 -0.4595 -1.3698
 4655SOL    HW225428   2.387   2.258   7.941 -0.5357 -2.2378  1.9525
 4656SOL     OW25429   0.149   4.619   4.366  0.0548 -0.5052  0.4192
 4656SOL    HW125430   0.073   4.594   4.314 -0.7876  1.9450  0.4381
 4656SOL    HW225431   0.187   4.537   4.396 -0.5711 -0.5738  1.0354
 4657SOL     OW25432   3.503   1.528  15.038 -0.2443 -0.8598  0.0855
 4657SOL    HW125433   3.421   1.495  15.003  0.8401 -1.2216 -2.1472
 4657SOL    HW225434   3.521   1.599  14.976  1.9564 -0.7910  0.7896
 4658SOL     OW25435   0.483   1.859   7.254  0.0585 -0.6524 -0.4656
 4658SOL    HW125436   0.495   1.833   7.162 -0.7832 -3.7899  0.3298
 4658SOL    HW225437   0.417   1.928   7.250  0.6327 -0.0360  0.6970
 4659SOL     OW25438   3.796   2.002  13.327  0.1443  0.0318  0.2844
 4659SOL    HW125439   3.752   1.954  13.398 -2.6306  0.3201 -1.2361
 4659SOL    HW225440   3.774   1.940  13.258 -2.9935  0.1998  1.1467
 4660SOL     OW25441   2.978   3.567  13.940 -0.4329 -0.0824  0.1101
 4660SOL    HW125442   3.013   3.515  14.012 -0.4852  1.9836  1.6217
 4660SOL    HW225443   3.022   3.652  13.952  1.4513 -0.9187 -0.8705
 4661SOL     OW25444   3.182   2.003   1.665  0.2496  0.0051 -0.6475
 4661SOL    HW125445   3.174   2.095   1.641 -2.3023 -0.7636 -2.7516
 4661SOL    HW225446   3.272   1.992   1.633 -0.1109  1.1071 -2.0342
 4662SOL     OW25447   0.695   1.951   6.131 -0.2384 -0.1684  0.3092
 4662SOL    HW125448   0.747   2.020   6.173 -1.4946  1.5115 -0.8780
 4662SOL    HW225449   0.633   1.915   6.195 -0.7211  0.9957  0.4960
 4663SOL     OW25450   3.865   4.522  17.007 -0.4577  0.4612 -0.1586
 4663SOL    HW125451   3.922   4.475  17.067 -1.8584  0.6878  1.3391
 4663SOL    HW225452   3.850   4.457  16.938 -0.1153 -2.3130  2.4000
 4664SOL     OW25453   0.029   1.680   5.538 -0.7096  0.1912  0.0031
 4664SOL    HW125454   4.708   1.612   5.488  2.6879  0.0032 -2.8325
 4664SOL    HW225455   0.109   1.690   5.485  0.8864 -1.2069  2.1237
 4665SOL     OW25456   4.420   1.264   7.886 -0.5119 -0.5970 -0.2472
 4665SOL    HW125457   4.436   1.353   7.917 -0.8612 -0.2085 -1.1554
 4665SOL    HW225458   4.449   1.211   7.960 -0.1180  1.4006  1.0029
 4666SOL     OW25459   2.729   0.970   6.228 -0.6982  0.1888  0.4682
 4666SOL    HW125460   2.664   0.984   6.160  1.7932 -0.0771 -1.9412
 4666SOL    HW225461   2.796   0.932   6.171  0.8625  1.6761  1.3261
 4667SOL     OW25462   0.427   2.625   4.468  0.0254  0.4005  0.5140
 4667SOL    HW125463   0.414   2.714   4.502  1.8760  0.9372 -0.1792
 4667SOL    HW225464   0.360   2.630   4.400 -0.1994 -1.1481  0.6242
 4668SOL     OW25465   3.303   3.157  10.246 -0.8329  0.0451  0.0491
 4668SOL    HW125466   3.281   3.087  10.307 -1.8313  1.4371  1.2821
 4668SOL    HW225467   3.256   3.135  10.165 -0.1146 -0.7522 -0.1530
 4669SOL     OW25468   1.658   0.594  15.345 -0.2706  0.1077 -0.3418
 4669SOL    HW125469   1.750   0.620  15.341 -0.1056 -0.5976 -1.1340
 4669SOL    HW225470   1.646   0.586  15.439  0.8132  1.8202 -0.0601
 4670SOL     OW25471   1.183   0.220   0.747  0.2115 -0.1763 -0.0492
 4670SOL    HW125472   1.137   0.221   0.831  0.9978 -0.8180  0.3885
 4670SOL    HW225473   1.260   0.274   0.766 -0.3557  0.1137  1.4234
 4671SOL     OW25474   1.711   2.298  11.063  0.7212 -0.2134  0.4688
 4671SOL    HW125475   1.712   2.266  11.153 -0.3830  1.1893  0.9926
 4671SOL    HW225476   1.800   2.281  11.035  0.1611  1.4526 -2.2879
 4672SOL     OW25477   4.453   0.841   4.418 -0.0516 -0.2784 -0.2695
 4672SOL    HW125478   4.482   0.765   4.468 -0.9444  0.2158  0.9904
 4672SOL    HW225479   4.362   0.815   4.409  0.3377 -2.3238  1.5356
 4673SOL     OW25480   4.381   2.129  13.699  0.0453  0.2918  0.0192
 4673SOL    HW125481   4.444   2.189  13.659  1.7438 -0.6136  1.3769
 4673SOL    HW225482   4.406   2.041  13.671 -1.0868 -0.1880  0.5134
 4674SOL     OW25483   1.207   1.309   7.038 -0.0643 -0.1851  0.6346
 4674SOL    HW125484   1.188   1.401   7.019 -0.2247 -0.4936 -0.6914
 4674SOL    HW225485   1.246   1.316   7.125 -0.8615  0.0937  0.9795
 4675SOL     OW25486   1.315   0.602   4.184  0.3462 -0.6711  0.3171
 4675SOL    HW125487   1.324   0.523   4.238  1.6038 -0.2143  0.7761
 4675SOL    HW225488   1.385   0.598   4.119 -0.1570 -0.1116 -0.2559
 4676SOL     OW25489   1.333   4.358  14.593  0.5845 -0.3074 -0.3146
 4676SOL    HW125490   1.269   4.340  14.662  0.2529 -0.0943 -0.5632
 4676SOL    HW225491   1.399   4.291  14.607  1.0624  0.5076  1.3508
 4677SOL     OW25492   3.694   2.160   2.643  0.6760  0.2488 -0.0925
 4677SOL    HW125493   3.754   2.087   2.631  2.2561  1.5964 -0.3997
 4677SOL    HW225494   3.757   2.232   2.644 -0.3800  1.1656  0.0691
 4678SOL     OW25495   0.243   0.481   8.944  0.3950 -0.5106 -0.0595
 4678SOL    HW125496   0.328   0.511   8.974  0.5349 -0.2775 -0.6811
 4678SOL    HW225497   0.285   0.424   8.879  2.3372 -1.5054  2.0732
 4679SOL     OW25498   1.660   0.986   8.954  0.8626 -0.4561 -0.6270
 4679SOL    HW125499   1.664   0.894   8.977 -1.0345 -0.6283 -1.0023
 4679SOL    HW225500   1.567   0.992   8.931  0.8478 -0.1900 -0.5018
 4680SOL     OW25501   2.353   1.780  15.317  0.4409  0.1689 -0.2578
 4680SOL    HW125502   2.414   1.849  15.292  1.5472 -0.0620  1.7559
 4680SOL    HW225503   2.418   1.721  15.356  0.5174 -0.7032 -1.7147
 4681SOL     OW25504   0.513   2.998   5.381 -0.1147 -0.2033  0.0926
 4681SOL    HW125505   0.508   2.908   5.411 -2.3919  0.4168  1.5423
 4681SOL    HW225506   0.490   3.036   5.466 -3.0803 -0.2122 -0.7158
 4682SOL     OW25507   1.431   2.886  16.221 -0.0942  0.8699  0.0647
 4682SOL    HW125508   1.427   2.862  16.128  1.9042 -1.1264  0.4821
 4682SOL    HW225509   1.453   2.802  16.262  1.3935  0.1421 -2.2300
 4683SOL     OW25510   3.401   3.475   8.356  0.1505 -0.4844 -0.3005
 4683SOL    HW125511   3.468   3.413   8.386 -0.0575  0.8883  3.0631
 4683SOL    HW225512   3.453   3.553   8.339  0.3268 -0.5651 -0.1279
 4684SOL     OW25513   0.508   4.654   9.316  0.0955  0.0718 -0.1770
 4684SOL    HW125514   0.589   4.701   9.295  1.6276 -1.3714  2.5726
 4684SOL    HW225515   0.503   4.658   9.412 -1.7139  0.3334 -0.2860
 4685SOL     OW25516   4.180   1.989  16.754 -0.2793 -0.1684  0.1735
 4685SOL    HW125517   4.216   1.994  16.666 -2.0413  0.5008 -0.5136
 4685SOL    HW225518   4.242   1.925  16.787  0.6803  0.5458 -0.2444
 4686SOL     OW25519   4.617   2.959   3.620 -0.1023  0.4123 -0.1392
 4686SOL    HW125520   4.614   2.959   3.716  0.5262 -2.6754 -0.1406
 4686SOL    HW225521   4.580   2.873   3.603  0.7206  0.2900 -1.2756
 4687SOL     OW25522   3.877   0.886   8.631 -0.5014  0.2047  0.3033
 4687SOL    HW125523   3.793   0.929   8.618 -0.6405 -0.1818 -0.0947
 4687SOL    HW225524   3.857   0.818   8.696  1.4250  0.0058  0.7082
 4688SOL     OW25525   0.818   0.885   7.950 -0.5887  0.3678 -0.0192
 4688SOL    HW125526   0.732   0.907   7.986 -0.7480 -0.9724  0.4154
 4688SOL    HW225527   0.802   0.839   7.868 -0.5672  0.4707 -0.0808
 4689SOL     OW25528   0.050   0.859   2.635 -0.3625 -0.0323  0.4473
 4689SOL    HW125529   0.043   0.871   2.541 -1.4000  2.2817  0.8064
 4689SOL    HW225530   0.068   0.948   2.668  1.4284 -0.2761  0.1301
 4690SOL     OW25531   1.902   4.239   6.742  0.0756  0.1402  0.0124
 4690SOL    HW125532   1.961   4.165   6.727 -0.3367  0.0037 -0.8893
 4690SOL    HW225533   1.849   4.210   6.816 -1.1604  1.4381 -0.3497
 4691SOL     OW25534   0.779   4.097   3.861  0.2287 -0.0125  0.0466
 4691SOL    HW125535   0.720   4.150   3.808 -0.1392  1.2497  1.7050
 4691SOL    HW225536   0.726   4.067   3.935  0.2823  0.1191  0.1382
 4692SOL     OW25537   0.573   1.540   2.930 -0.7875 -0.4432  0.3603
 4692SOL    HW125538   0.659   1.580   2.946 -1.0606  1.0607 -1.9146
 4692SOL    HW225539   0.590   1.501   2.844  0.2639 -2.3607  1.4373
 4693SOL     OW25540   2.268   1.249   2.600  0.0522 -0.0597  0.2346
 4693SOL    HW125541   2.306   1.280   2.518 -0.4121  0.4520  0.2124
 4693SOL    HW225542   2.332   1.288   2.659  0.7471  0.6256 -0.9868
 4694SOL     OW25543   4.714   3.942   2.220 -0.5330 -0.3087 -0.0862
 4694SOL    HW125544   4.692   3.850   2.233 -0.0632 -0.6784 -2.0046
 4694SOL    HW225545   0.031   3.943   2.134  2.8842 -3.0502  1.5417
 4695SOL     OW25546   4.665   2.906   0.031  0.2600  0.0253 -0.4354
 4695SOL    HW125547   4.666   2.997   0.002  2.6855  0.2772  0.4339
 4695SOL    HW225548   4.588   2.874  17.682  1.6178 -2.1058 -1.1692
 4696SOL     OW25549   4.174   2.093   5.081  0.4109 -0.1128 -0.1572
 4696SOL    HW125550   4.231   2.021   5.108 -0.3172 -0.3587  0.6997
 4696SOL    HW225551   4.235   2.148   5.031 -0.6408 -0.5296 -1.9172
 4697SOL     OW25552   0.611   2.890   6.317  0.2044 -0.4517  0.0438
 4697SOL    HW125553   0.698   2.929   6.316 -0.5530  1.2793  1.7957
 4697SOL    HW225554   0.565   2.952   6.261 -0.5702 -0.2051  0.9528
 4698SOL     OW25555   1.319   2.710  16.560 -0.0022 -0.2068 -0.3973
 4698SOL    HW125556   1.229   2.699  16.529  0.0207  0.2908 -0.6450
 4698SOL    HW225557   1.359   2.625  16.578 -1.9358 -1.4572 -2.0088
 4699SOL     OW25558   1.678   4.654   7.579 -0.0442  0.0046 -0.0895
 4699SOL    HW125559   1.740   4.664   7.652  2.5911 -1.6555 -2.0796
 4699SOL    HW225560   1.727   4.600   7.518  2.0746  0.1673  1.4428
 4700SOL     OW25561   3.729   3.654   4.654  0.5097 -0.0504 -0.5295
 4700SOL    HW125562   3.708   3.594   4.583 -0.5024  0.0103 -0.2821
 4700SOL    HW225563   3.710   3.610   4.736 -0.7511  1.6008  0.0742
 4701SOL     OW25564   2.736   0.831   4.604 -0.0277 -0.3005 -0.0628
 4701SOL    HW125565   2.789   0.831   4.683 -1.4783  2.0984  0.8923
 4701SOL    HW225566   2.806   0.814   4.541  2.0950  3.0645  1.3912
 4702SOL     OW25567   2.182   4.567   8.784  0.0279  0.5229 -0.1167
 4702SOL    HW125568   2.136   4.557   8.867 -0.6684  0.8572 -0.4620
 4702SOL    HW225569   2.125   4.621   8.729 -2.6694 -0.2837  1.8895
 4703SOL     OW25570   1.501   2.956  10.783 -0.2304 -0.3783  0.6914
 4703SOL    HW125571   1.595   2.958  10.802  0.0450 -2.5648 -0.3924
 4703SOL    HW225572   1.474   2.967  10.874 -1.8338  1.6382 -0.0474
 4704SOL     OW25573   1.739   0.299   0.818  0.1809  0.0975 -0.1020
 4704SOL    HW125574   1.784   0.266   0.896  0.4252  1.4377  0.3087
 4704SOL    HW225575   1.792   0.373   0.791 -0.2860  1.1517  1.8526
 4705SOL     OW25576   2.500   4.223   4.803  0.2925 -0.6278  0.3703
 4705SOL    HW125577   2.466   4.185   4.721 -0.4365  1.7766 -0.4422
 4705SOL    HW225578   2.537   4.152   4.855 -0.7054 -2.3694 -1.2899
 4706SOL     OW25579   4.529   2.777  12.251 -0.3800  0.2620  0.6317
 4706SOL    HW125580   4.447   2.800  12.296 -0.8274  2.5596 -1.3443
 4706SOL    HW225581   4.515   2.682  12.244 -1.5610  0.4500  0.4741
 4707SOL     OW25582   4.004   1.090   3.032 -0.2315 -0.1418 -0.0798
 4707SOL    HW125583   4.026   1.025   3.099  1.0305  1.7639  1.3402
 4707SOL    HW225584   3.995   1.165   3.091 -0.1663 -0.2933  0.1240
 4708SOL     OW25585   3.512   0.585   3.885 -0.1244  0.0218 -0.0499
 4708SOL    HW125586   3.525   0.660   3.827 -0.5585  0.0025 -0.1779
 4708SOL    HW225587   3.481   0.515   3.827 -1.2371 -0.2803  0.8999
 4709SOL     OW25588   4.427   0.299   5.920  0.1973 -0.5147 -0.1821
 4709SOL    HW125589   4.337   0.277   5.897  0.5067 -0.3205 -1.5852
 4709SOL    HW225590   4.428   0.371   5.858  2.4929 -0.9662 -0.6686
 4710SOL     OW25591   1.948   2.733   8.650 -0.5969  0.0331 -0.4956
 4710SOL    HW125592   1.969   2.729   8.557 -0.0021  1.7832 -0.4410
 4710SOL    HW225593   2.035   2.750   8.686 -0.8218 -1.2740  0.6741
 4711SOL     OW25594   1.782   3.008   5.005 -0.0553  0.1579  0.2664
 4711SOL    HW125595   1.821   3.076   5.060 -0.6341 -0.5009  1.4984
 4711SOL    HW225596   1.718   3.061   4.957  0.8582  1.8949  0.9723
 4712SOL     OW25597   2.631   3.188   3.219  0.1057  0.0896 -0.1506
 4712SOL    HW125598   2.623   3.104   3.265 -1.6424  1.8478  2.7412
 4712SOL    HW225599   2.596   3.242   3.289 -1.3221 -1.1360  0.1004
 4713SOL     OW25600   2.577   1.422  11.026 -0.2644  0.1209  0.0469
 4713SOL    HW125601   2.533   1.369  10.960  1.1491  1.1634 -1.7495
 4713SOL    HW225602   2.601   1.501  10.977  0.9660  0.7931  1.7458
 4714SOL     OW25603   3.912   0.874  14.292 -0.1184  0.4050  0.5513
 4714SOL    HW125604   3.888   0.894  14.202  0.1947  0.3671  0.4583
 4714SOL    HW225605   3.851   0.933  14.337  0.1078  1.5827 -0.6946
 4715SOL     OW25606   0.065   2.409   5.800  0.1762 -0.4813 -0.3288
 4715SOL    HW125607   0.122   2.472   5.846 -0.0745 -0.9848  0.6654
 4715SOL    HW225608   0.107   2.329   5.830 -2.2480 -2.3505 -1.9555
 4716SOL     OW25609   4.015   0.280  15.993  0.0043  0.6187  0.5569
 4716SOL    HW125610   4.062   0.256  15.913 -1.0933  0.0282  0.0940
 4716SOL    HW225611   3.931   0.236  15.983  0.4717 -0.0623 -0.3687
 4717SOL     OW25612   2.560   4.315  16.707  0.6365 -0.3120  0.3642
 4717SOL    HW125613   2.636   4.321  16.764 -0.2256  0.1401  1.4832
 4717SOL    HW225614   2.522   4.402  16.721  1.2892 -0.2213  1.5758
 4718SOL     OW25615   2.727   0.385   5.593 -0.7249 -0.2734  0.0896
 4718SOL    HW125616   2.661   0.319   5.571  0.7903 -2.4393  1.9963
 4718SOL    HW225617   2.676   0.465   5.586 -2.5522 -1.3430  1.1923
 4719SOL     OW25618   3.526   2.270  16.391  0.3213  0.0059  0.2323
 4719SOL    HW125619   3.572   2.315  16.462  0.5112 -1.0384  0.7820
 4719SOL    HW225620   3.478   2.197  16.431 -1.3102  1.7180  1.3994
 4720SOL     OW25621   2.337   3.171   5.118 -0.5046 -0.5900  0.3848
 4720SOL    HW125622   2.372   3.185   5.206 -1.2901  1.2138  0.4103
 4720SOL    HW225623   2.370   3.245   5.067 -1.4572 -0.6374 -0.3111
 4721SOL     OW25624   2.254   1.288   0.753  0.7255 -0.0079 -0.2256
 4721SOL    HW125625   2.309   1.288   0.675  1.5132  1.1349  0.3271
 4721SOL    HW225626   2.302   1.220   0.801 -1.8533 -1.5668  0.1528
 4722SOL     OW25627   0.930   1.881   5.362  0.2598  0.0085 -0.0669
 4722SOL    HW125628   0.934   1.933   5.282  1.0080  2.4032  1.5257
 4722SOL    HW225629   0.914   1.794   5.325 -1.4626 -0.9720  3.0141
 4723SOL     OW25630   3.438   1.086   6.059  0.6206 -0.2506  1.0847
 4723SOL    HW125631   3.532   1.097   6.053  0.2916  1.5404 -0.6679
 4723SOL    HW225632   3.407   1.069   5.970  0.7567  0.5059  0.8935
 4724SOL     OW25633   1.985   1.736  17.004  0.4052  0.0116  0.0685
 4724SOL    HW125634   2.038   1.815  17.012 -0.2663  0.3847  0.8435
 4724SOL    HW225635   1.925   1.749  17.077  2.4680 -2.7885  2.2565
 4725SOL     OW25636   1.278   2.239  14.935  0.7073  0.8960 -0.2590
 4725SOL    HW125637   1.324   2.199  14.860 -0.3644  1.4689 -1.2264
 4725SOL    HW225638   1.349   2.286  14.978 -0.9076  1.2200  1.9946
 4726SOL     OW25639   1.623   1.241  12.318  0.1463 -0.2822  0.1241
 4726SOL    HW125640   1.716   1.250  12.340 -0.4472  0.1648  2.3768
 4726SOL    HW225641   1.585   1.210  12.400 -1.5778  2.4950  0.3558
 4727SOL     OW25642   2.830   1.697   8.401  0.3097 -0.0843  0.3113
 4727SOL    HW125643   2.921   1.670   8.387 -0.0947 -1.6430  0.6679
 4727SOL    HW225644   2.804   1.696   8.309  0.1745 -3.2950  0.4012
 4728SOL     OW25645   4.597   1.314   0.447  0.6765  0.2415  0.5362
 4728SOL    HW125646   4.562   1.367   0.376 -2.1376 -1.8081  0.4025
 4728SOL    HW225647   4.649   1.247   0.402  2.0366 -1.2800  4.2781
 4729SOL     OW25648   0.155   1.665   1.934  0.4775  0.0404  0.0914
 4729SOL    HW125649   0.217   1.685   2.004  2.0955  1.2716 -1.7235
 4729SOL    HW225650   0.216   1.651   1.862  0.4286 -0.7449  0.1957
 4730SOL     OW25651   0.733   3.811   0.758 -0.6555  0.7232 -0.2600
 4730SOL    HW125652   0.682   3.889   0.735 -2.8807 -1.3535 -2.2782
 4730SOL    HW225653   0.676   3.736   0.741  2.7820 -2.4199  2.0703
 4731SOL     OW25654   2.697   0.222   2.882 -0.2406  0.1318 -0.6169
 4731SOL    HW125655   2.775   0.274   2.899  0.3347 -0.4962 -1.3748
 4731SOL    HW225656   2.675   0.252   2.794 -1.2128 -3.7757 -1.6688
 4732SOL     OW25657   4.720   0.507  10.145  0.2170  0.1605  0.3745
 4732SOL    HW125658   4.708   0.596  10.179  1.9854  0.8630 -0.8405
 4732SOL    HW225659   0.012   0.451  10.221 -2.3561 -1.2991 -0.1764
 4733SOL     OW25660   4.245   2.748   2.247  0.1072  0.6601 -0.0797
 4733SOL    HW125661   4.303   2.742   2.323  0.7731 -2.5982 -0.8211
 4733SOL    HW225662   4.160   2.709   2.269 -0.6725  2.3599 -0.1179
 4734SOL     OW25663   1.962   2.073   5.235  0.1729 -0.1567 -0.0547
 4734SOL    HW125664   1.977   1.985   5.267 -1.5742 -0.5272 -0.2848
 4734SOL    HW225665   1.869   2.093   5.245  0.1745 -0.6689  0.9247
 4735SOL     OW25666   1.831   3.670   6.601 -0.1045  0.2178  0.3062
 4735SOL    HW125667   1.789   3.756   6.600 -1.8045 -0.6309 -1.7870
 4735SOL    HW225668   1.874   3.690   6.518 -1.2820  2.5851  0.2496
 4736SOL     OW25669   3.702   4.534  17.299  0.4792 -0.0685 -0.0555
 4736SOL    HW125670   3.701   4.545  17.204 -0.9369  0.4118  0.0206
 4736SOL    HW225671   3.671   4.444  17.305 -0.7495  0.5492  2.4816
 4737SOL     OW25672   2.811   0.693  16.147  0.3945 -0.4725 -0.3880
 4737SOL    HW125673   2.779   0.611  16.108  2.7768 -1.9220  0.7785
 4737SOL    HW225674   2.730   0.744  16.145 -0.6020 -2.0289  0.2116
 4738SOL     OW25675   2.576   4.603  13.345  0.2177 -0.2482  0.1588
 4738SOL    HW125676   2.653   4.548  13.357 -0.3308 -1.3324 -1.2744
 4738SOL    HW225677   2.602   4.692  13.369  1.2965 -0.4879 -0.1352
 4739SOL     OW25678   1.732   3.381   3.102 -0.1585  0.1910  0.0608
 4739SOL    HW125679   1.666   3.441   3.137  1.0118 -0.2261  3.0049
 4739SOL    HW225680   1.804   3.383   3.165 -1.3799  1.5941  1.4001
 4740SOL     OW25681   2.556   2.132   1.045  0.9919  0.8604 -0.1998
 4740SOL    HW125682   2.514   2.207   1.086  2.8646  0.4443  2.4695
 4740SOL    HW225683   2.537   2.128   0.951 -0.3903  1.7108  0.0540
 4741SOL     OW25684   4.284   4.266   1.648 -0.4351 -0.0244  0.7540
 4741SOL    HW125685   4.239   4.349   1.660  0.8607  0.7580  0.1635
 4741SOL    HW225686   4.336   4.260   1.728  0.0437 -0.0722  0.4373
 4742SOL     OW25687   2.857   1.185   1.904 -0.3133 -0.0066 -0.3485
 4742SOL    HW125688   2.812   1.102   1.888  0.0492 -0.6176  1.7802
 4742SOL    HW225689   2.803   1.231   1.968  1.2712  0.8461  0.3902
 4743SOL     OW25690   1.814   1.804   8.538  0.1656  0.3565  0.5120
 4743SOL    HW125691   1.836   1.722   8.582 -1.7721 -0.4857 -0.0725
 4743SOL    HW225692   1.762   1.777   8.462 -1.1876 -0.5097  1.7320
 4744SOL     OW25693   2.221   3.582   3.624 -0.3955 -0.0335  0.0972
 4744SOL    HW125694   2.189   3.492   3.613 -0.5300 -0.1017  1.0483
 4744SOL    HW225695   2.249   3.599   3.535 -3.1489  2.2027 -0.3779
 4745SOL     OW25696   0.533   2.435   9.564  0.5584  0.2128 -0.4694
 4745SOL    HW125697   0.529   2.348   9.603  0.0504  2.5934  4.7228
 4745SOL    HW225698   0.543   2.489   9.642  0.1162 -0.9686  0.3941
 4746SOL     OW25699   4.498   2.182  15.017  0.2574  0.4572  0.0093
 4746SOL    HW125700   4.471   2.090  15.014 -2.1172  1.2078 -1.1174
 4746SOL    HW225701   4.593   2.168  15.024  0.7317  3.1191 -0.9886
 4747SOL     OW25702   1.250   2.077   0.811 -0.2583  0.7425 -0.0640
 4747SOL    HW125703   1.214   2.136   0.878  0.5686 -0.6258  1.6099
 4747SOL    HW225704   1.237   2.138   0.739 -0.4327  1.3895  0.5211
 4748SOL     OW25705   1.419   2.578   2.148  0.4390  0.1946  0.0725
 4748SOL    HW125706   1.347   2.565   2.087  0.2164  0.0382  0.3704
 4748SOL    HW225707   1.435   2.485   2.167 -1.0137  0.3741  2.1475
 4749SOL     OW25708   3.141   2.629  16.663  0.2903  0.6646 -0.0355
 4749SOL    HW125709   3.215   2.578  16.696 -0.4735 -0.9698 -0.8811
 4749SOL    HW225710   3.183   2.712  16.639  1.7789 -0.5452 -1.5266
 4750SOL     OW25711   4.166   3.430   3.973  0.2634  0.3789  0.3308
 4750SOL    HW125712   4.109   3.357   3.998  0.1867  0.3979  0.2090
 4750SOL    HW225713   4.213   3.447   4.055 -0.2830  1.4054  0.4325
 4751SOL     OW25714   3.291   3.079  10.655  0.1594  0.1462 -0.4810
 4751SOL    HW125715   3.379   3.058  10.624  0.2764 -1.9107  1.2215
 4751SOL    HW225716   3.280   3.018  10.728 -2.8203  1.3325  0.0371
 4752SOL     OW25717   4.504   2.358  14.665 -0.0972  0.1224 -0.5747
 4752SOL    HW125718   4.596   2.349  14.690 -0.2231 -0.8365 -0.4537
 4752SOL    HW225719   4.484   2.265  14.674  0.4950  0.0080 -0.4048
 4753SOL     OW25720   1.220   3.061   1.612 -0.1996 -0.4635  0.2833
 4753SOL    HW125721   1.313   3.078   1.630 -0.0712  0.5232 -1.3023
 4753SOL    HW225722   1.207   2.989   1.673  1.4515  0.7677  2.1109
 4754SOL     OW25723   4.076   2.328  15.903 -0.7400  0.4498  0.3293
 4754SOL    HW125724   4.087   2.329  15.808  1.5104  0.0890  0.5769
 4754SOL    HW225725   4.096   2.420  15.919 -0.5333  0.4487  0.0710
 4755SOL     OW25726   0.838   3.915   6.833 -0.2779 -0.1813  0.0945
 4755SOL    HW125727   0.785   3.985   6.871  1.2994  1.3317 -0.4888
 4755SOL    HW225728   0.886   3.966   6.767 -0.7142  1.1195  0.7920
 4756SOL     OW25729   2.745   3.824  13.497 -0.1538 -0.1260 -0.0468
 4756SOL    HW125730   2.721   3.915  13.514 -0.9035 -0.2561 -0.4346
 4756SOL    HW225731   2.726   3.821  13.403 -1.1981 -0.2706  0.1699
 4757SOL     OW25732   0.582   3.078  15.323 -0.0510 -0.6612  0.3661
 4757SOL    HW125733   0.598   3.168  15.295 -1.1321 -0.4576  0.4336
 4757SOL    HW225734   0.575   3.087  15.418 -0.1036 -0.6493  0.3611
 4758SOL     OW25735   3.903   1.723   2.609 -0.4301 -0.0934  0.1779
 4758SOL    HW125736   3.975   1.699   2.666 -0.1387  0.3009 -0.0298
 4758SOL    HW225737   3.859   1.638   2.616 -1.1147  0.0287 -2.6947
 4759SOL     OW25738   1.828   0.713   6.859 -0.3799  1.0398 -0.6779
 4759SOL    HW125739   1.781   0.756   6.930 -0.9488 -1.2827  0.3605
 4759SOL    HW225740   1.777   0.632   6.867 -0.8957  1.5588  1.3257
 4760SOL     OW25741   4.087   2.047  15.133  0.1500  0.2384 -0.5080
 4760SOL    HW125742   4.127   2.121  15.179 -0.3740 -0.3020  0.8152
 4760SOL    HW225743   4.007   2.048  15.186 -0.3233  1.9195 -1.2772
 4761SOL     OW25744   4.397   3.506   6.751  0.1601 -0.2903  0.2773
 4761SOL    HW125745   4.385   3.600   6.759  0.3538 -0.1938 -0.5395
 4761SOL    HW225746   4.492   3.508   6.739 -0.1622 -3.4171 -2.9315
 4762SOL     OW25747   1.013   4.254   5.185  0.1039  0.4502 -0.0095
 4762SOL    HW125748   1.050   4.175   5.147 -1.6597 -0.1358 -0.4669
 4762SOL    HW225749   1.031   4.309   5.109  0.5707 -0.6866 -0.7178
 4763SOL     OW25750   2.568   0.349  16.966  0.0049 -0.0133 -0.4519
 4763SOL    HW125751   2.496   0.373  17.025 -1.3351 -0.3108 -1.9670
 4763SOL    HW225752   2.607   0.435  16.954 -2.1706  1.0362 -0.0210
 4764SOL     OW25753   3.463   3.166  13.154  0.3559  0.0334 -0.3055
 4764SOL    HW125754   3.372   3.148  13.131 -0.1756  0.8769  1.0959
 4764SOL    HW225755   3.507   3.095  13.107 -0.2580 -0.2157 -0.5003
 4765SOL     OW25756   2.598   3.907   7.074  0.4564  0.0191  0.1414
 4765SOL    HW125757   2.636   3.827   7.111 -1.5401 -0.9279  0.1120
 4765SOL    HW225758   2.556   3.949   7.149  0.0990  0.3962 -0.2699
 4766SOL     OW25759   3.817   2.829   8.776 -0.5489  0.2532 -0.7416
 4766SOL    HW125760   3.815   2.755   8.716  1.3561 -2.2878  2.3766
 4766SOL    HW225761   3.844   2.799   8.862 -3.1410  1.6499  0.5687
 4767SOL     OW25762   1.386   1.835   4.575  0.2839 -0.3336  0.4056
 4767SOL    HW125763   1.387   1.748   4.535 -0.5058 -0.9474  1.7277
 4767SOL    HW225764   1.393   1.819   4.669 -2.3203  1.9336  0.9961
 4768SOL     OW25765   2.082   1.671   2.792 -0.1902  0.0948  0.3894
 4768SOL    HW125766   1.992   1.640   2.801 -0.0371 -0.5770 -0.4072
 4768SOL    HW225767   2.080   1.755   2.747  1.1744 -0.9867 -1.6850
 4769SOL     OW25768   3.775   2.322   2.989  0.2167 -0.9605 -0.2987
 4769SOL    HW125769   3.703   2.262   2.966 -3.4489  3.1677  0.5292
 4769SOL    HW225770   3.732   2.407   2.984  1.9790 -0.0686 -0.1633
 4770SOL     OW25771   1.106   1.107  13.420  0.1924 -0.6694  0.3525
 4770SOL    HW125772   1.150   1.148  13.495 -1.6104 -0.0615  1.0952
 4770SOL    HW225773   1.016   1.137  13.438 -0.2428 -0.1328 -2.7411
 4771SOL     OW25774   4.091   1.525  11.980  0.4071  0.1031 -0.6678
 4771SOL    HW125775   4.017   1.572  12.020  1.4245  0.0575  1.2411
 4771SOL    HW225776   4.125   1.589  11.917 -0.7761  0.0364 -1.3966
 4772SOL     OW25777   4.020   2.933   3.037  0.1686  0.0182  0.2135
 4772SOL    HW125778   4.055   3.018   3.009 -4.0088  1.4877 -0.5292
 4772SOL    HW225779   3.974   2.905   2.957  3.8299 -2.5803 -0.9908
 4773SOL     OW25780   0.817   4.283   8.520 -1.2878 -0.5771  0.0954
 4773SOL    HW125781   0.782   4.219   8.459 -0.7812 -0.3045 -0.4791
 4773SOL    HW225782   0.877   4.230   8.572 -0.4587 -0.2531 -0.5374
 4774SOL     OW25783   3.164   0.979   3.619 -0.5380 -0.3172 -0.0589
 4774SOL    HW125784   3.186   0.903   3.565 -0.5720 -0.1450 -0.3133
 4774SOL    HW225785   3.205   0.961   3.704  1.4153  1.9247 -0.5486
 4775SOL     OW25786   1.060   2.821   9.062  0.6512 -0.0498 -0.0159
 4775SOL    HW125787   1.040   2.818   9.156  0.9435 -0.9103  0.0172
 4775SOL    HW225788   1.102   2.738   9.041 -0.0025 -0.4147  0.1131
 4776SOL     OW25789   0.002   0.695  15.209  0.1465 -0.0377  0.0201
 4776SOL    HW125790   0.044   0.716  15.292 -3.5943  3.2733  1.1159
 4776SOL    HW225791   0.048   0.750  15.145  0.4251  1.0615  1.1793
 4777SOL     OW25792   4.358   4.649   1.958 -0.2626  0.4756 -0.4453
 4777SOL    HW125793   4.444   4.652   1.998  0.2159 -2.1039 -1.3440
 4777SOL    HW225794   4.359   0.018   1.935  1.6085  0.6870  0.5074
 4778SOL     OW25795   2.571   0.273   7.671 -0.8208  0.5026 -0.5857
 4778SOL    HW125796   2.577   0.237   7.760  0.4193  0.9308 -0.4943
 4778SOL    HW225797   2.487   0.234   7.650 -0.0834 -1.2239 -0.3514
 4779SOL     OW25798   2.022   0.183   6.666 -0.0881  0.0159 -0.0200
 4779SOL    HW125799   2.047   0.147   6.580 -1.2054  1.3142 -0.8866
 4779SOL    HW225800   1.974   0.112   6.709  2.0528 -1.4958 -0.1272
 4780SOL     OW25801   0.967   3.507   3.143  0.1021  0.0948 -1.0431
 4780SOL    HW125802   1.005   3.583   3.189  0.0103 -1.2643  1.3087
 4780SOL    HW225803   0.874   3.526   3.130  0.1709  1.8332  0.9682
 4781SOL     OW25804   2.770   2.637   3.720 -0.2539 -0.1110  0.2789
 4781SOL    HW125805   2.778   2.676   3.807  0.3137  0.4126 -0.0088
 4781SOL    HW225806   2.856   2.596   3.712 -1.0897 -1.5703 -1.1151
 4782SOL     OW25807   3.638   2.879   5.609  0.2872  0.3171 -0.2490
 4782SOL    HW125808   3.675   2.800   5.569 -0.2469 -0.0030 -0.1075
 4782SOL    HW225809   3.702   2.945   5.582  0.4794  0.4363  0.5109
 4783SOL     OW25810   1.980   1.385   9.247 -0.4402 -0.2113 -0.1939
 4783SOL    HW125811   1.996   1.292   9.230  1.6942  0.5681 -2.4626
 4783SOL    HW225812   1.923   1.416   9.177  0.4871  1.0911 -0.3891
 4784SOL     OW25813   2.946   3.785   6.125 -0.0039  0.4096  0.6740
 4784SOL    HW125814   3.019   3.844   6.106 -0.5088  0.6218 -0.6182
 4784SOL    HW225815   2.987   3.746   6.202  1.0358 -0.2411 -0.2134
 4785SOL     OW25816   1.132   3.476   0.513  0.4514  0.0758  0.6797
 4785SOL    HW125817   1.183   3.540   0.464 -0.1643  1.1440  1.4253
 4785SOL    HW225818   1.045   3.484   0.475  0.8994  1.9632  0.0460
 4786SOL     OW25819   2.205   0.971   2.542 -0.5250  0.0430 -0.2749
 4786SOL    HW125820   2.140   0.964   2.611 -1.2324 -1.4450 -1.0886
 4786SOL    HW225821   2.171   1.048   2.495  0.0653 -0.2987 -1.2583
 4787SOL     OW25822   2.675   2.199   2.199  0.2706  0.3642  0.1018
 4787SOL    HW125823   2.632   2.197   2.113 -3.5229  0.7699  1.9924
 4787SOL    HW225824   2.724   2.117   2.196 -0.9143 -0.2604 -1.9586
 4788SOL     OW25825   4.707   0.474   7.493 -0.0701  0.1438 -0.2797
 4788SOL    HW125826   0.032   0.506   7.417 -0.0729 -1.1546 -0.8320
 4788SOL    HW225827   0.016   0.526   7.566  0.1885 -0.8134  0.2887
 4789SOL     OW25828   4.413   3.025   0.479  0.1468 -0.2859 -0.1120
 4789SOL    HW125829   4.368   3.108   0.495 -0.2988 -0.5818  0.1514
 4789SOL    HW225830   4.487   3.040   0.537 -0.0594  1.5955 -0.3265
 4790SOL     OW25831   2.673   0.904  17.335  0.4503  0.3396 -0.0002
 4790SOL    HW125832   2.700   0.830  17.281  1.1896  0.2975  0.4441
 4790SOL    HW225833   2.708   0.877  17.419  1.5874  1.5538 -0.0889
 4791SOL     OW25834   4.442   3.527  13.636 -0.1862  0.4883 -0.4886
 4791SOL    HW125835   4.459   3.529  13.542 -0.9618 -0.0133 -0.6371
 4791SOL    HW225836   4.362   3.576  13.621  0.4629  0.3179 -4.4271
 4792SOL     OW25837   1.908   3.620   3.297  0.5531 -0.7363 -0.2548
 4792SOL    HW125838   1.927   3.527   3.288 -2.1270 -1.1543 -1.2580
 4792SOL    HW225839   1.836   3.610   3.359 -0.4192  0.7210 -1.1379
 4793SOL     OW25840   4.209   1.465  15.098  0.2822  0.3555 -0.2989
 4793SOL    HW125841   4.283   1.406  15.109 -0.3968 -0.9236 -2.5614
 4793SOL    HW225842   4.250   1.551  15.093 -0.5409  0.8393  1.3368
 4794SOL     OW25843   0.174   2.387   7.979  0.4590 -0.2246 -0.2183
 4794SOL    HW125844   0.199   2.295   7.981 -1.1848 -0.6843 -1.0107
 4794SOL    HW225845   0.252   2.428   8.017 -0.0707  1.0772 -0.5463
 4795SOL     OW25846   0.479   2.907   8.523 -0.2171 -0.4953  0.4895
 4795SOL    HW125847   0.435   2.927   8.606 -0.5938  0.7162 -0.0010
 4795SOL    HW225848   0.561   2.866   8.551 -0.0246  1.1247  2.3721
 4796SOL     OW25849   3.808   0.119   7.630 -0.2940 -0.2008  0.0637
 4796SOL    HW125850   3.862   0.112   7.709 -2.0038  1.9033  1.4024
 4796SOL    HW225851   3.878   0.123   7.565 -0.1442  2.2495  0.3649
 4797SOL     OW25852   2.171   0.877   4.492 -0.3452 -0.0316 -0.2431
 4797SOL    HW125853   2.148   0.801   4.545 -0.2006 -0.0736 -0.2406
 4797SOL    HW225854   2.174   0.840   4.404 -0.1002  1.9057 -1.0521
 4798SOL     OW25855   2.003   0.126   8.338  0.0276  0.7833  0.7266
 4798SOL    HW125856   1.933   0.119   8.273 -1.4626 -0.6757  2.4853
 4798SOL    HW225857   2.030   0.034   8.337  3.1939  1.7592 -1.4221
 4799SOL     OW25858   2.474   4.233  15.171  0.6160 -0.3179  0.0397
 4799SOL    HW125859   2.480   4.222  15.266 -0.5229 -1.1057  0.0230
 4799SOL    HW225860   2.566   4.224  15.149  0.1274  0.3809 -2.3334
 4800SOL     OW25861   0.894   0.903   6.314 -0.4409  0.2976  0.3668
 4800SOL    HW125862   0.878   0.830   6.253  0.5564 -0.4925  1.0559
 4800SOL    HW225863   0.860   0.973   6.259 -0.9872  1.6821  2.4966
 4801SOL     OW25864   3.105   1.122   5.460  0.3553  0.3459  0.2368
 4801SOL    HW125865   3.199   1.125   5.445  0.2221  0.5884 -0.5333
 4801SOL    HW225866   3.078   1.211   5.483 -0.0259  1.3445 -4.1389
 4802SOL     OW25867   0.332   0.877  15.318 -0.6222 -0.4307 -0.5351
 4802SOL    HW125868   0.267   0.866  15.248  0.1595  1.8867 -1.6035
 4802SOL    HW225869   0.310   0.806  15.378  0.8988 -1.1843 -0.8661
 4803SOL     OW25870   4.197   3.629  13.600  0.0470 -0.2898  0.2953
 4803SOL    HW125871   4.133   3.564  13.575  1.3911 -2.2706  1.9958
 4803SOL    HW225872   4.143   3.708  13.607 -0.8704 -0.9958  1.1381
 4804SOL     OW25873   3.553   3.649  10.659  0.2142 -0.3090 -0.0589
 4804SOL    HW125874   3.486   3.595  10.617  1.2149 -2.1719  0.7611
 4804SOL    HW225875   3.545   3.630  10.752  1.2542 -0.0203  0.0911
 4805SOL     OW25876   4.630   2.736   5.887  0.0726  0.6359  0.0695
 4805SOL    HW125877   4.620   2.789   5.965 -1.5811  2.2197 -1.2047
 4805SOL    HW225878   4.542   2.739   5.849  0.0357 -0.7637  0.0168
 4806SOL     OW25879   1.570   4.472   8.315 -0.4668 -0.4869  0.2400
 4806SOL    HW125880   1.652   4.516   8.336  0.3466 -1.9837  0.1692
 4806SOL    HW225881   1.527   4.502   8.394  2.7815  0.4081  1.6665
 4807SOL     OW25882   0.249   1.111  10.539  0.0349  0.1449 -0.3416
 4807SOL    HW125883   0.308   1.149  10.475  1.4650 -0.7127  0.4545
 4807SOL    HW225884   0.308   1.086  10.610 -0.7407 -1.0270 -0.1076
 4808SOL     OW25885   4.639   0.289   2.604  0.5666 -0.5491 -0.3562
 4808SOL    HW125886   4.571   0.350   2.574  0.4912 -0.5610 -0.2111
 4808SOL    HW225887   4.658   0.238   2.525 -0.5039  1.4876 -1.9229
 4809SOL     OW25888   2.468   2.929   5.772  0.2852 -0.0355  0.2710
 4809SOL    HW125889   2.455   3.007   5.717 -2.7463 -0.7637 -0.0739
 4809SOL    HW225890   2.396   2.939   5.835 -2.4051  2.2493 -3.1350
 4810SOL     OW25891   4.285   3.783   1.672  0.3287  0.1859  0.1522
 4810SOL    HW125892   4.307   3.692   1.689  1.0934  0.5254  0.9695
 4810SOL    HW225893   4.215   3.788   1.606 -1.6638  0.4406  2.2833
 4811SOL     OW25894   3.510   1.541   4.179  0.0116  1.0073 -0.6111
 4811SOL    HW125895   3.484   1.594   4.104 -0.3912 -0.8827 -1.8245
 4811SOL    HW225896   3.604   1.553   4.194  0.5773 -2.8440 -1.0555
 4812SOL     OW25897   2.756   1.599   6.230 -0.5661 -0.4438  0.7212
 4812SOL    HW125898   2.676   1.554   6.259 -1.0170 -0.3704 -0.4015
 4812SOL    HW225899   2.797   1.522   6.190  0.8384  0.2743  0.8118
 4813SOL     OW25900   4.571   4.327   8.908  0.4620  0.3097  0.0976
 4813SOL    HW125901   4.493   4.381   8.922  0.6133  0.0696  1.8520
 4813SOL    HW225902   4.592   4.289   8.993 -1.6747 -3.0059 -0.8857
 4814SOL     OW25903   1.391   1.688  16.366  0.3638  0.7074 -0.5145
 4814SOL    HW125904   1.468   1.720  16.413  0.6581  0.7091 -0.9995
 4814SOL    HW225905   1.349   1.634  16.433  0.4022  1.2206 -0.0759
 4815SOL     OW25906   1.811   1.716   6.297 -0.2930 -0.0699  0.1582
 4815SOL    HW125907   1.902   1.727   6.326 -0.9980  3.3851  1.1297
 4815SOL    HW225908   1.775   1.657   6.362 -0.6114  0.9426  0.9023
 4816SOL     OW25909   2.374   0.785   3.997  0.2705  0.4457 -0.4657
 4816SOL    HW125910   2.465   0.764   4.018  0.1766  0.7196  0.2287
 4816SOL    HW225911   2.373   0.872   4.037  0.0456  0.8471 -1.3508
 4817SOL     OW25912   4.005   4.642   2.351  0.0883 -0.2674  0.6040
 4817SOL    HW125913   3.991   4.717   2.293 -0.7194 -0.3136  0.7436
 4817SOL    HW225914   4.036   4.584   2.282  2.0079  0.5040  0.8091
 4818SOL     OW25915   3.572   2.985   7.436  0.1466 -0.0010 -0.5786
 4818SOL    HW125916   3.576   3.080   7.451 -0.3826 -0.3916  1.9727
 4818SOL    HW225917   3.512   2.989   7.362 -1.1589 -1.7400  0.3931
 4819SOL     OW25918   1.230   4.068   2.430 -0.1876  0.1000  0.1497
 4819SOL    HW125919   1.271   4.014   2.497 -0.4922 -2.1605 -1.4648
 4819SOL    HW225920   1.278   4.048   2.350  1.3886  1.8676  0.6759
 4820SOL     OW25921   2.124   0.696   2.409 -0.0312 -0.3705  0.1467
 4820SOL    HW125922   2.070   0.687   2.330 -0.1787 -0.6379  0.2797
 4820SOL    HW225923   2.211   0.707   2.371 -0.8316  1.3132 -1.1993
 4821SOL     OW25924   3.796   3.025  12.218 -0.2538 -0.3448 -0.7272
 4821SOL    HW125925   3.736   3.065  12.281 -1.0769 -1.2219 -0.9530
 4821SOL    HW225926   3.754   2.941  12.201  2.4254 -2.0656  1.1304
 4822SOL     OW25927   2.969   0.016   9.261 -0.4117 -0.1674 -0.5185
 4822SOL    HW125928   3.046   0.067   9.236 -0.8103  0.0206 -1.3591
 4822SOL    HW225929   2.921   0.024   9.178 -2.1855  1.6453  0.6879
 4823SOL     OW25930   4.253   4.697  17.634  0.1396 -0.2347  0.1560
 4823SOL    HW125931   4.302   4.617  17.652 -1.2542 -1.1557 -0.1870
 4823SOL    HW225932   4.174   4.655  17.600 -0.3113 -0.6338  1.7289
 4824SOL     OW25933   0.562   1.014  12.169 -0.3535  0.1956  0.7722
 4824SOL    HW125934   0.604   0.940  12.212 -1.3080 -0.4728  0.5522
 4824SOL    HW225935   0.588   1.089  12.223  0.0292 -1.2898  2.6300
 4825SOL     OW25936   1.080   3.003  10.479  0.1578  0.0353 -0.4097
 4825SOL    HW125937   1.095   3.086  10.434  2.6131 -0.7242 -0.9933
 4825SOL    HW225938   1.146   2.996  10.548 -0.3528  0.2815  0.0981
 4826SOL     OW25939   1.584   3.791  17.275  0.5451 -0.0106  0.0632
 4826SOL    HW125940   1.637   3.720  17.312 -2.3249 -1.0030  2.3274
 4826SOL    HW225941   1.658   3.847  17.250  0.2102  0.2545 -0.3260
 4827SOL     OW25942   2.800   3.101   1.693 -0.1567  0.1861  0.2763
 4827SOL    HW125943   2.744   3.178   1.701 -1.4540 -0.6071 -1.1260
 4827SOL    HW225944   2.831   3.091   1.783 -0.7018 -2.0872  0.2122
 4828SOL     OW25945   1.531   1.387  13.531  0.0456  0.0687  0.2673
 4828SOL    HW125946   1.511   1.400  13.624  2.9067  3.5189  0.3963
 4828SOL    HW225947   1.496   1.470  13.500 -1.2131  0.0946  1.7670
 4829SOL     OW25948   3.644   2.060   9.859  0.7259  0.0952  0.1519
 4829SOL    HW125949   3.599   2.137   9.824  2.4098  0.8207 -0.3991
 4829SOL    HW225950   3.588   1.986   9.832  1.4183 -1.6194  3.3121
 4830SOL     OW25951   0.432   1.851   2.906  0.0691  0.0630  0.0903
 4830SOL    HW125952   0.440   1.791   2.832  2.9001  0.2397  0.2486
 4830SOL    HW225953   0.414   1.790   2.979 -0.3768  0.6477  0.4622
 4831SOL     OW25954   4.335   3.018   4.552  0.4786 -0.0493  1.0855
 4831SOL    HW125955   4.243   2.992   4.556  0.4510 -0.5307 -2.7915
 4831SOL    HW225956   4.367   2.957   4.485  0.0141 -0.0557  0.8751
 4832SOL     OW25957   3.259   4.422   9.054  0.6746 -0.3710  0.6954
 4832SOL    HW125958   3.316   4.395   8.982 -0.5548 -1.2623  0.0560
 4832SOL    HW225959   3.197   4.469   9.000  1.3855  1.9119  1.8725
 4833SOL     OW25960   2.494   1.268  10.786 -0.2206 -0.6163  0.5693
 4833SOL    HW125961   2.493   1.176  10.813 -2.3988 -0.9965 -0.7637
 4833SOL    HW225962   2.581   1.267  10.746 -1.0859  0.4852 -1.3502
 4834SOL     OW25963   2.208   0.124  10.318  0.1271  0.0102 -0.0238
 4834SOL    HW125964   2.251   0.082  10.393  1.5551  1.5606  0.0141
 4834SOL    HW225965   2.239   0.213  10.335 -1.2191  0.7180 -1.2163
 4835SOL     OW25966   3.030   1.914  17.445 -0.1389 -0.0764 -0.0064
 4835SOL    HW125967   2.997   1.828  17.416 -3.2211  1.6254 -1.5070
 4835SOL    HW225968   2.952   1.969  17.439  0.4712  0.6746 -1.0379
 4836SOL     OW25969   4.436   1.689   8.577  0.2019 -0.1689 -0.0991
 4836SOL    HW125970   4.448   1.638   8.657 -1.2786 -0.9395 -0.3781
 4836SOL    HW225971   4.383   1.764   8.605  0.2652 -0.1030 -0.1595
 4837SOL     OW25972   2.884   4.627   5.421  0.3577  0.8722 -0.4148
 4837SOL    HW125973   2.890   4.606   5.514 -0.0165 -1.3149 -0.8989
 4837SOL    HW225974   2.948   4.698   5.423  1.0888  0.1906  0.3304
 4838SOL     OW25975   2.523   2.368  11.760  0.3734 -0.2262  0.1597
 4838SOL    HW125976   2.436   2.338  11.732 -0.5492  1.7554  0.9072
 4838SOL    HW225977   2.570   2.285  11.753  0.4875 -0.2789  1.6676
 4839SOL     OW25978   3.304   3.569   0.077 -0.5448  0.6607 -0.8065
 4839SOL    HW125979   3.382   3.619   0.052 -0.2033  1.2105  1.3619
 4839SOL    HW225980   3.279   3.531  17.691 -0.2255  0.3978 -0.7856
 4840SOL     OW25981   0.442   3.144   3.485 -0.0145  0.2212 -0.2710
 4840SOL    HW125982   0.413   3.164   3.396  0.3743 -1.0791 -0.6869
 4840SOL    HW225983   0.452   3.049   3.480  3.4961  0.4608  2.0689
 4841SOL     OW25984   3.611   3.547  14.151 -0.7169 -0.3179 -0.0075
 4841SOL    HW125985   3.653   3.469  14.187 -3.1483 -0.7993  1.8284
 4841SOL    HW225986   3.521   3.529  14.122 -0.5384 -2.7736  0.9801
 4842SOL     OW25987   0.719   0.656   3.160  0.1457  0.1988  0.5360
 4842SOL    HW125988   0.792   0.626   3.215  0.7900 -0.3196 -0.6089
 4842SOL    HW225989   0.646   0.607   3.197  0.3756  1.4244  2.6230
 4843SOL     OW25990   1.759   4.103  10.913  0.7207 -0.5412 -0.3210
 4843SOL    HW125991   1.669   4.103  10.880 -0.2773  2.3811  2.4725
 4843SOL    HW225992   1.783   4.195  10.904  0.6962 -0.5450 -0.4261
 4844SOL     OW25993   1.617   2.298   6.867  0.0881 -0.2343 -0.0142
 4844SOL    HW125994   1.540   2.253   6.833 -0.7420  1.4445 -0.3167
 4844SOL    HW225995   1.568   2.343   6.935  1.9626 -0.8766  1.7687
 4845SOL     OW25996   0.612   2.839   7.031  0.0867  0.0080  0.9031
 4845SOL    HW125997   0.584   2.748   7.020  1.0401  0.1637 -2.6456
 4845SOL    HW225998   0.691   2.843   6.977  0.5782 -0.8376  1.5704
 4846SOL     OW25999   1.590   1.362   4.573  0.4594 -1.0616  0.3830
 4846SOL    HW126000   1.652   1.433   4.591  0.8804 -0.7614 -2.1861
 4846SOL    HW226001   1.558   1.325   4.655 -1.3238 -2.7342 -1.0705
 4847SOL     OW26002   3.517   3.745   2.203  0.0645 -0.3677  0.0700
 4847SOL    HW126003   3.473   3.800   2.139  1.0036 -1.0099 -1.1356
 4847SOL    HW226004   3.611   3.763   2.197 -0.1387 -0.6890 -3.7805
 4848SOL     OW26005   1.163   4.236   7.937 -0.1796  0.0800  0.1637
 4848SOL    HW126006   1.201   4.291   8.005 -0.7441 -1.2819  1.5613
 4848SOL    HW226007   1.072   4.231   7.966 -0.6343  1.0957 -1.0955
 4849SOL     OW26008   2.110   0.760   8.301  0.0603  0.1509 -0.0942
 4849SOL    HW126009   2.173   0.760   8.229 -0.9489 -0.8711 -0.9712
 4849SOL    HW226010   2.027   0.765   8.253 -0.6929 -1.7610  1.0124
 4850SOL     OW26011   1.393   0.281   9.579  0.3919  0.1012  0.6111
 4850SOL    HW126012   1.460   0.233   9.628  0.1244  0.0144  0.8880
 4850SOL    HW226013   1.416   0.257   9.489 -1.5139  0.3563  0.0571
 4851SOL     OW26014   1.397   3.721  13.923  0.1267 -0.2942 -0.4975
 4851SOL    HW126015   1.321   3.749  13.974  0.8860  1.7030 -0.4326
 4851SOL    HW226016   1.427   3.811  13.911 -0.2565 -0.0719  0.2394
 4852SOL     OW26017   1.680   3.281  17.508  0.0253 -0.3607 -0.2024
 4852SOL    HW126018   1.670   3.372  17.536  0.0667 -0.2612 -0.5114
 4852SOL    HW226019   1.761   3.256  17.552 -0.5484  0.9347  1.5799
 4853SOL     OW26020   0.371   3.462  17.333  0.3176 -0.1100  0.3788
 4853SOL    HW126021   0.314   3.521  17.283  1.0432  0.7838  0.6260
 4853SOL    HW226022   0.452   3.474  17.283 -1.4595  1.5857 -2.1088
 4854SOL     OW26023   3.984   2.127   5.276 -0.4717 -0.2956 -0.2001
 4854SOL    HW126024   3.947   2.211   5.249  0.4062 -0.4320 -1.8373
 4854SOL    HW226025   4.054   2.117   5.211  1.6584  0.6092  1.9557
 4855SOL     OW26026   3.396   2.734   3.108  0.1164  0.3893 -0.0045
 4855SOL    HW126027   3.426   2.717   3.019 -0.4365  0.5944 -0.2318
 4855SOL    HW226028   3.471   2.774   3.151 -0.3061 -0.7461  1.7910
 4856SOL     OW26029   3.254   4.319  17.683  0.6989  0.0499 -0.2090
 4856SOL    HW126030   3.331   4.369  17.656 -0.5287  0.7751 -2.3793
 4856SOL    HW226031   3.296   4.234  17.685  0.8404  0.0687 -2.4342
 4857SOL     OW26032   1.252   1.525   3.416 -0.5562 -0.7074  0.3570
 4857SOL    HW126033   1.202   1.454   3.454  0.8571 -0.1741  3.2535
 4857SOL    HW226034   1.231   1.594   3.479 -1.9821  0.8909 -1.8715
 4858SOL     OW26035   2.823   2.589  13.674  0.2501 -0.7852  0.2209
 4858SOL    HW126036   2.914   2.596  13.701  0.4425 -0.5435 -0.4798
 4858SOL    HW226037   2.807   2.506  13.719 -2.4651 -0.9698 -1.0496
 4859SOL     OW26038   2.487   0.572   6.537 -0.1747  0.1501 -0.4157
 4859SOL    HW126039   2.547   0.498   6.531 -0.9861 -0.2859 -3.2640
 4859SOL    HW226040   2.507   0.618   6.455  2.7243 -1.9787 -0.9007
 4860SOL     OW26041   2.585   3.329   6.420  0.9826 -0.1109  0.2758
 4860SOL    HW126042   2.545   3.333   6.333  1.2173  1.7484  0.2555
 4860SOL    HW226043   2.579   3.240   6.454 -3.1451  0.7148  1.7182
 4861SOL     OW26044   3.343   1.145   2.556  0.2618 -0.1338 -0.7130
 4861SOL    HW126045   3.321   1.053   2.541 -0.7652  0.1716 -1.0022
 4861SOL    HW226046   3.414   1.138   2.620 -0.0411  1.0493 -0.2568
 4862SOL     OW26047   0.541   0.488   4.783  0.1689 -0.1114 -0.0610
 4862SOL    HW126048   0.490   0.540   4.846 -0.6337 -0.8742 -0.0880
 4862SOL    HW226049   0.559   0.553   4.715  0.8505 -1.7745 -1.4398
 4863SOL     OW26050   4.443   2.143   6.231 -0.0360 -0.5665 -0.8458
 4863SOL    HW126051   4.466   2.234   6.216  0.6942 -0.5153  0.6807
 4863SOL    HW226052   4.517   2.106   6.279  1.9916  1.8747 -2.0628
 4864SOL     OW26053   0.726   4.333   2.883 -0.1059 -0.4355  0.3901
 4864SOL    HW126054   0.811   4.354   2.922  0.4205 -1.4134 -0.2357
 4864SOL    HW226055   0.665   4.331   2.957 -1.7148  4.1031 -0.7961
 4865SOL     OW26056   0.341   2.219   7.789 -0.4515 -0.2756 -0.5124
 4865SOL    HW126057   0.361   2.313   7.782  0.2131 -0.3922 -0.1637
 4865SOL    HW226058   0.359   2.194   7.698 -1.1805 -1.4910 -0.3154
 4866SOL     OW26059   2.452   4.395   4.431  0.5713  0.0075 -0.2002
 4866SOL    HW126060   2.488   4.484   4.433 -0.6994  0.5519 -1.5099
 4866SOL    HW226061   2.358   4.405   4.442  0.4153 -1.7938  0.0698
 4867SOL     OW26062   0.759   1.739   1.945 -0.1674 -0.1735 -0.1436
 4867SOL    HW126063   0.680   1.793   1.948  1.1920  1.7443  0.8322
 4867SOL    HW226064   0.712   1.659   1.920  0.2615 -1.1382  2.0899
 4868SOL     OW26065   1.315   4.020   7.820 -0.2929 -0.1740  0.0461
 4868SOL    HW126066   1.404   4.051   7.833  0.9489 -1.5404 -5.3111
 4868SOL    HW226067   1.250   4.087   7.841 -0.5627 -0.1909 -0.7547
 4869SOL     OW26068   3.416   2.349   7.294 -0.3606  0.0120 -0.3836
 4869SOL    HW126069   3.505   2.315   7.308 -0.4838  0.1309  0.7060
 4869SOL    HW226070   3.435   2.367   7.202  1.4033 -1.0818 -0.2461
 4870SOL     OW26071   0.865   2.297   4.365 -0.0651  0.1946 -0.1463
 4870SOL    HW126072   0.859   2.207   4.332  3.9477  0.8649 -2.7654
 4870SOL    HW226073   0.904   2.266   4.447 -0.7639 -1.1351 -0.3175
 4871SOL     OW26074   3.394   1.684   6.579 -0.3509 -0.1768  0.4290
 4871SOL    HW126075   3.385   1.768   6.533  0.8598  0.5052  1.4600
 4871SOL    HW226076   3.352   1.634   6.509  0.4295  0.6902 -0.6801
 4872SOL     OW26077   2.887   4.047  12.307 -0.6304 -0.0537  0.0555
 4872SOL    HW126078   2.799   4.082  12.319 -0.8743 -0.8910  0.6683
 4872SOL    HW226079   2.872   3.987  12.234 -0.3696  0.7915 -0.6942
 4873SOL     OW26080   0.045   3.414   6.543  0.1442 -0.8910 -0.0518
 4873SOL    HW126081   0.078   3.331   6.509  0.9087 -0.7972  0.4720
 4873SOL    HW226082   4.714   3.434   6.468 -0.4658 -0.6162  0.4656
 4874SOL     OW26083   3.292   1.051  13.858 -0.2955  0.0272  0.1106
 4874SOL    HW126084   3.293   0.970  13.807 -1.1751 -0.6704  1.1986
 4874SOL    HW226085   3.236   1.108  13.805 -0.4723  0.7150  1.0315
 4875SOL     OW26086   2.161   2.058   5.688  0.2622 -0.4307  0.1962
 4875SOL    HW126087   2.092   2.000   5.653  0.9771 -2.5155  2.2196
 4875SOL    HW226088   2.241   2.006   5.679 -0.2717 -1.2727  0.2458
 4876SOL     OW26089   2.593   2.539   5.392  0.4871  0.4890 -0.2922
 4876SOL    HW126090   2.505   2.501   5.385 -0.9506  3.3058  2.7169
 4876SOL    HW226091   2.588   2.582   5.478  1.7411  3.3401 -1.6639
 4877SOL     OW26092   2.830   1.886   3.191 -0.2378  0.6244  0.2343
 4877SOL    HW126093   2.802   1.848   3.108 -1.2259  3.9595 -0.9515
 4877SOL    HW226094   2.922   1.902   3.170 -0.6154 -0.1649 -2.0608
 4878SOL     OW26095   3.899   3.674   1.416  0.0021  0.1655 -0.3565
 4878SOL    HW126096   3.988   3.709   1.416  0.7427 -1.7109  3.0007
 4878SOL    HW226097   3.909   3.592   1.465 -1.8542 -0.7540 -1.4962
 4879SOL     OW26098   2.330   2.120   4.617 -0.1393  0.1767 -0.0955
 4879SOL    HW126099   2.252   2.065   4.606  0.3194 -0.3382 -0.7605
 4879SOL    HW226100   2.285   2.204   4.613  0.1970  0.4345  1.3135
 4880SOL     OW26101   2.607   4.391   3.504 -0.2675 -0.4835  0.4319
 4880SOL    HW126102   2.579   4.358   3.419 -0.1017  0.8129 -0.1307
 4880SOL    HW226103   2.654   4.314   3.536 -0.0728 -0.0965  1.0811
 4881SOL     OW26104   0.115   2.532   2.148  0.4602  0.3794  0.1796
 4881SOL    HW126105   0.035   2.526   2.097 -0.2890 -0.8012  1.5372
 4881SOL    HW226106   0.124   2.445   2.186 -0.4655 -0.1625 -0.8512
 4882SOL     OW26107   2.567   2.714   6.326  0.4775  0.3052 -0.0247
 4882SOL    HW126108   2.636   2.666   6.372 -0.5223 -0.1207  1.0368
 4882SOL    HW226109   2.504   2.650   6.294 -0.6507  1.0286  0.7501
 4883SOL     OW26110   2.134   1.096   2.269  0.7134 -0.5707 -0.1106
 4883SOL    HW126111   2.151   1.157   2.197  0.4785  0.2176  0.4950
 4883SOL    HW226112   2.043   1.121   2.290  0.4731 -0.8541 -0.8161
 4884SOL     OW26113   4.554   1.091   1.433 -0.3299 -0.6235 -0.0733
 4884SOL    HW126114   4.539   1.176   1.392  1.8319 -0.6936 -1.0095
 4884SOL    HW226115   4.509   1.031   1.373  0.1081 -0.0447 -0.9676
 4885SOL     OW26116   2.846   3.086   8.063 -0.2160 -0.1270 -0.0670
 4885SOL    HW126117   2.760   3.105   8.100  0.1555  2.0853 -0.3573
 4885SOL    HW226118   2.892   3.162   8.099  1.4330 -0.4327 -1.5301
 4886SOL     OW26119   0.009   4.076   3.980 -0.6350  0.0897 -0.0141
 4886SOL    HW126120   0.075   4.088   3.913 -0.5872 -0.0501  0.0092
 4886SOL    HW226121   0.000   4.170   3.996  1.1605  0.2757 -0.1556
 4887SOL     OW26122   3.833   4.041   5.756  0.5194  0.1571  0.0966
 4887SOL    HW126123   3.831   3.997   5.671  2.0183  1.0239 -0.3823
 4887SOL    HW226124   3.864   4.125   5.721 -0.3109 -0.1010 -1.2711
 4888SOL     OW26125   2.348   0.518   5.651 -0.4172 -0.1478  0.0171
 4888SOL    HW126126   2.428   0.553   5.611  0.4777 -1.2534  0.8445
 4888SOL    HW226127   2.376   0.431   5.678 -1.7755 -0.4290  0.4961
 4889SOL     OW26128   3.118   0.158   7.816 -0.1445 -0.0758  0.0008
 4889SOL    HW126129   3.062   0.221   7.770 -1.0029 -1.9176 -1.4627
 4889SOL    HW226130   3.128   0.196   7.903 -0.4175 -1.4827  0.6330
 4890SOL     OW26131   0.699   4.448  11.174 -0.3632 -0.4169  0.2538
 4890SOL    HW126132   0.770   4.430  11.113  0.2191 -0.1722  0.8668
 4890SOL    HW226133   0.631   4.398  11.129 -0.6008  0.5777 -0.4976
 4891SOL     OW26134   0.362   1.615   1.710 -0.0302 -1.0726 -0.0214
 4891SOL    HW126135   0.296   1.589   1.645  0.0291 -3.9734  1.0433
 4891SOL    HW226136   0.437   1.591   1.655  0.9654 -0.4406  1.0512
 4892SOL     OW26137   3.916   3.444   5.277  0.3486  0.0255  0.5789
 4892SOL    HW126138   3.869   3.404   5.350 -0.3703  1.0954  0.7176
 4892SOL    HW226139   3.997   3.394   5.282  0.7122  0.5704  0.0296
 4893SOL     OW26140   3.194   3.906   2.837 -0.3838 -0.0943  0.0842
 4893SOL    HW126141   3.210   3.974   2.771 -1.4851 -0.2018 -0.2883
 4893SOL    HW226142   3.109   3.928   2.874 -1.3409 -2.7673 -0.5181
 4894SOL     OW26143   0.426   0.216   7.181  0.1864  0.2240 -0.2537
 4894SOL    HW126144   0.513   0.242   7.211  0.9190 -2.6355  0.0571
 4894SOL    HW226145   0.396   0.157   7.250  3.9552  0.3033  1.4213
 4895SOL     OW26146   1.993   1.986  10.393 -0.0978 -0.4213 -0.5568
 4895SOL    HW126147   2.041   1.905  10.414 -1.0093 -0.8129  0.0259
 4895SOL    HW226148   2.049   2.020  10.324 -1.9807 -0.4945 -2.1333
 4896SOL     OW26149   2.627   3.155  10.908 -0.6700  0.3396  0.2362
 4896SOL    HW126150   2.540   3.173  10.873 -0.4280  0.8615 -0.0914
 4896SOL    HW226151   2.620   3.064  10.937 -1.4562 -0.4666 -2.4745
 4897SOL     OW26152   1.534   2.924  14.943  0.5424 -0.1445  0.2063
 4897SOL    HW126153   1.573   2.999  14.987 -1.0069  0.5753  0.3569
 4897SOL    HW226154   1.612   2.883  14.905  0.7395 -0.3209  0.8030
 4898SOL     OW26155   0.720   1.676   9.329 -0.1128 -0.3258 -0.4267
 4898SOL    HW126156   0.648   1.713   9.278  1.0378 -0.2930 -2.0470
 4898SOL    HW226157   0.694   1.693   9.419 -1.0671 -0.8367 -0.6009
 4899SOL     OW26158   3.961   0.278   1.790  0.0400  0.3277  0.3070
 4899SOL    HW126159   3.999   0.361   1.822 -0.2078 -0.1264  1.7960
 4899SOL    HW226160   3.929   0.311   1.706 -0.4250  0.2265  0.4448
 4900SOL     OW26161   3.698   1.925   5.845 -0.3707  0.3433 -0.1291
 4900SOL    HW126162   3.697   1.885   5.758 -0.2691 -0.0419  0.0470
 4900SOL    HW226163   3.605   1.942   5.859 -0.7870 -0.3043 -2.1293
 4901SOL     OW26164   3.254   1.337   7.616 -0.4173  0.7650 -0.0485
 4901SOL    HW126165   3.328   1.382   7.576  0.8806 -3.7897 -2.8243
 4901SOL    HW226166   3.184   1.381   7.567 -2.3280 -0.1864  1.8049
 4902SOL     OW26167   2.416   4.152   9.216 -0.2299  0.3759  0.4296
 4902SOL    HW126168   2.344   4.211   9.237 -0.3938  0.3683 -0.0901
 4902SOL    HW226169   2.453   4.198   9.141 -2.4375  1.3649 -0.0619
 4903SOL     OW26170   3.774   2.029   5.451 -0.0526 -0.3499 -0.1912
 4903SOL    HW126171   3.847   2.028   5.389 -0.3690  1.4198 -0.5967
 4903SOL    HW226172   3.779   2.111   5.499 -0.3514 -0.2206 -0.3820
 4904SOL     OW26173   3.728   3.602   4.129 -0.7175 -0.8235 -0.2085
 4904SOL    HW126174   3.727   3.507   4.120 -1.8462 -0.8372  0.0463
 4904SOL    HW226175   3.673   3.621   4.053  1.3744  1.2393 -1.2013
 4905SOL     OW26176   4.016   0.756   9.934 -0.0056  0.7185 -0.4309
 4905SOL    HW126177   3.983   0.843   9.959 -1.7535 -0.0200 -0.1940
 4905SOL    HW226178   4.078   0.739  10.005 -0.9601  0.9185  0.4643
 4906SOL     OW26179   3.768   1.229  15.997  0.5049  0.2969 -0.3735
 4906SOL    HW126180   3.786   1.269  16.082  0.7052  0.2251 -0.3828
 4906SOL    HW226181   3.701   1.168  16.028  0.6608 -0.1050 -0.8103
 4907SOL     OW26182   2.812   3.326   3.064 -0.0788  0.5009  0.4330
 4907SOL    HW126183   2.739   3.309   3.124 -0.5138  0.5120 -0.0820
 4907SOL    HW226184   2.841   3.236   3.049 -2.3445 -0.1505 -0.0886
 4908SOL     OW26185   1.744   4.330   4.944 -0.2685 -0.7796 -0.1547
 4908SOL    HW126186   1.788   4.252   4.910 -1.7326 -1.7973  0.3217
 4908SOL    HW226187   1.717   4.297   5.029  0.6804  0.6025  0.6984
 4909SOL     OW26188   1.181   4.578   2.998 -0.3325 -0.0870  0.3943
 4909SOL    HW126189   1.137   4.494   2.986  1.5933 -1.0711  0.2574
 4909SOL    HW226190   1.267   4.545   3.024 -1.1276 -0.9398  1.9759
 4910SOL     OW26191   0.679   2.665   9.002  0.7555  0.1003  0.4352
 4910SOL    HW126192   0.634   2.628   9.078 -2.6057  1.5359 -0.8295
 4910SOL    HW226193   0.603   2.673   8.943 -1.6443 -2.4610  3.1266
 4911SOL     OW26194   4.279   3.460   6.472 -0.3310  0.4667  0.5766
 4911SOL    HW126195   4.314   3.456   6.561  0.8075 -0.0121  0.1014
 4911SOL    HW226196   4.281   3.369   6.444  0.0089  1.0720 -1.4256
 4912SOL     OW26197   4.321   1.751  14.050 -0.3200  0.4909  0.1882
 4912SOL    HW126198   4.321   1.747  13.954  2.3171  1.3288  0.1511
 4912SOL    HW226199   4.227   1.744  14.064 -0.3040 -0.3126 -0.1000
 4913SOL     OW26200   3.617   2.589   6.444 -0.2799  0.4829  0.4483
 4913SOL    HW126201   3.603   2.684   6.437 -0.5066  0.5524  1.9872
 4913SOL    HW226202   3.680   2.580   6.515 -0.8833 -2.9552  0.5271
 4914SOL     OW26203   0.271   2.324   2.247  0.6496 -0.2735 -0.4995
 4914SOL    HW126204   0.305   2.411   2.229  0.7064 -0.6961 -2.3925
 4914SOL    HW226205   0.327   2.296   2.319  0.3612  0.9457  0.2004
 4915SOL     OW26206   0.166   1.979   5.056 -0.3823 -0.3450 -0.0423
 4915SOL    HW126207   0.248   1.966   5.007  0.7759  1.4410  1.4028
 4915SOL    HW226208   0.154   1.890   5.089  0.9062 -0.4657  0.1010
 4916SOL     OW26209   2.661   2.789  12.083 -0.5903 -0.0169 -0.7638
 4916SOL    HW126210   2.703   2.761  12.002  2.3897  0.6041  0.5528
 4916SOL    HW226211   2.612   2.859  12.042  1.2330 -0.0295 -2.9905
 4917SOL     OW26212   4.460   0.845  16.695 -0.1069  0.2400  0.0853
 4917SOL    HW126213   4.449   0.851  16.600 -1.5970  1.6942  0.3520
 4917SOL    HW226214   4.387   0.897  16.728  0.7907  1.3308  0.3819
 4918SOL     OW26215   3.580   0.844  13.228 -0.1350 -0.3891 -0.2186
 4918SOL    HW126216   3.526   0.915  13.264 -0.0780 -0.2391 -0.4346
 4918SOL    HW226217   3.533   0.766  13.258  1.1730 -0.3940  1.8522
 4919SOL     OW26218   2.345   4.257   5.041  0.1022 -0.3223  0.6368
 4919SOL    HW126219   2.379   4.310   5.113  0.2884  0.1922  0.1631
 4919SOL    HW226220   2.409   4.268   4.971 -1.5782  0.7953 -0.7197
 4920SOL     OW26221   1.728   4.350   4.134  0.3178  0.3930  0.1391
 4920SOL    HW126222   1.742   4.445   4.139  1.2933  0.3379 -1.5466
 4920SOL    HW226223   1.672   4.329   4.209  0.7615  0.5096  0.5032
 4921SOL     OW26224   3.214   3.153   9.994 -0.1685 -0.1639 -0.4530
 4921SOL    HW126225   3.245   3.230   9.946 -1.2166 -0.0739 -0.9969
 4921SOL    HW226226   3.179   3.094   9.927  0.3028 -0.9506 -0.0070
 4922SOL     OW26227   1.232   3.015   4.308 -0.0876  0.6920  0.5167
 4922SOL    HW126228   1.222   2.947   4.241  0.9828  1.1110 -0.0756
 4922SOL    HW226229   1.256   2.955   4.379  1.3042 -0.3321 -0.7956
 4923SOL     OW26230   4.662   1.515   1.874  0.1569  0.6412 -0.3933
 4923SOL    HW126231   4.700   1.494   1.789 -1.9174  1.2833 -1.4980
 4923SOL    HW226232   4.723   1.581   1.906  0.0637  0.9602 -0.8719
 4924SOL     OW26233   1.995   2.909  11.139  0.7021  0.3466  0.0959
 4924SOL    HW126234   2.054   2.928  11.066  0.3177 -1.3123 -0.6482
 4924SOL    HW226235   2.041   2.837  11.181 -0.0506  0.8762  1.8173
 4925SOL     OW26236   1.522   0.137  16.874 -0.2141 -0.1123  0.0908
 4925SOL    HW126237   1.468   0.198  16.824  1.9831  1.7789  0.0199
 4925SOL    HW226238   1.603   0.183  16.896 -0.0639 -1.8691  3.1696
 4926SOL     OW26239   1.820   0.744  14.860 -0.2964 -0.3344  0.1644
 4926SOL    HW126240   1.732   0.711  14.875 -1.2463  1.9378 -0.3334
 4926SOL    HW226241   1.812   0.742  14.764 -0.5534  1.8391  0.1416
 4927SOL     OW26242   1.691   4.241   2.193 -0.1120  0.0360  0.4657
 4927SOL    HW126243   1.710   4.153   2.160 -0.6244 -0.1986  0.8121
 4927SOL    HW226244   1.619   4.232   2.254 -0.4892 -0.0814  0.0061
 4928SOL     OW26245   0.330   1.026   8.630  0.1207 -0.5774 -0.5691
 4928SOL    HW126246   0.421   1.028   8.659  0.1546  0.2936 -0.7302
 4928SOL    HW226247   0.321   0.934   8.606 -0.2553 -0.6968  0.0255
 4929SOL     OW26248   2.382   4.170   2.707 -0.1040  0.6986 -0.1426
 4929SOL    HW126249   2.321   4.181   2.780 -0.6970 -2.2035 -0.1826
 4929SOL    HW226250   2.415   4.259   2.697 -1.2510  1.2873  1.2445
 4930SOL     OW26251   0.565   1.317   8.509  0.0966 -0.3805  0.6440
 4930SOL    HW126252   0.570   1.258   8.433 -0.8914 -1.2072  1.2150
 4930SOL    HW226253   0.469   1.313   8.511  0.0773 -0.2856  0.1221
 4931SOL     OW26254   3.694   2.735   6.053 -1.1601 -0.0834  0.3731
 4931SOL    HW126255   3.681   2.817   6.004 -2.2495 -0.1131  0.6012
 4931SOL    HW226256   3.603   2.704   6.051 -0.8571 -0.9087 -0.9159
 4932SOL     OW26257   2.699   1.793   9.632 -0.2915 -0.1666 -0.1120
 4932SOL    HW126258   2.732   1.706   9.654 -2.1098 -1.6376 -3.2749
 4932SOL    HW226259   2.605   1.774   9.628 -0.4799  1.0970 -1.4978
 4933SOL     OW26260   1.880   3.313   8.300 -0.5736  0.1847 -0.0622
 4933SOL    HW126261   1.949   3.378   8.297  1.2800 -1.7513  0.2826
 4933SOL    HW226262   1.899   3.264   8.219  0.0261 -0.3274  0.3871
 4934SOL     OW26263   0.785   0.551   2.007  0.1864  0.0804 -0.0509
 4934SOL    HW126264   0.742   0.630   1.975 -2.0327 -0.5848  1.2946
 4934SOL    HW226265   0.742   0.484   1.954  1.9526 -0.9565 -0.1836
 4935SOL     OW26266   0.045   2.563   3.336 -0.4559  0.0501 -0.6294
 4935SOL    HW126267   0.022   2.580   3.245  1.1030 -0.2407 -1.0693
 4935SOL    HW226268   0.052   2.654   3.367  0.0873  0.4091 -1.8239
 4936SOL     OW26269   4.365   1.381   9.027  0.1130 -0.2722 -0.2419
 4936SOL    HW126270   4.437   1.369   9.088  2.2991 -0.7429 -2.9067
 4936SOL    HW226271   4.306   1.310   9.051  0.1763 -0.4047 -0.4740
 4937SOL     OW26272   1.289   2.862   4.769 -0.2328  0.3662  0.3556
 4937SOL    HW126273   1.283   2.956   4.756  0.2827  0.6530  2.1996
 4937SOL    HW226274   1.273   2.829   4.681  2.1071  0.7410 -0.2130
 4938SOL     OW26275   0.424   3.494   2.930 -0.1129 -0.4559  0.4480
 4938SOL    HW126276   0.457   3.430   2.993  0.7568  0.5308  1.0157
 4938SOL    HW226277   0.510   3.517   2.896  0.8969  0.3794  3.5018
 4939SOL     OW26278   4.463   2.820   2.707  0.3816  0.3401 -0.2631
 4939SOL    HW126279   4.553   2.814   2.737  0.5246  2.4612 -0.2560
 4939SOL    HW226280   4.427   2.893   2.757  0.2683  0.7338 -0.9146
 4940SOL     OW26281   1.119   3.310   7.813 -0.2782  0.1370 -0.3854
 4940SOL    HW126282   1.052   3.379   7.814  0.0670  0.4774 -0.8888
 4940SOL    HW226283   1.063   3.239   7.844  2.5915 -1.4851  1.0136
 4941SOL     OW26284   3.010   3.990   2.274 -0.3016 -0.2416 -0.8671
 4941SOL    HW126285   2.982   3.899   2.267 -0.2563 -0.4632  2.1041
 4941SOL    HW226286   2.969   4.043   2.205 -2.1724 -1.9254 -1.0340
 4942SOL     OW26287   0.336   0.095   1.993 -0.0353 -0.2856 -0.3510
 4942SOL    HW126288   0.248   0.059   2.003 -0.0947 -0.6508 -2.3440
 4942SOL    HW226289   0.306   0.177   1.955 -1.2986  0.5575  2.4631
 4943SOL     OW26290   1.658   3.495   8.170 -0.2797  0.4135 -0.1713
 4943SOL    HW126291   1.618   3.437   8.235  1.6891 -1.1388 -0.3274
 4943SOL    HW226292   1.697   3.427   8.116 -2.3133 -1.2121  0.4013
 4944SOL     OW26293   3.547   4.713   6.706 -0.2373 -0.0575  0.5251
 4944SOL    HW126294   3.477   0.054   6.714  0.8236  0.9974  1.3178
 4944SOL    HW226295   3.497   4.636   6.679 -2.2333  2.0191 -1.6721
 4945SOL     OW26296   3.378   0.370   8.090  0.2203  0.2605  0.3820
 4945SOL    HW126297   3.311   0.398   8.027  0.2800  0.1880  0.2862
 4945SOL    HW226298   3.376   0.430   8.164  1.5556 -0.1620  0.7620
 4946SOL     OW26299   4.325   3.146  15.255  0.4085 -0.5403  0.3597
 4946SOL    HW126300   4.408   3.113  15.221 -0.5832 -1.0701 -1.5354
 4946SOL    HW226301   4.274   3.161  15.175 -0.3659  1.3689  1.2090
 4947SOL     OW26302   2.837   2.443   5.406 -0.6845  0.7609 -0.4488
 4947SOL    HW126303   2.898   2.514   5.384  0.4390 -0.1993 -0.4563
 4947SOL    HW226304   2.751   2.484   5.406 -1.5641 -1.0430 -3.6558
 4948SOL     OW26305   3.874   2.496  13.117  0.2598  0.3117  0.0104
 4948SOL    HW126306   3.824   2.576  13.103 -0.3053  0.2151  1.5007
 4948SOL    HW226307   3.938   2.519  13.184  2.2515  1.7662 -2.3575
 4949SOL     OW26308   4.180   0.797   1.649 -0.4485 -0.2033  0.1611
 4949SOL    HW126309   4.130   0.874   1.623  0.3509 -0.2082 -1.4462
 4949SOL    HW226310   4.133   0.768   1.726  2.9074 -2.5065  1.3429
 4950SOL     OW26311   1.821   3.316   5.986  0.0527 -0.1905  0.6430
 4950SOL    HW126312   1.792   3.225   5.979  0.9933 -0.3148 -1.6207
 4950SOL    HW226313   1.831   3.336   5.893 -0.0224  1.7898  1.0546
 4951SOL     OW26314   3.690   0.594  15.256 -0.9322  0.2023 -0.0869
 4951SOL    HW126315   3.652   0.513  15.222  0.1573 -0.4674  0.3248
 4951SOL    HW226316   3.704   0.643  15.174  1.5670  0.3533  0.4450
 4952SOL     OW26317   4.106   2.333   6.341  0.3275 -0.0878 -0.8393
 4952SOL    HW126318   4.107   2.238   6.338  0.5485 -0.0562 -1.7202
 4952SOL    HW226319   4.166   2.346   6.415 -0.1403 -3.0966  0.0460
 4953SOL     OW26320   4.102   4.012   7.185 -0.1962  0.1622  0.3802
 4953SOL    HW126321   4.113   4.054   7.099 -2.9397 -1.2659 -0.6813
 4953SOL    HW226322   4.173   3.948   7.192 -0.9276 -0.4340  2.1054
 4954SOL     OW26323   1.706   1.884   6.613 -0.6218 -0.5280 -0.2461
 4954SOL    HW126324   1.717   1.964   6.561  2.4108 -0.8868 -0.1102
 4954SOL    HW226325   1.650   1.914   6.685 -0.6058  1.5991 -1.0979
 4955SOL     OW26326   1.060   2.349   4.163  0.0637 -0.0514 -0.4612
 4955SOL    HW126327   1.131   2.334   4.226 -2.5830 -0.7149  2.3305
 4955SOL    HW226328   0.977   2.360   4.210  0.3109 -0.3872  0.0591
 4956SOL     OW26329   3.198   2.850   5.817  0.0906 -0.2384 -0.4864
 4956SOL    HW126330   3.121   2.800   5.789 -0.2339  0.2935 -0.5459
 4956SOL    HW226331   3.266   2.785   5.798 -0.8010 -1.2445 -0.2432
 4957SOL     OW26332   3.416   3.656   7.600 -0.2228 -0.2905  0.8026
 4957SOL    HW126333   3.384   3.674   7.688  0.5049 -0.6081  1.1321
 4957SOL    HW226334   3.441   3.565   7.613 -1.4763 -0.7754 -0.1640
 4958SOL     OW26335   2.499   1.007  13.049 -0.5212  0.7633  0.0195
 4958SOL    HW126336   2.564   0.953  13.095 -0.5930  0.3233 -0.3858
 4958SOL    HW226337   2.461   0.943  12.988  2.7910  0.4250 -1.7065
 4959SOL     OW26338   3.537   1.517  13.559 -0.0938 -0.1959  0.1016
 4959SOL    HW126339   3.584   1.515  13.642  1.8422  1.0273 -0.9675
 4959SOL    HW226340   3.510   1.426  13.546  1.8958 -0.7987  0.2662
 4960SOL     OW26341   2.104   0.362   9.032  0.3519  0.2267 -0.0341
 4960SOL    HW126342   2.088   0.455   9.015  3.6337  1.1274  1.8720
 4960SOL    HW226343   2.021   0.322   9.004 -0.2983  0.3732  1.7109
 4961SOL     OW26344   3.212   0.277   0.195 -0.4727 -0.4316  0.1368
 4961SOL    HW126345   3.173   0.190   0.192 -1.2253 -0.1476  2.1584
 4961SOL    HW226346   3.227   0.287   0.289  1.0769  0.6571 -0.2229
 4962SOL     OW26347   0.282   2.470   9.823 -0.1333 -0.4445 -0.1801
 4962SOL    HW126348   0.367   2.514   9.821 -0.9490  1.0996 -0.7573
 4962SOL    HW226349   0.225   2.546   9.834  1.1660  0.8330 -2.2857
 4963SOL     OW26350   3.075   1.943   0.687 -0.4171  0.0503 -0.3678
 4963SOL    HW126351   3.050   2.033   0.709  2.0908  0.9330 -1.1783
 4963SOL    HW226352   3.169   1.950   0.699 -0.4911  1.5410 -0.7232
 4964SOL     OW26353   0.593   1.749   5.133 -0.5733  0.6904  0.2778
 4964SOL    HW126354   0.673   1.709   5.166 -0.6629  0.4535  0.2032
 4964SOL    HW226355   0.636   1.801   5.065  0.3778 -1.0884 -0.4628
 4965SOL     OW26356   3.162   1.820   5.885  0.9531 -0.1126 -0.4979
 4965SOL    HW126357   3.100   1.888   5.861  3.0823  1.1809 -2.3777
 4965SOL    HW226358   3.146   1.745   5.828 -1.8611 -0.8090  1.1861
 4966SOL     OW26359   3.843   3.585   3.103 -0.5084 -0.8612  0.2399
 4966SOL    HW126360   3.907   3.579   3.173  1.3091  0.8506 -1.2513
 4966SOL    HW226361   3.802   3.499   3.115 -1.0140 -0.9829 -2.2815
 4967SOL     OW26362   1.743   1.321   8.704 -0.2749  0.7292 -0.0740
 4967SOL    HW126363   1.830   1.317   8.742 -0.2461  2.5678  0.0888
 4967SOL    HW226364   1.680   1.331   8.776 -2.4589 -3.0954 -1.4642
 4968SOL     OW26365   2.321   1.384   6.488 -0.1383 -0.0174 -0.0215
 4968SOL    HW126366   2.284   1.364   6.574 -1.7587  1.6024 -0.3378
 4968SOL    HW226367   2.243   1.391   6.432  1.3031  1.3959 -1.8702
 4969SOL     OW26368   1.028   2.143  14.823  0.3992 -0.0233  0.0025
 4969SOL    HW126369   1.025   2.075  14.891 -1.8963 -1.9946 -2.0328
 4969SOL    HW226370   1.109   2.131  14.773  1.5572  2.3678  1.3544
 4970SOL     OW26371   2.863   3.694   7.751  0.4780 -0.0059  0.3693
 4970SOL    HW126372   2.894   3.647   7.673  0.0286 -2.1945  1.5096
 4970SOL    HW226373   2.856   3.615   7.805 -0.6074 -0.3832 -0.3065
 4971SOL     OW26374   3.905   0.825  13.859 -0.2377  0.4664  0.0798
 4971SOL    HW126375   3.872   0.737  13.843  0.9232 -0.2362  1.4711
 4971SOL    HW226376   3.846   0.858  13.926  0.4082  1.5924  0.1032
 4972SOL     OW26377   2.991   3.580   3.062  0.0811  0.3619 -0.6112
 4972SOL    HW126378   2.911   3.529   3.073  1.3407 -1.2907  0.9945
 4972SOL    HW226379   3.011   3.567   2.970 -0.0082 -1.5675 -0.3509
 4973SOL     OW26380   2.199   2.184   6.531  0.2338 -0.2617  0.1732
 4973SOL    HW126381   2.285   2.192   6.490 -0.2134  0.1834 -0.6973
 4973SOL    HW226382   2.227   2.178   6.622 -0.6231  0.5302  0.4761
 4974SOL     OW26383   4.699   1.402   7.961 -0.1339 -0.0841  0.1057
 4974SOL    HW126384   0.029   1.323   7.958  1.3293  0.8770  1.3463
 4974SOL    HW226385   4.679   1.394   8.055  0.3605  1.0934  0.3094
 4975SOL     OW26386   3.961   1.032   5.462  0.3537  0.1621 -0.2424
 4975SOL    HW126387   3.969   1.076   5.546  0.3409 -3.3608  1.6152
 4975SOL    HW226388   3.916   0.951   5.484  3.8586 -1.9208 -0.6610
 4976SOL     OW26389   0.088   0.738  16.979 -0.5561  0.0520 -0.2576
 4976SOL    HW126390   0.020   0.684  17.017  1.2617 -0.9082  1.6367
 4976SOL    HW226391   0.029   0.808  16.953 -2.3096 -1.0986  0.6844
 4977SOL     OW26392   2.656   4.622   0.483  0.0052  0.4595  0.7113
 4977SOL    HW126393   2.579   4.644   0.431 -0.1427  0.7846  1.0628
 4977SOL    HW226394   2.627   4.532   0.500 -1.4681  0.6201 -0.9622
 4978SOL     OW26395   0.287   1.214   6.560 -0.3748  0.4829 -0.1477
 4978SOL    HW126396   0.232   1.136   6.572  0.2957 -0.1311 -1.1014
 4978SOL    HW226397   0.372   1.170   6.558 -0.6858  0.0291 -2.6688
 4979SOL     OW26398   3.093   1.890   2.808 -0.4255 -0.3365  0.5152
 4979SOL    HW126399   2.998   1.876   2.812 -0.7484  1.9115  0.7476
 4979SOL    HW226400   3.128   1.815   2.857  2.3771  0.1077 -0.8338
 4980SOL     OW26401   4.383   0.468   5.458 -0.1750  0.0558 -0.5717
 4980SOL    HW126402   4.307   0.415   5.433  0.3330 -0.5986 -0.7114
 4980SOL    HW226403   4.362   0.546   5.408 -0.7998  0.1782 -0.1289
 4981SOL     OW26404   3.587   0.469   3.227  0.3175  0.0765  0.2551
 4981SOL    HW126405   3.566   0.530   3.299  0.0036  0.6107 -0.2921
 4981SOL    HW226406   3.526   0.505   3.163  0.0210 -0.6238  0.1462
 4982SOL     OW26407   4.198   3.862   2.517 -0.0669  0.2514  0.1953
 4982SOL    HW126408   4.270   3.823   2.566 -0.2653 -0.7991 -0.3475
 4982SOL    HW226409   4.226   3.954   2.515 -0.3971  0.3524  0.1576
 4983SOL     OW26410   0.539   3.992   1.269  0.4149  0.4943 -0.0958
 4983SOL    HW126411   0.604   4.047   1.314 -0.2822  1.2567 -0.0325
 4983SOL    HW226412   0.602   3.943   1.216  0.7814 -0.5402  1.2861
 4984SOL     OW26413   3.679   1.831  15.064 -0.1833  0.0442 -0.3324
 4984SOL    HW126414   3.611   1.796  15.006  0.4333 -1.8929  0.1110
 4984SOL    HW226415   3.668   1.923  15.039 -0.7597  0.2364  0.6556
 4985SOL     OW26416   3.239   1.709  17.220 -0.7251 -0.5835 -0.0392
 4985SOL    HW126417   3.279   1.712  17.307  1.4206  2.4128 -1.1206
 4985SOL    HW226418   3.249   1.615  17.208  3.8690 -0.2102  0.9310
 4986SOL     OW26419   3.306   0.893   4.304  0.6073  0.2830  0.4065
 4986SOL    HW126420   3.299   0.797   4.302  0.5698  0.2576  1.7925
 4986SOL    HW226421   3.296   0.918   4.212 -0.1550  0.5465  0.5664
 4987SOL     OW26422   2.526   4.508   6.842 -0.0484 -0.6788  0.5762
 4987SOL    HW126423   2.501   4.428   6.795 -1.3374  0.9677 -1.5403
 4987SOL    HW226424   2.440   4.537   6.872 -0.2260  0.9875 -1.5816
 4988SOL     OW26425   2.234   0.350   9.586  0.0838 -0.6226 -0.2492
 4988SOL    HW126426   2.304   0.374   9.647  0.6516  1.0255 -1.5638
 4988SOL    HW226427   2.280   0.289   9.527 -1.8512 -1.8015 -0.5254
 4989SOL     OW26428   1.049   1.851   9.156  0.3627 -0.3928  0.2035
 4989SOL    HW126429   1.122   1.796   9.127  2.7258  1.5663  2.4217
 4989SOL    HW226430   1.087   1.892   9.234  0.6286  4.2891 -2.3343
 4990SOL     OW26431   1.274   4.353   7.658 -0.1380 -0.3753  0.1221
 4990SOL    HW126432   1.188   4.378   7.690 -0.5113 -1.6992  0.1664
 4990SOL    HW226433   1.328   4.380   7.733 -0.7488 -0.2371  0.5069
 4991SOL     OW26434   2.840   1.914  15.612 -0.3275 -0.2516  0.3722
 4991SOL    HW126435   2.830   2.006  15.639 -1.0393 -0.0463 -0.5808
 4991SOL    HW226436   2.889   1.915  15.530  1.0155 -0.3239  1.1775
 4992SOL     OW26437   1.265   3.632   4.826  0.3066  0.1240  0.1429
 4992SOL    HW126438   1.358   3.622   4.811  0.4756  0.5588  0.8735
 4992SOL    HW226439   1.253   3.687   4.748  2.5245  2.3579  1.3800
 4993SOL     OW26440   1.461   0.540   9.020 -0.5000  0.1084 -0.5040
 4993SOL    HW126441   1.410   0.510   9.095 -1.8047  0.7704 -1.1235
 4993SOL    HW226442   1.435   0.478   8.952 -1.8348  0.0733  0.0376
 4994SOL     OW26443   3.656   4.494   4.171  0.2442  0.3212  0.0865
 4994SOL    HW126444   3.701   4.571   4.138  0.8519  0.7971  2.0035
 4994SOL    HW226445   3.637   4.434   4.099  0.3480  0.0169  0.3111
 4995SOL     OW26446   1.977   0.471  16.867 -0.2708  0.5550 -0.0049
 4995SOL    HW126447   2.066   0.489  16.898  0.1639  0.9340 -1.4676
 4995SOL    HW226448   1.966   0.546  16.809 -1.2348  0.5444  0.1628
 4996SOL     OW26449   3.979   0.879  11.683  0.0106 -0.2600 -0.3346
 4996SOL    HW126450   3.907   0.838  11.635  1.0707 -0.2938 -1.9109
 4996SOL    HW226451   4.057   0.840  11.645  1.2196  1.4513  0.3906
 4997SOL     OW26452   2.693   1.653   1.112  1.2786  0.3316  0.1736
 4997SOL    HW126453   2.765   1.618   1.164  1.8194  1.2896  0.0667
 4997SOL    HW226454   2.659   1.726   1.163  3.2683  0.1711  1.7223
 4998SOL     OW26455   2.225   2.536   7.324 -0.2617  0.3101  0.1005
 4998SOL    HW126456   2.248   2.623   7.359  1.3226 -0.4300  0.9198
 4998SOL    HW226457   2.139   2.556   7.288 -0.6602  0.7766  1.3001
 4999SOL     OW26458   2.122   2.498   0.972  0.3346 -0.0259  0.1902
 4999SOL    HW126459   2.034   2.529   0.954  1.2481  0.7808 -2.8938
 4999SOL    HW226460   2.166   2.507   0.887  0.3043  0.3229  0.2140
 5000SOL     OW26461   2.158   4.027   4.129 -0.2316  0.1949 -0.0037
 5000SOL    HW126462   2.195   4.115   4.120 -2.8460  1.1688 -1.2666
 5000SOL    HW226463   2.065   4.043   4.118  0.3106  2.5776 -1.2065
 5001SOL     OW26464   0.811   3.500   1.608  0.4007  0.2671 -0.1111
 5001SOL    HW126465   0.869   3.562   1.652  1.3692 -0.5773 -0.1943
 5001SOL    HW226466   0.823   3.422   1.662 -2.6590  0.5897  1.0527
 5002SOL     OW26467   4.412   2.945  10.701  0.5255  0.3949  0.1272
 5002SOL    HW126468   4.439   2.942  10.793  2.9913  0.5677 -0.5915
 5002SOL    HW226469   4.380   2.855  10.701  0.3331  0.4569  2.6360
 5003SOL     OW26470   3.010   2.082  16.165  0.2500 -0.2369 -0.4332
 5003SOL    HW126471   3.029   2.114  16.077 -0.7890  0.5422 -0.3780
 5003SOL    HW226472   2.990   2.162  16.215  0.5833 -0.7669  0.5574
 5004SOL     OW26473   3.757   3.410   7.861  0.6546 -0.4031 -0.0948
 5004SOL    HW126474   3.715   3.456   7.933 -0.1081 -0.7889 -0.2950
 5004SOL    HW226475   3.745   3.323   7.899  0.5487 -0.5599 -0.4815
 5005SOL     OW26476   2.589   3.997  10.855 -0.5055  0.1384  0.7781
 5005SOL    HW126477   2.508   3.987  10.904 -1.0654  2.2905  0.2931
 5005SOL    HW226478   2.569   4.045  10.775  3.4627  1.5588  0.6440
 5006SOL     OW26479   0.946   3.031   1.535 -0.1160  0.0289  0.0406
 5006SOL    HW126480   0.929   2.968   1.604  0.7429  0.1742  0.3851
 5006SOL    HW226481   1.041   3.023   1.529  0.2972  3.5016  1.6169
 5007SOL     OW26482   2.749   3.121   8.849 -0.7960 -0.5512 -0.1219
 5007SOL    HW126483   2.724   3.206   8.885 -1.0473 -1.6202  2.1978
 5007SOL    HW226484   2.710   3.054   8.905  1.2114 -0.5170  1.3274
 5008SOL     OW26485   2.522   0.749  11.805  0.3807  0.0935  0.0098
 5008SOL    HW126486   2.494   0.838  11.784  1.4775  0.5791  0.6064
 5008SOL    HW226487   2.437   0.708  11.789  1.7004 -1.2769 -3.4784
 5009SOL     OW26488   0.862   0.278   9.135  0.2185  0.4772 -0.2346
 5009SOL    HW126489   0.929   0.320   9.081  1.0023 -3.0159 -1.9931
 5009SOL    HW226490   0.826   0.210   9.078  0.6286  1.4893 -1.6847
 5010SOL     OW26491   1.744   1.441   5.297  0.3819  0.0501  0.2676
 5010SOL    HW126492   1.671   1.405   5.247  1.0803 -0.7756 -0.1694
 5010SOL    HW226493   1.758   1.515   5.237  0.6957  0.3165  0.6674
 5011SOL     OW26494   2.583   1.247   3.212 -0.6372 -0.4185 -0.3735
 5011SOL    HW126495   2.626   1.333   3.217 -1.4162  0.0319 -1.4165
 5011SOL    HW226496   2.623   1.211   3.291 -0.8550  1.5459  0.6366
 5012SOL     OW26497   2.042   2.870   7.333  0.3810 -0.2023  0.2985
 5012SOL    HW126498   2.000   2.943   7.378 -1.1270 -1.0097  0.2183
 5012SOL    HW226499   2.096   2.830   7.401 -2.7614 -1.9843  1.8049
 5013SOL     OW26500   2.491   3.698   6.565  0.4485 -0.4000  0.4014
 5013SOL    HW126501   2.495   3.730   6.655 -2.6414 -0.8578  0.6806
 5013SOL    HW226502   2.581   3.670   6.546  0.6861  0.2741  0.5146
 5014SOL     OW26503   2.837   2.040   7.947 -0.1214  0.1361 -0.0420
 5014SOL    HW126504   2.776   1.997   8.007 -1.1495 -0.8744 -1.8041
 5014SOL    HW226505   2.911   2.063   8.002 -0.4968  1.4024 -0.0586
 5015SOL     OW26506   2.586   0.836   5.157  0.7299 -0.1184 -0.3197
 5015SOL    HW126507   2.565   0.831   5.251 -1.1337 -3.4460 -0.9097
 5015SOL    HW226508   2.532   0.769   5.115 -1.7749  2.1526 -0.7112
 5016SOL     OW26509   1.048   4.149  16.748 -0.0251  0.4481 -0.8920
 5016SOL    HW126510   1.073   4.092  16.820  1.3398  1.8610 -0.2460
 5016SOL    HW226511   1.067   4.089  16.676  0.8366 -1.5224  1.0020
 5017SOL     OW26512   4.443   3.762   7.692 -0.4577  0.4101  0.1451
 5017SOL    HW126513   4.390   3.730   7.619  0.4274 -2.0644  0.5825
 5017SOL    HW226514   4.512   3.696   7.705  1.0267  1.8839 -0.1973
 5018SOL     OW26515   4.644   1.864   3.410  0.1894  0.0627  0.4038
 5018SOL    HW126516   0.009   1.832   3.395 -0.1041  0.4009 -2.1873
 5018SOL    HW226517   4.666   1.921   3.484 -0.4605  0.4584  0.2918
 5019SOL     OW26518   3.080   1.138   2.660 -0.2867  0.1201 -0.5030
 5019SOL    HW126519   3.089   1.095   2.745  0.0923  0.6568 -0.2745
 5019SOL    HW226520   3.172   1.155   2.639  0.1263 -0.3456  0.8819
 5020SOL     OW26521   0.251   2.736   0.434 -0.3696 -0.0216  0.4504
 5020SOL    HW126522   0.267   2.689   0.515 -2.5240  0.7141  1.3244
 5020SOL    HW226523   0.225   2.821   0.471  0.9385 -0.1736  1.6773
 5021SOL     OW26524   0.929   2.074   0.756  0.5261 -0.0390  0.0457
 5021SOL    HW126525   0.916   2.061   0.850  2.2801 -0.0597  0.2723
 5021SOL    HW226526   0.862   2.140   0.736 -1.7516 -2.2877  0.1947
 5022SOL     OW26527   2.807   2.816   5.679 -0.3796 -0.4725 -0.4075
 5022SOL    HW126528   2.748   2.754   5.722  1.4207 -0.7061  1.7746
 5022SOL    HW226529   2.889   2.768   5.691  0.1776  0.5575 -0.1148
 5023SOL     OW26530   2.782   1.763   4.558 -0.4911  0.3797  0.3273
 5023SOL    HW126531   2.735   1.709   4.622 -0.4303  1.7562  1.5172
 5023SOL    HW226532   2.835   1.696   4.514 -2.1024 -0.2054 -0.7548
 5024SOL     OW26533   2.165   0.196  16.562  0.1875 -0.1959 -0.4780
 5024SOL    HW126534   2.195   0.105  16.558 -1.4907 -0.7351 -1.0397
 5024SOL    HW226535   2.074   0.194  16.591  1.1553  0.0140  2.5379
 5025SOL     OW26536   4.067   3.268  15.908 -0.1247  0.4967  0.2267
 5025SOL    HW126537   4.133   3.206  15.941 -1.2471 -1.2588 -0.8367
 5025SOL    HW226538   4.098   3.282  15.819 -0.4421  1.4782  0.2774
 5026SOL     OW26539   1.024   3.208   6.241 -0.4266  0.6609  0.0545
 5026SOL    HW126540   0.993   3.250   6.160 -0.4592 -0.9432 -0.7639
 5026SOL    HW226541   1.069   3.280   6.286  0.6841  0.2206 -0.3452
 5027SOL     OW26542   2.335   2.888  15.155 -0.4414 -0.2508  0.1458
 5027SOL    HW126543   2.317   2.963  15.212  0.5136 -0.5573  0.8451
 5027SOL    HW226544   2.425   2.904  15.127 -0.2249 -1.1261  0.3489
 5028SOL     OW26545   0.112   0.289   8.403  0.4418 -0.1836 -0.7436
 5028SOL    HW126546   0.110   0.194   8.415  1.1567 -0.2855 -1.3808
 5028SOL    HW226547   0.207   0.296   8.390  0.5179  0.1586  0.0258
 5029SOL     OW26548   0.309   4.560   0.932  0.0310 -0.3075  0.0371
 5029SOL    HW126549   0.313   4.539   0.839 -0.5362 -0.6169  0.0796
 5029SOL    HW226550   0.282   4.475   0.966  1.0554 -0.2838  0.9238
 5030SOL     OW26551   2.888   0.848  15.720  0.0461 -0.5574 -0.3514
 5030SOL    HW126552   2.880   0.753  15.728 -0.2291 -0.5270 -0.2722
 5030SOL    HW226553   2.944   0.875  15.793 -1.1610 -3.3954  1.5840
 5031SOL     OW26554   2.505   2.040   4.171 -0.4206 -0.6742  0.2703
 5031SOL    HW126555   2.531   2.115   4.225  0.7825 -0.9090  0.0078
 5031SOL    HW226556   2.430   2.070   4.120 -0.1334  0.6522  0.6420
 5032SOL     OW26557   0.821   0.004  15.238  1.0298 -0.1971  0.9302
 5032SOL    HW126558   0.765   0.071  15.200  0.0819 -2.0747 -0.9688
 5032SOL    HW226559   0.786   4.715  15.326  1.7004  1.6834  1.4748
 5033SOL     OW26560   3.951   3.475  13.545 -0.1982  0.4390  0.7285
 5033SOL    HW126561   3.886   3.542  13.567 -0.6686  0.6099 -1.1665
 5033SOL    HW226562   3.945   3.424  13.626 -2.2477  0.0492  0.3354
 5034SOL     OW26563   0.571   4.343  16.968  0.1072  0.0324 -0.4169
 5034SOL    HW126564   0.569   4.438  16.955  1.9529  0.4016  1.9718
 5034SOL    HW226565   0.486   4.313  16.935  1.0764 -1.1570 -1.8028
 5035SOL     OW26566   3.894   1.175   2.774 -0.4423  0.1735  0.2659
 5035SOL    HW126567   3.916   1.100   2.719 -0.4198  1.2710 -1.2228
 5035SOL    HW226568   3.947   1.152   2.851 -1.1663  0.3769  0.8296
 5036SOL     OW26569   3.156   0.079   5.691 -0.4278 -0.0018 -0.8036
 5036SOL    HW126570   3.161   0.035   5.606 -1.1854 -1.2519 -0.1915
 5036SOL    HW226571   3.081   0.134   5.671  0.6168  1.8317  0.2805
 5037SOL     OW26572   1.095   3.068  13.377  0.5221 -0.0192  0.1954
 5037SOL    HW126573   1.026   3.065  13.443 -1.3349  2.5014 -1.5951
 5037SOL    HW226574   1.135   3.154  13.391 -0.7339  0.5744  0.1543
 5038SOL     OW26575   1.832   1.451   0.715 -0.0201 -0.2120 -0.8785
 5038SOL    HW126576   1.760   1.434   0.654 -1.7271  0.7559  0.8855
 5038SOL    HW226577   1.785   1.436   0.797  0.5096  1.6435 -0.2309
 5039SOL     OW26578   4.396   1.240   2.758  0.4098  0.0721 -0.2324
 5039SOL    HW126579   4.376   1.148   2.774 -1.3336  0.6346  0.7999
 5039SOL    HW226580   4.430   1.233   2.669  2.3500  0.3350  0.4938
 5040SOL     OW26581   1.742   1.905  12.131 -0.5164  0.0581  0.5165
 5040SOL    HW126582   1.690   1.977  12.165 -0.2301  0.9567 -0.9637
 5040SOL    HW226583   1.821   1.948  12.097  0.0007 -0.8035  0.6180
 5041SOL     OW26584   4.338   0.720   2.137  0.2226  0.0655  0.0869
 5041SOL    HW126585   4.368   0.644   2.187 -2.3452 -0.1784  1.2847
 5041SOL    HW226586   4.415   0.776   2.145 -1.5226  2.5433 -0.5359
 5042SOL     OW26587   4.345   2.667  14.979 -0.5781  0.6258  0.1866
 5042SOL    HW126588   4.310   2.705  15.059  0.5675  0.1879  0.9062
 5042SOL    HW226589   4.273   2.680  14.918  0.3540  1.0966 -0.8129
 5043SOL     OW26590   1.909   2.662   2.849 -0.4055 -0.3785  0.2217
 5043SOL    HW126591   2.001   2.657   2.874 -0.1572  2.8159 -0.0801
 5043SOL    HW226592   1.900   2.740   2.903  1.6908  0.8465 -1.1979
 5044SOL     OW26593   4.425   1.907   4.124 -0.4924  0.4283  0.6578
 5044SOL    HW126594   4.401   1.847   4.053  4.0189 -0.2498 -0.2841
 5044SOL    HW226595   4.422   1.854   4.204 -0.5541 -2.0063 -0.9605
 5045SOL     OW26596   3.761   1.868   3.896  0.1653  0.6255  0.3486
 5045SOL    HW126597   3.824   1.842   3.963  0.5409  0.2196 -0.1655
 5045SOL    HW226598   3.805   1.944   3.856  2.1112 -0.4896  0.3470
 5046SOL     OW26599   2.939   3.226  13.833  0.4312  0.2653  0.2758
 5046SOL    HW126600   2.942   3.140  13.790  2.3127 -0.7280  2.4275
 5046SOL    HW226601   2.921   3.277  13.754  1.3826  2.2968  1.3739
 5047SOL     OW26602   4.468   0.912  15.103 -0.2154  0.0050 -0.3119
 5047SOL    HW126603   4.491   0.846  15.038 -1.1772  1.9756 -2.6301
 5047SOL    HW226604   4.387   0.950  15.068 -1.0601 -0.1009  1.5047
 5048SOL     OW26605   0.057   0.239   2.141 -0.4805 -0.2195 -0.1115
 5048SOL    HW126606   0.087   0.151   2.118 -0.3128 -0.2574  0.2628
 5048SOL    HW226607   4.717   0.250   2.071  1.2926  0.0615 -1.6973
 5049SOL     OW26608   4.511   1.543  12.812 -0.0314 -0.4049  0.0928
 5049SOL    HW126609   4.423   1.546  12.848  0.9398  0.3429  2.3596
 5049SOL    HW226610   4.503   1.592  12.730 -1.2947 -0.7406  0.0093
 5050SOL     OW26611   3.539   2.661  11.967 -0.4239  0.2366  0.0269
 5050SOL    HW126612   3.449   2.687  11.952 -0.3814  0.9974  1.1251
 5050SOL    HW226613   3.536   2.566  11.952  0.7845  0.1589  0.2226
 5051SOL     OW26614   1.066   2.513  17.261 -0.4662  0.1737 -0.0536
 5051SOL    HW126615   1.006   2.574  17.304 -0.3439  0.0534  0.2873
 5051SOL    HW226616   1.057   2.560  17.178 -0.4445  1.0935  0.4633
 5052SOL     OW26617   0.290   1.280   8.543  0.5163 -0.4477 -0.1380
 5052SOL    HW126618   0.243   1.338   8.602  2.6630  0.5520  0.6048
 5052SOL    HW226619   0.291   1.201   8.597  0.3615 -1.1317 -1.1325
 5053SOL     OW26620   0.377   2.051   5.727  0.6071 -0.0232 -0.5046
 5053SOL    HW126621   0.306   1.995   5.696 -0.9237  0.5033  2.0729
 5053SOL    HW226622   0.433   1.987   5.771 -1.4395 -0.6600  1.1764
 5054SOL     OW26623   2.824   0.022   0.664 -0.3484  0.1255 -0.0196
 5054SOL    HW126624   2.767   4.716   0.593  0.7231  2.6308 -1.9485
 5054SOL    HW226625   2.772   0.075   0.723 -0.8488 -0.6777  0.2669
 5055SOL     OW26626   4.116   1.579  15.911  0.1462  0.0783 -0.2964
 5055SOL    HW126627   4.114   1.490  15.874 -0.8538 -0.8479  1.9802
 5055SOL    HW226628   4.050   1.568  15.980  1.0050 -1.2128  0.3326
 5056SOL     OW26629   2.641   1.068   4.812  0.5983 -0.3057  0.2493
 5056SOL    HW126630   2.736   1.071   4.800  0.5408 -0.2465 -0.1804
 5056SOL    HW226631   2.612   0.982   4.781 -1.8671 -0.0684  1.9102
 5057SOL     OW26632   3.243   4.162   2.344  0.2318 -0.8996  0.3833
 5057SOL    HW126633   3.253   4.137   2.435 -1.5193 -1.2495  0.4753
 5057SOL    HW226634   3.177   4.099   2.317 -0.5862 -0.2398  0.8304
 5058SOL     OW26635   2.816   0.452  13.983 -0.1540  0.1206  0.2625
 5058SOL    HW126636   2.836   0.376  13.928 -1.6723 -0.2839  0.2793
 5058SOL    HW226637   2.858   0.423  14.064 -2.3366 -1.1156  0.9467
 5059SOL     OW26638   3.196   2.172   1.349 -0.1404  0.0282  0.2214
 5059SOL    HW126639   3.165   2.206   1.434 -0.7934 -2.1596  0.8726
 5059SOL    HW226640   3.278   2.137   1.383  0.2690  0.1335 -0.6668
 5060SOL     OW26641   0.201   0.249   6.475  0.1902 -0.2562  0.2867
 5060SOL    HW126642   0.141   0.303   6.527 -1.3339 -0.7974 -0.8937
 5060SOL    HW226643   0.214   0.308   6.402  1.3975  0.8366  1.3985
 5061SOL     OW26644   3.713   1.801   5.582 -0.0187  0.4192 -0.1988
 5061SOL    HW126645   3.790   1.752   5.554  0.1716  0.7586 -0.2699
 5061SOL    HW226646   3.729   1.885   5.539  1.7097  0.6155  0.8625
 5062SOL     OW26647   4.186   1.240   6.716  0.0928  0.2056 -0.1880
 5062SOL    HW126648   4.134   1.299   6.770 -1.6173 -2.2311  0.8087
 5062SOL    HW226649   4.128   1.224   6.641 -0.0592 -0.3940  0.0596
 5063SOL     OW26650   2.600   2.147   6.614 -0.0586 -0.3978  0.0768
 5063SOL    HW126651   2.571   2.171   6.526 -0.4106  0.8994  0.5502
 5063SOL    HW226652   2.628   2.056   6.605 -1.2527 -0.7408 -0.1454
 5064SOL     OW26653   3.197   2.512  16.400 -0.0451 -0.0260  0.6989
 5064SOL    HW126654   3.177   2.556  16.482  0.0623 -1.5770  1.5753
 5064SOL    HW226655   3.135   2.546  16.336 -2.3210  0.1483  3.0075
 5065SOL     OW26656   2.823   1.655   9.115  0.0163  0.0017  0.1526
 5065SOL    HW126657   2.875   1.729   9.086 -2.9095  1.2511 -1.9447
 5065SOL    HW226658   2.777   1.621   9.038 -2.4229  1.6607  0.8720
 5066SOL     OW26659   3.590   1.156   2.691  0.0065 -0.6460 -0.0627
 5066SOL    HW126660   3.672   1.205   2.690  0.3565 -1.1713  2.7990
 5066SOL    HW226661   3.612   1.063   2.701  2.2383 -0.1457 -0.5161
 5067SOL     OW26662   3.853   1.221   5.244  0.0722  0.1637  0.3241
 5067SOL    HW126663   3.783   1.174   5.200 -1.2897  1.0478  1.5410
 5067SOL    HW226664   3.895   1.142   5.277  2.9493  0.7018 -2.0802
 5068SOL     OW26665   4.200   3.157   4.324 -0.1751  0.7902 -0.5200
 5068SOL    HW126666   4.152   3.202   4.254  1.0798  2.4154 -0.3352
 5068SOL    HW226667   4.189   3.066   4.296 -0.2982 -0.6164  4.0777
 5069SOL     OW26668   2.012   1.846  11.739  0.0602  0.0574  0.3958
 5069SOL    HW126669   2.094   1.863  11.692 -0.0608 -3.9699 -1.2992
 5069SOL    HW226670   2.054   1.783  11.798  3.0316  0.7728 -0.9211
 5070SOL     OW26671   1.175   1.232   7.526 -0.7203 -0.0274 -0.2164
 5070SOL    HW126672   1.209   1.217   7.615  0.5411 -2.7430 -1.1508
 5070SOL    HW226673   1.107   1.166   7.541 -0.3550 -0.4918 -0.6230
 5071SOL     OW26674   1.426   2.251  12.392 -0.6426 -0.0264 -0.3250
 5071SOL    HW126675   1.417   2.327  12.334  1.0863  0.5163  0.0907
 5071SOL    HW226676   1.411   2.176  12.336  1.0853 -0.9941  0.4949
 5072SOL     OW26677   2.907   1.767   8.795 -0.2419 -1.2922  0.0046
 5072SOL    HW126678   2.836   1.706   8.816 -1.1820  0.8612  3.0807
 5072SOL    HW226679   2.930   1.799   8.883  0.4821 -0.5341 -0.4622
 5073SOL     OW26680   1.117   4.569   6.897 -0.8997 -0.1804 -0.5813
 5073SOL    HW126681   1.173   4.608   6.963 -1.6705  1.7023 -1.0533
 5073SOL    HW226682   1.036   4.566   6.948  0.0412 -2.5455  0.7731
 5074SOL     OW26683   3.267   2.547   7.891 -0.0191  0.4539 -0.2689
 5074SOL    HW126684   3.217   2.627   7.911  0.5265  0.7992 -0.3023
 5074SOL    HW226685   3.333   2.552   7.960  1.0096 -0.9932 -1.1389
 5075SOL     OW26686   3.631   2.933   2.432 -0.6052 -0.6381  0.6221
 5075SOL    HW126687   3.648   2.870   2.502 -0.1075 -1.1155  0.0623
 5075SOL    HW226688   3.721   2.927   2.399 -0.4308  0.2102  0.9423
 5076SOL     OW26689   1.284   0.222   9.201 -0.0727  0.0120  0.0321
 5076SOL    HW126690   1.369   0.237   9.242  0.5342  0.0208 -1.2027
 5076SOL    HW226691   1.237   0.172   9.267 -1.5542 -0.3773 -1.2963
 5077SOL     OW26692   3.991   3.875   1.886 -0.1968  0.2891 -0.1415
 5077SOL    HW126693   4.046   3.937   1.840 -0.7951  1.1733  0.3328
 5077SOL    HW226694   3.959   3.928   1.959 -0.0026 -0.4146  0.4534
 5078SOL     OW26695   1.727   0.421  15.901  0.1641 -0.1333  0.0328
 5078SOL    HW126696   1.719   0.414  15.996  1.4862 -0.2587  0.1354
 5078SOL    HW226697   1.635   0.416  15.876 -0.0170  2.4486  0.2316
 5079SOL     OW26698   1.595   1.927   8.332  0.6129  0.5051  0.2621
 5079SOL    HW126699   1.611   2.014   8.368  1.0385  0.5435 -0.0283
 5079SOL    HW226700   1.500   1.920   8.321  0.6920 -1.7519  1.0167
 5080SOL     OW26701   4.154   2.036  13.137  0.0964  0.5492 -0.3765
 5080SOL    HW126702   4.108   2.066  13.215 -1.8507 -0.6200 -1.0784
 5080SOL    HW226703   4.112   2.102  13.083  0.9089 -0.2549 -2.0042
 5081SOL     OW26704   3.091   2.566  13.775  0.1449  0.1332  0.0815
 5081SOL    HW126705   3.157   2.520  13.723 -1.1996 -0.4834 -1.0610
 5081SOL    HW226706   3.069   2.498  13.839 -2.5292  1.0618  0.1566
 5082SOL     OW26707   3.689   0.908   6.183 -0.7008 -0.6981 -0.0467
 5082SOL    HW126708   3.663   0.828   6.229 -1.1178 -0.7808 -0.4216
 5082SOL    HW226709   3.671   0.973   6.251  1.6638  1.5688 -1.6283
 5083SOL     OW26710   4.661   3.544   6.768  0.5446  0.0844 -0.8288
 5083SOL    HW126711   4.694   3.634   6.763 -1.3262  0.7974 -0.5762
 5083SOL    HW226712   4.707   3.504   6.694  2.6374  0.5396  0.2222
 5084SOL     OW26713   2.498   1.000   3.682  0.2681 -0.1896 -0.7331
 5084SOL    HW126714   2.511   1.088   3.718 -0.6988 -0.1326 -0.5321
 5084SOL    HW226715   2.456   1.014   3.597 -0.9863  3.8546  0.5325
 5085SOL     OW26716   0.488   2.244   4.398  0.4922  0.0234  0.1547
 5085SOL    HW126717   0.542   2.322   4.415  1.1119  0.2267 -2.7125
 5085SOL    HW226718   0.479   2.208   4.486  0.1792  0.6947  0.3936
 5086SOL     OW26719   2.057   3.849   3.307  0.3453 -0.5703 -0.2677
 5086SOL    HW126720   2.101   3.830   3.390 -1.6857 -0.0582  0.9370
 5086SOL    HW226721   2.011   3.768   3.286 -0.7625 -0.0533  0.1750
 5087SOL     OW26722   3.758   1.478   9.911  0.4960 -0.5934 -0.1761
 5087SOL    HW126723   3.842   1.495   9.954  1.4461  2.0316 -3.0411
 5087SOL    HW226724   3.693   1.527   9.961 -2.2560 -2.6480 -1.7240
 5088SOL     OW26725   4.340   3.648   9.114  0.4785  0.3656 -0.1077
 5088SOL    HW126726   4.322   3.556   9.094 -0.0548  1.2907 -3.8803
 5088SOL    HW226727   4.420   3.630   9.163  2.3640  1.8251 -2.6873
 5089SOL     OW26728   4.133   4.677  15.652  0.4284 -0.6367 -0.2263
 5089SOL    HW126729   4.038   4.679  15.655  0.4056 -1.0237 -0.7595
 5089SOL    HW226730   4.148   4.636  15.567 -0.7502  1.8292 -1.6330
 5090SOL     OW26731   0.689   1.420   6.991  0.3637  0.5043  0.4530
 5090SOL    HW126732   0.735   1.346   6.950 -2.0028 -1.1120  0.7659
 5090SOL    HW226733   0.607   1.422   6.942  1.4132  0.6072 -1.3245
 5091SOL     OW26734   1.743   1.330  12.031 -0.5152  0.1372 -0.3088
 5091SOL    HW126735   1.728   1.403  12.091 -0.6693 -0.3661  0.2624
 5091SOL    HW226736   1.739   1.378  11.948 -0.9877 -0.0945 -0.4191
 5092SOL     OW26737   3.670   2.582   2.999  0.2661 -0.1790 -0.1967
 5092SOL    HW126738   3.721   2.662   2.990  1.0126 -0.4829  1.3454
 5092SOL    HW226739   3.609   2.602   2.928 -2.0023  0.8592  2.0751
 5093SOL     OW26740   1.782   3.048  11.004  0.1955  0.0233  0.4532
 5093SOL    HW126741   1.841   3.078  10.936  1.4164 -2.1357  0.5564
 5093SOL    HW226742   1.834   2.978  11.043 -0.5162 -0.7920 -0.0579
 5094SOL     OW26743   0.704   2.137   3.946  1.4200  0.4159  0.2663
 5094SOL    HW126744   0.717   2.043   3.958 -0.5183  0.2476  1.0949
 5094SOL    HW226745   0.645   2.159   4.019 -1.8792 -0.6741 -2.0997
 5095SOL     OW26746   2.415   0.209  12.160  0.2143 -0.5934  0.2341
 5095SOL    HW126747   2.478   0.141  12.181  2.7931  1.1931 -1.8000
 5095SOL    HW226748   2.457   0.248  12.084  0.3281 -1.5478 -0.1827
 5096SOL     OW26749   0.941   0.754  12.249  0.3886 -0.4545  0.0764
 5096SOL    HW126750   0.981   0.670  12.270  1.2758  0.1171  0.6655
 5096SOL    HW226751   1.006   0.778  12.182  0.5900  1.3854  0.9203
 5097SOL     OW26752   0.621   2.807   4.229  0.2209  0.8679 -0.1593
 5097SOL    HW126753   0.639   2.849   4.313 -0.0364  0.0340  0.3141
 5097SOL    HW226754   0.697   2.822   4.173  0.3355  0.6766 -0.0535
 5098SOL     OW26755   4.316   1.892   8.748 -0.2481  0.4354  0.1257
 5098SOL    HW126756   4.337   1.982   8.771  2.0225 -0.2827  0.7927
 5098SOL    HW226757   4.226   1.898   8.781  0.0016  2.3811  0.4256
 5099SOL     OW26758   1.289   0.054   2.608 -0.4012  0.2836 -0.0460
 5099SOL    HW126759   1.291   0.138   2.654 -1.4146  1.5412 -2.2985
 5099SOL    HW226760   1.225   0.076   2.540  0.1579  0.2990 -0.5625
 5100SOL     OW26761   2.913   2.045   5.162  0.1198  0.1174 -0.1808
 5100SOL    HW126762   2.860   1.992   5.102 -1.8024  0.2538  1.3904
 5100SOL    HW226763   2.850   2.049   5.234  0.7828 -1.4402  0.4805
 5101SOL     OW26764   1.575   2.381  12.813  0.0725 -0.7538  0.0513
 5101SOL    HW126765   1.584   2.324  12.737 -1.2609  1.7586 -1.9880
 5101SOL    HW226766   1.529   2.450  12.765 -1.7951 -0.4066  2.3548
 5102SOL     OW26767   4.426   0.048   4.948 -0.2318 -0.3723 -0.1389
 5102SOL    HW126768   4.418   0.140   4.972 -0.1631 -0.9493  2.1152
 5102SOL    HW226769   4.335   0.020   4.935 -0.0384 -1.1615  0.1869
 5103SOL     OW26770   2.906   1.475   2.932 -0.3534  0.3625 -0.5908
 5103SOL    HW126771   2.878   1.433   2.850 -0.1805 -1.4562  0.2892
 5103SOL    HW226772   2.930   1.399   2.985 -0.0741  0.7958 -0.0913
 5104SOL     OW26773   2.994   3.598   7.523 -0.3692 -0.4792 -0.1641
 5104SOL    HW126774   2.923   3.537   7.502 -0.3281 -1.0362  1.3066
 5104SOL    HW226775   3.041   3.536   7.580 -2.5728  0.9406  3.2156
 5105SOL     OW26776   2.422   4.353   9.953 -0.0766  0.2788 -0.1054
 5105SOL    HW126777   2.338   4.381   9.991 -1.1453 -0.9672 -1.5563
 5105SOL    HW226778   2.478   4.430   9.963  3.0205 -2.1292  1.1029
 5106SOL     OW26779   1.838   2.740   7.205 -0.3705  0.1154 -0.5598
 5106SOL    HW126780   1.902   2.767   7.271  3.1198 -2.0744 -3.0424
 5106SOL    HW226781   1.880   2.654   7.193 -1.9390 -0.6141 -0.7295
 5107SOL     OW26782   4.673   4.517   3.450 -0.1619 -0.1896  0.3453
 5107SOL    HW126783   0.043   4.537   3.446 -0.0242 -0.8700  0.0442
 5107SOL    HW226784   4.657   4.429   3.415  0.8373 -0.0583 -0.4650
 5108SOL     OW26785   4.207   2.363   5.452 -0.5788 -0.2933 -0.0956
 5108SOL    HW126786   4.176   2.440   5.405  1.2780  0.2661 -0.4178
 5108SOL    HW226787   4.300   2.377   5.430 -0.7361 -0.2403 -0.7432
 5109SOL     OW26788   2.292   3.396   9.275 -0.2817  0.3262 -0.1282
 5109SOL    HW126789   2.254   3.483   9.284  0.5836  0.6271  0.5891
 5109SOL    HW226790   2.239   3.339   9.331  0.3364  0.5302  0.6650
 5110SOL     OW26791   2.083   2.019   0.366  0.2737 -0.2824  0.1185
 5110SOL    HW126792   2.128   2.008   0.450 -0.9065 -0.3617  0.7347
 5110SOL    HW226793   2.159   2.017   0.306  0.3290  1.3501  0.1437
 5111SOL     OW26794   2.931   3.921   0.445  0.3004  0.3565 -0.1649
 5111SOL    HW126795   2.981   3.946   0.522 -1.5711 -2.7182  2.0284
 5111SOL    HW226796   2.858   3.869   0.478  0.6082 -1.0154 -1.6388
 5112SOL     OW26797   3.133   3.254   3.264 -0.5868 -0.3150  0.1877
 5112SOL    HW126798   3.055   3.212   3.301 -0.4644 -2.7610 -2.3350
 5112SOL    HW226799   3.094   3.342   3.271  1.3690  0.4650  1.1056
 5113SOL     OW26800   3.103   1.413   8.592  0.0051 -0.2898 -0.0121
 5113SOL    HW126801   3.107   1.325   8.554 -2.3043 -0.5922  0.4543
 5113SOL    HW226802   3.126   1.471   8.519  1.1281  0.6349  1.0758
 5114SOL     OW26803   1.608   2.437   2.700 -0.6320  0.6010 -0.2658
 5114SOL    HW126804   1.532   2.385   2.726 -0.6050 -0.5253 -2.5130
 5114SOL    HW226805   1.615   2.491   2.779  1.8772 -0.7832  0.4576
 5115SOL     OW26806   4.217   2.022  16.015  0.8633  0.2530 -0.1512
 5115SOL    HW126807   4.208   2.025  15.920  0.2992 -1.2776 -0.1501
 5115SOL    HW226808   4.126   2.036  16.043 -0.5901 -3.0653 -3.1536
 5116SOL     OW26809   0.541   3.665   7.626  0.2757 -0.3570  0.5670
 5116SOL    HW126810   0.467   3.604   7.624  0.1008 -0.1452  0.6074
 5116SOL    HW226811   0.487   3.744   7.621 -1.8259 -1.8348 -0.3330
 5117SOL     OW26812   1.865   1.123   5.199  0.3597  0.3887  0.3876
 5117SOL    HW126813   1.946   1.165   5.228 -0.6316  1.3429  1.8298
 5117SOL    HW226814   1.841   1.074   5.278  1.9139  0.2193  0.7524
 5118SOL     OW26815   3.712   0.640  14.947 -0.1071  0.2320 -0.5880
 5118SOL    HW126816   3.807   0.633  14.960 -0.1918  0.9240  0.4388
 5118SOL    HW226817   3.693   0.633  14.854 -1.3236 -1.0922 -0.2395
 5119SOL     OW26818   4.011   4.466   4.624  0.1753 -0.6515 -0.9622
 5119SOL    HW126819   3.951   4.439   4.694 -1.4321  0.8486 -1.7467
 5119SOL    HW226820   4.092   4.448   4.672 -0.0303 -1.5963 -0.9718
 5120SOL     OW26821   4.422   2.868  17.640 -0.5443  0.1243  0.1401
 5120SOL    HW126822   4.345   2.867  17.697 -0.9714  0.0686 -0.4240
 5120SOL    HW226823   4.378   2.845  17.558 -3.0546  0.3368  1.4208
 5121SOL     OW26824   2.027   3.017  15.187  0.1616  0.1424  0.0542
 5121SOL    HW126825   2.106   3.060  15.220  0.1040  0.7086 -0.5464
 5121SOL    HW226826   1.965   3.090  15.191 -0.4502 -0.3502 -0.5582
 5122SOL     OW26827   2.899   2.951   1.219 -0.1610 -0.6711  0.3067
 5122SOL    HW126828   2.902   3.007   1.142 -2.7523  2.6888  2.6477
 5122SOL    HW226829   2.807   2.960   1.245 -0.0961  1.2214 -0.1202
 5123SOL     OW26830   1.919   0.340   6.967 -0.4002 -0.1058  0.6583
 5123SOL    HW126831   1.879   0.256   6.946  0.7152 -0.4757 -0.0134
 5123SOL    HW226832   2.011   0.322   6.945  0.1259  0.4672  2.3756
 5124SOL     OW26833   3.418   2.701   5.734 -0.3303  0.5150  0.2988
 5124SOL    HW126834   3.411   2.612   5.769  1.2316  0.7257  1.1357
 5124SOL    HW226835   3.510   2.716   5.712 -0.5407 -0.3697 -1.2015
 5125SOL     OW26836   1.854   0.656   5.672  0.3588 -0.2112 -0.0462
 5125SOL    HW126837   1.817   0.608   5.745 -0.1803  0.0987 -0.1162
 5125SOL    HW226838   1.890   0.590   5.612 -0.2595 -0.0414 -0.6010
 5126SOL     OW26839   4.482   3.863   1.407 -0.4360  0.2820  0.3596
 5126SOL    HW126840   4.419   3.935   1.414 -0.7217  0.1134 -0.4589
 5126SOL    HW226841   4.518   3.862   1.318 -1.5963 -0.2267 -0.1119
 5127SOL     OW26842   4.686   0.212   3.369  0.3468  0.1203  0.5416
 5127SOL    HW126843   0.018   0.176   3.437 -1.8858 -1.1198  1.7276
 5127SOL    HW226844   4.662   0.297   3.408 -0.7207  1.1451 -2.3530
 5128SOL     OW26845   3.347   2.330   9.884  0.3906 -0.3478  0.0463
 5128SOL    HW126846   3.439   2.332   9.859  0.2669 -1.3812 -0.4705
 5128SOL    HW226847   3.344   2.393   9.957 -3.0143  0.7279 -1.0047
 5129SOL     OW26848   3.650   2.535   8.686  0.1518  0.9662  0.0762
 5129SOL    HW126849   3.661   2.443   8.664  0.9683  0.4832  2.5176
 5129SOL    HW226850   3.554   2.542   8.689  0.2373  1.0453  2.4520
 5130SOL     OW26851   1.895   2.006  12.669 -0.3687 -0.3107 -0.6564
 5130SOL    HW126852   1.874   1.914  12.683 -1.4126 -0.2121 -1.6115
 5130SOL    HW226853   1.845   2.026  12.590  1.3931 -0.2495 -1.7412
 5131SOL     OW26854   3.279   0.989  12.920  0.3172  0.0167 -0.6726
 5131SOL    HW126855   3.207   0.958  12.865 -1.6887  1.1194  1.3414
 5131SOL    HW226856   3.250   0.970  13.009  0.8146  0.4187 -0.4209
 5132SOL     OW26857   3.552   2.799   4.684 -0.0905 -0.2362 -0.2854
 5132SOL    HW126858   3.518   2.752   4.760  2.6752 -0.4233  0.8417
 5132SOL    HW226859   3.561   2.888   4.720 -2.8420  0.4872 -1.3674
 5133SOL     OW26860   0.673   3.275  10.403  0.4955 -0.3451 -0.0840
 5133SOL    HW126861   0.587   3.233  10.393  0.9811 -1.6291  1.1755
 5133SOL    HW226862   0.724   3.197  10.382  2.0677  0.8062 -0.5312
 5134SOL     OW26863   2.591   0.334   6.533 -0.1748 -0.4136  0.0619
 5134SOL    HW126864   2.541   0.253   6.537  0.7850 -0.9800  0.6446
 5134SOL    HW226865   2.669   0.306   6.485  0.9411 -0.1668  1.6941
 5135SOL     OW26866   3.481   2.128   6.548  0.2292 -0.0167 -0.2768
 5135SOL    HW126867   3.525   2.174   6.476 -0.6075  0.5962 -0.3986
 5135SOL    HW226868   3.454   2.050   6.501  0.3825  0.9962 -2.0539
 5136SOL     OW26869   0.089   0.544  13.554  0.4047  0.2207  0.1461
 5136SOL    HW126870   0.116   0.462  13.596  1.6791  0.6830  0.2151
 5136SOL    HW226871   4.718   0.541  13.566  0.2346 -0.0859 -1.2102
 5137SOL     OW26872   3.365   4.178   2.087 -0.5082 -0.2590 -0.1629
 5137SOL    HW126873   3.360   4.092   2.045  1.9911  0.5530 -2.1433
 5137SOL    HW226874   3.308   4.174   2.164 -0.6671 -2.0570 -0.3737
 5138SOL     OW26875   0.246   1.666   8.041  0.2330 -0.3639  0.0262
 5138SOL    HW126876   0.175   1.672   8.105 -0.8564 -0.3841 -1.1980
 5138SOL    HW226877   0.242   1.738   7.979  1.9656 -0.2511  0.0450
 5139SOL     OW26878   1.919   3.706   8.149  0.4284 -0.3706 -0.2960
 5139SOL    HW126879   1.937   3.655   8.228 -0.3489 -0.2476 -0.0364
 5139SOL    HW226880   1.944   3.641   8.084  0.1133 -1.4343  0.6545
 5140SOL     OW26881   2.142   3.417   7.479  0.1196  0.9514  0.2013
 5140SOL    HW126882   2.143   3.507   7.511  0.5622  0.7330  0.7869
 5140SOL    HW226883   2.213   3.374   7.526 -0.9898  0.4534  1.4084
 5141SOL     OW26884   3.483   4.685   6.362  0.2199 -0.4668 -0.5929
 5141SOL    HW126885   3.447   4.708   6.448 -0.6668 -1.1904 -0.7687
 5141SOL    HW226886   3.503   4.592   6.376 -1.8088 -1.1295 -2.1270
 5142SOL     OW26887   3.729   3.671   6.268 -0.1586 -0.0828  0.2245
 5142SOL    HW126888   3.749   3.623   6.349  2.2571  0.4190 -0.0702
 5142SOL    HW226889   3.719   3.752   6.318 -0.0127  1.3762 -2.1141
 5143SOL     OW26890   3.994   4.524   9.903 -0.3306  0.2740 -0.4881
 5143SOL    HW126891   4.011   4.613   9.935  0.8496 -0.4558  0.9470
 5143SOL    HW226892   4.002   4.482   9.989  1.1726  1.3322 -0.1177
 5144SOL     OW26893   4.589   1.288   8.763 -0.5947 -0.4765  0.0190
 5144SOL    HW126894   4.506   1.245   8.783 -0.2693 -0.6906  0.9216
 5144SOL    HW226895   4.630   1.215   8.717 -1.9163 -1.2572  0.0776
 5145SOL     OW26896   1.385   1.309  13.022  0.1923  0.5462  0.6152
 5145SOL    HW126897   1.364   1.308  13.115 -0.8721  3.0179  0.4152
 5145SOL    HW226898   1.411   1.399  13.000 -0.2455  0.6031  0.3369
 5146SOL     OW26899   4.085   1.121  15.220  0.0100  0.0247  1.0912
 5146SOL    HW126900   4.085   1.148  15.128 -0.4139  1.3336  1.4705
 5146SOL    HW226901   4.125   1.197  15.263  0.9229  0.6642 -0.8326
 5147SOL     OW26902   3.279   0.024   2.017  0.4809  0.3822 -0.6854
 5147SOL    HW126903   3.365   0.033   2.059  1.1853 -1.9272 -1.6495
 5147SOL    HW226904   3.291   4.662   1.978  2.2478 -0.5104  1.8234
 5148SOL     OW26905   2.277   2.087   3.738 -0.0339  0.3015 -0.0037
 5148SOL    HW126906   2.319   2.090   3.653  1.5601 -3.4743  0.6366
 5148SOL    HW226907   2.333   2.022   3.780  1.0895  1.2355 -0.0745
 5149SOL     OW26908   2.279   1.629  13.086  0.3360  0.0082  0.7490
 5149SOL    HW126909   2.285   1.698  13.151 -1.3510  0.7734  0.0802
 5149SOL    HW226910   2.184   1.618  13.085  0.2893  0.4721  0.2158
 5150SOL     OW26911   4.009   4.636  17.534 -0.4302 -0.6516 -0.2169
 5150SOL    HW126912   3.955   4.711  17.557  0.1672 -0.5405  0.7901
 5150SOL    HW226913   4.002   4.642  17.439 -1.4764 -0.1711 -0.0997
 5151SOL     OW26914   3.189   3.895   5.865 -0.2204 -0.0695  0.6740
 5151SOL    HW126915   3.173   3.811   5.908  1.3013  0.2576  1.8637
 5151SOL    HW226916   3.229   3.860   5.785  0.2916  0.1870  0.8196
 5152SOL     OW26917   1.061   4.482   6.642 -0.2105  0.3007  0.0257
 5152SOL    HW126918   1.044   4.540   6.715  4.2504  3.7583 -1.7460
 5152SOL    HW226919   1.017   4.540   6.580 -0.5929  2.0364  1.9443
 5153SOL     OW26920   0.755   2.731   5.284 -0.8662 -0.4270 -0.0631
 5153SOL    HW126921   0.660   2.738   5.283 -0.8207  0.2458  0.4113
 5153SOL    HW226922   0.756   2.775   5.199  0.2166 -1.4952 -0.6048
 5154SOL     OW26923   3.154   0.477   2.744 -0.1693  1.0839 -0.5938
 5154SOL    HW126924   3.215   0.530   2.796  0.3788 -2.3141  2.2546
 5154SOL    HW226925   3.070   0.520   2.757  0.7104  2.6641 -0.1606
 5155SOL     OW26926   1.676   0.752   6.361 -0.5156  0.2789  0.2430
 5155SOL    HW126927   1.713   0.664   6.354  0.5676  0.8760 -1.4851
 5155SOL    HW226928   1.742   0.799   6.413 -2.1601  0.1033  2.4968
 5156SOL     OW26929   3.889   1.480   6.262  0.0709 -0.2011 -0.1719
 5156SOL    HW126930   3.958   1.416   6.249  1.4603  1.3337 -0.3512
 5156SOL    HW226931   3.911   1.543   6.193  2.2632  0.2232  0.9359
 5157SOL     OW26932   2.858   1.489  15.479 -0.4846  0.5718  0.2083
 5157SOL    HW126933   2.890   1.531  15.559  1.1477 -0.8371  0.2832
 5157SOL    HW226934   2.898   1.550  15.417  0.6398  1.2670  1.6110
 5158SOL     OW26935   4.050   1.031   1.654  0.7136 -0.4424 -0.3667
 5158SOL    HW126936   4.105   1.109   1.650 -1.3779  1.0388  0.1160
 5158SOL    HW226937   3.988   1.060   1.720  0.1583  1.1782 -1.6209
 5159SOL     OW26938   4.202   4.426   3.121  0.0295  0.2491  0.0368
 5159SOL    HW126939   4.255   4.496   3.083  2.2008 -1.1442  0.5027
 5159SOL    HW226940   4.199   4.364   3.049 -1.5632 -0.2513  0.5226
 5160SOL     OW26941   3.265   1.236   6.947 -0.3041 -0.8023 -0.2910
 5160SOL    HW126942   3.173   1.214   6.962 -0.2111 -1.4301 -0.6291
 5160SOL    HW226943   3.301   1.148   6.959 -0.4331 -0.7173  0.7106
 5161SOL     OW26944   4.296   4.250   7.102  1.2126 -0.1980 -0.5432
 5161SOL    HW126945   4.243   4.249   7.022  0.5146 -0.0567 -0.0896
 5161SOL    HW226946   4.256   4.300   7.173  2.5313  1.0764 -0.7253
 5162SOL     OW26947   4.060   3.809   2.808 -0.0960 -0.2518 -0.2739
 5162SOL    HW126948   4.055   3.904   2.817  0.7889 -0.1622 -0.7485
 5162SOL    HW226949   4.154   3.793   2.817 -0.7632 -2.5404  2.9629
 5163SOL     OW26950   0.457   0.956   7.784  0.6686  0.4868  0.3492
 5163SOL    HW126951   0.501   1.037   7.809  1.4367  0.2609 -0.2686
 5163SOL    HW226952   0.487   0.905   7.859 -0.7039 -0.7593  0.0478
 5164SOL     OW26953   3.195   3.173  11.032  0.0694 -0.3357  0.3245
 5164SOL    HW126954   3.130   3.112  10.997  1.0674 -1.3628  0.2450
 5164SOL    HW226955   3.193   3.238  10.962 -0.1904  0.6553  1.2546
 5165SOL     OW26956   1.034   2.383   8.080 -0.6303 -0.2454 -0.3880
 5165SOL    HW126957   0.942   2.384   8.105 -0.5841 -1.5271 -0.1501
 5165SOL    HW226958   1.059   2.475   8.068 -0.6896 -0.2807 -0.7753
 5166SOL     OW26959   4.458   1.098  12.990 -0.0259 -0.3871  0.1725
 5166SOL    HW126960   4.441   1.177  13.041 -0.6190  0.2858 -1.0543
 5166SOL    HW226961   4.457   1.033  13.060  0.1203 -1.9141 -1.2476
 5167SOL     OW26962   0.892   2.594   3.969  0.1762  0.0767  0.2416
 5167SOL    HW126963   0.877   2.554   4.054  1.3975  0.4552  0.6360
 5167SOL    HW226964   0.887   2.511   3.920 -0.6343 -1.1129  2.3416
 5168SOL     OW26965   1.908   3.439   5.067 -1.0557 -0.3301 -0.0152
 5168SOL    HW126966   1.894   3.533   5.050 -2.0303 -0.7523 -1.5003
 5168SOL    HW226967   1.831   3.399   5.027  0.3924 -1.3012 -1.8184
 5169SOL     OW26968   1.096   4.457   9.897  0.0631 -0.1892 -0.3760
 5169SOL    HW126969   1.060   4.371   9.916 -1.3565  0.6181  0.5829
 5169SOL    HW226970   1.179   4.429   9.859  1.6530  2.9892  0.7475
 5170SOL     OW26971   1.356   1.272   9.068  0.2739  0.4432 -0.1130
 5170SOL    HW126972   1.290   1.254   9.001 -1.3584  2.5895  0.9125
 5170SOL    HW226973   1.325   1.215   9.139 -0.6828 -0.3913 -1.1968
 5171SOL     OW26974   3.632   0.602   5.253  0.0177 -0.1387 -0.0357
 5171SOL    HW126975   3.657   0.511   5.238 -0.3231  0.1046 -2.1195
 5171SOL    HW226976   3.651   0.616   5.345  1.1231  0.6679 -0.3845
 5172SOL     OW26977   4.111   2.484   7.908  0.7703  0.1719  0.3123
 5172SOL    HW126978   4.204   2.503   7.903  0.8998 -0.7379 -0.5990
 5172SOL    HW226979   4.073   2.570   7.926 -1.6797 -0.6790 -0.6908
 5173SOL     OW26980   2.265   1.540   5.326 -1.1273 -0.8248 -0.3033
 5173SOL    HW126981   2.170   1.537   5.341 -1.0810 -0.8977 -0.0204
 5173SOL    HW226982   2.271   1.536   5.230  0.7633 -2.4907 -0.1082
 5174SOL     OW26983   4.477   4.562   3.627  0.3426 -0.5666 -0.5191
 5174SOL    HW126984   4.557   4.543   3.579 -0.1097  0.8310 -1.8540
 5174SOL    HW226985   4.436   4.478   3.606  0.1118 -0.6623  0.3067
 5175SOL     OW26986   1.631   0.009   2.683 -0.0242  0.2465  0.2067
 5175SOL    HW126987   1.540   0.033   2.699 -0.3196  0.4299 -1.7097
 5175SOL    HW226988   1.613   4.662   2.622 -1.3761  1.9626 -1.4277
 5176SOL     OW26989   1.323   0.767   6.077  0.3184  0.3353  0.2794
 5176SOL    HW126990   1.314   0.775   5.982  1.3982  1.3844  0.2647
 5176SOL    HW226991   1.386   0.696   6.083 -1.0088 -0.9594 -1.0047
 5177SOL     OW26992   3.697   2.105  14.993 -0.6987 -0.1537 -0.2367
 5177SOL    HW126993   3.754   2.141  15.061  0.7634  3.1424 -3.2201
 5177SOL    HW226994   3.629   2.172  14.994  0.7660  1.3283  0.3097
 5178SOL     OW26995   0.325   0.958  17.118  0.1786 -0.2600 -0.2358
 5178SOL    HW126996   0.281   0.918  17.193  0.4099  1.2041  0.6632
 5178SOL    HW226997   0.257   1.015  17.081  1.1629 -0.7217 -2.8029
 5179SOL     OW26998   2.240   3.809   2.293  0.3358  0.7470 -0.5258
 5179SOL    HW126999   2.272   3.899   2.306 -1.1877  1.4465 -1.6640
 5179SOL    HW227000   2.152   3.815   2.331  0.3066 -1.9890 -0.1404
 5180SOL     OW27001   2.243   2.626   2.530 -0.2026 -0.4877 -0.1980
 5180SOL    HW127002   2.250   2.533   2.550  1.2434 -0.6062 -1.2464
 5180SOL    HW227003   2.153   2.640   2.557  0.6849  1.6399  1.7542
 5181SOL     OW27004   0.041   3.791   4.009  0.1332  0.4527  0.1665
 5181SOL    HW127005   0.093   3.813   3.931  1.2834  0.8656  1.0477
 5181SOL    HW227006   4.705   3.863   3.991 -0.7485  0.2949  2.5634
 5182SOL     OW27007   3.260   0.311   3.224 -0.3456 -0.6997 -0.2540
 5182SOL    HW127008   3.352   0.306   3.197 -0.6147 -0.3674 -1.2210
 5182SOL    HW227009   3.214   0.262   3.156  0.1042  0.4981 -1.4243
 5183SOL     OW27010   3.153   3.969   4.798  0.5009  0.2712  0.1503
 5183SOL    HW127011   3.205   3.978   4.719 -0.9108  2.1126 -0.5740
 5183SOL    HW227012   3.208   3.926   4.863  1.0488  2.2292  0.9855
 5184SOL     OW27013   0.255   3.262  11.580  0.2222  0.5917  0.4213
 5184SOL    HW127014   0.231   3.343  11.624  1.6886  0.5990  1.2050
 5184SOL    HW227015   0.298   3.232  11.660  1.7874  1.5072 -0.0705
 5185SOL     OW27016   0.636   3.994   3.490 -0.2155  0.1365 -0.2591
 5185SOL    HW127017   0.629   4.085   3.519  2.2721  0.0975  0.5192
 5185SOL    HW227018   0.698   4.016   3.420  2.4029  0.3860  2.1041
 5186SOL     OW27019   2.953   0.824  13.875  0.6530 -0.8245 -0.2708
 5186SOL    HW127020   2.911   0.739  13.867  0.2063 -0.7150  0.8966
 5186SOL    HW227021   2.898   0.856  13.946 -0.5055  1.8980 -2.3586
 5187SOL     OW27022   0.520   4.266   8.136  0.5645  0.0364  0.6862
 5187SOL    HW127023   0.507   4.175   8.109  0.0814  1.2424 -3.1019
 5187SOL    HW227024   0.513   4.259   8.231  1.1020 -0.4693  0.6900
 5188SOL     OW27025   3.885   3.932   4.064 -0.3868  0.3523 -0.0717
 5188SOL    HW127026   3.938   3.873   4.117  0.5387  0.6632 -0.6495
 5188SOL    HW227027   3.861   4.005   4.121 -0.3175  0.6560 -0.4308
 5189SOL     OW27028   2.063   1.836   5.559  0.0902 -0.3254 -0.4894
 5189SOL    HW127029   2.017   1.823   5.476  0.5039 -0.3593 -0.7121
 5189SOL    HW227030   2.082   1.746   5.587  0.6708 -0.5574 -1.6295
 5190SOL     OW27031   1.772   4.612   5.187  0.0637 -0.2008  0.6673
 5190SOL    HW127032   1.837   4.544   5.203 -0.9475 -1.0241  1.2628
 5190SOL    HW227033   1.699   4.578   5.238  0.4161  0.2814  1.4818
 5191SOL     OW27034   3.484   1.120   4.669 -0.1376  0.5548  0.9239
 5191SOL    HW127035   3.411   1.080   4.621 -1.3222  0.9063  2.4447
 5191SOL    HW227036   3.519   1.041   4.708 -1.1539 -0.9498 -1.1906
 5192SOL     OW27037   1.614   1.581   3.517 -0.4475  0.0004 -0.6481
 5192SOL    HW127038   1.648   1.492   3.531  2.5725  1.0111 -1.6323
 5192SOL    HW227039   1.529   1.561   3.557 -0.0362  0.5519  0.4942
 5193SOL     OW27040   1.796   1.065   1.383  0.7167 -0.9196  0.1176
 5193SOL    HW127041   1.790   1.159   1.363  1.6764 -0.4293  2.1121
 5193SOL    HW227042   1.712   1.056   1.427  0.4216 -0.7209 -0.4041
 5194SOL     OW27043   0.900   1.131   3.806 -0.0047 -0.0075  0.2527
 5194SOL    HW127044   0.831   1.068   3.827  0.7953 -0.0526  2.6817
 5194SOL    HW227045   0.894   1.186   3.884  0.1447  0.0052  0.2562
 5195SOL     OW27046   3.633   2.993   7.686  0.5886 -0.3008  0.1091
 5195SOL    HW127047   3.713   3.044   7.673  1.0920 -1.2225 -0.4033
 5195SOL    HW227048   3.608   2.956   7.602 -0.1971  1.1131 -0.2690
 5196SOL     OW27049   4.079   2.086   4.558  0.5726  0.0380 -0.2689
 5196SOL    HW127050   4.003   2.064   4.613  0.5345 -0.4583 -0.5161
 5196SOL    HW227051   4.157   2.098   4.612 -0.1854 -0.3478  0.9170
 5197SOL     OW27052   0.133   0.547  15.952 -0.4385  0.5539  0.3140
 5197SOL    HW127053   0.217   0.568  15.994 -0.0081  0.3536 -0.4420
 5197SOL    HW227054   0.075   0.565  16.026 -0.7977 -2.9570  0.8686
 5198SOL     OW27055   0.055   4.579   6.159 -0.1068 -0.1428  0.2266
 5198SOL    HW127056   4.722   4.514   6.199  2.2031 -1.7101  0.9763
 5198SOL    HW227057   0.120   4.574   6.229  0.2793  2.1381  0.0599
 5199SOL     OW27058   2.756   3.848   5.373 -0.2416 -0.1098 -0.2175
 5199SOL    HW127059   2.831   3.841   5.432 -0.8356  2.4183  0.8153
 5199SOL    HW227060   2.794   3.824   5.288  1.5082  1.0022  0.2542
 5200SOL     OW27061   4.431   1.179   2.471 -0.2762 -1.1309  0.3744
 5200SOL    HW127062   4.340   1.153   2.489 -0.6504  0.3209  0.6286
 5200SOL    HW227063   4.434   1.138   2.385  1.0889 -0.3116  0.0337
 5201SOL     OW27064   4.267   1.223  13.352 -0.0619  0.4418  0.2291
 5201SOL    HW127065   4.279   1.298  13.411 -0.8112  1.1696 -0.5430
 5201SOL    HW227066   4.300   1.155  13.411 -0.6136 -0.5295 -0.5921
 5202SOL     OW27067   2.668   0.351  15.786 -0.0941  0.3598  0.4891
 5202SOL    HW127068   2.591   0.404  15.806  0.2102  0.2432  1.9725
 5202SOL    HW227069   2.631   0.268  15.817 -0.3434  0.5832  0.7798
 5203SOL     OW27070   3.362   3.527   2.281  0.7003 -0.2737 -0.1124
 5203SOL    HW127071   3.409   3.602   2.244 -0.0995  0.5785  0.5894
 5203SOL    HW227072   3.308   3.509   2.205  1.2211 -0.2062 -0.5004
 5204SOL     OW27073   4.509   2.966   4.758  0.7285  0.3192  0.0446
 5204SOL    HW127074   4.590   2.965   4.707  0.3877  1.5214 -0.5222
 5204SOL    HW227075   4.446   2.943   4.689 -1.1217 -1.0875  2.2168
 5205SOL     OW27076   0.434   4.560   6.790  0.2726  0.0651  0.0462
 5205SOL    HW127077   0.460   4.489   6.848 -0.9116  0.2931  0.8724
 5205SOL    HW227078   0.389   4.612   6.857  1.3902 -0.5236  1.2457
 5206SOL     OW27079   2.272   3.549  10.347  0.2942 -0.0215  0.0055
 5206SOL    HW127080   2.269   3.455  10.331  2.3203 -0.1114  0.1123
 5206SOL    HW227081   2.195   3.555  10.404 -0.0391  0.5918 -0.5135
 5207SOL     OW27082   2.872   1.173   1.390 -0.9791 -0.8097 -0.2825
 5207SOL    HW127083   2.895   1.220   1.311  1.6567 -1.2604  0.2213
 5207SOL    HW227084   2.810   1.237   1.424 -0.2398 -1.0152  1.4600
 5208SOL     OW27085   1.135   1.036   8.812 -0.1686 -0.4060  1.0578
 5208SOL    HW127086   1.097   1.056   8.726  0.6285 -2.2323  0.2906
 5208SOL    HW227087   1.134   0.941   8.808  0.1868 -0.3901  0.5562
 5209SOL     OW27088   4.386   1.879   2.429  0.3403 -0.7901 -0.0115
 5209SOL    HW127089   4.456   1.864   2.493  0.1697  0.4032  0.4561
 5209SOL    HW227090   4.433   1.867   2.347 -1.2726 -1.8596 -0.7867
 5210SOL     OW27091   1.493   2.205   9.314 -0.2256  0.5651  0.5552
 5210SOL    HW127092   1.497   2.122   9.267  0.2300 -0.1898  1.9007
 5210SOL    HW227093   1.581   2.213   9.351 -0.3992  0.1828  1.0548
 5211SOL     OW27094   4.215   4.025   1.789 -0.0092 -0.0128 -0.2696
 5211SOL    HW127095   4.243   3.947   1.742 -0.2592  0.8003 -1.7934
 5211SOL    HW227096   4.269   4.091   1.746 -0.6560  0.1011 -0.9134
 5212SOL     OW27097   2.250   3.068   7.512  0.3442 -0.0002 -0.0775
 5212SOL    HW127098   2.240   3.097   7.421 -0.3191 -0.9193 -0.2954
 5212SOL    HW227099   2.301   2.989   7.502 -0.4111 -0.6268  1.0521
 5213SOL     OW27100   4.099   4.554   2.061  0.4901  0.1204  0.2688
 5213SOL    HW127101   4.193   4.540   2.065  0.2242 -1.7594  0.1059
 5213SOL    HW227102   4.104   4.632   2.006  3.0370 -0.8330 -0.8076
 5214SOL     OW27103   2.661   3.752   4.983 -0.4078 -0.1760  0.3072
 5214SOL    HW127104   2.632   3.716   4.899  1.3633  0.8353 -0.7378
 5214SOL    HW227105   2.644   3.671   5.032  0.4001 -1.0567 -0.8722
 5215SOL     OW27106   3.508   0.620   3.005 -0.4928 -0.2967  0.1919
 5215SOL    HW127107   3.544   0.555   2.944  1.1039 -0.5352  1.3870
 5215SOL    HW227108   3.556   0.700   2.987 -2.0068  0.4547 -0.5087
 5216SOL     OW27109   4.684   0.854  17.518  0.3326  0.5658  0.2724
 5216SOL    HW127110   4.616   0.806  17.564  1.7242 -0.0944  1.6530
 5216SOL    HW227111   4.693   0.935  17.568  1.2088 -0.2140  1.3869
 5217SOL     OW27112   3.959   0.430   7.138  0.2708  0.2075 -0.7681
 5217SOL    HW127113   4.053   0.450   7.138  0.5057 -0.9888  3.0178
 5217SOL    HW227114   3.933   0.508   7.089 -2.1904 -0.6420 -0.7902
 5218SOL     OW27115   3.563   3.209  15.806  0.3704 -0.2165  0.3291
 5218SOL    HW127116   3.639   3.173  15.762 -1.0464 -1.7309 -0.8783
 5218SOL    HW227117   3.584   3.303  15.804 -1.0241  0.1088  0.7034
 5219SOL     OW27118   0.182   1.619   7.043  0.1321 -0.5745  0.3886
 5219SOL    HW127119   0.135   1.646   6.964  1.8979 -0.3577 -0.5968
 5219SOL    HW227120   0.129   1.543   7.068 -0.8741 -0.5454 -1.6493
 5220SOL     OW27121   3.542   3.365   1.668 -0.5048 -0.2041 -0.1851
 5220SOL    HW127122   3.628   3.351   1.707 -0.3192  3.0916  0.6107
 5220SOL    HW227123   3.503   3.285   1.703  1.5254 -1.2565 -0.3765
 5221SOL     OW27124   0.700   3.213   7.034  0.2402  0.1727 -0.0826
 5221SOL    HW127125   0.653   3.171   6.962 -0.2548  0.5698  0.0037
 5221SOL    HW227126   0.660   3.300   7.029 -0.0796 -0.0383 -1.2098
 5222SOL     OW27127   1.459   3.662   3.336  0.4066  0.2811 -0.2503
 5222SOL    HW127128   1.399   3.709   3.278  0.6499 -0.9444 -1.5007
 5222SOL    HW227129   1.497   3.739   3.378  2.6578 -2.3043  2.5235
 5223SOL     OW27130   1.437   3.379   4.506 -0.4183  0.2763  0.1214
 5223SOL    HW127131   1.349   3.345   4.520 -0.8348  1.7776  1.1314
 5223SOL    HW227132   1.479   3.335   4.580 -0.6068 -2.0658 -1.1487
 5224SOL     OW27133   2.124   1.341   0.348  0.2914  0.2812  0.3601
 5224SOL    HW127134   2.106   1.434   0.362 -0.8600 -0.0977  1.4043
 5224SOL    HW227135   2.036   1.308   0.367  0.5547 -1.7291 -1.9693
 5225SOL     OW27136   1.916   3.091   5.356 -0.0567  0.0257 -0.2199
 5225SOL    HW127137   1.965   3.080   5.274  1.7247  1.4730  0.6461
 5225SOL    HW227138   1.922   3.187   5.360  2.1746 -0.1232  0.3455
 5226SOL     OW27139   0.789   2.805   3.031 -0.0300 -0.3931 -0.0349
 5226SOL    HW127140   0.873   2.785   2.990  0.4952 -0.7887  1.2243
 5226SOL    HW227141   0.743   2.724   3.012 -2.2717  0.8686  0.0290
 5227SOL     OW27142   0.043   2.936   8.549  0.1515 -0.0535 -0.1427
 5227SOL    HW127143   0.067   3.029   8.542 -3.0962  0.7044 -0.9204
 5227SOL    HW227144   0.042   2.915   8.456 -1.8813  0.3431 -0.2087
 5228SOL     OW27145   4.515   1.397   3.759  0.3145 -0.2508 -0.1829
 5228SOL    HW127146   4.549   1.344   3.687  2.8619 -0.1588  0.9527
 5228SOL    HW227147   4.466   1.336   3.814  2.5409 -1.5115  0.4025
 5229SOL     OW27148   1.368   2.485   7.759 -0.0698 -0.2987  0.1330
 5229SOL    HW127149   1.355   2.563   7.705  0.8640  0.4535  1.0066
 5229SOL    HW227150   1.299   2.428   7.725  0.5947 -0.8509 -0.3066
 5230SOL     OW27151   0.084   0.998   3.300  0.3624 -0.0067 -0.1186
 5230SOL    HW127152   0.146   1.008   3.227 -2.8589  0.4418 -2.7532
 5230SOL    HW227153   0.143   1.029   3.369 -1.1895  0.7022  0.8747
 5231SOL     OW27154   3.053   1.353  13.482  0.4996  0.4114 -0.2445
 5231SOL    HW127155   3.103   1.431  13.457  0.6620  0.0858 -0.9358
 5231SOL    HW227156   2.997   1.351  13.404  1.9498 -3.5619 -1.1509
 5232SOL     OW27157   0.764   3.828  14.878  0.3819 -0.5501 -0.4781
 5232SOL    HW127158   0.711   3.750  14.868 -0.0326 -0.3831  0.3820
 5232SOL    HW227159   0.746   3.869  14.794  0.9340 -1.7467 -1.1683
 5233SOL     OW27160   2.266   1.201   8.667  0.0475 -0.2650  0.2012
 5233SOL    HW127161   2.361   1.211   8.670 -0.1576  1.9173 -0.0129
 5233SOL    HW227162   2.255   1.154   8.750  1.1294  1.1170  1.1315
 5234SOL     OW27163   4.095   4.318   6.637  0.0943 -0.2370  0.3000
 5234SOL    HW127164   4.115   4.403   6.676  2.7516 -0.9226  0.4091
 5234SOL    HW227165   4.180   4.290   6.603  0.2148  0.5309 -0.0249
 5235SOL     OW27166   0.247   0.714   2.329  0.1168 -0.1512  0.3596
 5235SOL    HW127167   0.281   0.701   2.418 -1.1452 -0.8475  0.7370
 5235SOL    HW227168   0.238   0.624   2.298 -0.0523  0.2635 -0.7990
 5236SOL     OW27169   1.301   4.289   9.831  0.1588 -0.3616 -0.0416
 5236SOL    HW127170   1.391   4.304   9.799 -0.1948 -1.4445 -1.5426
 5236SOL    HW227171   1.316   4.228   9.904  1.4963  0.3624  0.2886
 5237SOL     OW27172   1.515   2.646   1.080 -0.1626  0.0246 -0.1516
 5237SOL    HW127173   1.587   2.615   1.135 -0.2527  2.8681  1.6232
 5237SOL    HW227174   1.556   2.719   1.034 -2.0254  1.6410  0.7421
 5238SOL     OW27175   4.577   1.263   3.551  0.2848  0.2572 -0.1696
 5238SOL    HW127176   4.537   1.188   3.509  4.5270 -0.4507 -2.9429
 5238SOL    HW227177   4.566   1.331   3.485  0.8456  0.3538 -0.1602
 5239SOL     OW27178   2.096   1.898   2.643 -0.5420  0.2280 -0.0403
 5239SOL    HW127179   2.175   1.904   2.590 -0.4023 -0.9608  0.0460
 5239SOL    HW227180   2.060   1.987   2.645  0.3172  0.5766  0.6642
 5240SOL     OW27181   1.866   3.217   8.912 -0.2864  0.3450  0.5840
 5240SOL    HW127182   1.782   3.216   8.959 -1.0123 -0.3835 -0.7172
 5240SOL    HW227183   1.878   3.311   8.925  2.6830  0.1527 -0.8598
 5241SOL     OW27184   4.581   3.130   7.624 -0.2033  0.0658 -0.6926
 5241SOL    HW127185   4.542   3.142   7.711  0.7117  0.2232 -0.3107
 5241SOL    HW227186   4.534   3.053   7.591  1.2326 -0.3356 -1.7902
 5242SOL     OW27187   4.313   2.815   6.174  0.0330 -0.4167  0.0309
 5242SOL    HW127188   4.233   2.863   6.153 -0.2665 -0.8512  0.1775
 5242SOL    HW227189   4.294   2.722   6.163 -0.4030 -0.0747 -2.2733
 5243SOL     OW27190   2.063   0.898   8.644  0.0029 -0.3802 -0.0308
 5243SOL    HW127191   2.020   0.860   8.568 -2.3371 -0.1495  1.1794
 5243SOL    HW227192   2.055   0.989   8.614  0.2116 -0.5582 -0.6319
 5244SOL     OW27193   3.123   2.117   9.941  0.1099 -0.3353 -0.8357
 5244SOL    HW127194   3.184   2.163   9.883  1.5902  0.8084  1.6431
 5244SOL    HW227195   3.174   2.136  10.019 -1.2220 -1.8274  0.3962
 5245SOL     OW27196   2.933   0.062   6.887 -0.2028 -0.1185 -0.0169
 5245SOL    HW127197   2.999   0.076   6.954  1.9303 -0.2344 -2.1102
 5245SOL    HW227198   2.853   0.044   6.937  1.0840 -1.7410  1.4443
 5246SOL     OW27199   1.258   4.078   8.302 -0.0091 -0.7770 -0.4384
 5246SOL    HW127200   1.181   4.083   8.245 -1.7939  0.9716  2.1330
 5246SOL    HW227201   1.311   4.152   8.273 -0.4781 -0.1732  0.2460
 5247SOL     OW27202   2.975   2.532  11.914  0.0680 -0.1035  0.8871
 5247SOL    HW127203   2.955   2.490  11.831  1.2230  0.7172  0.1938
 5247SOL    HW227204   3.044   2.478  11.953 -0.5003 -1.6409 -0.2216
 5248SOL     OW27205   3.693   4.413   3.289  0.3796  0.4382  0.2162
 5248SOL    HW127206   3.636   4.337   3.273  1.0329 -0.0677  0.2769
 5248SOL    HW227207   3.774   4.374   3.253 -0.8872  0.6761 -2.9337
 5249SOL     OW27208   4.459   1.492   1.093  0.6101  0.1374  0.3727
 5249SOL    HW127209   4.491   1.416   1.142 -1.5531 -2.4349 -2.2337
 5249SOL    HW227210   4.413   1.550   1.153  1.8370 -0.0473  1.5076
 5250SOL     OW27211   3.017   1.563   5.984  0.4104  0.2964 -0.1066
 5250SOL    HW127212   2.968   1.570   5.902  1.1007 -1.1831 -0.6439
 5250SOL    HW227213   2.966   1.491   6.023  0.5746 -1.3220 -2.8815
 5251SOL     OW27214   3.286   4.066   2.648 -0.4006 -0.7182 -0.0430
 5251SOL    HW127215   3.321   4.152   2.668 -1.3525  0.2278 -2.3754
 5251SOL    HW227216   3.365   4.012   2.651  1.7200  2.4216  0.0759
 5252SOL     OW27217   1.403   2.546   6.005  0.1377 -0.1065 -0.1314
 5252SOL    HW127218   1.317   2.588   6.003  1.0346  1.9715  3.8527
 5252SOL    HW227219   1.422   2.545   6.099 -0.8115 -1.3001  0.0534
 5253SOL     OW27220   4.223   4.586  11.562 -0.1266  0.2110 -0.1665
 5253SOL    HW127221   4.210   4.658  11.500  1.1704  2.0394  1.7067
 5253SOL    HW227222   4.299   4.624  11.605  0.5494 -1.5643  0.2123
 5254SOL     OW27223   1.377   2.341  13.283 -0.3818 -0.3342 -0.0560
 5254SOL    HW127224   1.285   2.341  13.310  0.0631  0.9950  1.4321
 5254SOL    HW227225   1.420   2.363  13.365 -0.0375 -0.1812 -0.2800
 5255SOL     OW27226   0.416   2.305   7.028 -0.1166 -0.6794 -0.3539
 5255SOL    HW127227   0.339   2.341   6.983 -0.6435  1.0161  1.9297
 5255SOL    HW227228   0.411   2.211   7.012 -1.6612 -0.7125  0.3323
 5256SOL     OW27229   2.221   4.310   9.301  0.0401  0.2158 -0.4782
 5256SOL    HW127230   2.179   4.392   9.278  0.9951  0.5928 -0.8812
 5256SOL    HW227231   2.145   4.273   9.345  1.1849 -0.6234  0.7994
 5257SOL     OW27232   1.364   2.768   7.232  0.1091  0.2407 -0.1894
 5257SOL    HW127233   1.293   2.806   7.285  0.3554 -0.4103  0.6094
 5257SOL    HW227234   1.418   2.720   7.294  0.7910 -0.1731 -1.1088
 5258SOL     OW27235   1.848   3.665   6.327 -0.1078 -0.4932  0.6835
 5258SOL    HW127236   1.902   3.607   6.273 -2.0584 -0.2583 -1.4808
 5258SOL    HW227237   1.911   3.737   6.326  0.0276 -0.6193  0.2920
 5259SOL     OW27238   1.514   1.163  12.539  0.5877 -0.4057  0.2531
 5259SOL    HW127239   1.597   1.121  12.562  0.1613 -0.3915  1.7642
 5259SOL    HW227240   1.452   1.131  12.603  0.0824  1.2253  0.5777
 5260SOL     OW27241   3.270   3.224  13.586 -0.8706  0.0723  0.4392
 5260SOL    HW127242   3.293   3.131  13.591  0.8207  0.4737  0.1282
 5260SOL    HW227243   3.255   3.255  13.676 -1.8331 -1.7139  0.9060
 5261SOL     OW27244   3.860   0.722   6.412  0.5113 -0.4769  0.0929
 5261SOL    HW127245   3.876   0.689   6.323 -0.5781 -1.2997  0.1952
 5261SOL    HW227246   3.809   0.649   6.447 -0.3058 -0.7747 -1.6907
 5262SOL     OW27247   2.824   1.987   2.172  0.2972  0.5732  0.3833
 5262SOL    HW127248   2.865   2.004   2.257 -0.5486  0.0568  0.8864
 5262SOL    HW227249   2.870   1.907   2.146 -2.5262 -0.9483  0.1313
 5263SOL     OW27250   2.592   3.879  10.342 -0.0433 -0.0660  0.2796
 5263SOL    HW127251   2.675   3.885  10.390 -0.4664 -0.9477  1.1382
 5263SOL    HW227252   2.570   3.787  10.357 -1.3090  0.6093  2.6235
 5264SOL     OW27253   3.346   2.845   5.462 -0.2304 -0.7471 -0.0473
 5264SOL    HW127254   3.423   2.836   5.518  0.0334 -0.5665 -0.3833
 5264SOL    HW227255   3.305   2.759   5.459 -1.4312 -0.0927 -2.2604
 5265SOL     OW27256   2.952   1.770   7.267  0.5075  0.5163 -0.1083
 5265SOL    HW127257   3.015   1.770   7.195  1.8416 -0.6947  1.0533
 5265SOL    HW227258   3.019   1.783   7.333 -0.4583  1.5021  0.6753
 5266SOL     OW27259   1.096   4.590   0.993 -0.3364  0.2145 -0.0273
 5266SOL    HW127260   1.177   4.628   1.028 -1.0810  0.2632  1.6551
 5266SOL    HW227261   1.044   4.573   1.072  0.5276  3.2856  1.1874
 5267SOL     OW27262   0.848   3.748   4.376 -0.0438  0.4647 -0.0324
 5267SOL    HW127263   0.853   3.653   4.372  0.2833  0.4206  1.5066
 5267SOL    HW227264   0.769   3.761   4.322  0.2451 -1.7837 -1.0150
 5268SOL     OW27265   0.211   4.489  17.423  0.4396  0.1098 -0.3562
 5268SOL    HW127266   0.243   4.442  17.346  1.4418 -1.8479  1.2635
 5268SOL    HW227267   0.172   4.567  17.383 -0.8205 -0.9582 -1.2293
 5269SOL     OW27268   4.057   0.117   3.010 -0.4067  0.4180  0.7138
 5269SOL    HW127269   4.042   0.161   2.926  0.6970  0.8679  0.7480
 5269SOL    HW227270   3.995   0.045   2.999  0.1274 -0.0835  0.9969
 5270SOL     OW27271   3.020   1.457   0.860  0.5098  0.2970  0.4489
 5270SOL    HW127272   2.944   1.399   0.853  0.3920  0.5993 -0.8038
 5270SOL    HW227273   3.082   1.386   0.845 -0.3113 -0.2550 -0.3255
 5271SOL     OW27274   0.382   0.397  17.487 -0.0996 -0.1378  0.9389
 5271SOL    HW127275   0.452   0.350  17.532 -0.8384 -2.3312 -0.1730
 5271SOL    HW227276   0.423   0.433  17.408 -1.5159  0.3148  0.4129
 5272SOL     OW27277   0.264   3.606   4.533  0.7003 -0.1172  0.8243
 5272SOL    HW127278   0.181   3.572   4.565  0.1369  0.7126  0.2443
 5272SOL    HW227279   0.327   3.554   4.584  1.8787  0.5675  0.0515
 5273SOL     OW27280   0.890   4.676   7.115  0.8516 -0.0966 -0.0896
 5273SOL    HW127281   0.801   4.683   7.082  0.3931  0.2687  1.2249
 5273SOL    HW227282   0.890   4.599   7.172  2.0171  2.6694  3.6745
 5274SOL     OW27283   2.233   3.556  16.898  0.3181  0.1610  0.1253
 5274SOL    HW127284   2.221   3.616  16.824  0.9261  0.1838  0.0421
 5274SOL    HW227285   2.221   3.616  16.971 -0.1389  0.4227 -0.1636
 5275SOL     OW27286   1.692   1.506  13.752 -0.4204  0.0884  0.1015
 5275SOL    HW127287   1.759   1.479  13.688  0.5014  1.3350  0.5532
 5275SOL    HW227288   1.730   1.591  13.772  0.8721 -1.2572  3.3909
 5276SOL     OW27289   0.066   3.465   7.504  0.5942  0.0440  0.3604
 5276SOL    HW127290   0.004   3.537   7.515  0.4489 -0.2489  1.4791
 5276SOL    HW227291   0.071   3.413   7.584  1.7093 -1.1783 -0.5038
 5277SOL     OW27292   0.386   0.527   6.580  0.1230 -0.3404  0.4168
 5277SOL    HW127293   0.362   0.554   6.669 -1.2806 -0.2859  0.0291
 5277SOL    HW227294   0.351   0.599   6.527 -0.5757 -1.5699 -0.7919
 5278SOL     OW27295   3.126   1.940  15.098 -0.2622 -0.2600  1.0008
 5278SOL    HW127296   3.050   1.941  15.039  1.2881 -2.4525 -1.0153
 5278SOL    HW227297   3.181   1.881  15.047 -0.0851  0.2205  0.6454
 5279SOL     OW27298   1.694   1.608   0.285  0.0520 -0.4913 -0.0151
 5279SOL    HW127299   1.665   1.517   0.293  1.2338 -0.8730 -0.0025
 5279SOL    HW227300   1.629   1.640   0.348  0.3743 -0.5681  0.3579
 5280SOL     OW27301   1.912   1.642   7.093 -0.6514  0.2660  0.0102
 5280SOL    HW127302   1.948   1.707   7.032 -1.2747  0.8782  0.2911
 5280SOL    HW227303   1.843   1.609   7.037  1.4090 -1.9950 -1.2112
 5281SOL     OW27304   4.542   2.043   9.997 -0.0939  0.5981 -0.2529
 5281SOL    HW127305   4.532   1.947  10.000  0.2926  0.5415 -0.8019
 5281SOL    HW227306   4.482   2.079  10.062 -0.5113  0.6778 -0.6850
 5282SOL     OW27307   0.840   2.471  16.775  0.0926 -0.2989 -0.0040
 5282SOL    HW127308   0.830   2.562  16.744 -0.5766 -0.0354  0.9680
 5282SOL    HW227309   0.906   2.438  16.714  0.1284 -2.4957  1.2374
 5283SOL     OW27310   1.268   0.585   9.236  0.1123 -0.0839 -0.4439
 5283SOL    HW127311   1.229   0.591   9.323  0.1650 -0.5529 -0.3900
 5283SOL    HW227312   1.240   0.671   9.206  2.4136  1.1758  0.9781
 5284SOL     OW27313   1.720   3.102   3.087 -0.0167 -0.2377  0.0114
 5284SOL    HW127314   1.710   3.191   3.120 -0.9557  0.0621 -1.0807
 5284SOL    HW227315   1.633   3.078   3.053  0.3636 -1.7342  0.1178
 5285SOL     OW27316   4.592   3.536   3.950 -0.0397  0.0668  0.6566
 5285SOL    HW127317   4.666   3.582   3.988  2.2849 -1.2483 -2.2927
 5285SOL    HW227318   4.531   3.556   4.021 -0.1100 -1.0551  0.9082
 5286SOL     OW27319   0.444   3.597   5.029  0.2927  0.2878 -0.2426
 5286SOL    HW127320   0.435   3.525   5.091  1.3221 -0.5307 -1.0585
 5286SOL    HW227321   0.470   3.672   5.083  1.1281  1.1326 -1.8080
 5287SOL     OW27322   0.995   3.964   4.430  0.2730  0.4711  0.0144
 5287SOL    HW127323   0.947   3.882   4.426  2.7604 -0.9163 -1.4271
 5287SOL    HW227324   1.063   3.942   4.367  0.8643  1.1608  0.4117
 5288SOL     OW27325   3.950   2.821   3.513 -0.0080 -0.1114  0.3004
 5288SOL    HW127326   4.029   2.780   3.547  0.3788  1.3601  1.1603
 5288SOL    HW227327   3.946   2.803   3.419 -1.3763 -0.5564  0.4482
 5289SOL     OW27328   0.323   0.131   0.525 -0.3427  1.1131  0.1266
 5289SOL    HW127329   0.406   0.101   0.562 -0.0891 -0.9472 -2.1121
 5289SOL    HW227330   0.269   0.052   0.523 -1.6558  2.0230 -0.5016
 5290SOL     OW27331   2.092   4.533   6.651 -0.4147  0.4372  0.6585
 5290SOL    HW127332   2.065   4.443   6.668  0.9394 -0.2913 -0.9863
 5290SOL    HW227333   2.007   4.570   6.627 -1.2820 -1.8947  0.2273
 5291SOL     OW27334   4.564   3.206  10.830  0.1288 -0.4548  0.1984
 5291SOL    HW127335   4.515   3.286  10.814 -1.7494 -1.5933  0.3573
 5291SOL    HW227336   4.644   3.255  10.851 -0.0865 -0.1856  0.3729
 5292SOL     OW27337   4.154   2.582   2.585 -0.5225  0.4061 -0.5058
 5292SOL    HW127338   4.211   2.634   2.641  0.9926  0.4823 -2.1254
 5292SOL    HW227339   4.171   2.501   2.632  0.4934  0.0484 -1.4787
 5293SOL     OW27340   2.383   2.441   9.391 -0.1757  0.5134 -0.0240
 5293SOL    HW127341   2.289   2.456   9.389  0.0100  1.7025  0.5090
 5293SOL    HW227342   2.402   2.431   9.298  2.4478  0.5872  0.4851
 5294SOL     OW27343   1.712   4.515  13.751 -0.0920 -0.1040 -0.4687
 5294SOL    HW127344   1.616   4.509  13.744 -0.2452  0.8897  0.8252
 5294SOL    HW227345   1.738   4.447  13.689 -1.1805  0.1146 -1.1669
 5295SOL     OW27346   3.201   2.726   6.598  0.3062  0.3104  0.2137
 5295SOL    HW127347   3.123   2.690   6.556 -0.4730  0.4738  1.4851
 5295SOL    HW227348   3.193   2.816   6.566  1.5268 -0.2194 -1.5272
 5296SOL     OW27349   3.204   3.077   5.399  0.0759  0.5662  0.7883
 5296SOL    HW127350   3.271   3.144   5.413 -1.3596  2.0465  0.5126
 5296SOL    HW227351   3.244   3.002   5.444  4.1312  2.6679  0.6770
 5297SOL     OW27352   1.371   4.674   8.497 -0.0621 -0.3135  0.3356
 5297SOL    HW127353   1.348   4.599   8.441 -1.3778 -0.3858  0.9679
 5297SOL    HW227354   1.287   4.712   8.523 -1.1475 -1.4479 -1.5513
 5298SOL     OW27355   2.003   2.997   0.114  0.4404 -0.2732  0.4665
 5298SOL    HW127356   2.046   2.922   0.072  0.1411  0.4945 -1.2367
 5298SOL    HW227357   2.070   3.006   0.181 -0.9247 -0.2703  1.8149
 5299SOL     OW27358   2.839   2.378   3.312  0.0940 -0.3944  0.1269
 5299SOL    HW127359   2.796   2.353   3.394 -0.7127  1.8921  0.4059
 5299SOL    HW227360   2.930   2.367   3.336  0.8674  0.2553 -2.5024
 5300SOL     OW27361   0.967   2.607   5.089 -0.2900  0.0595  0.1462
 5300SOL    HW127362   0.972   2.625   5.183  1.3963  1.7877 -0.2792
 5300SOL    HW227363   1.061   2.616   5.071 -0.2676  1.5538  0.9988
 5301SOL     OW27364   1.051   0.863  10.455  1.1491  0.6269  0.4402
 5301SOL    HW127365   1.008   0.948  10.455 -0.1892 -0.0709 -1.7229
 5301SOL    HW227366   0.984   0.800  10.429  2.1478  1.2017 -3.4821
 5302SOL     OW27367   0.144   2.541   2.564 -0.5165 -0.1279 -0.2527
 5302SOL    HW127368   0.113   2.515   2.651 -1.5915 -0.8617 -0.8528
 5302SOL    HW227369   0.236   2.567   2.571 -1.5025  2.6576  2.1456
 5303SOL     OW27370   4.282   0.387  14.280 -0.1050 -0.1192  0.0712
 5303SOL    HW127371   4.309   0.346  14.198  1.9430 -0.1861  0.7825
 5303SOL    HW227372   4.361   0.437  14.299 -0.6026  1.2201 -1.3598
 5304SOL     OW27373   0.416   2.844   3.339 -0.1702 -0.2122  0.4366
 5304SOL    HW127374   0.493   2.814   3.387  0.0192  0.5044  0.5712
 5304SOL    HW227375   0.410   2.770   3.278  0.9246 -0.1585  0.2768
 5305SOL     OW27376   0.038   2.997  15.568  0.2004 -0.1100 -0.2121
 5305SOL    HW127377   4.707   3.071  15.594  0.7011 -0.0967  0.8289
 5305SOL    HW227378   4.704   2.964  15.499  2.0269 -1.3733 -1.1229
 5306SOL     OW27379   2.113   2.918   7.079  0.2809  0.0390  0.0066
 5306SOL    HW127380   2.076   2.906   7.167 -1.4919 -0.3633 -0.7748
 5306SOL    HW227381   2.090   2.842   7.025 -1.7467  0.3820  0.3703
 5307SOL     OW27382   2.397   3.502   5.808 -0.2713 -0.2440 -0.4607
 5307SOL    HW127383   2.435   3.505   5.896  0.6603 -2.6580 -0.7747
 5307SOL    HW227384   2.312   3.463   5.826  0.6310 -0.7310  2.7063
 5308SOL     OW27385   3.158   2.577   8.214 -0.1813 -0.2752  0.3154
 5308SOL    HW127386   3.185   2.564   8.305  1.7238 -2.1145 -0.5467
 5308SOL    HW227387   3.114   2.497   8.185  2.4114 -0.6945 -2.3494
 5309SOL     OW27388   1.610   0.956   5.140  0.2484 -0.0269 -0.6618
 5309SOL    HW127389   1.661   0.976   5.061 -1.3354 -0.0534 -1.7040
 5309SOL    HW227390   1.566   0.884   5.095 -0.7700 -0.6677  1.3864
 5310SOL     OW27391   2.395   1.043   4.080 -1.0040 -0.3991 -0.4771
 5310SOL    HW127392   2.428   1.095   4.007 -0.8842  0.1518 -0.0277
 5310SOL    HW227393   2.386   1.108   4.150 -0.4090 -0.7587 -0.0711
 5311SOL     OW27394   1.091   1.428   8.023 -0.1217  0.2375 -0.1013
 5311SOL    HW127395   1.080   1.350   7.969 -0.4897  0.2370 -0.0216
 5311SOL    HW227396   0.999   1.455   8.020 -0.7005 -1.8435 -1.4406
 5312SOL     OW27397   4.434   3.577   5.100 -0.2443  0.8625  0.3637
 5312SOL    HW127398   4.511   3.522   5.115 -0.7165 -0.6996 -2.9632
 5312SOL    HW227399   4.426   3.621   5.184 -0.0439 -1.9618  1.8744
 5313SOL     OW27400   1.407   3.136  16.387  0.2418  0.0901  0.4833
 5313SOL    HW127401   1.422   3.116  16.479 -1.8010 -1.1777  0.5349
 5313SOL    HW227402   1.426   3.049  16.351 -2.1810 -1.0820  2.0920
 5314SOL     OW27403   0.515   4.381   7.007 -0.2591 -0.1200  0.1676
 5314SOL    HW127404   0.494   4.451   7.069  1.4114  0.6481 -0.1524
 5314SOL    HW227405   0.581   4.337   7.061  0.5765 -0.1802 -0.9098
 5315SOL     OW27406   4.119   3.225   5.340 -0.4689 -0.0166  0.0774
 5315SOL    HW127407   4.144   3.190   5.255 -1.9418 -1.5253  0.2709
 5315SOL    HW227408   4.089   3.143   5.380 -1.5225  0.1187 -0.4295
 5316SOL     OW27409   1.761   4.048  10.586  0.0247 -0.7502  0.4986
 5316SOL    HW127410   1.747   4.142  10.574 -2.1824 -1.4387 -2.2961
 5316SOL    HW227411   1.717   4.049  10.671  1.9132  1.2628  1.4650
 5317SOL     OW27412   3.249   3.234   9.717 -0.6000  0.3941 -0.2614
 5317SOL    HW127413   3.164   3.278   9.724 -0.1437  1.3023 -0.3548
 5317SOL    HW227414   3.259   3.261   9.625  3.0980  0.0055  0.0155
 5318SOL     OW27415   2.540   4.081   1.683  0.0204 -0.0011 -0.4511
 5318SOL    HW127416   2.634   4.101   1.690 -0.7723  3.5456 -0.2873
 5318SOL    HW227417   2.539   4.006   1.623 -1.2647  0.3374 -0.8372
 5319SOL     OW27418   0.439   3.949   1.822 -0.1162  0.3153 -0.0842
 5319SOL    HW127419   0.418   4.030   1.867 -0.5699 -0.2808  0.7660
 5319SOL    HW227420   0.499   3.975   1.751 -0.7178  1.3928 -0.2018
 5320SOL     OW27421   0.578   2.196  11.389  0.1525  0.4471  0.4543
 5320SOL    HW127422   0.602   2.289  11.395  1.9832  0.0044 -0.1116
 5320SOL    HW227423   0.581   2.175  11.296  2.5497 -0.9707  0.8691
 5321SOL     OW27424   0.217   0.032   9.930  0.0561  0.5247  0.1218
 5321SOL    HW127425   0.311   0.043   9.913 -0.1174 -0.3051 -1.3640
 5321SOL    HW227426   0.180   0.094   9.867 -2.8831  0.0723  1.4255
 5322SOL     OW27427   2.269   0.900   1.948 -0.2002  0.5062 -0.1820
 5322SOL    HW127428   2.319   0.821   1.970 -1.2072  0.2250  1.0879
 5322SOL    HW227429   2.339   0.938   1.896  0.5677 -1.5642 -0.6494
 5323SOL     OW27430   3.111   4.547   5.808  0.1885  0.1546  0.5637
 5323SOL    HW127431   3.166   4.522   5.882  2.8545 -0.2913 -1.5549
 5323SOL    HW227432   3.136   4.638   5.789  1.9628  0.0434  2.4077
 5324SOL     OW27433   0.380   0.622   8.079  0.3409  0.3650  0.4471
 5324SOL    HW127434   0.390   0.589   7.989  0.2548  2.7059 -0.4348
 5324SOL    HW227435   0.466   0.663   8.071  0.7668 -0.5940  0.1552
 5325SOL     OW27436   2.863   2.888  11.205 -0.8526  0.2722 -0.3748
 5325SOL    HW127437   2.799   2.869  11.274 -0.6617  1.4543  0.1286
 5325SOL    HW227438   2.841   2.820  11.141  1.2892 -0.4414 -0.3574
 5326SOL     OW27439   2.804   3.452   7.148  0.2481  0.4951 -0.3584
 5326SOL    HW127440   2.885   3.403   7.157  0.2662  0.4425 -0.7891
 5326SOL    HW227441   2.744   3.382   7.174 -1.0030  2.2957  1.6335
 5327SOL     OW27442   1.678   1.129  11.867  0.1771  0.0694  0.0163
 5327SOL    HW127443   1.610   1.192  11.843  0.3401  0.8077  1.4603
 5327SOL    HW227444   1.716   1.181  11.938  1.2880 -1.4711  0.5515
 5328SOL     OW27445   2.981   2.123   0.197 -0.0439  0.4176  0.0059
 5328SOL    HW127446   2.965   2.069   0.275  1.1023 -0.1462 -0.1519
 5328SOL    HW227447   3.036   2.064   0.145  0.0914  0.7123 -0.1860
 5329SOL     OW27448   2.489   2.612   8.990  0.3609  0.4171 -0.1042
 5329SOL    HW127449   2.402   2.589   9.025  0.8544 -2.0978 -0.5488
 5329SOL    HW227450   2.543   2.545   9.030 -0.7051  0.0143  0.6651
 5330SOL     OW27451   4.061   3.770   8.463  0.3670  0.4854 -0.4425
 5330SOL    HW127452   4.088   3.829   8.393  1.5292  2.1683  1.4027
 5330SOL    HW227453   4.026   3.837   8.522  0.0667 -0.4448  0.4184
 5331SOL     OW27454   2.731   2.702  17.576  0.1843  0.3334  0.3958
 5331SOL    HW127455   2.744   2.783  17.528 -0.3795 -0.2531 -0.7363
 5331SOL    HW227456   2.769   2.634  17.520 -1.3303 -0.7083  0.6240
 5332SOL     OW27457   3.648   3.463   5.735  0.2662  0.2725 -0.2028
 5332SOL    HW127458   3.676   3.474   5.826 -0.0471 -3.4684  0.3206
 5332SOL    HW227459   3.559   3.496   5.740 -0.8354 -2.4346 -1.8774
 5333SOL     OW27460   3.899   0.036  12.453  0.3395  0.8813  1.0598
 5333SOL    HW127461   3.867   0.110  12.505 -4.0970 -1.5443  1.7559
 5333SOL    HW227462   3.902   4.691  12.520  2.1350 -0.2293 -0.1581
 5334SOL     OW27463   0.477   0.449   4.114 -0.0559  0.0659  0.7584
 5334SOL    HW127464   0.393   0.405   4.108  0.2072 -0.2179 -0.8799
 5334SOL    HW227465   0.460   0.531   4.160  1.0894  2.2392 -2.6945
 5335SOL     OW27466   2.865   2.875   3.503 -0.6741  0.1962 -0.2428
 5335SOL    HW127467   2.868   2.779   3.503  0.3880  0.2384  1.1799
 5335SOL    HW227468   2.785   2.895   3.551 -2.2403 -1.9720 -1.9221
 5336SOL     OW27469   3.471   4.635   8.845  0.4498  0.1250 -0.8325
 5336SOL    HW127470   3.428   4.720   8.834 -0.8325 -0.4521 -0.1968
 5336SOL    HW227471   3.492   4.637   8.938 -0.9824 -1.8602 -0.4739
 5337SOL     OW27472   1.423   1.425  15.045 -0.6961 -0.1087 -0.2327
 5337SOL    HW127473   1.387   1.351  14.997  1.6176 -0.5703 -1.2538
 5337SOL    HW227474   1.445   1.479  14.970 -1.5231 -0.6745 -0.8737
 5338SOL     OW27475   1.525   4.605   9.899  0.4773 -0.1397 -0.8821
 5338SOL    HW127476   1.506   4.529   9.845 -1.5210  0.2613 -0.7602
 5338SOL    HW227477   1.533   4.556   9.982  1.7258  0.3190 -0.7288
 5339SOL     OW27478   3.380   1.379  11.367 -0.3200 -0.0967  0.0245
 5339SOL    HW127479   3.286   1.385  11.383  0.4356  1.9106  3.7922
 5339SOL    HW227480   3.386   1.461  11.317  1.6042  0.2320  0.7944
 5340SOL     OW27481   3.444   0.831   6.890 -0.3117  0.1094  0.2874
 5340SOL    HW127482   3.374   0.883   6.931 -0.8220  2.3317 -3.4554
 5340SOL    HW227483   3.435   0.875   6.806 -1.6021 -1.5912 -0.4604
 5341SOL     OW27484   3.899   1.932  17.490 -0.8804 -0.0231  0.0079
 5341SOL    HW127485   3.964   1.881  17.537 -0.3803  2.4537  1.9950
 5341SOL    HW227486   3.860   1.853  17.451 -0.2410  0.5793 -1.8819
 5342SOL     OW27487   1.957   2.804   8.173 -0.3900  0.8394  0.5723
 5342SOL    HW127488   1.926   2.722   8.135 -0.4372  1.1352 -0.0327
 5342SOL    HW227489   2.031   2.814   8.112 -2.5891  0.4415 -2.1493
 5343SOL     OW27490   0.514   0.837  16.701 -0.1032 -0.1131  0.5398
 5343SOL    HW127491   0.431   0.822  16.746  0.1636  1.5210  1.5420
 5343SOL    HW227492   0.538   0.745  16.687 -2.2976 -0.3772 -1.5328
 5344SOL     OW27493   3.326   2.954   3.258 -0.1730  0.1524 -0.5713
 5344SOL    HW127494   3.249   2.995   3.297 -0.0711 -1.1319  0.9567
 5344SOL    HW227495   3.308   2.954   3.164  0.3497 -2.2027 -0.6749
 5345SOL     OW27496   1.689   1.611   2.593 -0.2701  0.0371 -0.4740
 5345SOL    HW127497   1.682   1.646   2.682 -1.6224 -0.3405 -0.4278
 5345SOL    HW227498   1.596   1.598   2.571 -0.7127  1.8342  0.2813
 5346SOL     OW27499   3.894   2.633   7.170  0.0586 -0.2666  0.1106
 5346SOL    HW127500   3.830   2.642   7.099 -0.4793 -0.4215  0.5818
 5346SOL    HW227501   3.890   2.539   7.186  2.6902 -0.1875  1.3136
 5347SOL     OW27502   3.079   0.902  15.937 -0.2655  0.6028 -0.0510
 5347SOL    HW127503   3.131   0.955  15.997  0.5018 -1.5817  1.2178
 5347SOL    HW227504   2.993   0.929  15.968 -0.3274 -2.8959  2.8570
 5348SOL     OW27505   2.648   2.400  15.545  0.0320 -0.1060 -0.0442
 5348SOL    HW127506   2.574   2.369  15.493 -2.3615  1.4476  2.4508
 5348SOL    HW227507   2.653   2.490  15.512 -2.7126 -0.7862 -2.2987
 5349SOL     OW27508   0.525   4.069   9.401 -1.0209  0.0881  0.5088
 5349SOL    HW127509   0.553   4.029   9.483 -0.2508  0.3546  0.3815
 5349SOL    HW227510   0.579   4.033   9.330  0.8412 -1.4861  2.7094
 5350SOL     OW27511   3.679   4.105   6.120 -0.4689  0.2946  0.6452
 5350SOL    HW127512   3.720   4.046   6.057  1.0313  0.0579  1.8445
 5350SOL    HW227513   3.750   4.135   6.177 -0.1979  2.5034 -0.8695
 5351SOL     OW27514   1.684   3.551  14.074 -0.0488 -0.0044 -0.4580
 5351SOL    HW127515   1.707   3.610  14.002 -2.3685  1.1469 -0.2408
 5351SOL    HW227516   1.661   3.613  14.143 -0.9024  1.1553 -1.7921
 5352SOL     OW27517   2.403   1.871   3.858  0.1759  0.0588 -0.1946
 5352SOL    HW127518   2.474   1.820   3.896  0.4767 -0.5661 -1.5879
 5352SOL    HW227519   2.329   1.855   3.916  1.6894 -3.1007  0.8841
 5353SOL     OW27520   4.356   1.113  10.957 -0.4547 -0.8207  0.2856
 5353SOL    HW127521   4.439   1.152  10.932 -0.6854 -0.2646  0.3913
 5353SOL    HW227522   4.377   1.098  11.049  0.5363 -3.1810 -0.3082
 5354SOL     OW27523   0.480   2.285   5.780 -0.0050 -0.6304 -0.4813
 5354SOL    HW127524   0.571   2.272   5.807  0.5418  1.8770 -1.0809
 5354SOL    HW227525   0.451   2.197   5.758 -0.9385 -0.1424 -1.2470
 5355SOL     OW27526   0.057   0.295   9.211 -0.1536  0.0331 -0.5555
 5355SOL    HW127527   0.143   0.265   9.239 -1.3455 -1.8468  1.0375
 5355SOL    HW227528   0.038   0.233   9.141 -2.5642  0.6467 -0.4518
 5356SOL     OW27529   3.722   2.262   8.673  0.3125  0.1993  0.1751
 5356SOL    HW127530   3.803   2.232   8.714 -0.2727  0.9820  1.8896
 5356SOL    HW227531   3.682   2.176   8.656 -2.2535  1.0590  1.8268
 5357SOL     OW27532   1.780   2.995   8.170  0.3633 -0.3627  0.2030
 5357SOL    HW127533   1.714   2.966   8.233 -0.3323  0.1799 -0.2834
 5357SOL    HW227534   1.850   2.930   8.179 -1.4467 -2.7690 -2.6488
 5358SOL     OW27535   3.327   3.421   3.843  0.2301  0.2829 -0.0181
 5358SOL    HW127536   3.414   3.380   3.835  0.3248  0.5771 -0.4805
 5358SOL    HW227537   3.296   3.396   3.930  0.1822 -0.2875 -0.1954
 5359SOL     OW27538   3.839   0.228  17.017  0.1317 -0.0283 -0.0679
 5359SOL    HW127539   3.814   0.254  17.106  0.4541  0.2273 -0.0541
 5359SOL    HW227540   3.932   0.245  17.027  0.3883 -0.6450 -1.3963
 5360SOL     OW27541   4.537   0.796   9.870 -0.0890 -0.0816  0.3124
 5360SOL    HW127542   4.564   0.849   9.795  0.8600 -0.4329  0.3978
 5360SOL    HW227543   4.626   0.778   9.900  0.1845 -2.3884 -1.8112
 5361SOL     OW27544   1.808   3.861   8.688  0.6773  0.6929 -0.8782
 5361SOL    HW127545   1.757   3.811   8.624 -1.6443  0.4134  1.1664
 5361SOL    HW227546   1.866   3.912   8.632  0.3589 -0.2240 -2.0596
 5362SOL     OW27547   0.063   2.446   7.719 -0.2718  0.1000 -0.3988
 5362SOL    HW127548   0.129   2.515   7.708 -0.2799 -0.0530 -1.3631
 5362SOL    HW227549   0.096   2.416   7.803 -2.1232  1.0316  0.6605
 5363SOL     OW27550   2.608   0.453   8.660  0.2073 -0.3105  0.4043
 5363SOL    HW127551   2.535   0.413   8.614  1.1994 -0.7503 -0.8017
 5363SOL    HW227552   2.565   0.539   8.660  0.8258  0.0063 -4.3630
 5364SOL     OW27553   2.815   0.270   7.936  0.6240  0.3191  0.5163
 5364SOL    HW127554   2.780   0.259   8.024  0.4800  2.1259  0.6790
 5364SOL    HW227555   2.887   0.206   7.939 -0.4997 -0.9877 -0.4689
 5365SOL     OW27556   1.521   1.653   3.014 -0.0103 -0.4926 -0.5865
 5365SOL    HW127557   1.585   1.607   3.068 -0.5041  1.4744  1.6440
 5365SOL    HW227558   1.513   1.736   3.061  2.4590  0.1940 -1.3698
 5366SOL     OW27559   1.584   3.780   7.482  0.1884 -0.0629  0.3683
 5366SOL    HW127560   1.570   3.732   7.564  1.2477 -0.4391  0.3253
 5366SOL    HW227561   1.666   3.740   7.453  0.0384 -1.0461  1.2911
 5367SOL     OW27562   3.980   3.719  15.770  0.0696 -0.2860 -0.1398
 5367SOL    HW127563   4.069   3.721  15.734  0.7421  1.8208  1.6485
 5367SOL    HW227564   3.927   3.715  15.690 -1.2458  0.6992  0.6809
 5368SOL     OW27565   3.211   4.436   0.254  0.1826  0.2052  0.0171
 5368SOL    HW127566   3.304   4.452   0.271 -0.2167 -0.1416  2.4667
 5368SOL    HW227567   3.220   4.401   0.165 -3.5446 -0.4894 -0.0854
 5369SOL     OW27568   4.673   1.857  13.645 -0.5152  0.1605 -0.5890
 5369SOL    HW127569   4.587   1.854  13.604 -1.2274  0.5347  0.8925
 5369SOL    HW227570   4.645   1.847  13.736  0.3999  0.1567 -0.3087
 5370SOL     OW27571   1.818   4.473   6.616 -0.0910 -0.1289  0.0035
 5370SOL    HW127572   1.843   4.390   6.657  0.3278 -0.8235 -1.6189
 5370SOL    HW227573   1.742   4.501   6.666 -0.6029 -2.2881  0.4646
 5371SOL     OW27574   3.343   4.034  14.267  0.4204  0.5895  0.1725
 5371SOL    HW127575   3.286   3.961  14.289 -0.8901  1.4643 -0.2888
 5371SOL    HW227576   3.422   3.979  14.270  0.4378  0.6598  1.0514
 5372SOL     OW27577   4.714   3.942   2.697 -0.2540  0.0693 -0.1390
 5372SOL    HW127578   4.685   4.025   2.734  0.4335 -0.5786  1.8919
 5372SOL    HW227579   0.053   3.969   2.630 -3.3917  0.8299 -2.7900
 5373SOL     OW27580   1.258   2.361   9.200  0.3179 -0.4411 -0.0359
 5373SOL    HW127581   1.167   2.345   9.225  0.9238 -2.1617  1.0967
 5373SOL    HW227582   1.305   2.321   9.273 -3.5907 -0.4112  2.5099
 5374SOL     OW27583   3.152   3.274   5.156 -0.2550  0.0185 -0.3206
 5374SOL    HW127584   3.109   3.194   5.188  1.3456 -0.5067  0.5197
 5374SOL    HW227585   3.096   3.342   5.194  1.1807  0.7334  0.4808
 5375SOL     OW27586   2.777   4.458   7.735 -0.6589  0.6276  0.5209
 5375SOL    HW127587   2.731   4.542   7.739 -0.5344  0.7997 -1.6382
 5375SOL    HW227588   2.848   4.471   7.672  1.3582 -1.8441  2.2623
 5376SOL     OW27589   1.161   3.737   8.796 -0.1445  0.3720  0.4611
 5376SOL    HW127590   1.107   3.772   8.725 -1.3075  0.2023  1.2595
 5376SOL    HW227591   1.213   3.672   8.749  0.4735  3.1562 -2.7014
 5377SOL     OW27592   4.213   1.438   0.307  0.2793  0.8995 -0.7097
 5377SOL    HW127593   4.214   1.398   0.220 -3.0940 -1.8936  0.5552
 5377SOL    HW227594   4.135   1.494   0.309 -0.3298 -0.0304  1.3062
 5378SOL     OW27595   4.669   1.692   9.595 -0.1078  0.0476  0.1441
 5378SOL    HW127596   4.585   1.661   9.626  1.5692 -1.5076  3.1114
 5378SOL    HW227597   4.721   1.651   9.664 -1.1535 -1.6603 -0.0945
 5379SOL     OW27598   0.471   0.605   0.165  0.1527  0.1170 -0.3421
 5379SOL    HW127599   0.435   0.532   0.215  1.3056  0.2345  0.6650
 5379SOL    HW227600   0.486   0.665   0.238 -0.7078 -0.1414  0.0497
 5380SOL     OW27601   2.578   1.811  15.663 -0.0722 -0.2296  0.5292
 5380SOL    HW127602   2.528   1.892  15.652  1.7264  0.8614  0.5222
 5380SOL    HW227603   2.665   1.830  15.629 -0.6985  0.4501 -0.6723
 5381SOL     OW27604   3.191   2.486   4.087 -0.2472 -0.1808 -0.0833
 5381SOL    HW127605   3.266   2.545   4.093  1.4409 -2.1585 -1.6998
 5381SOL    HW227606   3.193   2.460   3.995  1.9924  1.4900 -0.5073
 5382SOL     OW27607   0.315   2.808  12.135  0.3511  0.0413 -0.2745
 5382SOL    HW127608   0.366   2.765  12.204  1.9561  2.6978  0.1985
 5382SOL    HW227609   0.300   2.900  12.155 -0.7438  0.3003 -2.3026
 5383SOL     OW27610   2.392   4.144   4.557  0.2967 -0.0032 -0.2568
 5383SOL    HW127611   2.419   4.228   4.520 -0.6142  1.4881  2.4309
 5383SOL    HW227612   2.454   4.085   4.515  2.2737  1.2842  0.8733
 5384SOL     OW27613   2.413   2.102   7.500  0.0207  0.6596  0.0278
 5384SOL    HW127614   2.478   2.103   7.429  0.5578  0.8777  0.5195
 5384SOL    HW227615   2.391   2.195   7.503  0.0752  0.6778 -0.1989
 5385SOL     OW27616   4.344   0.984   2.860  0.1818  0.1826 -0.2199
 5385SOL    HW127617   4.396   0.938   2.793  0.6797  1.7285 -0.9107
 5385SOL    HW227618   4.257   0.946   2.848  1.4480 -1.8521 -3.0879
 5386SOL     OW27619   0.241   0.194   4.031 -0.1028 -0.2658 -0.3435
 5386SOL    HW127620   0.233   0.243   4.113  2.2127 -3.3794  1.7436
 5386SOL    HW227621   0.170   0.228   3.977 -1.2780 -1.5755  0.3563
 5387SOL     OW27622   1.564   3.886   5.917  0.2770  0.0320  0.3835
 5387SOL    HW127623   1.550   3.908   6.009 -3.6447 -3.8646  0.7160
 5387SOL    HW227624   1.497   3.933   5.868  0.6863  0.9431  0.6897
 5388SOL     OW27625   3.796   2.330   5.897  0.1424  0.3604  0.1414
 5388SOL    HW127626   3.842   2.406   5.931  0.4226  1.3624 -2.4470
 5388SOL    HW227627   3.717   2.331   5.950 -0.9082 -0.3573 -1.3917
 5389SOL     OW27628   2.356   3.284   3.658 -0.0726 -0.3220 -0.4063
 5389SOL    HW127629   2.290   3.304   3.724 -0.3605 -1.3273 -0.3993
 5389SOL    HW227630   2.342   3.190   3.660 -0.1986 -0.2759  0.9238
 5390SOL     OW27631   1.704   3.073   3.733  0.0274  0.3868 -0.4307
 5390SOL    HW127632   1.688   2.996   3.679  1.9257 -0.9121  0.8795
 5390SOL    HW227633   1.800   3.072   3.735 -0.0162 -0.5430  0.6048
 5391SOL     OW27634   0.754   0.154   3.785 -0.1580  0.4001 -0.0455
 5391SOL    HW127635   0.692   0.207   3.835  0.3486 -0.0847  1.1199
 5391SOL    HW227636   0.817   0.222   3.761 -0.4086  0.7215  0.2048
 5392SOL     OW27637   3.953   3.313  13.791  0.0921 -0.2016  0.5943
 5392SOL    HW127638   3.879   3.272  13.834 -0.3744 -1.0982 -1.1031
 5392SOL    HW227639   4.021   3.246  13.785  2.0837  1.8794 -0.2708
 5393SOL     OW27640   1.690   3.381  10.973 -0.7607  0.0178  0.4856
 5393SOL    HW127641   1.717   3.404  11.062  2.5285 -1.7238 -0.0675
 5393SOL    HW227642   1.703   3.286  10.969  0.0661  0.2374 -1.9625
 5394SOL     OW27643   3.174   3.774   6.833  0.4899  0.4467  0.0901
 5394SOL    HW127644   3.266   3.800   6.838  0.6551  0.1899 -1.5749
 5394SOL    HW227645   3.177   3.681   6.809  1.5336  0.6895 -0.7435
 5395SOL     OW27646   4.538   2.611   8.031 -0.0725 -0.6620  0.2882
 5395SOL    HW127647   4.530   2.615   7.936 -1.3622 -0.7425  0.3982
 5395SOL    HW227648   4.481   2.539   8.056  0.8745 -1.3728  0.4146
 5396SOL     OW27649   0.970   4.507   5.677  0.2391 -0.2188 -0.4530
 5396SOL    HW127650   0.880   4.512   5.645 -0.7315 -1.3253  2.1177
 5396SOL    HW227651   0.962   4.415   5.701 -1.1607  0.1828  0.5922
 5397SOL     OW27652   2.315   2.207   9.533  0.3965 -0.2952  0.3430
 5397SOL    HW127653   2.224   2.201   9.505  0.2933  0.4729  0.4905
 5397SOL    HW227654   2.326   2.292   9.489 -2.2434  0.3129  0.8845
 5398SOL     OW27655   4.157   0.131  12.846 -0.1546 -0.3974  0.1893
 5398SOL    HW127656   4.123   0.058  12.793 -0.7983 -1.1706  1.6691
 5398SOL    HW227657   4.160   0.099  12.936  0.0472 -1.7613 -0.2918
 5399SOL     OW27658   4.702   2.961   0.295 -0.0011 -0.1809  0.2845
 5399SOL    HW127659   4.636   3.003   0.239  0.4904 -0.0710 -0.2102
 5399SOL    HW227660   4.709   2.873   0.257 -0.5198  0.3370 -1.0108
 5400SOL     OW27661   0.865   2.976   5.928 -0.1205  0.2549  0.1515
 5400SOL    HW127662   0.873   2.997   5.835  2.2568  1.6720  0.6884
 5400SOL    HW227663   0.817   3.054   5.956 -2.0866 -0.8621 -0.1160
 5401SOL     OW27664   2.493   0.863   8.938  0.2715  0.4397  0.1970
 5401SOL    HW127665   2.530   0.910   9.013 -0.4685  0.1180  0.7584
 5401SOL    HW227666   2.466   0.784   8.985  0.2742 -0.9190 -2.0713
 5402SOL     OW27667   1.591   2.807   5.326  0.0319  0.0788  0.4168
 5402SOL    HW127668   1.545   2.852   5.397  3.1629  3.1260  0.5431
 5402SOL    HW227669   1.667   2.865   5.323 -0.0625  0.2392  1.1936
 5403SOL     OW27670   2.723   0.760  11.550 -0.2019 -0.0538  0.2614
 5403SOL    HW127671   2.663   0.832  11.573  0.2359  1.1499 -2.4000
 5403SOL    HW227672   2.758   0.733  11.635  3.0128  0.7391 -0.8356
 5404SOL     OW27673   1.145   1.880  11.078  0.0735  0.3253 -0.1768
 5404SOL    HW127674   1.212   1.819  11.048  0.7929  0.1563  1.7173
 5404SOL    HW227675   1.177   1.953  11.024 -0.1705  2.2229  2.2110
 5405SOL     OW27676   3.153   4.502   7.111 -0.1216 -0.7839  0.2627
 5405SOL    HW127677   3.120   4.572   7.167  1.1609 -1.1771  1.5190
 5405SOL    HW227678   3.178   4.437   7.177  0.0416 -2.0196 -1.0255
 5406SOL     OW27679   3.130   2.521   3.776  0.5535  0.0537  0.1330
 5406SOL    HW127680   3.155   2.432   3.749 -1.1848  0.2864 -2.2116
 5406SOL    HW227681   3.217   2.559   3.767  0.5193  0.1615  0.2533
 5407SOL     OW27682   0.230   3.806  13.696 -0.6204  0.3549  0.3132
 5407SOL    HW127683   0.255   3.806  13.788 -0.4956 -1.3797  0.2676
 5407SOL    HW227684   0.247   3.716  13.671 -0.8731  0.0170  1.3852
 5408SOL     OW27685   1.837   3.676   4.955  0.8054 -0.2694  0.7570
 5408SOL    HW127686   1.913   3.714   4.998  1.9926 -0.4053 -1.2300
 5408SOL    HW227687   1.820   3.745   4.891 -1.8753 -0.7343  0.9446
 5409SOL     OW27688   0.944   3.006   2.578 -0.2809  0.0008  0.1156
 5409SOL    HW127689   1.021   3.027   2.630  0.1523  1.6835 -1.2133
 5409SOL    HW227690   0.964   2.919   2.544 -0.1681 -0.6129  1.7506
 5410SOL     OW27691   3.642   3.361   2.361 -0.5036  0.3832  0.3137
 5410SOL    HW127692   3.561   3.363   2.413  0.3099  0.2223  1.5974
 5410SOL    HW227693   3.624   3.414   2.283  0.1217 -0.9787 -0.7542
 5411SOL     OW27694   1.439   0.966   1.869  0.0613  0.6052  0.2674
 5411SOL    HW127695   1.417   0.911   1.793 -1.1443  0.4070  0.7615
 5411SOL    HW227696   1.353   0.991   1.903  0.3319  3.0465 -0.7605
 5412SOL     OW27697   0.329   3.305   2.758 -0.0699 -0.3146 -0.3768
 5412SOL    HW127698   0.376   3.375   2.804 -1.6970 -0.6070  1.7634
 5412SOL    HW227699   0.287   3.264   2.834  0.3874 -2.2727 -1.1839
 5413SOL     OW27700   0.945   1.864  12.865 -0.1991  0.0574  0.0289
 5413SOL    HW127701   0.977   1.911  12.787 -0.4041  0.0664 -0.0513
 5413SOL    HW227702   0.861   1.908  12.882  0.0084  0.1074  0.8817
 5414SOL     OW27703   4.558   0.161   4.232 -0.3191 -0.5133 -0.2277
 5414SOL    HW127704   4.631   0.162   4.293 -0.5840 -2.4965  0.0986
 5414SOL    HW227705   4.575   0.086   4.176  1.2163 -0.9368  0.8171
 5415SOL     OW27706   3.980   1.361  13.179  0.0073 -0.2847  0.0217
 5415SOL    HW127707   3.901   1.311  13.197  0.4930 -0.3088  2.1158
 5415SOL    HW227708   3.964   1.407  13.097 -1.4099 -0.3645  0.2509
 5416SOL     OW27709   0.342   0.167  16.706 -0.2464  0.0697 -1.1616
 5416SOL    HW127710   0.352   0.172  16.801 -1.9036  0.6892 -1.0214
 5416SOL    HW227711   0.285   0.242  16.690 -0.8444 -0.6331 -2.3566
 5417SOL     OW27712   2.412   0.516  11.540  0.0065  0.4146  0.0536
 5417SOL    HW127713   2.372   0.589  11.586  1.0269  0.4692  0.8487
 5417SOL    HW227714   2.478   0.480  11.600  1.6338  0.8443 -1.4699
 5418SOL     OW27715   3.428   3.647  13.697 -0.5717 -0.0195 -0.0586
 5418SOL    HW127716   3.389   3.646  13.785 -0.4729  0.0248 -0.0151
 5418SOL    HW227717   3.466   3.734  13.706 -0.0411 -0.1261 -1.2903
 5419SOL     OW27718   2.114   2.367   6.198 -0.1594 -0.9374  0.5385
 5419SOL    HW127719   2.019   2.372   6.195 -0.1249 -0.6953 -0.0856
 5419SOL    HW227720   2.127   2.326   6.113  0.0063  0.1207  0.0489
 5420SOL     OW27721   3.903   4.019   6.771  0.8617  0.3116 -0.0137
 5420SOL    HW127722   3.836   4.018   6.839  1.0739 -1.9658  0.1742
 5420SOL    HW227723   3.942   3.935   6.795 -1.6819 -0.8250  0.0632
 5421SOL     OW27724   1.993   4.141  17.665  0.1308  0.2392 -0.9551
 5421SOL    HW127725   1.902   4.112  17.676  0.8820 -1.7035  0.0944
 5421SOL    HW227726   1.986   4.221   0.019 -0.9631 -1.3467  1.3570
 5422SOL     OW27727   1.394   2.384  11.962  0.5778  0.2566 -0.1250
 5422SOL    HW127728   1.422   2.475  11.958 -1.3938  0.8012 -1.5070
 5422SOL    HW227729   1.385   2.353  11.872  0.0233  0.0254  0.0044
 5423SOL     OW27730   2.533   3.558  16.196  0.4004 -0.1523 -0.0078
 5423SOL    HW127731   2.541   3.528  16.105 -0.2277 -1.5394  0.4062
 5423SOL    HW227732   2.612   3.611  16.191  0.5264 -0.5906 -2.6809
 5424SOL     OW27733   3.382   1.349   2.364  0.3433  0.0948 -0.5401
 5424SOL    HW127734   3.372   1.278   2.428  2.0063 -0.1254 -0.5247
 5424SOL    HW227735   3.372   1.299   2.283  1.5049  0.3913 -0.8649
 5425SOL     OW27736   4.145   4.044   0.218 -0.0071  0.2299  0.4484
 5425SOL    HW127737   4.231   4.015   0.251 -0.0311  0.1426  0.4326
 5425SOL    HW227738   4.116   3.975   0.159  0.6214  0.1491  0.2294
 5426SOL     OW27739   2.365   1.031   7.568 -0.3567 -0.5406 -0.0490
 5426SOL    HW127740   2.324   0.949   7.540  2.3028 -1.8783 -0.0888
 5426SOL    HW227741   2.300   1.071   7.625  0.2719  0.0144  0.2751
 5427SOL     OW27742   1.369   0.286  12.052 -0.4586  0.6378  0.1821
 5427SOL    HW127743   1.349   0.374  12.019 -4.5064 -0.1750  0.4569
 5427SOL    HW227744   1.462   0.287  12.030 -0.7255 -2.3552 -1.0424
 5428SOL     OW27745   1.324   0.124   1.971  0.3916  0.3729  0.5781
 5428SOL    HW127746   1.324   0.118   1.875  0.1463 -0.3954  0.6240
 5428SOL    HW227747   1.234   0.111   2.001 -0.1189  1.5988 -0.3987
 5429SOL     OW27748   4.355   4.692   2.568 -0.3099 -0.0381  0.1495
 5429SOL    HW127749   4.289   4.664   2.631 -1.1694  0.9420 -0.3048
 5429SOL    HW227750   4.314   0.042   2.523  0.7854  0.1203 -0.5863
 5430SOL     OW27751   1.755   4.664   8.468 -0.4115  0.2603  0.1754
 5430SOL    HW127752   1.742   4.584   8.520 -1.8864  0.3894  0.0163
 5430SOL    HW227753   1.728   0.001   8.537  1.6502 -0.6573  1.7995
 5431SOL     OW27754   3.141   3.520   8.466 -0.1614 -0.2873 -0.7774
 5431SOL    HW127755   3.101   3.602   8.438 -2.6184 -1.7680 -1.5753
 5431SOL    HW227756   3.235   3.534   8.454 -0.9552  1.8096 -4.4723
 5432SOL     OW27757   4.162   0.806   4.463 -0.1868 -0.0135  0.5070
 5432SOL    HW127758   4.202   0.750   4.529  0.7705  1.2317  0.9894
 5432SOL    HW227759   4.126   0.869   4.526 -4.1168 -1.0080 -0.6958
 5433SOL     OW27760   2.499   4.482  12.441 -0.0710 -0.4119 -0.0761
 5433SOL    HW127761   2.443   4.443  12.509 -0.2954  1.1951  0.6576
 5433SOL    HW227762   2.434   4.474  12.371  0.6379  1.4585 -0.9317
 5434SOL     OW27763   0.070   0.606   4.501  0.1077 -0.1679 -0.3408
 5434SOL    HW127764   0.153   0.636   4.463 -0.8115  0.0264 -2.1925
 5434SOL    HW227765   0.037   0.554   4.428 -3.5093  0.4832  0.8293
 5435SOL     OW27766   1.285   4.364   1.381 -0.1088 -0.0033 -0.2156
 5435SOL    HW127767   1.225   4.306   1.332 -0.9848  2.0775 -1.5990
 5435SOL    HW227768   1.239   4.446   1.363 -0.6678  0.4578  3.4582
 5436SOL     OW27769   3.550   4.439  16.955  0.5135 -0.1089 -0.2307
 5436SOL    HW127770   3.556   4.533  16.971 -1.6757 -0.0805  0.3793
 5436SOL    HW227771   3.491   4.428  17.030 -1.2552 -1.9817 -1.9022
 5437SOL     OW27772   2.111   3.912   4.413 -0.1991  0.2636  0.1767
 5437SOL    HW127773   2.038   3.884   4.358 -1.1247 -0.0628  1.5795
 5437SOL    HW227774   2.149   3.968   4.345  0.7474 -1.1662 -0.4852
 5438SOL     OW27775   2.977   0.243  14.086  0.2802  0.4670 -0.4117
 5438SOL    HW127776   2.948   0.288  14.166 -1.2796 -0.8981 -0.2143
 5438SOL    HW227777   2.979   0.152  14.115 -2.5518  1.4214  2.7430
 5439SOL     OW27778   2.810   0.974   5.617 -0.1355 -0.4604  0.1072
 5439SOL    HW127779   2.837   1.066   5.617  2.4278 -1.2124  1.2538
 5439SOL    HW227780   2.738   0.976   5.554 -1.4307 -0.9294  1.5650
 5440SOL     OW27781   4.391   2.718   7.043 -0.2588 -0.0018  0.2662
 5440SOL    HW127782   4.419   2.748   6.957 -0.8150  0.8412  0.3822
 5440SOL    HW227783   4.418   2.626   7.043  0.2710  0.1556 -0.0887
 5441SOL     OW27784   2.514   0.273   3.124 -0.0671 -0.2651 -0.2524
 5441SOL    HW127785   2.510   0.196   3.068 -1.6126  0.4345 -1.0910
 5441SOL    HW227786   2.581   0.329   3.084  1.3442 -0.0447  2.4479
 5442SOL     OW27787   1.677   1.070   4.826  0.2891 -0.2499  0.1312
 5442SOL    HW127788   1.613   1.062   4.756  0.4778 -0.0124 -0.0661
 5442SOL    HW227789   1.759   1.037   4.790 -0.4145 -1.5772 -0.2676
 5443SOL     OW27790   4.237   4.429   7.321 -0.2510 -0.2208 -0.3549
 5443SOL    HW127791   4.162   4.487   7.313 -1.0377 -1.4077 -1.5510
 5443SOL    HW227792   4.287   4.475   7.388  1.2733 -1.1948 -0.8227
 5444SOL     OW27793   3.585   3.945  16.610 -0.2961 -0.3092  0.1542
 5444SOL    HW127794   3.500   3.978  16.581 -0.0505  1.0813  1.0228
 5444SOL    HW227795   3.584   3.991  16.693  2.9097 -0.3058  0.2075
 5445SOL     OW27796   2.992   0.889   9.306  0.4858 -0.5659  0.0456
 5445SOL    HW127797   3.075   0.851   9.334 -0.3633 -2.2022  0.3497
 5445SOL    HW227798   3.033   0.917   9.224  0.7424 -1.1310 -0.0188
 5446SOL     OW27799   2.853   3.940   8.148  0.3600 -0.7411  0.1722
 5446SOL    HW127800   2.776   3.992   8.123  0.4293 -0.3007  0.8551
 5446SOL    HW227801   2.876   3.982   8.232 -2.2150 -0.4666  0.7489
 5447SOL     OW27802   0.386   0.282   8.386 -0.1321  0.1509  0.2768
 5447SOL    HW127803   0.427   0.267   8.471 -0.1313 -0.6045  0.1431
 5447SOL    HW227804   0.418   0.218   8.323 -2.2037  0.1742 -0.8079
 5448SOL     OW27805   2.178   0.170   9.278 -0.0623 -0.2325 -0.2833
 5448SOL    HW127806   2.268   0.167   9.312  0.5762  0.0897 -1.9244
 5448SOL    HW227807   2.185   0.245   9.218  1.2035 -1.3903 -1.5856
 5449SOL     OW27808   0.834   3.709   7.176 -0.1539 -0.1899 -0.7863
 5449SOL    HW127809   0.787   3.783   7.215 -3.3403 -1.8354 -1.4644
 5449SOL    HW227810   0.771   3.638   7.189 -0.0982 -0.3092 -1.1898
 5450SOL     OW27811   3.581   2.148   8.034 -0.2050  0.1395  0.0913
 5450SOL    HW127812   3.652   2.096   7.996  1.1526  1.3272  0.9976
 5450SOL    HW227813   3.614   2.154   8.124  0.4803  0.5593 -0.1850
 5451SOL     OW27814   3.344   3.008  15.313  0.4317  0.1726  0.3883
 5451SOL    HW127815   3.347   2.921  15.274  0.2186  0.2592  0.1817
 5451SOL    HW227816   3.258   3.012  15.355  0.9854  1.1987  1.4421
 5452SOL     OW27817   1.429   1.985  15.704  0.7393 -0.0061 -0.6276
 5452SOL    HW127818   1.493   1.925  15.742  0.3273  0.2638  0.5303
 5452SOL    HW227819   1.429   2.059  15.765 -0.1926  1.1437 -2.0305
 5453SOL     OW27820   0.562   0.878   8.072 -0.4545 -0.1660  0.5765
 5453SOL    HW127821   0.566   0.812   8.141 -0.9050  0.5425  1.2807
 5453SOL    HW227822   0.537   0.949   8.131  0.2652 -0.0600  0.7561
 5454SOL     OW27823   1.434   0.596   7.983  0.0095  0.2369  0.0093
 5454SOL    HW127824   1.528   0.591   7.962  0.1137  1.2689  0.2663
 5454SOL    HW227825   1.397   0.521   7.935 -1.6014  0.5715  0.7400
 5455SOL     OW27826   2.643   0.302  12.659 -0.1908  0.1919  0.3894
 5455SOL    HW127827   2.714   0.240  12.639  0.4596  1.1805 -0.3877
 5455SOL    HW227828   2.619   0.318  12.567  1.0437 -0.5689 -0.0695
 5456SOL     OW27829   2.826   1.851  17.643  0.2077 -0.2937  0.0889
 5456SOL    HW127830   2.826   1.802  17.561  0.9997 -2.7307  1.5516
 5456SOL    HW227831   2.790   1.787   0.006  0.5030 -1.9608 -1.4896
 5457SOL     OW27832   1.528   3.081   6.485 -0.0858  0.2872 -0.2770
 5457SOL    HW127833   1.568   3.156   6.529  1.9785 -0.2934 -1.1553
 5457SOL    HW227834   1.532   3.125   6.400  0.6606  1.4457  0.3570
 5458SOL     OW27835   4.357   3.757  15.761  0.7077 -0.4580 -0.4723
 5458SOL    HW127836   4.360   3.852  15.751 -1.8675 -0.5781 -2.3608
 5458SOL    HW227837   4.292   3.750  15.692  1.3884  2.4916 -1.3701
 5459SOL     OW27838   1.199   3.226   7.443 -0.0165 -0.2275  0.1890
 5459SOL    HW127839   1.271   3.231   7.505 -0.1485  2.6770  0.1073
 5459SOL    HW227840   1.125   3.278   7.476  1.6498  2.3750 -0.1938
 5460SOL     OW27841   1.647   3.179  15.319 -0.2280 -0.4055  0.3501
 5460SOL    HW127842   1.724   3.137  15.358 -0.4622  0.2332  1.5115
 5460SOL    HW227843   1.654   3.262  15.366  2.3571 -0.5581  0.2431
 5461SOL     OW27844   2.737   2.887   8.343 -0.0592  0.4255  0.2287
 5461SOL    HW127845   2.650   2.861   8.314  0.0460 -0.2766  0.5537
 5461SOL    HW227846   2.752   2.809   8.396  2.3364  1.1825  0.6679
 5462SOL     OW27847   0.843   4.653   2.210  0.2748 -0.0232 -0.1122
 5462SOL    HW127848   0.781   0.001   2.201 -0.6793 -0.5162  2.5261
 5462SOL    HW227849   0.834   4.598   2.132 -1.0905  2.0496 -1.4204
 5463SOL     OW27850   3.227   1.442   3.346  0.4095  0.1326  0.0252
 5463SOL    HW127851   3.237   1.380   3.274  0.2225  0.6705 -0.4638
 5463SOL    HW227852   3.158   1.403   3.401  1.6008 -0.4656  1.1075
 5464SOL     OW27853   4.001   2.534   6.210 -0.7293  0.1737  0.3476
 5464SOL    HW127854   4.047   2.499   6.134  0.1846  0.4951  0.7529
 5464SOL    HW227855   4.046   2.487   6.281 -1.3183 -2.7231 -1.1724
 5465SOL     OW27856   4.220   1.297   5.643  0.1846  0.0360 -0.1228
 5465SOL    HW127857   4.207   1.322   5.551  1.0402 -1.8477 -0.7678
 5465SOL    HW227858   4.249   1.379   5.681 -1.1919  0.3088  0.3264
 5466SOL     OW27859   3.357   1.697   3.990 -0.0782 -0.4478 -0.8547
 5466SOL    HW127860   3.315   1.778   3.961 -2.5091 -0.5759  2.3810
 5466SOL    HW227861   3.434   1.698   3.933  0.1509  0.4454 -0.5377
 5467SOL     OW27862   0.119   3.097  13.520 -0.5877  0.1383 -0.3911
 5467SOL    HW127863   0.115   3.059  13.432 -1.7938  0.7635 -0.6099
 5467SOL    HW227864   0.087   3.187  13.513 -1.2397 -0.1167 -0.7155
 5468SOL     OW27865   4.693   2.210   0.628  0.4361  0.5200  0.2324
 5468SOL    HW127866   0.060   2.221   0.601  0.6920  3.1863  2.3168
 5468SOL    HW227867   4.682   2.281   0.690 -2.1897 -0.2276  0.6208
 5469SOL     OW27868   0.272   2.567  14.690  0.1711 -0.1312  0.8707
 5469SOL    HW127869   0.263   2.644  14.634  0.8508  1.0176  2.3315
 5469SOL    HW227870   0.328   2.505  14.644 -1.2461 -0.1534 -0.8530
 5470SOL     OW27871   3.948   4.607  10.329 -0.0502 -0.0374  0.8110
 5470SOL    HW127872   3.857   4.579  10.341 -0.4814  0.0358 -2.2929
 5470SOL    HW227873   3.946   4.702  10.320  0.7972 -0.1857 -0.8924
 5471SOL     OW27874   1.981   0.619   3.502  0.1534  0.2298 -0.6399
 5471SOL    HW127875   1.962   0.527   3.486 -1.7263  0.4403  0.4405
 5471SOL    HW227876   1.895   0.661   3.505 -0.3118 -0.6607 -1.4541
 5472SOL     OW27877   3.471   2.943  13.862  0.2820 -0.1146  0.0386
 5472SOL    HW127878   3.443   3.013  13.921  0.6698  1.2565 -1.3788
 5472SOL    HW227879   3.478   2.998  13.783 -0.2881  1.5492  1.1401
 5473SOL     OW27880   1.285   3.186   1.375  0.4279  0.9796  0.0857
 5473SOL    HW127881   1.230   3.175   1.452  1.1513  2.2468  0.7877
 5473SOL    HW227882   1.367   3.209   1.417  2.0705 -0.9322 -2.0586
 5474SOL     OW27883   2.797   0.777   6.774  0.2473  0.3029  0.0655
 5474SOL    HW127884   2.781   0.686   6.747 -1.0462  0.4849  0.2540
 5474SOL    HW227885   2.773   0.820   6.692 -2.2507 -0.4534  0.3925
 5475SOL     OW27886   1.240   0.810  10.788 -0.0483 -0.0565 -0.3338
 5475SOL    HW127887   1.287   0.787  10.707  2.0772 -4.4873  2.1832
 5475SOL    HW227888   1.269   0.737  10.843  0.9442  0.3483 -0.3167
 5476SOL     OW27889   0.365   0.946   7.520  0.1403 -0.1995 -0.1704
 5476SOL    HW127890   0.409   0.932   7.603 -0.6999  1.7439  0.5928
 5476SOL    HW227891   0.296   0.999   7.560  0.4254  1.0618 -1.3538
 5477SOL     OW27892   3.952   2.950  16.173  0.2275 -0.0857  0.3769
 5477SOL    HW127893   3.959   3.043  16.153  0.5721 -0.5346 -1.6093
 5477SOL    HW227894   3.859   2.943  16.150  0.0152  0.8672  0.9649
 5478SOL     OW27895   1.629   1.957   3.137  0.7255  0.4233 -0.6032
 5478SOL    HW127896   1.602   2.008   3.061  1.4025 -0.0449 -1.1483
 5478SOL    HW227897   1.551   1.939   3.190  0.9853  0.4274 -0.2123
 5479SOL     OW27898   0.575   0.495  12.173  0.4530  0.1158 -0.4940
 5479SOL    HW127899   0.612   0.581  12.197 -0.1031 -0.3228  1.9577
 5479SOL    HW227900   0.548   0.500  12.082 -0.3357  0.9157 -0.2137
 5480SOL     OW27901   0.781   3.733   2.530  0.6665  0.1998  0.1463
 5480SOL    HW127902   0.874   3.743   2.551  0.6391  0.3952  0.1711
 5480SOL    HW227903   0.773   3.648   2.572  2.0983 -1.5314 -3.0726
 5481SOL     OW27904   0.126   4.017   6.370 -0.2768  0.4377 -0.4295
 5481SOL    HW127905   0.041   4.015   6.415 -0.3893 -1.9458 -0.7035
 5481SOL    HW227906   0.183   4.017   6.447 -1.4547 -1.4910  0.4648
 5482SOL     OW27907   4.705   4.685  10.006 -0.2679 -0.1773 -0.2827
 5482SOL    HW127908   4.668   4.634   9.933  0.3699  0.8549 -1.3253
 5482SOL    HW227909   0.068   4.699   9.968  1.1429 -0.5374  2.8358
 5483SOL     OW27910   1.757   2.753   7.954  0.1930 -0.0447 -0.0598
 5483SOL    HW127911   1.750   2.728   8.047 -1.2407  1.2065  0.1663
 5483SOL    HW227912   1.704   2.832   7.945  0.4580  0.0014 -1.2145
 5484SOL     OW27913   1.514   4.555   7.339 -0.0228  0.2980  0.3850
 5484SOL    HW127914   1.433   4.567   7.389  0.7301 -0.8756  1.9024
 5484SOL    HW227915   1.531   4.462   7.358 -2.4659  0.0378  1.2744
 5485SOL     OW27916   3.960   1.023  13.072  0.1817  0.5236 -0.6815
 5485SOL    HW127917   3.904   1.098  13.052 -1.2836 -0.4183 -0.0861
 5485SOL    HW227918   3.995   0.999  12.986 -0.1527 -0.0749 -0.6494
 5486SOL     OW27919   2.190   1.374   8.462  0.0949  0.3940  0.1849
 5486SOL    HW127920   2.272   1.420   8.442  0.5199 -0.0899  0.8139
 5486SOL    HW227921   2.209   1.307   8.528  2.0371 -0.6213 -1.3981
 5487SOL     OW27922   2.515   3.021   4.239  0.3750  0.1258  0.5394
 5487SOL    HW127923   2.481   2.956   4.177  1.8722  1.0125 -1.2062
 5487SOL    HW227924   2.450   3.090   4.229 -0.1722 -0.4267  0.2618
 5488SOL     OW27925   1.143   1.825  16.556  0.2589  0.1765 -0.6168
 5488SOL    HW127926   1.100   1.763  16.498  0.6777  0.1787 -0.9273
 5488SOL    HW227927   1.227   1.783  16.575 -0.9011 -1.6387  0.4208
 5489SOL     OW27928   4.302   4.705   6.607 -0.2612 -0.7362 -0.0516
 5489SOL    HW127929   4.396   4.722   6.597 -0.4295  0.3625  0.1609
 5489SOL    HW227930   4.275   0.001   6.517 -1.2932  0.7248  0.5682
 5490SOL     OW27931   2.453   1.443   4.127 -0.3716 -0.3190 -0.6673
 5490SOL    HW127932   2.382   1.385   4.100 -0.7219 -0.5131  0.6511
 5490SOL    HW227933   2.393   1.512   4.152  0.6985  0.3052  0.1940
 5491SOL     OW27934   2.728   4.415   2.781  0.0816  0.0595 -0.4620
 5491SOL    HW127935   2.795   4.481   2.762  0.6917 -0.1213  1.0799
 5491SOL    HW227936   2.779   4.340   2.811 -0.8810 -1.1352 -1.8163
 5492SOL     OW27937   3.689   2.305   7.328 -0.1120  0.3772  0.2568
 5492SOL    HW127938   3.683   2.343   7.415 -0.5468 -1.1150  0.8749
 5492SOL    HW227939   3.667   2.218   7.361 -2.5268  0.2200 -1.7902
 5493SOL     OW27940   0.880   2.110   5.191 -0.5713 -0.1066 -0.0567
 5493SOL    HW127941   0.918   2.116   5.104  0.9304 -0.1984  0.6044
 5493SOL    HW227942   0.819   2.184   5.196 -0.7696 -0.3144  0.7296
 5494SOL     OW27943   3.611   4.612   2.081 -0.0547  0.0161  0.5505
 5494SOL    HW127944   3.557   4.540   2.052  0.6938 -1.1416  2.0350
 5494SOL    HW227945   3.691   4.591   2.034  0.1017  1.6000  0.0904
 5495SOL     OW27946   3.285   3.808   5.277 -0.5209 -0.2194 -0.0877
 5495SOL    HW127947   3.271   3.900   5.298  1.7469  0.2281 -0.5543
 5495SOL    HW227948   3.212   3.776   5.329 -1.3950  1.7082 -0.1477
 5496SOL     OW27949   3.551   2.317  13.892 -0.1454  0.3378  0.3463
 5496SOL    HW127950   3.537   2.375  13.818  0.6526  1.1523  0.8275
 5496SOL    HW227951   3.464   2.306  13.930 -1.1781  2.4776 -1.4526
 5497SOL     OW27952   2.457   1.437   4.500  0.4701 -0.5367  0.1110
 5497SOL    HW127953   2.518   1.491   4.450  2.6939 -0.1771  3.2260
 5497SOL    HW227954   2.507   1.355   4.504  1.7946  0.2931  0.3762
 5498SOL     OW27955   4.303   2.872  12.370 -0.2391 -0.1247  0.2781
 5498SOL    HW127956   4.210   2.895  12.367 -0.5067 -1.1143  0.9723
 5498SOL    HW227957   4.333   2.932  12.438 -0.0981  0.2620 -0.1225
 5499SOL     OW27958   2.820   1.556   0.276  0.1716  0.4262 -0.5625
 5499SOL    HW127959   2.910   1.557   0.308  0.0435  1.9223 -0.2431
 5499SOL    HW227960   2.763   1.553   0.353  1.4733 -1.3229  0.3019
 5500SOL     OW27961   0.081   3.351   1.997 -0.0826  0.4661  0.3604
 5500SOL    HW127962   0.042   3.264   2.000  0.0596  0.3432 -1.4020
 5500SOL    HW227963   0.007   3.413   1.999  0.2409  0.8975 -1.9922
 5501SOL     OW27964   2.220   2.563   5.000  0.0320 -0.0235  0.5586
 5501SOL    HW127965   2.296   2.557   4.942 -2.4992  0.2523 -2.7942
 5501SOL    HW227966   2.229   2.484   5.053  2.0637  0.2292  0.5935
 5502SOL     OW27967   1.367   2.161   7.848 -0.0947 -0.3118 -0.1843
 5502SOL    HW127968   1.404   2.228   7.791  2.3887 -1.2381  0.3521
 5502SOL    HW227969   1.447   2.115   7.874  0.2793  0.0064 -0.7944
 5503SOL     OW27970   2.178   2.322   4.628 -0.4923 -0.1395 -0.3522
 5503SOL    HW127971   2.090   2.297   4.599 -0.4178  0.0653 -0.7432
 5503SOL    HW227972   2.150   2.380   4.699 -0.7941 -1.5224  0.6681
 5504SOL     OW27973   1.007   2.990  11.899 -0.0635  0.0240  0.1909
 5504SOL    HW127974   0.980   3.081  11.885 -0.4422 -0.2948 -1.1411
 5504SOL    HW227975   0.952   2.960  11.971  1.3394  0.3170  1.3934
 5505SOL     OW27976   2.103   4.115  11.062  0.6367  0.2004 -0.2130
 5505SOL    HW127977   2.021   4.125  11.109 -0.4204  0.9127 -2.1906
 5505SOL    HW227978   2.155   4.192  11.083 -0.0887  0.2199  1.4905
 5506SOL     OW27979   3.920   3.048  15.461  0.1050  0.1770  0.0316
 5506SOL    HW127980   3.986   3.023  15.524  2.8213  2.1107 -2.0549
 5506SOL    HW227981   3.931   3.139  15.432  0.4012 -0.0846 -0.6837
 5507SOL     OW27982   1.858   4.276   5.601  0.5293 -0.0816 -0.9362
 5507SOL    HW127983   1.927   4.337   5.575  0.0586  0.1823 -1.5595
 5507SOL    HW227984   1.887   4.241   5.686  0.0397  0.7054 -0.4456
 5508SOL     OW27985   2.130   3.926   7.568 -0.6205 -0.1224  0.4266
 5508SOL    HW127986   2.184   4.001   7.592 -1.5766  0.6308  0.2532
 5508SOL    HW227987   2.161   3.906   7.480  1.8313  0.6775  1.1094
 5509SOL     OW27988   3.826   3.180   7.688  0.1743 -0.2961  0.8074
 5509SOL    HW127989   3.803   3.244   7.621 -0.5234 -1.4195 -0.0187
 5509SOL    HW227990   3.846   3.243   7.758 -0.5037  0.3941  0.3717
 5510SOL     OW27991   2.805   3.076   5.776 -0.1200  0.2231 -0.6354
 5510SOL    HW127992   2.821   3.121   5.692 -0.0447  0.9311 -0.2402
 5510SOL    HW227993   2.803   2.986   5.744 -0.4528  1.2238 -3.4488
 5511SOL     OW27994   1.036   4.443   7.754  0.1690  0.4183 -0.0738
 5511SOL    HW127995   0.940   4.439   7.759  0.0908  1.1678 -1.1079
 5511SOL    HW227996   1.049   4.457   7.848 -1.3519  2.6183 -0.1831
 5512SOL     OW27997   2.438   1.375   2.800 -0.4017  0.2193  0.1517
 5512SOL    HW127998   2.400   1.425   2.873  0.7998 -0.0867  0.9832
 5512SOL    HW227999   2.434   1.284   2.829 -0.3976 -0.3221 -1.5510
 5513SOL     OW28000   0.692   0.049  17.235 -0.0651  0.8656 -0.1991
 5513SOL    HW128001   0.783   0.024  17.250  0.4199  2.7158 -0.0541
 5513SOL    HW228002   0.695   0.140  17.265 -0.3139  0.2506  1.6928
 5514SOL     OW28003   2.835   3.998  11.459  0.2156 -0.2454  0.2483
 5514SOL    HW128004   2.891   3.981  11.535  1.3989 -0.3497 -0.6550
 5514SOL    HW228005   2.755   4.017  11.508 -0.8187 -0.0107 -1.5523
 5515SOL     OW28006   3.244   4.632   7.757 -0.3193 -0.1913 -0.5329
 5515SOL    HW128007   3.198   4.713   7.776  1.1821 -0.1291  2.8277
 5515SOL    HW228008   3.306   4.650   7.687 -1.6061 -0.3183 -1.7066
 5516SOL     OW28009   3.836   0.493   9.905  0.2376  0.3682  0.1361
 5516SOL    HW128010   3.890   0.571   9.891 -0.0344  0.2351 -1.7066
 5516SOL    HW228011   3.900   0.421   9.905  0.1277  0.2765  1.0268
 5517SOL     OW28012   0.257   1.439   6.708  0.5019 -0.0192  0.6102
 5517SOL    HW128013   0.274   1.367   6.646  1.9440  1.6524 -0.9171
 5517SOL    HW228014   0.162   1.423   6.712  0.0381  2.6790 -0.0329
 5518SOL     OW28015   4.620   0.815   6.501  0.3482 -0.0184 -0.2124
 5518SOL    HW128016   4.556   0.802   6.431 -0.8253  2.9339  0.3346
 5518SOL    HW228017   4.563   0.813   6.579 -0.0330  0.0624 -0.4887
 5519SOL     OW28018   4.245   0.330   4.941 -0.2442 -0.4205 -0.1030
 5519SOL    HW128019   4.200   0.278   5.007 -3.0224  0.5767 -1.2123
 5519SOL    HW228020   4.199   0.414   4.945  0.8893  0.2406 -0.9867
 5520SOL     OW28021   2.721   3.555   6.476  0.1002 -0.0946 -0.4219
 5520SOL    HW128022   2.659   3.486   6.453 -1.3128  0.5911  1.3242
 5520SOL    HW228023   2.764   3.522   6.555 -0.6173  0.2941  0.1298
 5521SOL     OW28024   0.644   4.360  16.637 -0.3259 -0.1253  0.0586
 5521SOL    HW128025   0.726   4.365  16.686 -1.1762  0.0724  1.4521
 5521SOL    HW228026   0.653   4.439  16.584 -1.0517  0.6996  1.1655
 5522SOL     OW28027   4.237   1.503   8.550  0.2934 -0.3789 -0.2313
 5522SOL    HW128028   4.277   1.420   8.573  1.5079  0.4186  0.5000
 5522SOL    HW228029   4.297   1.535   8.483  0.4796 -0.9806 -0.3537
 5523SOL     OW28030   3.124   2.694   1.180  0.1276 -0.2103  0.3182
 5523SOL    HW128031   3.147   2.604   1.203 -0.4092 -0.2630  0.6530
 5523SOL    HW228032   3.049   2.680   1.122  1.2119 -2.8508 -0.4644
 5524SOL     OW28033   4.405   4.703  11.723 -0.2907  0.4088 -0.7257
 5524SOL    HW128034   4.421   4.663  11.808  0.5085 -2.3995 -2.2068
 5524SOL    HW228035   4.486   0.025  11.699 -1.6318  1.9962 -2.2197
 5525SOL     OW28036   3.634   2.190   3.319  0.1415  0.0114  0.0551
 5525SOL    HW128037   3.717   2.142   3.315  0.9697  1.3796  0.8020
 5525SOL    HW228038   3.575   2.132   3.270  1.1611 -1.1964  0.2558
 5526SOL     OW28039   2.674   0.222   9.390  0.2536  0.2077  0.4587
 5526SOL    HW128040   2.687   0.128   9.383 -1.7204 -0.0848  0.6749
 5526SOL    HW228041   2.735   0.259   9.326 -0.9273 -1.4804 -1.6298
 5527SOL     OW28042   1.908   1.262   3.647 -0.3783  0.6116 -0.1056
 5527SOL    HW128043   1.943   1.187   3.599 -1.0203  0.1478  0.1619
 5527SOL    HW228044   1.932   1.337   3.593  0.4821 -1.0984 -2.0897
 5528SOL     OW28045   3.898   0.884   0.334  0.7618  0.7760  0.1056
 5528SOL    HW128046   3.965   0.831   0.291  0.0969 -0.8069  1.0112
 5528SOL    HW228047   3.891   0.844   0.420  0.5086  1.1536  0.2637
 5529SOL     OW28048   2.139   1.198  10.921 -0.2106 -0.0408 -0.0512
 5529SOL    HW128049   2.184   1.195  10.836  2.8978 -1.4889  1.6683
 5529SOL    HW228050   2.052   1.191  10.881 -0.9206 -0.2419  1.5448
 5530SOL     OW28051   1.419   3.244  10.887 -0.2324  0.2472 -0.0239
 5530SOL    HW128052   1.506   3.269  10.856  0.1809  0.4995  1.3405
 5530SOL    HW228053   1.445   3.165  10.935  0.0198  0.0961 -0.4114
 5531SOL     OW28054   2.595   0.042   6.767  0.7519  0.2302  0.2171
 5531SOL    HW128055   2.568   4.674   6.761  1.3276  0.1023 -0.3675
 5531SOL    HW228056   2.550   0.067   6.847  2.1755 -0.7347  1.3288
 5532SOL     OW28057   0.755   2.890   9.119 -0.1648  0.0009  0.7033
 5532SOL    HW128058   0.749   2.847   9.204 -0.6973  1.0916  1.2235
 5532SOL    HW228059   0.733   2.818   9.060 -0.2826 -0.2956  1.1131
 5533SOL     OW28060   2.191   3.318   3.322 -0.0207 -0.0171 -0.3663
 5533SOL    HW128061   2.222   3.292   3.235 -0.3268 -0.0746 -0.4611
 5533SOL    HW228062   2.181   3.233   3.364 -1.0375  1.6855  2.8680
 5534SOL     OW28063   3.242   4.169  16.820 -0.3045  0.2532 -0.4674
 5534SOL    HW128064   3.280   4.180  16.733  0.9268 -0.8933 -0.0767
 5534SOL    HW228065   3.151   4.155  16.796 -0.4247  0.3905 -0.1019
 5535SOL     OW28066   3.009   2.100   4.602  0.0029  0.0759  0.4835
 5535SOL    HW128067   2.918   2.121   4.625 -1.3386 -2.9047 -1.9849
 5535SOL    HW228068   3.009   2.140   4.516  0.6096  3.3418  2.0167
 5536SOL     OW28069   4.497   0.933   8.010  0.5678  0.0768  0.0410
 5536SOL    HW128070   4.472   1.011   8.061  1.8108  0.9895 -0.7482
 5536SOL    HW228071   4.568   0.896   8.062 -0.0441  1.2216  1.6914
 5537SOL     OW28072   3.303   0.244   6.279  0.5050 -0.4076 -0.1362
 5537SOL    HW128073   3.372   0.192   6.237  0.7816  0.1473 -0.3815
 5537SOL    HW228074   3.346   0.330   6.273 -0.2835  0.0169  0.3652
 5538SOL     OW28075   2.154   3.517  11.775  0.2181  0.0374  0.3862
 5538SOL    HW128076   2.186   3.526  11.685 -0.2994  0.1654  0.2139
 5538SOL    HW228077   2.236   3.497  11.819  0.8625  1.0245 -0.3524
 5539SOL     OW28078   1.187   1.083   1.956 -0.1867 -0.1205 -0.0822
 5539SOL    HW128079   1.142   1.000   1.940  0.8194 -0.8476  0.8639
 5539SOL    HW228080   1.170   1.128   1.873  0.3571  1.3871  0.6106
 5540SOL     OW28081   4.358   3.238   6.689 -0.2321  0.1583  0.0962
 5540SOL    HW128082   4.447   3.205   6.676 -0.4969 -0.7020  0.4645
 5540SOL    HW228083   4.369   3.322   6.734 -0.9036 -0.4049  1.3012
 5541SOL     OW28084   2.980   4.211   7.165 -0.6069  0.2017 -0.1139
 5541SOL    HW128085   2.912   4.255   7.216  1.2897 -0.1821  2.7528
 5541SOL    HW228086   2.931   4.135   7.135 -1.8004  2.2565 -3.4188
 5542SOL     OW28087   3.265   3.320   4.722 -0.0527  0.3763 -0.4059
 5542SOL    HW128088   3.234   3.231   4.701  0.7228 -0.2033  0.8929
 5542SOL    HW228089   3.319   3.329   4.643  3.1120 -0.8049  1.6293
 5543SOL     OW28090   0.010   2.771  15.802 -0.1425  0.1847  0.4171
 5543SOL    HW128091   4.687   2.826  15.865 -2.1166 -0.4020 -0.5627
 5543SOL    HW228092   4.668   2.711  15.768 -1.6827  1.4197  1.2621
 5544SOL     OW28093   0.307   2.593  17.555  0.5829 -0.5107  0.5570
 5544SOL    HW128094   0.357   2.629  17.628 -0.8379  0.3444  1.1255
 5544SOL    HW228095   0.337   2.503  17.546 -0.0759 -0.6399 -0.2948
 5545SOL     OW28096   3.310   1.082   4.481  0.1487  0.5274 -0.7405
 5545SOL    HW128097   3.319   1.020   4.409  0.2868 -1.7028  1.2071
 5545SOL    HW228098   3.354   1.162   4.452  0.7479 -0.0998 -1.5566
 5546SOL     OW28099   3.329   0.669   2.559 -0.0879  0.5921 -0.1703
 5546SOL    HW128100   3.293   0.737   2.503 -0.4750 -0.4586 -1.1834
 5546SOL    HW228101   3.338   0.590   2.506 -0.9072 -0.8493  1.8206
 5547SOL     OW28102   0.860   0.227   2.231  0.8853 -0.1527  0.2575
 5547SOL    HW128103   0.888   0.284   2.302 -1.8832 -0.8613  1.9058
 5547SOL    HW228104   0.776   0.260   2.200  0.3444 -1.4907  0.2706
 5548SOL     OW28105   2.376   1.921   2.844 -0.3725 -0.0291  0.0807
 5548SOL    HW128106   2.357   1.966   2.927  0.4059 -0.0854  0.2903
 5548SOL    HW228107   2.306   1.857   2.836  2.0260 -2.6528  0.0977
 5549SOL     OW28108   2.837   3.510   4.630 -0.5264  0.6323  0.2108
 5549SOL    HW128109   2.902   3.476   4.568 -1.6719  1.5420 -1.5013
 5549SOL    HW228110   2.845   3.605   4.620  1.2074  0.5141  0.5016
 5550SOL     OW28111   3.739   2.883  14.963  0.5569  0.1543 -0.2252
 5550SOL    HW128112   3.805   2.814  14.973  1.1035  0.5167 -1.3474
 5550SOL    HW228113   3.733   2.912  15.054 -0.3197 -1.1516  0.1327
 5551SOL     OW28114   2.980   4.153  16.749  0.1997  0.2597  0.0540
 5551SOL    HW128115   2.925   4.075  16.743 -1.0415  1.0613  0.9669
 5551SOL    HW228116   2.940   4.195  16.673  0.4735 -0.2417 -0.3707
 5552SOL     OW28117   0.911   0.672   9.366  0.7842 -0.0874 -0.2692
 5552SOL    HW128118   0.883   0.610   9.299  1.5487 -0.8335  0.1030
 5552SOL    HW228119   0.977   0.619   9.411  2.0829  1.8011  0.0426
 5553SOL     OW28120   1.045   1.207   5.663  0.1823 -0.2061 -0.3891
 5553SOL    HW128121   1.102   1.132   5.676  1.4170  1.0268  1.3173
 5553SOL    HW228122   0.989   1.196   5.740  2.7749  0.6087  1.6036
 5554SOL     OW28123   0.629   0.303   6.755 -0.6193  0.4893  0.0462
 5554SOL    HW128124   0.668   0.215   6.759 -0.2350  0.6049 -1.0663
 5554SOL    HW228125   0.539   0.275   6.740 -0.4325  0.3050 -0.7686
 5555SOL     OW28126   0.522   4.423   5.718  0.4669  0.0445  0.1925
 5555SOL    HW128127   0.455   4.371   5.674 -0.0306  0.4226  0.4948
 5555SOL    HW228128   0.523   4.383   5.805  1.9410  2.5410  1.3419
 5556SOL     OW28129   2.846   1.653   2.552  0.0445  0.3384  0.2863
 5556SOL    HW128130   2.860   1.687   2.640 -0.3207  0.5177  0.2714
 5556SOL    HW228131   2.917   1.694   2.503 -0.6536  0.2146 -0.8323
 5557SOL     OW28132   3.810   3.489   6.493  0.2250  0.2003 -0.2873
 5557SOL    HW128133   3.853   3.405   6.477 -2.5502 -1.6082  1.7966
 5557SOL    HW228134   3.726   3.454   6.462  0.9489 -2.8906  1.2944
 5558SOL     OW28135   1.668   1.216  14.813  0.3676 -0.3716  0.4299
 5558SOL    HW128136   1.579   1.248  14.800  1.4337  1.8411 -1.4425
 5558SOL    HW228137   1.689   1.260  14.895  2.4342  0.5493 -0.6007
 5559SOL     OW28138   1.479   0.998   4.563  0.3105 -0.0097 -0.4221
 5559SOL    HW128139   1.494   0.932   4.631 -0.4231  3.9836  3.6249
 5559SOL    HW228140   1.448   0.940   4.494 -1.2013 -1.4229  1.4508
 5560SOL     OW28141   0.913   2.530   7.847 -0.0472  0.0976  0.3062
 5560SOL    HW128142   0.987   2.556   7.901 -0.3699 -1.5939  1.5890
 5560SOL    HW228143   0.911   2.582   7.767  0.3139 -0.0939  0.1727
 5561SOL     OW28144   0.577   1.883   5.881 -0.0028  0.3677  0.2872
 5561SOL    HW128145   0.611   1.911   5.966 -3.1138 -2.7654  2.5686
 5561SOL    HW228146   0.511   1.821   5.913  0.3015 -0.4807 -0.7319
 5562SOL     OW28147   4.217   2.129  12.075  0.1974 -0.5272  0.0090
 5562SOL    HW128148   4.303   2.098  12.103 -0.5443  0.0436  2.8584
 5562SOL    HW228149   4.184   2.072  12.006 -0.4469 -0.2076  0.0496
 5563SOL     OW28150   4.433   4.057   6.776  0.1549 -0.3647 -0.3377
 5563SOL    HW128151   4.362   4.087   6.720  0.2197 -1.3640 -0.9548
 5563SOL    HW228152   4.430   4.134   6.832  1.3400 -0.7079  0.1978
 5564SOL     OW28153   2.633   2.087   7.329  0.4486 -0.0018 -0.2361
 5564SOL    HW128154   2.644   2.115   7.238 -1.1125  1.0899 -0.0978
 5564SOL    HW228155   2.725   2.088   7.357  0.4115 -0.3747 -0.1066
 5565SOL     OW28156   3.410   2.445   1.085  0.3382  0.0087 -0.3203
 5565SOL    HW128157   3.326   2.402   1.099 -0.5245  1.7575 -0.1416
 5565SOL    HW228158   3.381   2.513   1.024  2.4994  0.6974 -0.6025
 5566SOL     OW28159   1.790   2.720   2.257  0.0066  0.1321 -0.6857
 5566SOL    HW128160   1.871   2.768   2.240 -0.8241  1.2073 -1.5890
 5566SOL    HW228161   1.834   2.639   2.281 -0.8031 -0.2899 -0.6198
 5567SOL     OW28162   0.813   1.852   7.042  0.5688 -0.3335  0.4353
 5567SOL    HW128163   0.849   1.802   6.968  1.5114  0.9637  0.0223
 5567SOL    HW228164   0.897   1.880   7.080  0.3794  1.4865 -0.5371
 5568SOL     OW28165   0.946   2.924  16.114 -0.3611 -0.6405  0.3397
 5568SOL    HW128166   1.021   2.864  16.113 -0.7157 -1.1079  1.2633
 5568SOL    HW228167   0.881   2.869  16.071 -1.8310  1.0243  0.4629
 5569SOL     OW28168   3.986   3.317   4.446 -0.8223 -0.0457  0.0581
 5569SOL    HW128169   3.990   3.383   4.377  1.0117  1.3510  1.4736
 5569SOL    HW228170   4.031   3.243   4.405 -0.4265 -1.0699  2.3329
 5570SOL     OW28171   1.475   3.811   2.984 -0.2084  0.1303  0.3363
 5570SOL    HW128172   1.544   3.871   2.955  1.2059 -1.3169  0.7139
 5570SOL    HW228173   1.400   3.835   2.930 -0.1478  0.1148  0.2457
 5571SOL     OW28174   3.803   3.834   3.554  0.3138 -0.5672 -0.0387
 5571SOL    HW128175   3.791   3.893   3.628 -0.1512  1.1383 -1.4831
 5571SOL    HW228176   3.827   3.751   3.595  2.6229  0.3829  0.5075
 5572SOL     OW28177   0.261   4.433   6.302  0.1363 -0.5343  0.3571
 5572SOL    HW128178   0.281   4.433   6.395  0.4112 -1.4009  0.3006
 5572SOL    HW228179   0.191   4.368   6.292 -0.8950  0.4541  1.2766
 5573SOL     OW28180   0.501   2.581   7.336 -0.3862  0.1306 -0.5706
 5573SOL    HW128181   0.504   2.671   7.304  1.0597  0.3509  0.2088
 5573SOL    HW228182   0.412   2.590   7.370  0.0098  0.8637  0.2741
 5574SOL     OW28183   1.345   2.613   7.001  0.4860  0.1079  0.0124
 5574SOL    HW128184   1.437   2.587   7.006  0.3545 -0.0974  1.4722
 5574SOL    HW228185   1.343   2.681   7.069 -0.1687 -2.1630  2.2864
 5575SOL     OW28186   0.902   2.991   3.310  0.4433 -1.2092 -0.0202
 5575SOL    HW128187   0.922   3.080   3.336  0.1686 -1.0252 -0.4258
 5575SOL    HW228188   0.861   2.999   3.223  0.5051 -2.2390 -0.1506
 5576SOL     OW28189   3.634   0.070   7.357 -0.5365 -0.0609 -0.6777
 5576SOL    HW128190   3.707   0.112   7.401 -1.5064  0.2486  0.6345
 5576SOL    HW228191   3.563   0.085   7.419  0.7003  1.5494  0.3411
 5577SOL     OW28192   3.456   1.717   8.014  0.3417  0.1659 -0.4591
 5577SOL    HW128193   3.462   1.792   7.955  0.5710 -0.5782 -1.3769
 5577SOL    HW228194   3.529   1.663   7.987 -0.0006  1.8436 -4.7844
 5578SOL     OW28195   3.839   1.506   3.540  0.3402  0.4446 -0.0927
 5578SOL    HW128196   3.895   1.583   3.541 -2.1852  2.2698  1.1930
 5578SOL    HW228197   3.807   1.513   3.450  0.3301  0.9147 -0.0530
 5579SOL     OW28198   0.347   1.824   4.901 -0.4115  0.3426 -0.0008
 5579SOL    HW128199   0.342   1.773   4.820  0.0675  0.9426 -0.4055
 5579SOL    HW228200   0.284   1.770   4.950 -2.0332  2.1676 -0.0657
 5580SOL     OW28201   4.627   3.624  15.709  0.0553  0.0521 -0.2197
 5580SOL    HW128202   4.568   3.659  15.642 -2.0175 -0.5386  1.2856
 5580SOL    HW228203   4.656   3.540  15.675  0.8681 -0.1697  1.0270
 5581SOL     OW28204   4.634   3.921   4.989 -0.5241  0.3560  0.3204
 5581SOL    HW128205   4.674   4.007   5.003 -0.0399  0.2506 -0.3895
 5581SOL    HW228206   4.709   3.868   5.016 -0.8545 -0.1027  0.3295
 5582SOL     OW28207   1.384   3.251   2.745  0.0233  0.3571 -0.0406
 5582SOL    HW128208   1.407   3.217   2.832 -1.4897  0.3451  0.3411
 5582SOL    HW228209   1.460   3.307   2.728 -0.6108  1.6799  1.4752
 5583SOL     OW28210   3.935   1.665   5.484  0.6169 -0.2902 -0.3053
 5583SOL    HW128211   3.906   1.587   5.437 -0.2064  0.4802 -1.0470
 5583SOL    HW228212   3.961   1.711   5.405 -2.6106  3.0583  0.5874
 5584SOL     OW28213   3.576   1.681   3.845 -0.3073 -0.5068 -0.5588
 5584SOL    HW128214   3.653   1.737   3.845  0.3516 -1.4221 -1.7669
 5584SOL    HW228215   3.566   1.666   3.751 -0.9501  0.7661 -0.6891
 5585SOL     OW28216   1.300   4.533   9.446 -0.0768  0.5262  0.5582
 5585SOL    HW128217   1.379   4.548   9.498  0.5949 -1.5743  0.1674
 5585SOL    HW228218   1.277   4.623   9.421  2.5008  0.3424 -2.5549
 5586SOL     OW28219   1.486   4.110   7.105  0.1046 -0.2691 -0.2768
 5586SOL    HW128220   1.425   4.184   7.101 -1.6934 -1.8820 -2.3044
 5586SOL    HW228221   1.449   4.052   7.172  0.0664  1.2428  1.0126
 5587SOL     OW28222   4.689   2.963  10.895  0.4458  0.0449 -0.1986
 5587SOL    HW128223   4.649   3.042  10.858  2.5526  0.7951 -0.8471
 5587SOL    HW228224   4.615   2.902  10.902  0.4571 -0.2513 -2.5520
 5588SOL     OW28225   4.351   3.093   7.024  0.1495  0.6087 -0.8289
 5588SOL    HW128226   4.432   3.047   7.005 -1.5819 -2.4431 -0.7851
 5588SOL    HW228227   4.389   3.168   7.071 -0.6698 -0.9130  2.2643
 5589SOL     OW28228   3.745   1.504   8.163 -0.1617  0.0452 -0.0285
 5589SOL    HW128229   3.819   1.476   8.217  0.3822  1.3756 -0.0774
 5589SOL    HW228230   3.682   1.433   8.157 -0.6507  0.2480  2.6588
 5590SOL     OW28231   2.359   3.348   5.367 -0.0886  0.4127  0.4376
 5590SOL    HW128232   2.306   3.370   5.443 -1.3864 -0.9245 -0.0867
 5590SOL    HW228233   2.444   3.382   5.394 -0.4466  0.2748  1.7414
 5591SOL     OW28234   1.247   0.211  13.974  0.0615 -0.2209  0.4235
 5591SOL    HW128235   1.203   0.272  13.915  1.3335  1.1260  0.8696
 5591SOL    HW228236   1.322   0.176  13.927 -0.5426  0.1254 -0.7954
 5592SOL     OW28237   3.074   4.526  13.051 -0.6063 -0.0269 -0.0449
 5592SOL    HW128238   3.100   4.434  13.060 -1.2449 -0.3417 -1.4568
 5592SOL    HW228239   3.085   4.535  12.957  1.1227 -0.7611  0.0784
 5593SOL     OW28240   2.810   1.900   6.702  0.2783  0.4670 -0.3011
 5593SOL    HW128241   2.726   1.886   6.746 -1.1520  1.7198 -2.6102
 5593SOL    HW228242   2.841   1.988   6.726 -0.2832  0.7254 -0.5263
 5594SOL     OW28243   1.110   3.732   7.185  0.8119 -0.5879 -0.6816
 5594SOL    HW128244   1.032   3.740   7.240  1.8864  2.2150  0.4163
 5594SOL    HW228245   1.149   3.660   7.235  0.5749 -0.9917 -1.0834
 5595SOL     OW28246   2.688   0.259   6.193  0.2529 -0.9973 -0.2150
 5595SOL    HW128247   2.631   0.315   6.246  1.9610  1.9363 -1.4986
 5595SOL    HW228248   2.673   0.179   6.244  1.4679 -0.2709  1.2988
 5596SOL     OW28249   1.003   0.195   4.332  0.2357  0.2229  0.0623
 5596SOL    HW128250   1.006   0.224   4.423 -0.9908 -0.8176  0.4356
 5596SOL    HW228251   1.002   0.100   4.345 -0.5555  0.3860  1.1909
 5597SOL     OW28252   4.421   0.567  13.134  0.0748  0.2835  0.0681
 5597SOL    HW128253   4.327   0.568  13.149  0.1538  0.5048  0.5400
 5597SOL    HW228254   4.455   0.577  13.223 -1.1834  3.1495  0.2252
 5598SOL     OW28255   1.981   0.049  16.901  0.5977  0.1248 -0.1256
 5598SOL    HW128256   2.014   0.111  16.966 -0.4917 -0.3136  0.8248
 5598SOL    HW228257   1.896   0.029  16.939  0.0592  2.4634 -0.0763
 5599SOL     OW28258   2.500   3.982   7.643  0.3554 -0.8911  0.2067
 5599SOL    HW128259   2.464   3.973   7.731 -0.2063  2.5759  0.3654
 5599SOL    HW228260   2.591   4.003   7.662 -0.0280  1.3827 -0.4579
 5600SOL     OW28261   2.315   1.735  12.814  0.3285  0.7728 -0.0471
 5600SOL    HW128262   2.298   1.695  12.899 -1.1870 -0.5342 -0.9662
 5600SOL    HW228263   2.307   1.828  12.835 -2.3889  0.9342 -1.7100
 5601SOL     OW28264   0.796   1.870   9.091  0.1405  0.2732 -0.0538
 5601SOL    HW128265   0.891   1.879   9.097  0.0465  0.5867  1.0237
 5601SOL    HW228266   0.765   1.823   9.169  0.5099 -3.1836 -1.9608
 5602SOL     OW28267   4.151   4.058   7.636  0.2836  0.2549 -0.6732
 5602SOL    HW128268   4.114   4.056   7.724  0.3078 -3.6064 -0.7660
 5602SOL    HW228269   4.070   4.085   7.592 -1.0432 -0.4079  1.3754
 5603SOL     OW28270   1.196   0.842  16.363 -0.4282  0.1673  0.5703
 5603SOL    HW128271   1.145   0.907  16.314  1.0485  0.1520 -0.9960
 5603SOL    HW228272   1.153   0.760  16.343  0.6247 -0.0594 -0.7828
 5604SOL     OW28273   1.986   2.179   2.594  0.3551 -0.1874 -0.5290
 5604SOL    HW128274   2.030   2.195   2.678  2.9734 -3.4125 -1.2625
 5604SOL    HW228275   1.995   2.266   2.555  0.3704 -1.2319 -2.8026
 5605SOL     OW28276   0.931   2.264   7.709 -0.2232 -0.4041 -0.5190
 5605SOL    HW128277   0.844   2.224   7.711  0.3440 -1.8395 -3.8600
 5605SOL    HW228278   0.953   2.317   7.786 -2.5349  1.1172 -0.8897
 5606SOL     OW28279   3.835   2.535   2.671  0.5158 -0.2676 -0.2559
 5606SOL    HW128280   3.846   2.469   2.603  0.5441 -0.7214  0.1853
 5606SOL    HW228281   3.917   2.544   2.719 -0.0599  0.7845  0.5255
 5607SOL     OW28282   1.086   3.765  14.244 -0.0119 -0.6304 -0.3643
 5607SOL    HW128283   1.167   3.777  14.294 -1.4947 -0.8086  2.0754
 5607SOL    HW228284   1.117   3.814  14.168  0.1542 -1.8112 -1.0453
 5608SOL     OW28285   2.710   3.799   3.272 -0.1130 -0.5267 -0.3227
 5608SOL    HW128286   2.658   3.844   3.338 -2.9618 -1.6020 -1.8251
 5608SOL    HW228287   2.651   3.819   3.199 -1.0710  1.1638  0.9202
 5609SOL     OW28288   3.531   4.017   8.364 -0.3787 -0.4286 -0.3019
 5609SOL    HW128289   3.525   4.065   8.281 -0.8041 -1.7923 -1.0498
 5609SOL    HW228290   3.484   4.070   8.428  2.2919  0.0052  1.3133
 5610SOL     OW28291   4.015   1.130  11.817  0.5975  0.0443  0.2731
 5610SOL    HW128292   3.930   1.170  11.803 -1.0008 -2.4731  2.6259
 5610SOL    HW228293   3.996   1.043  11.782  0.0793  0.0473  0.5549
 5611SOL     OW28294   0.808   3.935   9.321  0.2458 -0.6634 -0.0494
 5611SOL    HW128295   0.832   3.861   9.377  2.3307  1.7833  2.2615
 5611SOL    HW228296   0.741   3.897   9.264  1.1413 -2.6947  0.2238
 5612SOL     OW28297   0.087   2.069   9.294 -0.1420  0.0788 -0.1006
 5612SOL    HW128298   0.136   2.137   9.342 -0.9108 -0.6703  1.7377
 5612SOL    HW228299   0.005   2.117   9.281  0.5179  0.9960 -0.8265
 5613SOL     OW28300   1.280   1.133   1.284  0.1053 -0.5167  0.6192
 5613SOL    HW128301   1.344   1.204   1.288  0.9850 -1.2985  0.4962
 5613SOL    HW228302   1.284   1.117   1.189  1.1451  0.8791  0.4285
 5614SOL     OW28303   4.688   1.032  12.831 -0.3208 -0.2044  0.3758
 5614SOL    HW128304   4.707   1.125  12.823  2.8230 -1.0044 -1.4348
 5614SOL    HW228305   4.604   1.024  12.876  0.3658 -1.3189  1.4864
 5615SOL     OW28306   2.326   3.996   4.941  0.6878 -0.4235  0.5631
 5615SOL    HW128307   2.311   4.090   4.952 -0.1195 -0.1952 -2.5435
 5615SOL    HW228308   2.336   3.959   5.029 -0.2862  2.5656  1.9249
 5616SOL     OW28309   2.518   3.047   1.851  0.1996  0.1768  0.1405
 5616SOL    HW128310   2.606   3.081   1.861 -1.0672  3.9150 -1.3297
 5616SOL    HW228311   2.484   3.021   1.937  0.0496 -0.4471 -0.1074
 5617SOL     OW28312   3.484   4.113   9.995 -0.4461 -0.4844 -0.3411
 5617SOL    HW128313   3.574   4.085  10.013  0.0296  2.4470  1.8705
 5617SOL    HW228314   3.431   4.043  10.034 -1.5842  1.0555  0.8679
 5618SOL     OW28315   0.444   0.231   9.007 -0.0271  0.8013 -0.3408
 5618SOL    HW128316   0.377   0.230   9.075  0.3328  0.4771  0.0093
 5618SOL    HW228317   0.513   0.262   9.065  0.5023 -1.2335  0.1090
 5619SOL     OW28318   0.448   1.810  10.110 -0.4520 -0.6539  0.5982
 5619SOL    HW128319   0.527   1.853  10.143 -2.1151  1.2373  2.1168
 5619SOL    HW228320   0.481   1.725  10.084  0.3013  0.1131 -0.9750
 5620SOL     OW28321   0.289   1.801   2.185 -0.2764  0.0120  0.6526
 5620SOL    HW128322   0.296   1.873   2.123  0.3388  0.3230  1.0847
 5620SOL    HW228323   0.377   1.805   2.221  0.1290 -0.2591 -0.3237
 5621SOL     OW28324   1.579   3.470   5.293 -0.4372  0.1948  0.2282
 5621SOL    HW128325   1.581   3.446   5.385  1.3698  1.9690  0.6310
 5621SOL    HW228326   1.634   3.548   5.288 -1.1904  0.6141 -1.8937
 5622SOL     OW28327   0.157   4.032   6.811 -0.0924  0.1174  0.2288
 5622SOL    HW128328   0.213   4.097   6.853  0.3373  0.5025 -0.9535
 5622SOL    HW228329   0.210   3.996   6.741  0.0537  2.3932 -0.8312
 5623SOL     OW28330   1.042   1.348   3.464 -0.2835  0.4411 -0.3115
 5623SOL    HW128331   0.981   1.330   3.536  0.3650 -0.5660 -0.0099
 5623SOL    HW228332   1.084   1.262   3.462 -1.1750  0.0456 -2.5455
 5624SOL     OW28333   0.112   0.731   4.114 -0.0744  0.3830 -0.4483
 5624SOL    HW128334   0.078   0.777   4.191 -0.4029 -1.0741  0.2835
 5624SOL    HW228335   0.138   0.643   4.143 -0.6020 -0.2899 -2.0348
 5625SOL     OW28336   3.973   2.357   7.721 -0.4583  0.1376 -0.3542
 5625SOL    HW128337   4.046   2.378   7.778  0.5187 -0.6643 -1.3174
 5625SOL    HW228338   3.964   2.434   7.664  1.6739 -0.1355 -1.0599
 5626SOL     OW28339   1.010   3.784   5.818 -0.1475  0.0945 -0.5318
 5626SOL    HW128340   1.035   3.869   5.855  2.3593 -0.6694 -0.4807
 5626SOL    HW228341   0.928   3.797   5.771 -0.2779  0.8549 -0.0982
 5627SOL     OW28342   4.330   1.789   9.230 -0.4747 -0.1570  0.3946
 5627SOL    HW128343   4.369   1.836   9.304 -0.3023 -0.2486  0.3629
 5627SOL    HW228344   4.321   1.856   9.163  0.2537  1.0123  1.4697
 5628SOL     OW28345   3.242   0.842  13.494  0.5243  0.2409 -0.2917
 5628SOL    HW128346   3.155   0.810  13.469  1.4334 -1.1777 -1.6581
 5628SOL    HW228347   3.237   0.853  13.589 -0.2345  1.7009 -0.4957
 5629SOL     OW28348   4.053   2.241   8.930  0.0609  0.3183  0.6424
 5629SOL    HW128349   4.065   2.229   9.024 -0.2844  1.1015  0.7893
 5629SOL    HW228350   3.971   2.197   8.910 -0.9129  2.6945 -0.7059
 5630SOL     OW28351   1.996   0.490  15.073  0.0798 -0.1321 -0.1505
 5630SOL    HW128352   2.038   0.530  14.997  1.1887  0.2398  0.6544
 5630SOL    HW228353   1.932   0.428  15.038 -0.5375  0.4587 -0.0712
 5631SOL     OW28354   2.345   1.361   2.361  0.0936  0.5034  0.6068
 5631SOL    HW128355   2.323   1.454   2.370  0.6723  0.8144 -1.3320
 5631SOL    HW228356   2.282   1.337   2.293 -0.0573  1.8977  0.2536
 5632SOL     OW28357   2.343   4.345   8.738 -0.4705 -0.3804  0.2816
 5632SOL    HW128358   2.303   4.425   8.773  0.9467  0.0874  0.7987
 5632SOL    HW228359   2.263   4.294   8.728  0.3205 -1.8018  1.3288
 5633SOL     OW28360   3.094   3.644   1.359 -0.1730 -0.1697  0.7753
 5633SOL    HW128361   3.047   3.728   1.355 -0.5617 -0.4425 -0.4694
 5633SOL    HW228362   3.142   3.637   1.276 -0.7252 -0.8930  0.5201
 5634SOL     OW28363   3.621   2.071  14.702 -0.0223  0.1358 -0.0698
 5634SOL    HW128364   3.541   2.084  14.754 -0.7803 -2.6633 -0.5125
 5634SOL    HW228365   3.668   2.029  14.774 -0.6682 -0.9230 -0.2664
 5635SOL     OW28366   4.183   2.863   7.125  0.3961 -0.3355  0.5506
 5635SOL    HW128367   4.241   2.937   7.105  2.2790 -1.5475  1.5295
 5635SOL    HW228368   4.245   2.798   7.094  3.0824  2.1994  0.6025
 5636SOL     OW28369   1.859   3.344   5.719 -0.4052 -0.4692 -0.7741
 5636SOL    HW128370   1.856   3.422   5.665 -0.0095 -0.8090 -1.2838
 5636SOL    HW228371   1.944   3.306   5.699  0.0613  0.3648 -0.3475
 5637SOL     OW28372   1.502   0.009   3.299 -0.1901 -0.1609 -0.4958
 5637SOL    HW128373   1.423   4.680   3.304 -0.0178 -0.5683 -2.0534
 5637SOL    HW228374   1.565   4.665   3.320 -1.6325 -1.6497 -0.9865
 5638SOL     OW28375   0.216   1.462  15.762  0.6055 -0.2941  0.3519
 5638SOL    HW128376   0.203   1.484  15.670 -3.1837  0.2349  0.9969
 5638SOL    HW228377   0.311   1.452  15.764  0.5344 -0.8370  1.1298
 5639SOL     OW28378   4.135   0.740   1.937 -0.1810 -0.0891  0.4100
 5639SOL    HW128379   4.205   0.737   2.003 -0.7311 -2.0386  0.8831
 5639SOL    HW228380   4.059   0.782   1.977  0.3271 -0.8025  2.0892
 5640SOL     OW28381   2.872   2.896  17.403 -0.4905 -0.6336 -0.4271
 5640SOL    HW128382   2.917   2.954  17.464 -1.2211 -1.7059  1.1325
 5640SOL    HW228383   2.796   2.947  17.374  0.3612 -0.4794 -2.3400
 5641SOL     OW28384   1.752   3.452   8.976  0.1524 -0.6449  0.1377
 5641SOL    HW128385   1.701   3.444   8.896 -0.8896  0.5960  0.6850
 5641SOL    HW228386   1.772   3.545   8.975  1.2091 -0.8510  1.3121
 5642SOL     OW28387   3.561   3.707  15.238  0.3284 -0.3226  0.7688
 5642SOL    HW128388   3.509   3.771  15.287 -0.0322 -0.9947  1.2578
 5642SOL    HW228389   3.505   3.708  15.161  0.1786 -1.6370  0.8674
 5643SOL     OW28390   0.420   2.740   5.458  0.1008 -0.2494  0.1135
 5643SOL    HW128391   0.364   2.666   5.439 -2.5352  1.4590  1.2218
 5643SOL    HW228392   0.478   2.698   5.521  0.1249  1.1158  0.9943
 5644SOL     OW28393   1.581   3.278  14.617  0.2460 -0.1480 -0.0358
 5644SOL    HW128394   1.533   3.255  14.538  0.5820 -1.2092  0.0698
 5644SOL    HW228395   1.635   3.349  14.583 -0.5936 -0.5980 -2.2710
 5645SOL     OW28396   0.629   1.330   5.767 -0.5520 -0.8856  0.8626
 5645SOL    HW128397   0.719   1.353   5.743 -1.0726  0.9457  0.7385
 5645SOL    HW228398   0.621   1.384   5.846 -2.9401 -0.9497  0.6697
 5646SOL     OW28399   1.407   2.361   4.603  0.2094 -0.2390 -0.1178
 5646SOL    HW128400   1.414   2.269   4.578 -0.1774  0.0884 -1.4134
 5646SOL    HW228401   1.453   2.364   4.687  0.4583  1.0005 -0.2964
 5647SOL     OW28402   2.214   4.588   7.733 -1.0205  0.6966  0.5936
 5647SOL    HW128403   2.167   4.569   7.652  0.9824  2.9578 -1.1047
 5647SOL    HW228404   2.209   4.502   7.776  1.1386 -0.4370 -1.3623
 5648SOL     OW28405   2.287   0.045   1.041 -0.0443 -0.2402 -0.7799
 5648SOL    HW128406   2.351   0.103   1.001  0.1645 -1.2543 -1.8977
 5648SOL    HW228407   2.326   4.682   1.033 -0.1473 -0.1489 -2.3470
 5649SOL     OW28408   0.317   3.876  15.598 -0.0429 -0.5703 -0.2029
 5649SOL    HW128409   0.222   3.876  15.604 -0.0004  1.2407  0.2762
 5649SOL    HW228410   0.330   3.872  15.503 -0.2396  2.1744 -0.3472
 5650SOL     OW28411   3.036   3.325   7.262  0.2299  0.0472  0.6385
 5650SOL    HW128412   3.073   3.241   7.236  0.1138  0.5062 -1.0585
 5650SOL    HW228413   3.117   3.369   7.288  0.7148  0.9634 -2.3825
 5651SOL     OW28414   3.161   1.010  11.308  0.1142  0.4395  0.0043
 5651SOL    HW128415   3.230   1.068  11.341  0.2400 -0.5987  1.5911
 5651SOL    HW228416   3.084   1.066  11.303  0.3726  1.0161  2.0385
 5652SOL     OW28417   1.608   1.274   8.010 -0.0374  0.0487  0.3217
 5652SOL    HW128418   1.597   1.312   8.097  0.4165  0.5322  0.1718
 5652SOL    HW228419   1.566   1.191   8.029  0.6732 -0.8413 -1.9645
 5653SOL     OW28420   3.511   0.514   2.379 -0.1072  0.1231 -0.0404
 5653SOL    HW128421   3.559   0.438   2.346 -0.5688 -0.4101  0.5182
 5653SOL    HW228422   3.519   0.564   2.298 -1.1728 -2.7098 -1.8988
 5654SOL     OW28423   0.655   0.508   6.970  0.3209 -0.2936  0.0017
 5654SOL    HW128424   0.566   0.504   6.935  0.5897 -0.3487 -0.6672
 5654SOL    HW228425   0.683   0.432   6.919  1.5819  0.5671 -0.5883
 5655SOL     OW28426   3.833   3.606  11.861  0.0717 -0.2460  0.1235
 5655SOL    HW128427   3.836   3.542  11.932 -1.4008 -0.3544  0.0928
 5655SOL    HW228428   3.908   3.584  11.805  2.5122  2.5116  2.2963
 5656SOL     OW28429   0.286   1.451   3.652 -0.5708  0.1002 -0.1910
 5656SOL    HW128430   0.302   1.522   3.590 -0.1769  0.9617  0.8832
 5656SOL    HW228431   0.204   1.416   3.617 -0.7028  0.5039 -0.2810
 5657SOL     OW28432   0.424   2.457   8.085 -0.1966 -0.2916  0.6136
 5657SOL    HW128433   0.478   2.489   8.013  1.6442 -0.1540  2.0438
 5657SOL    HW228434   0.452   2.512   8.158  0.7576 -1.5287  1.1856
 5658SOL     OW28435   3.985   2.826   0.352  0.5588  0.1516  0.2023
 5658SOL    HW128436   3.960   2.753   0.409 -1.7060 -0.5299 -1.6958
 5658SOL    HW228437   3.925   2.893   0.384  0.6376 -0.5353  1.8034
 5659SOL     OW28438   0.390   3.693   6.650 -0.1436 -0.0565 -0.3467
 5659SOL    HW128439   0.453   3.692   6.722 -0.4879  1.9099 -0.0237
 5659SOL    HW228440   0.352   3.608   6.671 -0.1021  0.8264  3.2355
 5660SOL     OW28441   0.460   4.343   2.650 -0.1652  0.2683  0.4174
 5660SOL    HW128442   0.448   4.249   2.655 -1.1083  0.3057 -1.0695
 5660SOL    HW228443   0.411   4.380   2.724 -0.9801  1.6124 -0.8041
 5661SOL     OW28444   3.040   2.722   4.433 -0.0112 -0.7993  0.1662
 5661SOL    HW128445   3.135   2.719   4.423  0.0938  0.9989  0.5958
 5661SOL    HW228446   3.019   2.778   4.508 -1.8253  1.8361 -2.2664
 5662SOL     OW28447   1.083   4.046   5.016 -0.0888 -0.0768 -0.1686
 5662SOL    HW128448   1.121   3.958   5.019  0.1760  0.1100  1.7281
 5662SOL    HW228449   1.047   4.061   4.929 -0.9088  0.7006  0.2991
 5663SOL     OW28450   2.299   4.254  10.283 -0.1191 -0.6377 -0.0260
 5663SOL    HW128451   2.210   4.290  10.287  0.5172  0.9733 -0.5715
 5663SOL    HW228452   2.349   4.331  10.256 -1.3969  0.4421  0.6920
 5664SOL     OW28453   0.035   0.700   8.520 -0.0682 -0.3791 -0.3741
 5664SOL    HW128454   4.668   0.674   8.509 -0.1706  0.2608 -1.0241
 5664SOL    HW228455   0.069   0.637   8.583  0.0646 -1.2886 -1.3608
 5665SOL     OW28456   1.910   4.032  16.498 -0.5704 -0.3500  0.0814
 5665SOL    HW128457   1.974   4.082  16.549  0.1595  0.6717 -1.8502
 5665SOL    HW228458   1.958   3.950  16.486 -0.8014 -0.7368  1.7359
 5666SOL     OW28459   4.014   2.838   0.673  0.3457  0.4251 -0.4906
 5666SOL    HW128460   3.982   2.763   0.623  0.9693 -0.6915  0.7888
 5666SOL    HW228461   3.966   2.911   0.636  1.3225  0.2633 -2.0842
 5667SOL     OW28462   4.242   1.390   7.122  0.2173 -0.0518  0.1824
 5667SOL    HW128463   4.176   1.378   7.191 -2.4070 -0.3022 -2.3973
 5667SOL    HW228464   4.294   1.309   7.127  0.5644  0.1835  0.4067
 5668SOL     OW28465   3.004   1.168   4.542 -0.3155  0.1820  0.0043
 5668SOL    HW128466   2.966   1.230   4.480 -0.4007  1.4304  1.3193
 5668SOL    HW228467   3.082   1.143   4.493 -0.4175 -0.5908  0.2405
 5669SOL     OW28468   2.253   4.373   7.422 -0.4033  0.0341  0.1724
 5669SOL    HW128469   2.251   4.468   7.407  0.2816 -0.1234 -0.9022
 5669SOL    HW228470   2.226   4.346   7.335  2.1549  0.3885 -0.7186
 5670SOL     OW28471   1.842   1.350   1.788 -0.6314 -0.7033 -0.4103
 5670SOL    HW128472   1.780   1.277   1.783 -0.1984 -0.9521 -2.0442
 5670SOL    HW228473   1.805   1.430   1.750  0.8422  0.9672  1.6184
 5671SOL     OW28474   0.403   2.441  10.102  0.1416 -0.1872 -0.0148
 5671SOL    HW128475   0.386   2.423  10.009  0.6853  0.6458 -0.2722
 5671SOL    HW228476   0.337   2.398  10.156 -0.8768 -1.0235 -1.9109
 5672SOL     OW28477   3.368   3.118   0.525 -0.3822 -0.4296  0.3754
 5672SOL    HW128478   3.307   3.165   0.581  0.3295  1.1792 -0.2009
 5672SOL    HW228479   3.431   3.190   0.517  0.9877 -1.8223 -1.3702
 5673SOL     OW28480   2.936   2.642   0.981  0.3657  0.1291  0.3464
 5673SOL    HW128481   2.904   2.718   0.932  0.8171 -1.0382 -1.7846
 5673SOL    HW228482   2.859   2.591   1.004 -0.3882  0.7470 -0.7693
 5674SOL     OW28483   2.494   1.905   7.671 -0.1340  0.0404  0.3137
 5674SOL    HW128484   2.440   1.971   7.628  0.8519  0.7154  0.1285
 5674SOL    HW228485   2.550   1.955   7.731 -1.7209 -0.2590  2.0645
 5675SOL     OW28486   3.081   4.567  15.428  0.1662  0.1843 -0.2924
 5675SOL    HW128487   3.073   4.507  15.353  1.3332 -0.0218 -0.2651
 5675SOL    HW228488   3.032   4.645  15.402 -0.7587  0.4690  2.3009
 5676SOL     OW28489   1.638   4.638   5.794  0.1387  0.1598  0.7702
 5676SOL    HW128490   1.622   4.703   5.863  0.8187 -0.0687  1.1417
 5676SOL    HW228491   1.549   4.602   5.797  0.4262 -0.4172  2.5395
 5677SOL     OW28492   3.527   1.275   1.512 -0.2222 -0.2059  0.6072
 5677SOL    HW128493   3.566   1.189   1.525 -0.7493 -0.7396 -1.2774
 5677SOL    HW228494   3.608   1.325   1.501 -0.4215 -0.5520 -2.4055
 5678SOL     OW28495   0.144   3.545  10.686  0.1409  0.3628  0.4428
 5678SOL    HW128496   0.082   3.619  10.689 -2.4023 -1.7567  0.2632
 5678SOL    HW228497   0.220   3.583  10.642 -1.2517  1.6307 -0.8862
 5679SOL     OW28498   0.713   2.315   7.000 -0.4503 -0.1577 -0.0354
 5679SOL    HW128499   0.621   2.331   7.025 -0.5291  0.5736 -0.7980
 5679SOL    HW228500   0.725   2.376   6.928  0.0254 -2.0108 -1.5129
 5680SOL     OW28501   1.248   2.587   2.899 -0.0829  0.5505  0.1644
 5680SOL    HW128502   1.307   2.536   2.843  0.2258 -0.1371  1.0928
 5680SOL    HW228503   1.268   2.572   2.992 -1.2626 -0.8113  0.2008
 5681SOL     OW28504   0.114   3.897   3.767  0.5543 -0.2516 -0.7729
 5681SOL    HW128505   0.091   3.881   3.675 -1.0180  1.4221 -0.6855
 5681SOL    HW228506   0.166   3.976   3.753  0.5640  0.1177  1.3431
 5682SOL     OW28507   1.262   3.791   4.342  0.4915  0.1212  0.2410
 5682SOL    HW128508   1.351   3.824   4.356  1.0049 -2.4972  3.4118
 5682SOL    HW228509   1.275   3.699   4.317  0.1886  0.7488 -2.1757
 5683SOL     OW28510   2.129   2.949   6.410  0.0499 -0.1628 -0.5854
 5683SOL    HW128511   2.198   2.969   6.346 -1.2446  0.4257 -1.7861
 5683SOL    HW228512   2.148   3.000   6.488 -0.4921  0.0142 -0.5742
 5684SOL     OW28513   3.473   4.722  17.419  0.0738 -0.8253  0.2229
 5684SOL    HW128514   3.559   4.684  17.403  0.3262  0.6016 -1.7981
 5684SOL    HW228515   3.490   0.087  17.387 -0.6559  0.0375  2.2421
 5685SOL     OW28516   4.654   3.288   4.706 -0.0349 -0.2821 -0.0443
 5685SOL    HW128517   4.673   3.370   4.751  2.6779 -0.3537 -1.0628
 5685SOL    HW228518   4.601   3.234   4.766 -0.8553 -0.4484 -0.9209
 5686SOL     OW28519   4.069   3.396   4.976 -0.3496  0.0086  0.2203
 5686SOL    HW128520   4.117   3.427   4.899  2.1691 -0.5546  1.5864
 5686SOL    HW228521   4.021   3.478   4.989  0.1550  0.4377 -0.5739
 5687SOL     OW28522   1.865   2.349   9.603  0.0948  0.0386 -0.3895
 5687SOL    HW128523   1.833   2.438   9.615 -1.3102 -0.5025 -0.0703
 5687SOL    HW228524   1.899   2.340   9.692 -3.1504  3.0314  1.1494
 5688SOL     OW28525   3.595   0.800   4.320 -0.1263 -0.6169  0.7886
 5688SOL    HW128526   3.521   0.761   4.273  0.1733 -1.1628  0.7678
 5688SOL    HW228527   3.661   0.773   4.256 -0.4983 -0.2928  0.2662
 5689SOL     OW28528   1.296   2.685  17.080  0.1855 -0.2061 -0.2172
 5689SOL    HW128529   1.218   2.652  17.035 -0.7639  2.0097 -0.2186
 5689SOL    HW228530   1.255   2.761  17.123  1.4415  1.5846 -2.1786
 5690SOL     OW28531   3.233   1.655  15.410  0.3044  0.5402 -0.0102
 5690SOL    HW128532   3.293   1.689  15.343  1.7119  2.4056  2.2257
 5690SOL    HW228533   3.289   1.603  15.468  0.5385 -0.6334 -1.2581
 5691SOL     OW28534   0.704   4.359   4.156 -0.1914 -0.0538  0.1826
 5691SOL    HW128535   0.638   4.295   4.131  0.2653 -0.3483 -0.2719
 5691SOL    HW228536   0.774   4.347   4.092 -0.0073  1.4892  0.0905
 5692SOL     OW28537   1.160   3.480   5.366  0.1477  0.1201  0.1639
 5692SOL    HW128538   1.230   3.529   5.409 -0.5300 -1.4462  2.9883
 5692SOL    HW228539   1.159   3.504   5.273 -2.4721 -0.9952 -0.0839
 5693SOL     OW28540   1.265   0.420   2.045  0.2700  0.0731 -0.0537
 5693SOL    HW128541   1.292   0.393   2.133  0.3982  1.1410  0.2413
 5693SOL    HW228542   1.259   0.333   2.007  1.7649 -0.5571  1.1672
 5694SOL     OW28543   1.856   3.753   2.411  0.0506 -0.1724 -0.1741
 5694SOL    HW128544   1.761   3.745   2.398 -0.0237 -0.1107  0.3362
 5694SOL    HW228545   1.880   3.662   2.393  1.9900  0.6300 -1.6579
 5695SOL     OW28546   2.726   0.510   2.440 -0.2805 -0.2037  0.3059
 5695SOL    HW128547   2.795   0.567   2.405 -1.0613 -1.1927 -2.8598
 5695SOL    HW228548   2.708   0.460   2.360  1.6081 -0.4539  0.0249
 5696SOL     OW28549   3.486   0.460   5.759  0.0334 -0.5447  0.1139
 5696SOL    HW128550   3.448   0.542   5.792  0.9958  0.2765 -0.8060
 5696SOL    HW228551   3.433   0.394   5.803  0.9963  0.4860  2.8324
 5697SOL     OW28552   0.989   2.710   3.749  0.3338 -0.3810 -0.0060
 5697SOL    HW128553   0.919   2.655   3.787 -0.3731 -0.7854 -1.8971
 5697SOL    HW228554   0.978   2.693   3.655  1.8698 -3.0818  0.3095
 5698SOL     OW28555   4.632   0.964  16.902  0.3599 -0.6478  0.0973
 5698SOL    HW128556   4.561   1.009  16.947  2.1135 -0.0663  2.3110
 5698SOL    HW228557   4.586   0.926  16.828  0.2028  0.4166 -0.3532
 5699SOL     OW28558   0.247   0.960   7.976 -0.1181 -0.1300  0.0374
 5699SOL    HW128559   0.308   0.966   7.903  0.1080  2.9516  0.4862
 5699SOL    HW228560   0.165   0.986   7.934 -1.0456  0.3982  2.1565
 5700SOL     OW28561   3.386   2.043   4.805 -0.8019 -0.1808  0.2005
 5700SOL    HW128562   3.295   2.033   4.832 -0.2984 -0.3000  1.8582
 5700SOL    HW228563   3.419   2.102   4.873  0.1576 -1.9497  1.2919
 5701SOL     OW28564   0.477   4.243   2.320  0.1216 -0.2163 -0.0026
 5701SOL    HW128565   0.498   4.336   2.311 -1.6654  0.3119  1.3014
 5701SOL    HW228566   0.553   4.194   2.289  1.2183  1.5955 -0.1678
 5702SOL     OW28567   4.104   0.750   0.506 -0.0338 -0.0208 -0.3202
 5702SOL    HW128568   4.043   0.678   0.489 -0.2700  0.1936 -0.3834
 5702SOL    HW228569   4.172   0.695   0.546 -0.1850 -0.5289 -0.7559
 5703SOL     OW28570   3.798   1.391   1.797 -0.1693  0.0056 -0.4471
 5703SOL    HW128571   3.856   1.418   1.726 -1.3847  1.0882 -1.0284
 5703SOL    HW228572   3.783   1.480   1.831 -1.6129 -0.9504  1.4269
 5704SOL     OW28573   3.642   1.622  15.469  0.1546  0.5923 -0.1846
 5704SOL    HW128574   3.662   1.716  15.463  2.2933  0.2245  1.2801
 5704SOL    HW228575   3.550   1.625  15.497  0.1476 -0.3754 -0.1080
 5705SOL     OW28576   1.025   0.779   9.612  0.3278 -0.7299 -0.3598
 5705SOL    HW128577   0.985   0.781   9.525 -0.2232 -1.3246 -0.1226
 5705SOL    HW228578   0.972   0.716   9.661 -0.4359  0.6521  0.5516
 5706SOL     OW28579   2.092   2.534   5.875 -0.3626  0.4366 -0.0593
 5706SOL    HW128580   2.077   2.575   5.961 -1.3526  1.0745 -0.5416
 5706SOL    HW228581   2.036   2.586   5.818  0.1195  0.9589 -0.0584
 5707SOL     OW28582   4.630   1.454  13.885  0.1879 -0.0839 -0.7370
 5707SOL    HW128583   4.561   1.409  13.836  0.9598 -1.2842 -0.7225
 5707SOL    HW228584   4.709   1.435  13.835 -0.9134 -0.7639 -2.2070
 5708SOL     OW28585   1.057   3.495   4.570  0.4334 -0.1895  0.6359
 5708SOL    HW128586   1.018   3.474   4.655 -1.7398 -2.9201 -1.0189
 5708SOL    HW228587   1.055   3.591   4.572  0.6571 -0.2093  2.0566
 5709SOL     OW28588   1.603   2.026   7.778 -0.4125 -0.4723  0.4628
 5709SOL    HW128589   1.647   2.107   7.753 -1.6806  0.1541  0.2845
 5709SOL    HW228590   1.669   1.971   7.736 -2.2028 -1.4722 -1.0348
 5710SOL     OW28591   2.064   1.039   1.766  0.0821  0.4205 -0.6108
 5710SOL    HW128592   2.090   1.031   1.858  0.6249  1.6621 -0.6520
 5710SOL    HW228593   2.130   1.101   1.737  1.1209 -1.4764 -2.2435
 5711SOL     OW28594   4.310   0.655   3.715 -0.4598  0.3445 -0.0874
 5711SOL    HW128595   4.345   0.569   3.740  0.3735  0.6777 -0.1092
 5711SOL    HW228596   4.257   0.623   3.642 -2.7717  0.3037  1.5902
 5712SOL     OW28597   2.815   0.221  12.021 -0.4029 -0.2773  0.3314
 5712SOL    HW128598   2.724   0.251  12.028  0.7040  2.7473  1.8443
 5712SOL    HW228599   2.803   0.144  11.966  0.8307  1.2627 -2.0743
 5713SOL     OW28600   2.373   2.842   4.083  0.0052  0.3720  0.2088
 5713SOL    HW128601   2.364   2.772   4.148 -1.8401  0.5575  0.1456
 5713SOL    HW228602   2.318   2.815   4.009  0.7889  1.0323 -0.6196
 5714SOL     OW28603   1.431   0.674   5.399 -0.6551 -1.1091 -0.1895
 5714SOL    HW128604   1.510   0.724   5.419 -1.2259  0.8914 -2.9341
 5714SOL    HW228605   1.460   0.598   5.450  0.7224  1.1198  2.3639
 5715SOL     OW28606   4.050   3.565   7.801  0.3255  0.3680  0.3476
 5715SOL    HW128607   4.051   3.634   7.735 -0.4308  2.1407  2.2187
 5715SOL    HW228608   3.960   3.556   7.832  1.0155 -0.9890  1.9955
 5716SOL     OW28609   2.845   0.536   8.430 -0.3866  0.0518  0.1245
 5716SOL    HW128610   2.867   0.537   8.337 -2.6942  0.4691 -0.4047
 5716SOL    HW228611   2.908   0.604   8.453  0.1995 -0.2010 -0.7224
 5717SOL     OW28612   3.624   3.280  16.801  0.1894 -0.3084 -0.1644
 5717SOL    HW128613   3.622   3.369  16.837 -1.9369  0.0301 -1.1443
 5717SOL    HW228614   3.543   3.249  16.841 -1.1441  1.6910 -1.3516
 5718SOL     OW28615   3.090   2.022  11.988  0.5258  0.2565  0.1269
 5718SOL    HW128616   3.177   2.062  11.994  0.2653  0.7253  0.7520
 5718SOL    HW228617   3.063   2.035  12.078 -2.8209 -1.1637 -0.6711
 5719SOL     OW28618   1.261   4.554   0.245 -0.3596 -0.4696  0.3380
 5719SOL    HW128619   1.334   4.559   0.307 -1.1202 -1.9321  1.3577
 5719SOL    HW228620   1.217   4.628   0.286 -0.0273 -0.4103  0.5868
 5720SOL     OW28621   3.132   1.838   7.458 -0.1493 -0.2354 -0.6955
 5720SOL    HW128622   3.113   1.909   7.519 -1.2512  0.5445 -1.9247
 5720SOL    HW228623   3.227   1.834   7.463 -0.3067 -1.4639  1.3884
 5721SOL     OW28624   1.037   1.890   3.761  0.5196 -0.3496 -0.2252
 5721SOL    HW128625   1.042   1.977   3.723 -1.4246 -0.5751 -1.0412
 5721SOL    HW228626   1.115   1.892   3.817  0.5532  0.4839 -0.3130
 5722SOL     OW28627   0.561   4.049   7.398  0.4113  0.3417  0.0900
 5722SOL    HW128628   0.569   4.005   7.314  0.9246 -0.1175  0.3712
 5722SOL    HW228629   0.519   3.984   7.455 -0.0822 -0.4957 -1.2381
 5723SOL     OW28630   4.237   4.688  16.081  0.8626  0.5182 -0.2288
 5723SOL    HW128631   4.207   0.047  16.117 -1.5927 -0.3248 -0.3698
 5723SOL    HW228632   4.241   4.715  15.989 -2.1491 -0.2396 -0.5933
 5724SOL     OW28633   3.990   0.799   3.914  0.3140  0.1562  0.1467
 5724SOL    HW128634   3.950   0.883   3.939 -1.1032 -0.6806  0.7090
 5724SOL    HW228635   4.046   0.828   3.843  0.5915  1.1480  0.7720
 5725SOL     OW28636   1.228   2.055  10.876  0.0349 -0.4053  0.3187
 5725SOL    HW128637   1.309   2.039  10.828  0.4207 -0.2490  0.9101
 5725SOL    HW228638   1.221   2.151  10.874  3.4030 -0.1881 -0.8668
 5726SOL     OW28639   4.133   3.211   7.585 -0.0229  0.1700 -0.3593
 5726SOL    HW128640   4.077   3.138   7.559 -1.7625  2.1024 -2.0927
 5726SOL    HW228641   4.170   3.173   7.664 -1.2505  0.3192  0.2881
 5727SOL     OW28642   0.822   2.728  15.317 -0.2000 -0.5818  0.0714
 5727SOL    HW128643   0.731   2.738  15.287 -0.6669 -0.8753  1.3974
 5727SOL    HW228644   0.851   2.675  15.243 -1.8436 -1.5627  0.1290
 5728SOL     OW28645   0.584   3.841   2.752 -0.1337 -0.1677 -0.0700
 5728SOL    HW128646   0.573   3.797   2.668  2.3623 -0.5486 -0.1950
 5728SOL    HW228647   0.640   3.914   2.724  0.0690  0.2234  1.3644
 5729SOL     OW28648   1.272   1.684  14.872  0.3407 -0.6674  0.0142
 5729SOL    HW128649   1.356   1.638  14.864 -0.7271 -2.4534 -0.9351
 5729SOL    HW228650   1.217   1.624  14.821 -0.2052 -1.0100  1.0116
 5730SOL     OW28651   2.435   3.697   2.423 -0.6737  0.0280 -0.1988
 5730SOL    HW128652   2.385   3.744   2.357 -1.2571  0.2773  0.4218
 5730SOL    HW228653   2.455   3.613   2.380  0.4107  0.6978 -1.0045
 5731SOL     OW28654   0.015   1.211   9.404  0.0123 -0.2344 -0.3691
 5731SOL    HW128655   4.657   1.257   9.388  1.2675  0.6852 -4.2351
 5731SOL    HW228656   0.072   1.268   9.351 -0.7531  0.9857  0.1047
 5732SOL     OW28657   0.386   3.250  11.342 -0.0163  0.2053 -0.0386
 5732SOL    HW128658   0.335   3.219  11.417  0.3266  0.5022  0.3151
 5732SOL    HW228659   0.367   3.191  11.270 -1.6049  0.3601  0.2516
 5733SOL     OW28660   1.034   4.158  17.419  0.1671 -0.6044 -0.2953
 5733SOL    HW128661   1.126   4.142  17.438  0.2255  1.3352  0.9969
 5733SOL    HW228662   0.993   4.186  17.500 -3.8514 -0.5260 -2.3289
 5734SOL     OW28663   4.156   1.738   4.977  0.6386 -0.1645 -0.2799
 5734SOL    HW128664   4.138   1.679   5.050  1.4866  0.3084  0.3064
 5734SOL    HW228665   4.155   1.677   4.903  1.0598 -0.4534 -0.0481
 5735SOL     OW28666   0.145   4.126   0.735 -0.8701  0.2561  0.9112
 5735SOL    HW128667   0.056   4.154   0.757 -0.6946  0.2118  1.6761
 5735SOL    HW228668   0.137   4.033   0.757  0.2464  0.0652  0.5322
 5736SOL     OW28669   1.592   3.361   9.278 -0.1640 -0.0586  0.3645
 5736SOL    HW128670   1.499   3.377   9.294  0.3255  1.6724  1.4288
 5736SOL    HW228671   1.620   3.450   9.299 -2.2315  0.1308  2.2565
 5737SOL     OW28672   2.284   2.802   5.497  0.0604 -0.1381  0.4261
 5737SOL    HW128673   2.345   2.805   5.423 -0.2386 -2.5628  0.0669
 5737SOL    HW228674   2.336   2.762   5.567  1.2902 -2.7501 -1.9718
 5738SOL     OW28675   1.225   1.718   5.357  0.1130 -0.1013  0.1433
 5738SOL    HW128676   1.317   1.696   5.371  0.4677  0.7060 -1.0013
 5738SOL    HW228677   1.211   1.762   5.441  0.9390  3.2088 -1.4389
 5739SOL     OW28678   1.003   1.014   8.528  0.3573  0.4343 -0.1601
 5739SOL    HW128679   0.912   1.033   8.507  0.0753  0.1852  0.8376
 5739SOL    HW228680   1.041   1.037   8.444  0.4219  3.1979  0.6230
 5740SOL     OW28681   0.885   3.692   6.163 -0.0446 -0.2377  0.1339
 5740SOL    HW128682   0.823   3.628   6.129 -0.3391 -1.7399  3.6204
 5740SOL    HW228683   0.943   3.650   6.225  0.4886  0.5642  0.1887
 5741SOL     OW28684   2.530   4.071   8.389  0.0460 -0.2611 -0.2997
 5741SOL    HW128685   2.520   4.148   8.445  0.7360 -0.4326  0.0621
 5741SOL    HW228686   2.612   4.074   8.340  0.1234 -2.0495 -0.2701
 5742SOL     OW28687   3.872   1.538   3.836 -0.0827  0.3186 -0.3289
 5742SOL    HW128688   3.965   1.533   3.813 -0.3413  0.1718 -1.3658
 5742SOL    HW228689   3.831   1.512   3.753  0.3829  1.0393 -0.7867
 5743SOL     OW28690   2.477   3.325  13.997  0.3249 -1.4066 -0.1704
 5743SOL    HW128691   2.448   3.347  14.086 -0.6074 -1.6483 -0.4089
 5743SOL    HW228692   2.392   3.331  13.954 -0.7122  0.6892  2.1613
 5744SOL     OW28693   1.211   2.230  12.160  0.2222  0.2834  0.2721
 5744SOL    HW128694   1.250   2.317  12.149  2.7479 -1.2326 -2.6205
 5744SOL    HW228695   1.156   2.227  12.081 -0.4864  2.7603  0.6730
 5745SOL     OW28696   0.234   0.109   6.160 -0.3071 -1.0229  0.1724
 5745SOL    HW128697   0.244   0.096   6.254 -1.3269  0.7620  0.5324
 5745SOL    HW228698   0.147   0.075   6.142 -0.2806 -1.1043  0.1998
 5746SOL     OW28699   2.678   4.388   9.318  0.0737  0.3712 -0.2642
 5746SOL    HW128700   2.606   4.409   9.378  0.9568 -1.7756  1.5269
 5746SOL    HW228701   2.639   4.422   9.238 -2.1937 -0.1826  0.5896
 5747SOL     OW28702   2.645   4.058   9.314 -0.8613 -0.4446  0.2466
 5747SOL    HW128703   2.555   4.083   9.292 -0.1845 -0.7088 -2.8876
 5747SOL    HW228704   2.643   4.083   9.406 -2.3815  1.2214 -0.2384
 5748SOL     OW28705   0.721   3.848   3.028  0.1112  0.2632 -0.2956
 5748SOL    HW128706   0.755   3.810   2.947 -0.4267  0.7163 -0.7423
 5748SOL    HW228707   0.629   3.867   3.006 -0.1212 -0.3554  0.1378
 5749SOL     OW28708   2.461   2.350   2.508 -0.1056  0.0740  0.4005
 5749SOL    HW128709   2.429   2.386   2.591  0.9702  0.8395  0.4765
 5749SOL    HW228710   2.495   2.266   2.540 -0.2351 -0.0850  0.1207
 5750SOL     OW28711   4.070   3.295   1.856  0.1131  0.3975 -0.0089
 5750SOL    HW128712   4.135   3.231   1.884 -0.2696  0.3629  0.7979
 5750SOL    HW228713   4.012   3.247   1.796 -0.8407  0.4656  0.8523
 5751SOL     OW28714   4.083   1.943   6.553  0.3021 -0.4578  0.1555
 5751SOL    HW128715   4.067   1.979   6.640 -0.5653 -1.4568  0.4008
 5751SOL    HW228716   3.992   1.939   6.523  0.6921 -0.3106 -1.0496
 5752SOL     OW28717   3.244   2.638   0.631  0.0640 -0.2474 -0.7041
 5752SOL    HW128718   3.322   2.670   0.676 -0.3242  2.7209 -2.1240
 5752SOL    HW228719   3.213   2.566   0.686 -0.0280  0.4906  0.2022
 5753SOL     OW28720   3.118   2.905   3.925  0.4192  0.6505  0.0422
 5753SOL    HW128721   3.079   2.929   4.009  0.5778 -2.3611  0.9762
 5753SOL    HW228722   3.081   2.817   3.919  0.9325  0.5043 -0.9670
 5754SOL     OW28723   3.189   1.060   7.458 -0.3023 -0.1680 -0.4746
 5754SOL    HW128724   3.270   1.092   7.498 -0.9865 -0.7757  1.4362
 5754SOL    HW228725   3.194   0.966   7.473  0.2533  0.4304  3.1393
 5755SOL     OW28726   0.543   4.374   8.873  0.3192 -0.1071 -0.7844
 5755SOL    HW128727   0.571   4.321   8.948 -1.7119 -1.4894 -1.0120
 5755SOL    HW228728   0.460   4.333   8.849 -0.7723  0.0059  2.8294
 5756SOL     OW28729   3.928   3.653   5.861 -0.1428  0.5905  0.0209
 5756SOL    HW128730   3.847   3.627   5.906  0.2366 -0.3889  0.1556
 5756SOL    HW228731   3.995   3.646   5.929 -2.6195  1.0463  2.4915
 5757SOL     OW28732   0.040   0.483   6.893 -0.5466 -0.1191  0.4430
 5757SOL    HW128733   0.017   0.571   6.865  1.7901  0.3196 -0.1261
 5757SOL    HW228734   0.003   0.486   6.982  0.4432 -3.0946  0.9582
 5758SOL     OW28735   1.485   3.243  14.380  0.5112  0.4237  0.0150
 5758SOL    HW128736   1.455   3.200  14.300  0.0576 -0.3107  0.5879
 5758SOL    HW228737   1.441   3.328  14.372  0.5492  0.5585  1.2079
 5759SOL     OW28738   2.235   4.600   6.863 -0.1123 -0.2432  0.0988
 5759SOL    HW128739   2.188   4.591   6.780 -0.4026 -2.4317  0.4960
 5759SOL    HW228740   2.164   4.576   6.923 -0.9538  1.3719 -0.2758
 5760SOL     OW28741   3.374   2.944   7.856 -0.1205  0.1803 -0.1512
 5760SOL    HW128742   3.355   2.933   7.950 -0.9103 -0.3199 -0.3722
 5760SOL    HW228743   3.469   2.928   7.857  0.0060  0.8984 -1.0657
 5761SOL     OW28744   4.204   2.418   0.196 -0.2114  0.0353 -1.1659
 5761SOL    HW128745   4.164   2.450   0.277  1.2389 -0.0302 -0.4122
 5761SOL    HW228746   4.195   2.323   0.193  2.3982 -0.1830 -1.6030
 5762SOL     OW28747   0.815   1.417   8.388  0.2282 -0.6367  0.2686
 5762SOL    HW128748   0.728   1.412   8.427 -0.0365  0.1724 -0.2163
 5762SOL    HW228749   0.807   1.368   8.307 -2.3114 -2.2134  1.4686
 5763SOL     OW28750   0.705   1.105   1.493  0.2404  0.1807  0.2880
 5763SOL    HW128751   0.743   1.104   1.405  0.6441  0.4456  0.4603
 5763SOL    HW228752   0.780   1.062   1.535  1.1910  0.3359 -1.2749
 5764SOL     OW28753   1.908   2.073  10.022  0.5781  0.3887 -0.1961
 5764SOL    HW128754   1.958   2.128  10.083  0.6863 -0.3236  0.3644
 5764SOL    HW228755   1.979   2.036   9.970  0.1592 -0.4752 -0.1547
 5765SOL     OW28756   2.032   3.634  12.121  0.2395 -0.4143  0.7292
 5765SOL    HW128757   2.070   3.701  12.064 -0.1038 -0.5120  0.3895
 5765SOL    HW228758   1.945   3.624  12.083  0.9036 -2.0453 -0.3758
 5766SOL     OW28759   4.539   3.445   1.743  0.6420  0.1447 -0.3196
 5766SOL    HW128760   4.561   3.519   1.686  0.6077  0.5584  0.2058
 5766SOL    HW228761   4.444   3.435   1.750  0.6297  0.5732  0.2106
 5767SOL     OW28762   3.459   3.683  10.269  0.6611  0.2089 -0.0432
 5767SOL    HW128763   3.431   3.651  10.355 -3.0003  2.7321 -0.3025
 5767SOL    HW228764   3.446   3.606  10.213  0.6224  1.8463 -2.2745
 5768SOL     OW28765   4.686   1.835   3.844  0.0097  0.1828  0.2627
 5768SOL    HW128766   4.703   1.864   3.754  0.3144  0.5877  0.4490
 5768SOL    HW228767   4.631   1.905   3.879 -0.1450 -0.1091  0.5961
 5769SOL     OW28768   2.205   0.434   2.699  0.3587 -0.0894 -0.0630
 5769SOL    HW128769   2.127   0.403   2.653 -0.1880 -0.1214  0.8725
 5769SOL    HW228770   2.254   0.352   2.694 -0.4390 -0.8082  3.5695
 5770SOL     OW28771   3.217   1.434  16.146 -0.3165 -0.3422  0.3130
 5770SOL    HW128772   3.150   1.367  16.153 -0.7355 -0.2515 -2.5700
 5770SOL    HW228773   3.161   1.502  16.108  0.6175 -0.0221 -0.5212
 5771SOL     OW28774   1.955   2.818   5.816 -0.1111  0.4466  0.1344
 5771SOL    HW128775   1.879   2.850   5.768 -1.1335  1.7671  2.5833
 5771SOL    HW228776   1.909   2.758   5.875 -0.2507 -0.2239 -0.6544
 5772SOL     OW28777   1.675   4.020   6.364 -0.4872 -0.3357  0.2214
 5772SOL    HW128778   1.753   4.014   6.309  0.8839  2.7937  1.7951
 5772SOL    HW228779   1.704   4.031   6.455 -1.1585 -0.9920  0.5154
 5773SOL     OW28780   1.418   1.052   8.805 -0.2372  0.2302  0.2195
 5773SOL    HW128781   1.439   1.144   8.820 -1.2010  0.5964 -0.6659
 5773SOL    HW228782   1.324   1.058   8.820 -0.5115  1.4753 -2.0277
 5774SOL     OW28783   4.685   3.411   5.152  0.2245 -0.0084  0.4879
 5774SOL    HW128784   0.049   3.379   5.136  0.7139  1.7791 -0.4003
 5774SOL    HW228785   4.652   3.369   5.232 -0.5838 -3.5435 -1.7191
 5775SOL     OW28786   4.679   1.077  15.997 -0.3852 -0.7272 -0.1395
 5775SOL    HW128787   4.715   1.161  15.969  1.0974 -1.5256 -0.6121
 5775SOL    HW228788   0.036   1.026  15.993  0.4969  0.4863  1.9346
 5776SOL     OW28789   2.978   1.914  14.225  0.0931  0.9469 -0.0587
 5776SOL    HW128790   2.934   1.996  14.200  1.2246  2.0791  1.6263
 5776SOL    HW228791   3.013   1.947  14.308  2.1498 -4.5462  1.2028
 5777SOL     OW28792   1.493   3.825   5.005  0.0862 -0.7837  0.4239
 5777SOL    HW128793   1.522   3.839   5.095 -1.8426 -1.7290  1.2098
 5777SOL    HW228794   1.537   3.743   4.981  2.4596  0.3670  0.9466
 5778SOL     OW28795   1.793   1.131  13.517  0.6533 -0.1615  0.2107
 5778SOL    HW128796   1.742   1.135  13.598 -1.0910  0.5857 -0.9271
 5778SOL    HW228797   1.846   1.053  13.534 -4.2097 -2.9700  2.4752
 5779SOL     OW28798   4.581   2.388  15.251  0.0109 -0.5901  0.4993
 5779SOL    HW128799   4.509   2.327  15.268 -0.6657  0.3420  0.9793
 5779SOL    HW228800   4.551   2.460  15.307 -1.5231 -0.9196  0.1112
 5780SOL     OW28801   2.356   2.223   1.771 -0.2986 -0.0006  0.5542
 5780SOL    HW128802   2.271   2.212   1.813 -1.2999 -0.5323 -1.5943
 5780SOL    HW228803   2.359   2.318   1.767  1.5854 -0.3122 -5.2021
 5781SOL     OW28804   1.856   3.622   5.660  0.8396 -0.1988 -0.2096
 5781SOL    HW128805   1.923   3.634   5.592 -1.3965 -0.2091 -2.4320
 5781SOL    HW228806   1.902   3.642   5.741  0.5967 -0.1965 -0.0733
 5782SOL     OW28807   0.944   2.282  16.268  0.4860  0.3645  0.1000
 5782SOL    HW128808   0.867   2.339  16.272  0.0998 -0.0824 -1.0530
 5782SOL    HW228809   1.012   2.340  16.234 -0.9506  0.8724 -1.9037
 5783SOL     OW28810   2.180   2.221   2.006  0.4232  0.0175  0.0003
 5783SOL    HW128811   2.168   2.184   2.093 -2.7937  1.6264  0.2183
 5783SOL    HW228812   2.160   2.314   2.019 -0.8129  0.0370 -1.9729
 5784SOL     OW28813   1.684   2.705   8.787  0.4137  0.6943 -0.5273
 5784SOL    HW128814   1.756   2.676   8.731  0.4525 -0.3950  0.0998
 5784SOL    HW228815   1.629   2.627   8.794  0.3646  0.5508 -2.5025
 5785SOL     OW28816   0.239   2.241   5.942  0.1228  0.5198 -0.5344
 5785SOL    HW128817   0.292   2.166   5.916 -0.8621 -0.6236  0.7739
 5785SOL    HW228818   0.302   2.301   5.985  2.1908 -1.2079 -1.1610
 5786SOL     OW28819   4.094   0.079   1.938  0.3257 -0.0793 -0.0167
 5786SOL    HW128820   4.057   0.155   1.893  2.8284  0.6366 -0.8962
 5786SOL    HW228821   4.185   0.107   1.927  1.0289 -1.1368  3.0712
 5787SOL     OW28822   0.531   0.239   8.582 -0.3218 -0.0697 -0.1421
 5787SOL    HW128823   0.604   0.298   8.601 -0.8400 -0.2384  2.3623
 5787SOL    HW228824   0.570   0.152   8.587  0.3580 -0.0126 -4.4975
 5788SOL     OW28825   0.920   2.659   3.487  0.4639 -0.0424  0.2448
 5788SOL    HW128826   0.979   2.708   3.429  0.9299 -0.5917  0.2452
 5788SOL    HW228827   0.876   2.609   3.418  1.9428 -1.2611  0.1645
 5789SOL     OW28828   0.302   3.736   8.224  0.1433 -0.2155 -0.5354
 5789SOL    HW128829   0.346   3.670   8.171  0.3176 -0.8913  0.4646
 5789SOL    HW228830   0.369   3.756   8.290 -1.9157 -0.2711  1.5897
 5790SOL     OW28831   1.288   2.873  10.625  0.4198  0.0378 -0.7723
 5790SOL    HW128832   1.372   2.901  10.663 -0.2991 -0.8838  1.4934
 5790SOL    HW228833   1.257   2.811  10.691  0.8982  1.2554  0.5996
 5791SOL     OW28834   2.997   1.266  16.152  0.1072 -0.7564  0.2766
 5791SOL    HW128835   2.937   1.198  16.122 -0.1902 -0.6066  0.5348
 5791SOL    HW228836   2.947   1.305  16.224  0.8420 -0.3255  0.5548
 5792SOL     OW28837   2.457   0.871   4.621  0.0957 -1.2503 -0.4486
 5792SOL    HW128838   2.405   0.915   4.553 -0.3303  0.3624  0.9028
 5792SOL    HW228839   2.546   0.864   4.588 -0.5539 -1.1810 -2.2291
 5793SOL     OW28840   3.813   2.982   0.538  0.0806  0.0331 -0.0674
 5793SOL    HW128841   3.774   3.009   0.622  0.3629  1.3349 -0.3629
 5793SOL    HW228842   3.774   3.045   0.477  1.3716 -0.0076 -0.9144
 5794SOL     OW28843   0.961   0.502   2.810  0.1211 -0.0268 -0.8336
 5794SOL    HW128844   1.013   0.563   2.757 -1.0291  0.7314 -1.0844
 5794SOL    HW228845   0.883   0.552   2.833  1.0595  1.0082  0.1394
 5795SOL     OW28846   4.031   1.186   6.506  0.4170 -0.3087  0.7568
 5795SOL    HW128847   4.028   1.091   6.498 -1.3149  0.0038 -2.1567
 5795SOL    HW228848   3.953   1.199   6.561  0.2669  3.4436 -0.3224
 5796SOL     OW28849   3.787   3.122  10.658 -0.8995  0.1242  0.3710
 5796SOL    HW128850   3.802   3.117  10.564  0.1942 -1.4183  0.6312
 5796SOL    HW228851   3.875   3.100  10.688 -0.2408  1.2158 -0.7681
 5797SOL     OW28852   2.857   0.229   1.948 -0.3278 -0.0997 -0.0942
 5797SOL    HW128853   2.807   0.188   1.878  1.5108 -1.9009 -0.3538
 5797SOL    HW228854   2.931   0.252   1.891  0.6926 -1.8314  0.5334
 5798SOL     OW28855   1.623   4.001   4.594  0.3111 -0.0330 -0.2777
 5798SOL    HW128856   1.547   3.989   4.652  1.6680 -1.5068  1.1831
 5798SOL    HW228857   1.612   3.933   4.528 -0.8418  0.3155 -0.4506
 5799SOL     OW28858   4.308   0.534   6.597 -0.0366  0.4659 -0.4481
 5799SOL    HW128859   4.383   0.475   6.589  0.2810  0.5988  1.5353
 5799SOL    HW228860   4.250   0.495   6.532 -1.3588 -0.8576  1.4918
 5800SOL     OW28861   3.385   3.956  10.637 -0.4029  0.4031 -0.2103
 5800SOL    HW128862   3.348   3.868  10.631  2.7351 -0.9388  0.3505
 5800SOL    HW228863   3.452   3.943  10.704  0.0968 -0.9565 -0.9741
 5801SOL     OW28864   0.380   1.437   2.178 -0.3526  0.1380 -0.0643
 5801SOL    HW128865   0.323   1.473   2.246 -0.4729 -1.2615  0.5647
 5801SOL    HW228866   0.394   1.510   2.117  0.4058 -1.2189 -1.5049
 5802SOL     OW28867   4.563   1.453   4.200  0.2438  0.2623  0.4177
 5802SOL    HW128868   4.487   1.407   4.164  0.6564 -0.9117  1.0204
 5802SOL    HW228869   4.566   1.528   4.141 -1.4120 -1.0701 -1.3905
 5803SOL     OW28870   2.450   1.316   7.302  0.2972  0.0081 -0.5231
 5803SOL    HW128871   2.391   1.327   7.376  2.6108 -1.5078  1.5249
 5803SOL    HW228872   2.480   1.404   7.280  1.7426 -0.6185 -1.0486
 5804SOL     OW28873   0.313   0.752   8.552  0.3120  0.3500  0.1739
 5804SOL    HW128874   0.347   0.694   8.485  1.1579  1.6283 -0.5088
 5804SOL    HW228875   0.219   0.756   8.534  0.4797  1.4843 -0.4229
 5805SOL     OW28876   1.632   1.726   2.232 -0.0215  0.3976 -0.3946
 5805SOL    HW128877   1.644   1.649   2.287  1.1507  2.6592  2.5276
 5805SOL    HW228878   1.665   1.677   2.157  1.2042 -0.3439  0.6280
 5806SOL     OW28879   0.574   3.277   3.073 -0.2171  0.5382 -0.0705
 5806SOL    HW128880   0.643   3.291   3.009 -0.4074  1.1004 -0.1593
 5806SOL    HW228881   0.577   3.185   3.101 -1.5375  0.3101 -0.6764
 5807SOL     OW28882   2.096   3.962   0.223  0.1507  0.2873  0.6945
 5807SOL    HW128883   2.092   3.881   0.275 -1.0890 -0.2218 -0.1838
 5807SOL    HW228884   2.026   3.938   0.162  1.2392 -0.6779 -0.1712
 5808SOL     OW28885   1.553   0.866  10.726  0.6187 -0.0003 -0.5303
 5808SOL    HW128886   1.556   0.956  10.760  0.8354  0.0477 -0.6742
 5808SOL    HW228887   1.498   0.883  10.649 -1.3016  1.8586  1.2410
 5809SOL     OW28888   0.691   2.456  13.362  0.2821  0.8137 -0.5197
 5809SOL    HW128889   0.668   2.549  13.359  1.1450  1.0253 -0.3806
 5809SOL    HW228890   0.638   2.423  13.289 -1.1050 -1.2944  1.4427
 5810SOL     OW28891   1.676   3.281   6.594 -0.5887 -0.5737  0.4856
 5810SOL    HW128892   1.657   3.346   6.526  0.9948  0.2253  0.8196
 5810SOL    HW228893   1.756   3.322   6.625  0.7343 -0.6395 -2.7963
 5811SOL     OW28894   3.474   3.970  15.358 -0.1435  0.1036 -0.4645
 5811SOL    HW128895   3.506   4.026  15.287  0.8549  1.6010  1.1565
 5811SOL    HW228896   3.433   4.038  15.411 -0.4897 -1.4749  1.2774
 5812SOL     OW28897   3.203   3.156   7.166 -0.1169  0.6456 -0.0090
 5812SOL    HW128898   3.167   3.068   7.159  0.1289  0.4335  1.2975
 5812SOL    HW228899   3.292   3.131   7.191 -0.6254 -0.6092  0.5583
 5813SOL     OW28900   3.520   0.495   8.726 -0.0106 -0.4340 -0.2401
 5813SOL    HW128901   3.549   0.545   8.802 -3.2637  2.3128 -0.7944
 5813SOL    HW228902   3.550   0.550   8.653 -1.1393 -0.1548 -0.5010
 5814SOL     OW28903   1.704   0.393   8.073 -0.2660  0.3318 -0.0237
 5814SOL    HW128904   1.623   0.380   8.122  1.4461  1.9083  3.1574
 5814SOL    HW228905   1.690   0.322   8.010 -3.0158  0.0949  0.8440
 5815SOL     OW28906   4.011   1.096  13.338 -0.8071  0.4219  0.4944
 5815SOL    HW128907   3.999   1.039  13.262  2.3569 -0.1815  0.4468
 5815SOL    HW228908   4.060   1.173  13.307  0.8030 -0.0486  1.8939
 5816SOL     OW28909   2.111   0.222   0.554 -0.0195  0.2516 -0.9951
 5816SOL    HW128910   2.160   0.141   0.571 -0.8910 -0.5028 -2.1063
 5816SOL    HW228911   2.119   0.257   0.643 -2.0864 -1.0410 -0.2994
 5817SOL     OW28912   1.388   3.936   2.223 -0.4492  0.3811 -0.0857
 5817SOL    HW128913   1.372   3.914   2.132  0.9188  4.3833 -1.3346
 5817SOL    HW228914   1.477   3.972   2.219 -0.0060 -0.4236  2.4013
 5818SOL     OW28915   0.164   0.813   8.948  0.7226  0.3411 -0.1415
 5818SOL    HW128916   0.115   0.733   8.930  2.1434  0.0688 -2.8377
 5818SOL    HW228917   0.247   0.797   8.992  2.2711  0.2907 -3.0939
 5819SOL     OW28918   4.638   3.668   8.032  0.4852  0.2460 -0.0984
 5819SOL    HW128919   4.702   3.728   8.069  0.4197  0.4224 -0.2695
 5819SOL    HW228920   4.554   3.686   8.075  0.3956  1.0362 -0.5834
 5820SOL     OW28921   3.268   3.223   2.290 -0.0122 -0.3200 -0.6000
 5820SOL    HW128922   3.340   3.242   2.230 -0.7634 -1.8155 -1.9677
 5820SOL    HW228923   3.223   3.307   2.303 -1.8264 -1.5638  1.2377
 5821SOL     OW28924   4.628   0.118  11.623  0.8979  0.4644 -0.0158
 5821SOL    HW128925   4.723   0.119  11.607  0.4510  1.1570 -2.6078
 5821SOL    HW228926   4.596   0.196  11.578  0.4305  1.7408  2.5647
 5822SOL     OW28927   3.920   0.227   8.057 -0.7972 -0.1362 -0.0203
 5822SOL    HW128928   3.847   0.289   8.063 -0.9723 -0.1909 -1.4418
 5822SOL    HW228929   3.875   0.143   8.050 -2.7717  0.8398  0.7269
 5823SOL     OW28930   0.409   3.147  14.968 -0.7063  0.6812  0.3056
 5823SOL    HW128931   0.362   3.114  14.891 -1.5274  1.7673  0.3366
 5823SOL    HW228932   0.340   3.142  15.034  0.3124  1.3082  1.4248
 5824SOL     OW28933   0.363   0.774   2.882 -0.2065  0.0444  0.1617
 5824SOL    HW128934   0.440   0.730   2.845  0.9764  2.0699  0.1610
 5824SOL    HW228935   0.400   0.801   2.966  0.9479 -0.4624 -0.1802
 5825SOL     OW28936   1.375   1.536   9.170 -0.1595  0.0491 -0.2166
 5825SOL    HW128937   1.362   1.452   9.124 -2.1670 -0.5103  1.3582
 5825SOL    HW228938   1.464   1.523   9.203  0.0126 -0.6808 -0.9518
 5826SOL     OW28939   1.243   1.818   7.143  0.2697 -0.1502 -0.2840
 5826SOL    HW128940   1.213   1.849   7.229  1.4220  0.3911 -0.0726
 5826SOL    HW228941   1.188   1.865   7.080 -0.3123 -3.6864 -2.4282
 5827SOL     OW28942   0.569   3.979   8.111  0.1041  0.1492 -0.6926
 5827SOL    HW128943   0.577   3.948   8.202  1.6342  0.9953 -0.5325
 5827SOL    HW228944   0.588   3.911   8.046 -2.9628 -0.0791 -1.3395
 5828SOL     OW28945   1.904   1.829  11.199 -0.2525  0.2690  0.1415
 5828SOL    HW128946   1.942   1.915  11.178  0.1793 -0.1246 -0.6811
 5828SOL    HW228947   1.980   1.772  11.187 -0.8519 -1.2133  3.5468
 5829SOL     OW28948   0.428   2.105   6.713 -0.1011 -0.3886 -0.5943
 5829SOL    HW128949   0.407   2.192   6.681 -2.4817  0.2433  2.7705
 5829SOL    HW228950   0.399   2.049   6.641 -2.4385  0.4136 -0.2744
 5830SOL     OW28951   4.444   1.363  10.586 -0.5780  0.3161  0.0617
 5830SOL    HW128952   4.386   1.437  10.569  1.3340  1.5401 -1.1391
 5830SOL    HW228953   4.381   1.299  10.621  0.6104 -0.6301  0.4684
 5831SOL     OW28954   1.881   1.385  13.580  0.2927 -0.4524 -0.0029
 5831SOL    HW128955   1.876   1.299  13.539  0.2393 -0.1797 -0.5693
 5831SOL    HW228956   1.864   1.441  13.505  1.0921  0.9271  0.8454
 5832SOL     OW28957   3.245   0.861   0.273 -0.6056 -0.2402 -0.4302
 5832SOL    HW128958   3.260   0.819   0.358 -2.2739  1.3068  0.6326
 5832SOL    HW228959   3.257   0.791   0.208  1.8989  0.3629 -0.6360
 5833SOL     OW28960   2.502   1.498   0.955  0.9212  0.6996  0.4362
 5833SOL    HW128961   2.566   1.549   1.005 -1.6429  2.5978  1.7864
 5833SOL    HW228962   2.425   1.554   0.960  0.1891 -0.0479 -2.5059
 5834SOL     OW28963   2.035   1.184  14.037  0.8006  0.1469  0.4414
 5834SOL    HW128964   1.970   1.237  14.082 -0.6465 -0.5864 -0.7803
 5834SOL    HW228965   2.021   1.093  14.063 -1.5921  0.3131 -0.2647
 5835SOL     OW28966   4.056   1.730   3.271 -0.3601 -0.4702 -0.1229
 5835SOL    HW128967   4.144   1.697   3.287  0.0404  1.9741  2.6148
 5835SOL    HW228968   4.086   1.805   3.221 -0.1348  0.3240  1.2028
 5836SOL     OW28969   0.749   2.709   5.939 -0.4982  0.0164 -0.0625
 5836SOL    HW128970   0.798   2.666   5.868  3.3852 -0.7211  3.0487
 5836SOL    HW228971   0.808   2.784   5.948 -0.2372 -0.1604 -0.2857
 5837SOL     OW28972   4.597   4.084   3.538  0.2099 -0.0573 -0.4325
 5837SOL    HW128973   4.528   4.017   3.540 -0.3159  0.4897 -0.2650
 5837SOL    HW228974   4.665   4.024   3.506  0.3973 -0.6449  1.0487
 5838SOL     OW28975   1.161   0.734  11.432  0.1711 -0.1491 -0.4919
 5838SOL    HW128976   1.115   0.780  11.361 -0.8974 -3.2738 -1.8679
 5838SOL    HW228977   1.087   0.685  11.468 -0.2164 -0.1333 -1.2541
 5839SOL     OW28978   2.165   4.428  10.035  0.0069 -0.1802  0.0524
 5839SOL    HW128979   2.165   4.523  10.032  2.1161 -0.1368  1.2925
 5839SOL    HW228980   2.080   4.406   9.997  0.4489 -0.1505 -0.9475
 5840SOL     OW28981   0.483   3.254   5.080  0.3673  0.5169 -0.5699
 5840SOL    HW128982   0.558   3.203   5.112 -1.2554 -0.6809  1.3822
 5840SOL    HW228983   0.529   3.334   5.054  2.4950  0.1460  2.0647
 5841SOL     OW28984   1.176   1.760   8.069  0.8590 -0.0944  0.3984
 5841SOL    HW128985   1.205   1.705   8.142 -0.2467 -0.4406  0.5698
 5841SOL    HW228986   1.153   1.689   8.009 -0.7096  2.2736 -1.8372
 5842SOL     OW28987   0.679   2.562   4.994  0.1496 -0.4077  0.9428
 5842SOL    HW128988   0.707   2.530   4.908 -1.7601 -0.8764  0.5007
 5842SOL    HW228989   0.765   2.567   5.037  1.6394  0.3520 -2.1376
 5843SOL     OW28990   3.193   2.399   5.955 -0.3467  0.0864 -0.1062
 5843SOL    HW128991   3.099   2.413   5.946 -0.4713 -0.7961 -0.1639
 5843SOL    HW228992   3.204   2.347   5.876 -0.8218  0.7883 -0.6372
 5844SOL     OW28993   0.189   3.331  14.781  0.4579  0.3334 -0.5892
 5844SOL    HW128994   0.126   3.334  14.709 -2.4996  1.5751  2.0686
 5844SOL    HW228995   0.186   3.236  14.782 -1.3283  0.3859 -0.8296
 5845SOL     OW28996   0.316   0.481   1.423  0.2617 -0.1783  0.2963
 5845SOL    HW128997   0.343   0.400   1.466  3.0403  0.2169 -0.7155
 5845SOL    HW228998   0.340   0.463   1.332  2.7527  1.7382  0.5872
 5846SOL     OW28999   2.807   1.193  15.322  0.8341  0.0668 -0.4217
 5846SOL    HW129000   2.764   1.168  15.404  2.4061  1.8753  0.9539
 5846SOL    HW229001   2.897   1.177  15.348  0.2832  0.2561  1.6318
 5847SOL     OW29002   1.848   1.197  10.900  1.0756 -0.0321 -0.1481
 5847SOL    HW129003   1.810   1.141  10.968  1.2398  0.7216  0.5692
 5847SOL    HW229004   1.773   1.254  10.883  1.1398 -0.1726 -0.8889
 5848SOL     OW29005   0.956   4.603   9.401 -0.8130  0.0641 -0.4300
 5848SOL    HW129006   0.936   4.552   9.479  1.5256 -0.9992 -0.5341
 5848SOL    HW229007   0.978   4.528   9.346 -1.2575 -1.0917  0.9762
 5849SOL     OW29008   0.329   0.107  13.302 -0.1256  0.0148 -0.4619
 5849SOL    HW129009   0.249   0.071  13.340 -0.9154  0.9358 -1.2395
 5849SOL    HW229010   0.325   0.083  13.209  0.4711 -0.5027 -0.3481
 5850SOL     OW29011   0.586   3.839   9.214  0.3118  0.0789  0.0151
 5850SOL    HW129012   0.612   3.751   9.187  0.0831 -0.8206  2.7297
 5850SOL    HW229013   0.497   3.826   9.246 -0.1025 -0.9282 -1.5492
 5851SOL     OW29014   3.588   2.819   6.766  0.5649  0.2874  0.0735
 5851SOL    HW129015   3.624   2.766   6.694  0.3442  1.4459 -0.8977
 5851SOL    HW229016   3.655   2.795   6.830 -0.4921 -1.3724  0.5395
 5852SOL     OW29017   4.118   0.667  14.341 -0.6406  0.0759 -0.1672
 5852SOL    HW129018   4.135   0.721  14.264  0.6430  0.0995  0.1473
 5852SOL    HW229019   4.025   0.688  14.357 -1.0886 -1.2133 -1.1299
 5853SOL     OW29020   2.248   4.365   2.298  0.1238 -0.2658  0.1661
 5853SOL    HW129021   2.311   4.423   2.339 -0.8669  0.2542  0.9435
 5853SOL    HW229022   2.184   4.378   2.368 -1.0724 -1.3345 -0.7152
 5854SOL     OW29023   1.735   3.323  14.257 -0.5938  0.2651  0.2049
 5854SOL    HW129024   1.672   3.286  14.319  1.1404 -0.9016  1.2283
 5854SOL    HW229025   1.713   3.416  14.259 -1.6720  0.0160  0.4402
 5855SOL     OW29026   1.517   2.814   2.246 -0.2652  0.1105  0.2751
 5855SOL    HW129027   1.474   2.733   2.218  0.5157  0.4215 -1.8788
 5855SOL    HW229028   1.604   2.785   2.272 -0.1776  0.3724  0.2733
 5856SOL     OW29029   0.006   2.665   0.347  0.4080  0.9744 -0.5474
 5856SOL    HW129030   0.086   2.689   0.394 -1.0133  1.4137  1.6189
 5856SOL    HW229031   0.003   2.569   0.356  2.0449  0.8315 -1.4108
 5857SOL     OW29032   1.517   3.905   6.813 -0.6126  0.3642 -0.2254
 5857SOL    HW129033   1.476   3.983   6.776  0.0982  1.8153  2.0253
 5857SOL    HW229034   1.457   3.841   6.775 -0.3197 -0.3697  0.5545
 5858SOL     OW29035   3.102   2.917   2.667 -0.7179  0.1298  0.6058
 5858SOL    HW129036   3.101   3.010   2.647  2.6261  0.1798  0.7215
 5858SOL    HW229037   3.011   2.889   2.680 -1.5850  3.0644  0.7779
 5859SOL     OW29038   2.906   3.360   9.491  0.1331 -0.3736  0.8649
 5859SOL    HW129039   2.840   3.403   9.545 -0.9729 -2.0106  0.8496
 5859SOL    HW229040   2.987   3.409   9.498 -1.8460  3.0705 -0.1512
 5860SOL     OW29041   2.692   4.306   5.529 -0.0140  0.6581 -0.3867
 5860SOL    HW129042   2.676   4.397   5.506  0.1676  0.8129  0.0989
 5860SOL    HW229043   2.674   4.252   5.452 -1.2417  0.7483 -0.1666
 5861SOL     OW29044   3.822   3.557   2.814  0.3300  0.4277 -0.3780
 5861SOL    HW129045   3.852   3.569   2.904 -1.3511  1.7524  0.0127
 5861SOL    HW229046   3.740   3.607   2.819  0.5238  0.4335  2.5734
 5862SOL     OW29047   0.364   2.332  17.509 -0.3016 -0.9743  0.1372
 5862SOL    HW129048   0.442   2.298  17.553  0.7132  0.5873 -0.4622
 5862SOL    HW229049   0.319   2.248  17.497 -0.1172 -0.9644 -0.5878
 5863SOL     OW29050   1.122   3.450   2.375 -0.2954  0.5619  0.1886
 5863SOL    HW129051   1.196   3.393   2.398 -0.7816 -0.0921  0.1540
 5863SOL    HW229052   1.153   3.486   2.292 -0.9331  1.0426  0.1613
 5864SOL     OW29053   1.222   4.549   7.188 -0.1543  0.3682  0.8492
 5864SOL    HW129054   1.251   4.460   7.170 -1.8262 -0.6327  3.1244
 5864SOL    HW229055   1.224   4.550   7.283 -2.1099  1.6265  0.8745
 5865SOL     OW29056   2.141   4.089   6.232  0.0840  0.3502  0.1300
 5865SOL    HW129057   2.210   4.102   6.297 -0.1198  0.9328  0.2358
 5865SOL    HW229058   2.174   4.011   6.188 -1.4212 -0.0518 -0.2824
 5866SOL     OW29059   3.842   2.073   7.451 -0.2294 -0.2111  0.1832
 5866SOL    HW129060   3.819   2.023   7.529  1.3278 -2.7915 -1.0191
 5866SOL    HW229061   3.876   1.997   7.404 -0.1120  1.1189 -1.8975
 5867SOL     OW29062   3.270   4.056   7.107 -0.1572 -0.2310  0.3616
 5867SOL    HW129063   3.218   4.109   7.046  0.8176 -1.0262 -1.1453
 5867SOL    HW229064   3.245   4.088   7.194 -0.6378  1.3317 -0.3410
 5868SOL     OW29065   0.981   1.394   5.267  0.2768  0.3327 -0.1058
 5868SOL    HW129066   1.059   1.380   5.321 -1.3486  0.0128  2.1375
 5868SOL    HW229067   1.022   1.413   5.183  0.2247 -0.4342 -0.3064
 5869SOL     OW29068   2.221   3.603   6.179 -0.0416  0.0327  0.5070
 5869SOL    HW129069   2.225   3.580   6.272  0.1869  1.8663  0.9661
 5869SOL    HW229070   2.127   3.596   6.162  0.0575  1.1577 -0.5626
 5870SOL     OW29071   1.691   3.341   4.902  0.5142  0.1534  0.2005
 5870SOL    HW129072   1.635   3.271   4.935  0.9227 -0.3190 -0.0972
 5870SOL    HW229073   1.631   3.406   4.867  1.4757 -0.7101 -3.0452
 5871SOL     OW29074   4.011   1.092   9.959 -0.3037  0.0049 -0.2675
 5871SOL    HW129075   3.954   1.073  10.033  0.3164  0.0748  0.2216
 5871SOL    HW229076   3.936   1.130   9.913 -1.0289  0.0363  0.9504
 5872SOL     OW29077   0.744   1.819  10.741  0.6041 -0.0139 -0.1715
 5872SOL    HW129078   0.778   1.806  10.830 -0.6098  1.7354  0.5511
 5872SOL    HW229079   0.821   1.859  10.700 -0.4412  0.9125 -1.2464
 5873SOL     OW29080   0.502   0.367   6.368 -0.4858 -0.9099 -0.2084
 5873SOL    HW129081   0.510   0.390   6.460 -0.8694  1.0947 -0.6802
 5873SOL    HW229082   0.424   0.414   6.338  0.6937  2.5834  2.2333
 5874SOL     OW29083   2.948   2.312   8.435 -0.5105 -0.0778 -0.5365
 5874SOL    HW129084   2.868   2.350   8.471  0.3133 -0.7377  1.9442
 5874SOL    HW229085   3.005   2.306   8.511 -0.4747 -0.7151 -0.6075
 5875SOL     OW29086   0.979   1.387  16.991  0.3129 -0.7043  0.0317
 5875SOL    HW129087   0.960   1.478  16.970  0.7737  0.0443  2.8999
 5875SOL    HW229088   0.917   1.365  17.060 -0.7972  1.7378 -0.2181
 5876SOL     OW29089   2.079   4.689   9.550  0.1893 -0.2929 -0.0847
 5876SOL    HW129090   2.165   4.702   9.590  1.0827 -2.4719 -1.2794
 5876SOL    HW229091   2.105   4.646   9.468  1.3588  1.6566 -0.7334
 5877SOL     OW29092   2.140   3.295  16.646  0.4781  0.1167  0.3730
 5877SOL    HW129093   2.219   3.307  16.592  1.2540  0.9756  1.7084
 5877SOL    HW229094   2.098   3.380  16.631  0.9709  0.3180  0.1206
 5878SOL     OW29095   0.258   2.427   3.440 -0.1889 -0.2650 -0.3334
 5878SOL    HW129096   0.188   2.470   3.390 -1.9058 -1.7880  0.7780
 5878SOL    HW229097   0.318   2.430   3.366  0.2200  0.4343  0.0283
 5879SOL     OW29098   2.458   3.839   6.327 -0.0305  0.5359 -0.3061
 5879SOL    HW129099   2.448   3.805   6.416  2.1489  1.0664  0.1257
 5879SOL    HW229100   2.540   3.795   6.306  0.3207  2.2555 -2.4315
 5880SOL     OW29101   3.405   1.042  14.836 -0.1844  0.0981  0.1918
 5880SOL    HW129102   3.413   0.997  14.920  0.6273 -0.8765 -0.4094
 5880SOL    HW229103   3.452   1.124  14.854 -1.1391  0.1107  2.5835
 5881SOL     OW29104   1.041   3.963   3.498  0.1729  0.8156 -0.1716
 5881SOL    HW129105   1.007   4.029   3.438  0.1413  0.6052 -0.3868
 5881SOL    HW229106   1.135   3.970   3.482  0.2385 -2.1432 -0.9664
 5882SOL     OW29107   2.691   3.431   2.803  0.3828 -0.1041  0.2579
 5882SOL    HW129108   2.714   3.344   2.835 -0.3210 -0.4460 -0.1769
 5882SOL    HW229109   2.775   3.457   2.765 -0.1306 -0.5666 -1.2096
 5883SOL     OW29110   1.480   2.982   2.018 -0.0105  0.8622  0.9900
 5883SOL    HW129111   1.471   2.940   2.103 -1.5549 -0.5229  0.1480
 5883SOL    HW229112   1.493   3.074   2.043  0.8764  0.4784  1.9432
 5884SOL     OW29113   1.430   4.494   0.805 -0.1664 -0.1513  0.3512
 5884SOL    HW129114   1.392   4.458   0.724 -1.4014  2.1601 -0.0771
 5884SOL    HW229115   1.383   4.577   0.814 -0.8630 -0.6761  1.5847
 5885SOL     OW29116   2.248   1.636   1.837 -0.4256 -0.4894  0.0723
 5885SOL    HW129117   2.342   1.629   1.822 -0.6216  0.6690 -1.6796
 5885SOL    HW229118   2.228   1.690   1.913 -0.3144  0.7586 -0.7753
 5886SOL     OW29119   2.877   3.264  11.361  0.1744  0.1568 -0.4284
 5886SOL    HW129120   2.811   3.330  11.382 -0.1193  0.0542 -1.0124
 5886SOL    HW229121   2.820   3.195  11.326  0.0112  0.3475 -0.5371
 5887SOL     OW29122   2.825   0.585  15.770 -0.2805  0.4169 -0.4638
 5887SOL    HW129123   2.778   0.502  15.771  0.8671 -0.2065  0.8445
 5887SOL    HW229124   2.911   0.556  15.801 -1.0203 -0.3071  0.8705
 5888SOL     OW29125   3.979   2.714  14.995 -0.6228  0.5919 -0.0872
 5888SOL    HW129126   3.977   2.619  14.983  0.4138  0.5347  0.2103
 5888SOL    HW229127   4.032   2.744  14.922  1.4721 -0.0065  1.1889
 5889SOL     OW29128   0.261   3.948   4.872  0.2626 -0.1071  0.2700
 5889SOL    HW129129   0.276   3.869   4.924 -0.0855  0.2304  0.8793
 5889SOL    HW229130   0.276   4.014   4.939  1.3693  0.7713 -0.8406
 5890SOL     OW29131   4.715   4.079  16.456 -0.3233  0.0467 -0.1686
 5890SOL    HW129132   4.623   4.062  16.439  0.4495 -1.2113 -3.0124
 5890SOL    HW229133   0.018   3.996  16.495 -1.1384 -0.8483 -1.5515
 5891SOL     OW29134   3.501   4.323   6.151 -0.3212  0.1028 -0.7649
 5891SOL    HW129135   3.576   4.369   6.189 -0.3900  0.6610 -1.3112
 5891SOL    HW229136   3.545   4.250   6.107  0.0549 -0.0635 -0.1130
 5892SOL     OW29137   2.737   0.328   4.868  0.0249  0.3385 -0.0459
 5892SOL    HW129138   2.724   0.387   4.942  0.3189  1.1572 -0.6491
 5892SOL    HW229139   2.815   0.363   4.825  0.7095 -1.4962 -0.3035
 5893SOL     OW29140   0.308   0.419   0.559  0.3748 -0.2673  0.2817
 5893SOL    HW129141   0.341   0.330   0.550  2.8157  0.7141 -0.4707
 5893SOL    HW229142   0.348   0.434   0.645  1.6192  0.3943 -0.4064
 5894SOL     OW29143   2.261   1.514   5.725 -0.2855  0.0207 -0.3174
 5894SOL    HW129144   2.325   1.585   5.735  2.0644 -2.1296 -0.0757
 5894SOL    HW229145   2.313   1.438   5.752  1.5326  1.6183  0.6496
 5895SOL     OW29146   3.414   4.099   1.502 -0.4280 -0.6976 -0.0400
 5895SOL    HW129147   3.480   4.069   1.440  1.0267 -0.3837  1.3482
 5895SOL    HW229148   3.399   4.188   1.470 -1.0280 -1.1495 -1.0237
 5896SOL     OW29149   2.492   3.553   9.086  0.3925  0.0195 -0.3121
 5896SOL    HW129150   2.530   3.636   9.116 -1.0121 -0.1781  2.0036
 5896SOL    HW229151   2.461   3.516   9.168  0.0829  2.4918  0.6922
 5897SOL     OW29152   2.356   2.504   1.701 -0.8163 -0.2998 -0.2362
 5897SOL    HW129153   2.436   2.504   1.648  0.2757 -0.2732  1.4238
 5897SOL    HW229154   2.376   2.569   1.768 -1.0939  0.1138 -0.5513
 5898SOL     OW29155   0.741   4.391   9.167  0.1007 -0.0917  0.1464
 5898SOL    HW129156   0.681   4.330   9.123 -0.6287 -0.7057  1.9823
 5898SOL    HW229157   0.771   4.336   9.239  0.7068 -0.1850 -0.1784
 5899SOL     OW29158   0.547   0.718  15.127  0.2968  0.3890  0.5678
 5899SOL    HW129159   0.539   0.792  15.067 -2.5878 -1.0149 -0.7558
 5899SOL    HW229160   0.600   0.666  15.066  0.3460  0.1815  0.7879
 5900SOL     OW29161   1.034   2.936  13.921 -0.4010  0.3954  0.0818
 5900SOL    HW129162   0.939   2.930  13.927 -0.4798  0.1489 -1.4703
 5900SOL    HW229163   1.065   2.943  14.012 -0.2103  1.6862 -0.0859
 5901SOL     OW29164   0.310   2.412   4.744 -0.4418  0.4362 -0.5897
 5901SOL    HW129165   0.238   2.438   4.802  0.0948  1.3895 -0.3553
 5901SOL    HW229166   0.337   2.336   4.796 -0.8963  1.5707  1.2805
 5902SOL     OW29167   2.689   1.287   4.227  0.3072  0.1192 -0.1059
 5902SOL    HW129168   2.635   1.218   4.190  0.1757  0.1590  0.0119
 5902SOL    HW229169   2.626   1.351   4.193 -1.7973 -1.8884 -0.0009
 5903SOL     OW29170   2.242   3.004   3.613  0.2346 -0.8477 -0.0554
 5903SOL    HW129171   2.213   3.022   3.524  1.7805 -0.3647 -0.4619
 5903SOL    HW229172   2.156   2.975   3.645  1.0687 -2.1509  1.0256
 5904SOL     OW29173   1.586   0.203  16.280  0.4814 -0.0053  0.2219
 5904SOL    HW129174   1.518   0.135  16.274  0.2102  0.3579 -0.8345
 5904SOL    HW229175   1.609   0.193  16.372 -1.3168  1.1529  0.7888
 5905SOL     OW29176   2.520   3.695   2.919 -0.1574  0.1198  0.0043
 5905SOL    HW129177   2.483   3.708   2.832  1.4402  0.2142 -0.6608
 5905SOL    HW229178   2.615   3.694   2.904  0.0272  0.6692  1.1781
 5906SOL     OW29179   0.037   4.044  17.285 -0.3289  0.4348  0.3973
 5906SOL    HW129180   4.669   4.042  17.257  0.3454 -0.0193 -1.7637
 5906SOL    HW229181   0.076   3.958  17.270 -0.3402  0.5330 -0.1966
 5907SOL     OW29182   0.317   0.046   5.469  0.2404  0.0322  0.0940
 5907SOL    HW129183   0.229   0.065   5.500 -0.1316 -1.7082  0.0765
 5907SOL    HW229184   0.342   4.700   5.530  0.1419  0.9725  1.2320
 5908SOL     OW29185   4.393   4.398   2.228  0.0336  0.3832 -0.5468
 5908SOL    HW129186   4.405   4.312   2.268 -0.2460 -0.2099 -1.7337
 5908SOL    HW229187   4.400   4.451   2.308 -0.9251  2.8458 -2.1016
 5909SOL     OW29188   1.190   2.883   5.785  0.1255 -0.7238 -0.5302
 5909SOL    HW129189   1.159   2.885   5.875  1.2399  2.2916 -0.2143
 5909SOL    HW229190   1.280   2.915   5.795 -0.0877  0.3757 -2.1428
 5910SOL     OW29191   3.213   0.765   5.889  0.2575 -0.3160  0.1079
 5910SOL    HW129192   3.135   0.731   5.932 -0.6093  0.2853 -0.9888
 5910SOL    HW229193   3.281   0.716   5.936  0.7846 -0.4913 -0.8410
 5911SOL     OW29194   3.909   1.557   7.064  0.0648  0.4236 -0.1358
 5911SOL    HW129195   3.815   1.559   7.084  0.1175  2.2055 -0.1172
 5911SOL    HW229196   3.932   1.492   7.130  0.8445 -0.1888 -1.0088
 5912SOL     OW29197   2.901   0.978   3.593 -0.3756 -0.4079 -0.1726
 5912SOL    HW129198   2.896   0.899   3.539 -0.6525 -2.1418  2.4116
 5912SOL    HW229199   2.994   0.997   3.596  0.2000 -2.5182 -4.2798
 5913SOL     OW29200   3.131   4.307   1.558  0.2204  0.1937  0.3288
 5913SOL    HW129201   3.074   4.347   1.623  0.6645 -0.1182  0.9119
 5913SOL    HW229202   3.081   4.231   1.528 -0.0313  0.8322 -0.8617
 5914SOL     OW29203   2.895   3.685   3.866 -0.3043  0.5488 -0.2248
 5914SOL    HW129204   2.901   3.711   3.775  1.9369  2.1999  0.3983
 5914SOL    HW229205   2.969   3.625   3.865 -0.8345 -0.0365 -2.5695
 5915SOL     OW29206   4.349   3.303   6.054 -0.6308 -0.1667 -0.1938
 5915SOL    HW129207   4.410   3.354   6.108 -0.3463 -0.0759 -0.6036
 5915SOL    HW229208   4.311   3.374   6.002 -2.8641 -0.7321  0.6667
 5916SOL     OW29209   2.254   1.730   6.865  0.1606  0.1658 -0.2968
 5916SOL    HW129210   2.178   1.686   6.826 -0.5987 -0.5601  1.9860
 5916SOL    HW229211   2.324   1.682   6.821 -1.5251 -1.0875 -1.6051
 5917SOL     OW29212   3.635   1.632  11.102 -0.1006  0.3971 -0.3728
 5917SOL    HW129213   3.706   1.607  11.160 -0.5721 -0.0169  0.0272
 5917SOL    HW229214   3.595   1.686  11.169  1.1197  0.6754  0.1170
 5918SOL     OW29215   4.003   2.945   4.383 -0.4515 -0.2100  0.6222
 5918SOL    HW129216   3.911   2.956   4.406 -1.3723 -2.5669 -1.9312
 5918SOL    HW229217   3.997   2.857   4.344  3.3862  0.0072 -0.4799
 5919SOL     OW29218   2.431   3.965  13.596  0.3901  0.2918  0.1392
 5919SOL    HW129219   2.480   3.961  13.514 -1.0535 -0.4507 -0.6803
 5919SOL    HW229220   2.427   4.057  13.622  1.3788  0.1795  0.7159
 5920SOL     OW29221   2.966   2.739   2.992 -0.3700 -0.1936  0.3152
 5920SOL    HW129222   3.017   2.763   2.915 -1.9369  1.3871 -0.2318
 5920SOL    HW229223   3.030   2.704   3.054  1.1097  2.0138  0.0382
 5921SOL     OW29224   3.174   3.583   7.979  0.0629  0.3439 -0.5213
 5921SOL    HW129225   3.082   3.583   8.005  0.7760  0.5948  1.9417
 5921SOL    HW229226   3.192   3.669   8.017 -1.1790  1.8163 -3.2163
 5922SOL     OW29227   1.033   2.677   6.240  0.5152 -0.1205 -0.3505
 5922SOL    HW129228   0.954   2.641   6.280  2.2264 -3.1231  0.3324
 5922SOL    HW229229   1.035   2.641   6.151  1.2432 -1.3488  0.1602
 5923SOL     OW29230   1.510   3.035   7.525  0.2657 -0.3911  0.1205
 5923SOL    HW129231   1.466   3.065   7.445 -0.5867 -0.9341  0.3801
 5923SOL    HW229232   1.533   3.121   7.559 -0.4338 -0.3595  0.5218
 5924SOL     OW29233   1.874   4.712   5.602  0.1838 -0.6645 -0.2179
 5924SOL    HW129234   1.910   4.643   5.546  2.4960 -0.4482  1.0153
 5924SOL    HW229235   1.830   4.663   5.672  1.6088  0.4355  1.4311
 5925SOL     OW29236   0.204   2.180   1.709 -0.4972 -0.0482  0.1016
 5925SOL    HW129237   0.119   2.206   1.674  0.0765 -1.3670 -2.2770
 5925SOL    HW229238   0.268   2.234   1.664  1.2486 -1.3536  0.9823
 5926SOL     OW29239   0.876   0.683   8.293  0.2842  0.3761 -0.0866
 5926SOL    HW129240   0.885   0.598   8.251 -1.6967 -0.2685  0.7806
 5926SOL    HW229241   0.960   0.725   8.277  0.1472  0.7645  0.2024
 5927SOL     OW29242   4.398   0.626  12.409  0.3497 -0.1256 -0.1954
 5927SOL    HW129243   4.432   0.553  12.461 -0.0381  1.5532  2.3888
 5927SOL    HW229244   4.430   0.694  12.467 -1.7957 -0.5087  1.4084
 5928SOL     OW29245   4.301   1.391  13.712  0.2211 -0.4071  0.0061
 5928SOL    HW129246   4.279   1.463  13.771 -1.1807 -1.3239  0.6183
 5928SOL    HW229247   4.223   1.378  13.659 -0.1113 -1.1402  0.6681
 5929SOL     OW29248   3.650   2.495  10.782 -0.3394 -0.6129  0.4291
 5929SOL    HW129249   3.735   2.461  10.809  0.0056 -1.1057 -1.2530
 5929SOL    HW229250   3.635   2.571  10.838  0.0209 -1.0153  1.0644
 5930SOL     OW29251   4.646   2.248   8.092  0.4620 -0.3600  0.1960
 5930SOL    HW129252   4.693   2.189   8.151  0.1992  0.6879  1.4469
 5930SOL    HW229253   4.681   2.226   8.006  2.6446  1.7147  0.5699
 5931SOL     OW29254   4.345   1.888   6.696  0.2451 -0.4386 -0.0657
 5931SOL    HW129255   4.349   1.855   6.785 -2.1852 -1.4988 -0.3396
 5931SOL    HW229256   4.293   1.824   6.647 -2.4146  1.1058  0.7440
 5932SOL     OW29257   3.706   0.788  15.447 -0.7281 -0.1575  0.5369
 5932SOL    HW129258   3.617   0.822  15.434 -1.1230 -0.7432  1.7301
 5932SOL    HW229259   3.710   0.720  15.380 -1.2780  0.0518  0.2913
 5933SOL     OW29260   0.171   3.492   1.572  0.6109  0.6378 -0.1554
 5933SOL    HW129261   0.263   3.474   1.592  0.6682  1.6246  0.4942
 5933SOL    HW229262   0.160   3.576   1.616  3.3115  1.5511 -1.2446
 5934SOL     OW29263   2.083   1.471   0.823 -0.1415 -0.2384  0.0019
 5934SOL    HW129264   2.001   1.472   0.774 -0.6845  1.4656  0.9140
 5934SOL    HW229265   2.121   1.396   0.778 -0.9752  0.6585 -2.1935
 5935SOL     OW29266   2.543   1.628   1.794  0.5785  0.5620 -0.4698
 5935SOL    HW129267   2.554   1.692   1.864  2.5189 -0.1741 -0.1131
 5935SOL    HW229268   2.631   1.615   1.758 -0.0048  0.0712 -1.7225
 5936SOL     OW29269   2.311   2.368   2.744 -0.1033 -0.1389  0.0738
 5936SOL    HW129270   2.232   2.329   2.780  1.5840 -0.0431  3.8844
 5936SOL    HW229271   2.379   2.328   2.797  1.3628 -1.6501 -2.9493
 5937SOL     OW29272   3.556   0.760  11.380  0.1144  0.4578 -0.0157
 5937SOL    HW129273   3.537   0.854  11.383 -1.9441 -0.0712  2.9881
 5937SOL    HW229274   3.642   0.761  11.338  0.3107 -1.4765  0.3482
 5938SOL     OW29275   2.079   1.831   4.260 -0.4604  0.5167 -0.9266
 5938SOL    HW129276   2.024   1.784   4.322  0.6849 -2.2122 -2.0073
 5938SOL    HW229277   2.030   1.914   4.254  1.4282  1.7629  0.9804
 5939SOL     OW29278   2.775   2.164   4.699  0.5427 -0.2124 -0.6734
 5939SOL    HW129279   2.752   2.254   4.720 -1.0473 -0.6842 -0.4192
 5939SOL    HW229280   2.730   2.160   4.614 -0.1507  1.7480 -0.3999
 5940SOL     OW29281   0.416   3.771   8.538 -0.0462 -0.2686  0.7324
 5940SOL    HW129282   0.330   3.731   8.552 -0.6796  0.1947 -1.7805
 5940SOL    HW229283   0.444   3.774   8.629  1.2670 -0.4311  0.3342
 5941SOL     OW29284   2.976   0.691   0.670  0.5061  0.1379 -0.3549
 5941SOL    HW129285   2.910   0.718   0.734  3.1726 -0.7902  2.7644
 5941SOL    HW229286   3.033   0.631   0.717 -0.2875 -0.3736 -0.0397
 5942SOL     OW29287   2.233   4.437   3.112  0.2025 -0.1783  0.3497
 5942SOL    HW129288   2.177   4.406   3.041 -1.1032 -0.9260  1.6728
 5942SOL    HW229289   2.274   4.508   3.063  3.6966 -2.7793 -0.5093
 5943SOL     OW29290   2.263   0.994  10.180  0.0607 -0.2560 -0.5517
 5943SOL    HW129291   2.304   0.981  10.265 -0.6203  0.5701 -0.0937
 5943SOL    HW229292   2.266   0.901  10.159 -0.1051 -0.0321 -1.6047
 5944SOL     OW29293   1.964   2.047  12.363  0.3692 -0.2103 -0.4074
 5944SOL    HW129294   2.023   2.013  12.431 -1.1290 -1.3581  0.3265
 5944SOL    HW229295   1.891   1.987  12.378 -0.1750  0.0243 -2.1821
 5945SOL     OW29296   1.513   0.914   2.118 -0.4491 -0.0958 -0.4109
 5945SOL    HW129297   1.450   0.845   2.137 -1.7127  0.8265 -1.2351
 5945SOL    HW229298   1.475   0.943   2.035  3.4602  0.8869 -1.8607
 5946SOL     OW29299   0.969   1.789   6.441  0.2751 -0.0568 -0.1622
 5946SOL    HW129300   0.909   1.771   6.369 -1.5639  1.7682  0.9289
 5946SOL    HW229301   0.941   1.878   6.461 -1.9020 -0.7366 -0.2227
 5947SOL     OW29302   4.643   3.406   3.307 -0.2872 -0.0891  0.4448
 5947SOL    HW129303   4.687   3.387   3.224  0.9084  1.2437  0.7912
 5947SOL    HW229304   4.625   3.322   3.351 -1.9237  0.0075 -0.0380
 5948SOL     OW29305   1.654   4.026   8.267  0.1824 -0.1833  0.2918
 5948SOL    HW129306   1.692   4.034   8.180 -0.5333 -0.8329 -0.0841
 5948SOL    HW229307   1.605   3.945   8.257  0.0096 -0.1999  1.2090
 5949SOL     OW29308   1.738   3.199   2.451  0.4353 -0.2011  0.0354
 5949SOL    HW129309   1.667   3.137   2.470 -0.0383  0.5697  0.7625
 5949SOL    HW229310   1.778   3.157   2.375 -0.9537 -2.6186  0.6275
 5950SOL     OW29311   0.605   2.380   0.490 -0.2864  0.6798 -0.1108
 5950SOL    HW129312   0.525   2.329   0.474 -1.0173  2.0649 -0.8775
 5950SOL    HW229313   0.637   2.397   0.402 -1.8320 -1.6040 -1.1182
 5951SOL     OW29314   2.829   2.883   6.500  0.4576 -0.4388 -0.1573
 5951SOL    HW129315   2.887   2.932   6.558 -0.2434  1.1420 -0.7811
 5951SOL    HW229316   2.886   2.871   6.424  1.0814 -0.4989  0.3229
 5952SOL     OW29317   0.248   2.900   5.659  0.2042  0.2872  0.2851
 5952SOL    HW129318   0.330   2.890   5.610  0.4036 -0.5803  0.7867
 5952SOL    HW229319   0.209   2.812   5.658  2.4439 -0.7258  1.2286
 5953SOL     OW29320   1.446   1.005  11.959  0.1756 -0.0377  0.1756
 5953SOL    HW129321   1.393   0.988  11.881  0.8790  1.5587 -0.6470
 5953SOL    HW229322   1.524   1.046  11.922 -0.0439 -0.9663 -1.3272
 5954SOL     OW29323   2.977   1.018   8.351 -0.0214  0.8869  0.7624
 5954SOL    HW129324   3.048   1.082   8.354 -0.2333  1.2062 -0.9001
 5954SOL    HW229325   2.926   1.058   8.422  1.4670  2.4490  0.9589
 5955SOL     OW29326   0.996   0.059   6.096  0.0961 -0.2515 -0.0249
 5955SOL    HW129327   0.970   4.705   6.144 -1.6927  0.4462  0.1295
 5955SOL    HW229328   1.022   0.027   6.009 -1.5136  2.3073 -1.4544
 5956SOL     OW29329   2.158   1.393  12.655 -0.6044  0.0930  0.5344
 5956SOL    HW129330   2.160   1.457  12.583 -3.1697 -1.5521 -1.0427
 5956SOL    HW229331   2.143   1.310  12.609  0.7706 -0.2090  0.6506
 5957SOL     OW29332   2.574   2.199   6.873 -0.6687 -0.9142 -0.2116
 5957SOL    HW129333   2.509   2.139   6.908 -2.4126  0.7929 -0.5388
 5957SOL    HW229334   2.566   2.179   6.780  0.4648  3.4083 -1.2212
 5958SOL     OW29335   3.670   4.311  15.363 -0.3879  0.0531 -0.1648
 5958SOL    HW129336   3.583   4.281  15.392 -0.4791  1.5539  1.0901
 5958SOL    HW229337   3.730   4.280  15.431  0.3276  0.7967 -0.4591
 5959SOL     OW29338   1.786   1.512   6.445 -0.0172 -0.2786  0.4519
 5959SOL    HW129339   1.754   1.422   6.446 -0.7972 -0.0765 -2.9544
 5959SOL    HW229340   1.856   1.515   6.509 -0.8145  1.3182  1.2630
 5960SOL     OW29341   2.377   2.128   3.465  0.1299  0.5820 -0.0931
 5960SOL    HW129342   2.420   2.213   3.458  0.1897  0.3951 -1.8017
 5960SOL    HW229343   2.434   2.080   3.526  0.0486 -1.2890 -1.4775
 5961SOL     OW29344   4.690   1.010   3.002 -0.0956 -0.7376  0.1868
 5961SOL    HW129345   0.027   1.068   3.047  0.7120 -0.3029 -1.4785
 5961SOL    HW229346   0.006   0.925   2.981  2.6272  0.7539 -0.5508
 5962SOL     OW29347   1.873   2.325  12.565 -0.1217 -0.2237  0.1670
 5962SOL    HW129348   1.781   2.321  12.541 -0.1003  1.1319 -0.1315
 5962SOL    HW229349   1.870   2.396  12.630 -1.1599 -0.9720  0.9432
 5963SOL     OW29350   3.666   0.007   2.313  0.4893 -0.4266  0.4589
 5963SOL    HW129351   3.640   4.673   2.241 -2.4627 -3.0042  3.5418
 5963SOL    HW229352   3.679   4.670   2.386 -0.6506 -0.7345  0.4093
 5964SOL     OW29353   0.586   3.003   7.626  0.2527  0.2974 -0.1022
 5964SOL    HW129354   0.517   3.069   7.633  1.7884  1.6084  2.9655
 5964SOL    HW229355   0.600   2.992   7.532  1.5117 -1.3970  0.2786
 5965SOL     OW29356   4.500   0.722   5.298  0.1438 -0.3483 -0.3221
 5965SOL    HW129357   4.489   0.808   5.338  2.2221  0.4015 -1.3800
 5965SOL    HW229358   4.594   0.729   5.283 -0.1228 -0.7473 -2.2240
 5966SOL     OW29359   0.787   0.814   7.656  0.1056  0.1190  0.2297
 5966SOL    HW129360   0.740   0.812   7.573  1.6709  1.0604 -0.6812
 5966SOL    HW229361   0.764   0.725   7.685 -2.6753  0.3986 -1.1761
 5967SOL     OW29362   0.614   4.630   7.456 -0.0516 -0.2844  0.9411
 5967SOL    HW129363   0.581   4.643   7.545  1.4661  1.9262  1.1789
 5967SOL    HW229364   0.707   4.641   7.476 -0.1907  1.7911  0.4248
 5968SOL     OW29365   0.760   0.043   9.326 -0.0353  0.5610 -0.9144
 5968SOL    HW129366   0.816   4.697   9.360 -0.1727  0.6521 -0.4981
 5968SOL    HW229367   0.823   0.096   9.276  1.5966 -0.9227 -0.4263
 5969SOL     OW29368   4.077   2.690   8.391 -0.0565 -0.3397 -0.2295
 5969SOL    HW129369   4.162   2.661   8.425 -0.9664 -0.1495  2.2231
 5969SOL    HW229370   4.075   2.782   8.417  0.5516 -0.1988 -0.6819
 5970SOL     OW29371   1.322   1.881   3.706  0.2136  0.4584  0.9539
 5970SOL    HW129372   1.316   1.914   3.616  0.2788  0.2458  0.8719
 5970SOL    HW229373   1.363   1.796   3.692 -0.1362  0.5486 -0.6282
 5971SOL     OW29374   0.280   3.110   2.952 -0.1171  0.0137 -0.2125
 5971SOL    HW129375   0.339   3.057   2.898 -2.1655 -2.7589  0.2981
 5971SOL    HW229376   0.217   3.049   2.991 -0.3494  0.3706 -0.0300
 5972SOL     OW29377   4.127   1.454   2.606  0.0113 -0.5030 -1.0629
 5972SOL    HW129378   4.178   1.373   2.614  1.5771  0.5841 -0.0436
 5972SOL    HW229379   4.049   1.422   2.562 -2.9717  3.9263  0.9828
 5973SOL     OW29380   4.171   1.290   2.929 -0.1560 -0.3400 -0.3453
 5973SOL    HW129381   4.239   1.274   2.864 -1.1797 -1.3594 -1.1683
 5973SOL    HW229382   4.124   1.208   2.946 -0.6169  0.1093  0.5620
 5974SOL     OW29383   4.002   0.683   0.152  0.1824 -0.3278 -0.1027
 5974SOL    HW129384   3.956   0.636   0.082  3.2146 -2.8853 -0.3659
 5974SOL    HW229385   3.987   0.634   0.232  0.6193 -0.9452 -0.3973
 5975SOL     OW29386   1.384   2.850   6.746  0.8038  0.0704 -0.4203
 5975SOL    HW129387   1.466   2.900   6.745  1.7688 -1.5194  0.8012
 5975SOL    HW229388   1.338   2.888   6.821  3.3913  3.0086 -0.3227
 5976SOL     OW29389   0.983   3.558   7.834 -0.5318  0.0335  0.3743
 5976SOL    HW129390   0.909   3.617   7.819 -1.1074 -0.6479  0.5363
 5976SOL    HW229391   1.057   3.602   7.791 -0.9429 -0.7903 -1.1718
 5977SOL     OW29392   2.038   1.897   7.628 -0.1924  0.3626  0.5493
 5977SOL    HW129393   2.009   1.917   7.717  1.1146  0.6642  0.9011
 5977SOL    HW229394   2.055   1.977   7.579  1.9808 -0.6113 -0.2718
 5978SOL     OW29395   1.345   3.870  14.341  0.0194  0.6183 -0.0359
 5978SOL    HW129396   1.376   3.959  14.323 -0.3125  0.9332  0.9809
 5978SOL    HW229397   1.373   3.863  14.432 -0.3076  1.1438  0.1025
 5979SOL     OW29398   0.271   0.456   0.291 -0.2417  0.3297  0.1199
 5979SOL    HW129399   0.283   0.439   0.385 -1.6871  0.9875  0.4196
 5979SOL    HW229400   0.214   0.383   0.267 -1.7464  0.7934  2.2510
 5980SOL     OW29401   3.328   1.751  11.802  0.4440  0.3951 -0.2271
 5980SOL    HW129402   3.413   1.714  11.778 -0.3961 -1.4869 -0.3021
 5980SOL    HW229403   3.335   1.830  11.748  1.3886 -1.0695 -2.2627
 5981SOL     OW29404   2.371   2.852   0.456  0.7415  0.1266 -0.0756
 5981SOL    HW129405   2.319   2.880   0.532  0.3797 -1.4215  0.2301
 5981SOL    HW229406   2.453   2.891   0.488  0.9816  0.4562 -1.1037
 5982SOL     OW29407   0.057   0.013   9.366 -0.2250 -0.2400 -0.4891
 5982SOL    HW129408   0.051   0.090   9.309  0.3245 -0.6567 -1.1036
 5982SOL    HW229409   0.148   0.008   9.394  0.3016 -2.4078 -2.5694
 5983SOL     OW29410   0.625   3.026   6.712 -0.3136 -0.3911  0.3823
 5983SOL    HW129411   0.705   3.058   6.669  0.2181 -1.2870  0.6818
 5983SOL    HW229412   0.586   3.104   6.751  0.3357  0.8989 -1.5864
 5984SOL     OW29413   4.191   1.828  15.767  0.2581  0.1591 -0.2430
 5984SOL    HW129414   4.249   1.800  15.696 -0.9036 -0.2454 -1.0318
 5984SOL    HW229415   4.187   1.753  15.826 -1.1776  0.3153 -0.1368
 5985SOL     OW29416   3.806   3.574  12.423  0.1009 -0.0927 -0.4086
 5985SOL    HW129417   3.798   3.665  12.450 -1.9616 -0.5945  0.6506
 5985SOL    HW229418   3.724   3.538  12.457 -0.1913  1.3562  0.4138
 5986SOL     OW29419   0.552   2.088   2.922 -0.1303 -0.8910 -0.1749
 5986SOL    HW129420   0.511   2.002   2.919  1.3676 -1.6481  0.8212
 5986SOL    HW229421   0.541   2.095   3.017  1.3115  0.7134 -0.1267
 5987SOL     OW29422   0.873   4.707  15.711  0.1382  0.7083  0.0310
 5987SOL    HW129423   0.968   4.706  15.720 -0.0182  1.6951  1.8154
 5987SOL    HW229424   0.831   4.645  15.770 -1.0281  0.7473 -0.7462
 5988SOL     OW29425   3.805   3.068   5.222  0.6925  0.5201 -0.0750
 5988SOL    HW129426   3.861   3.062   5.300  0.2253 -1.4342  0.1007
 5988SOL    HW229427   3.866   3.085   5.150  3.5384  1.6071  2.5534
 5989SOL     OW29428   0.956   2.771   7.343  0.4035  0.1635  0.4501
 5989SOL    HW129429   0.986   2.860   7.328 -0.5740  0.2828 -0.7605
 5989SOL    HW229430   0.976   2.714   7.269 -1.8906 -2.0863  1.5443
 5990SOL     OW29431   1.934   0.142   3.014 -0.1910 -0.6131 -0.3726
 5990SOL    HW129432   1.903   0.169   2.927 -1.0378 -3.1008 -0.8251
 5990SOL    HW229433   2.022   0.179   3.018 -0.5063  0.1036 -0.1299
 5991SOL     OW29434   3.135   2.415   1.187  0.1352  0.0484 -0.2433
 5991SOL    HW129435   3.085   2.370   1.119 -1.5905  0.9855  0.4087
 5991SOL    HW229436   3.163   2.342   1.241  0.1905  0.7546  0.6790
 5992SOL     OW29437   0.633   1.276   6.730  0.1082 -0.4362  0.3188
 5992SOL    HW129438   0.725   1.301   6.743  0.6683 -0.9706 -2.7837
 5992SOL    HW229439   0.634   1.225   6.649  1.1040  1.2606 -0.7315
 5993SOL     OW29440   1.021   3.966  16.544  0.1086  0.2836  0.1768
 5993SOL    HW129441   1.019   3.872  16.564  2.1866  0.6587  2.0073
 5993SOL    HW229442   0.927   3.982  16.540  0.0738 -0.2901 -1.4007
 5994SOL     OW29443   4.318   0.274   2.725  0.2333 -0.1912  0.8352
 5994SOL    HW129444   4.406   0.236   2.724  0.1284 -0.4248 -0.3353
 5994SOL    HW229445   4.308   0.276   2.820 -4.1874 -0.0642  0.3558
 5995SOL     OW29446   0.821   0.394  13.497  0.2329  0.1362 -0.2616
 5995SOL    HW129447   0.898   0.339  13.515 -2.1748 -2.9746  0.4582
 5995SOL    HW229448   0.751   0.343  13.537 -0.5504  1.1248 -0.3834
 5996SOL     OW29449   2.624   4.148  12.748  0.1143 -0.0041  0.7000
 5996SOL    HW129450   2.672   4.230  12.747  0.4962 -0.1836  4.0569
 5996SOL    HW229451   2.683   4.085  12.708  0.6863  1.1567 -0.2766
 5997SOL     OW29452   2.919   1.293   1.150  0.0244  0.0987 -0.2194
 5997SOL    HW129453   2.950   1.230   1.085 -0.7693 -1.5851  1.0468
 5997SOL    HW229454   2.829   1.298   1.118 -0.4022 -0.1285  0.9302
 5998SOL     OW29455   2.896   3.844   1.282 -0.5601 -0.1431  0.8181
 5998SOL    HW129456   2.859   3.932   1.286  1.0394  0.4930  1.5087
 5998SOL    HW229457   2.819   3.798   1.317  0.9056 -2.7718  0.6064
 5999SOL     OW29458   0.780   0.710   4.737  0.0793  0.0439 -0.1426
 5999SOL    HW129459   0.769   0.801   4.765 -0.1646 -0.2591  0.7754
 5999SOL    HW229460   0.847   0.675   4.797  0.7956  1.2426 -0.2400
 6000SOL     OW29461   3.228   4.216   4.030  0.0684 -0.4577 -0.2939
 6000SOL    HW129462   3.318   4.249   4.025  0.3374 -0.9818  1.1388
 6000SOL    HW229463   3.248   4.124   4.046  0.3393 -0.2331  0.6788
 6001SOL     OW29464   3.703   3.244   4.675 -0.1786  0.0744  0.1392
 6001SOL    HW129465   3.678   3.217   4.763  0.7731  0.1126  0.4297
 6001SOL    HW229466   3.754   3.171   4.639  1.7277  1.2743  0.3943
 6002SOL     OW29467   4.410   1.837   4.981 -0.5542 -0.1527  0.4236
 6002SOL    HW129468   4.434   1.763   5.038  0.6276 -0.9330 -1.0696
 6002SOL    HW229469   4.321   1.808   4.961  0.0514 -1.6258 -0.1478
 6003SOL     OW29470   3.929   3.585   3.700  0.2137  0.3709 -0.3051
 6003SOL    HW129471   3.913   3.491   3.710  1.6581  0.0442 -1.1181
 6003SOL    HW229472   3.965   3.611   3.784 -0.0096 -0.4402  0.0446
 6004SOL     OW29473   3.116   2.815   7.416 -0.5552 -0.2727  0.5704
 6004SOL    HW129474   3.143   2.810   7.508 -0.2249 -1.7471  0.3975
 6004SOL    HW229475   3.192   2.778   7.372 -2.9938 -1.7743 -2.3248
 6005SOL     OW29476   0.490   4.358   4.956 -0.3443  0.1983 -0.0735
 6005SOL    HW129477   0.560   4.293   4.959 -1.2262 -0.7686 -0.1883
 6005SOL    HW229478   0.520   4.409   4.881 -1.8732 -2.4549 -2.4910
 6006SOL     OW29479   2.474   0.777   6.793 -0.4490  0.2510 -0.5673
 6006SOL    HW129480   2.379   0.784   6.799 -0.2803  0.7302  1.8905
 6006SOL    HW229481   2.498   0.727   6.715 -1.8409 -1.7348  0.2719
 6007SOL     OW29482   1.539   0.491   1.898  0.5030 -0.0297 -0.0960
 6007SOL    HW129483   1.457   0.452   1.869  1.3168 -1.6277 -0.2428
 6007SOL    HW229484   1.579   0.513   1.814  0.7507  1.5380  0.4333
 6008SOL     OW29485   4.208   4.715   8.741  0.3568  0.3389  0.0249
 6008SOL    HW129486   4.216   0.085   8.760 -2.4825 -0.1042  3.4957
 6008SOL    HW229487   4.130   4.700   8.795  1.1312 -0.1543  0.9852
 6009SOL     OW29488   4.581   3.409   3.676 -0.1751 -0.2471  0.0660
 6009SOL    HW129489   4.593   3.434   3.768 -2.0751 -0.2990  0.3343
 6009SOL    HW229490   4.514   3.472   3.652 -0.9276 -0.7722  0.8035
 6010SOL     OW29491   2.302   4.068   2.329 -0.3208  0.2347  0.3134
 6010SOL    HW129492   2.272   4.155   2.304  1.0220  0.7602  0.5184
 6010SOL    HW229493   2.381   4.097   2.374  0.5317 -0.3910 -0.7972
 6011SOL     OW29494   2.421   2.976  10.697  0.1065  0.7090  0.5088
 6011SOL    HW129495   2.426   2.909  10.765 -0.2507 -0.7489 -0.8914
 6011SOL    HW229496   2.510   2.971  10.664 -0.6767  0.2799 -1.5918
 6012SOL     OW29497   2.508   0.452   7.171  0.4574  0.0675  0.3905
 6012SOL    HW129498   2.461   0.387   7.119  0.3600 -0.1883  0.7986
 6012SOL    HW229499   2.516   0.518   7.102  0.7312 -0.0083  0.3498
 6013SOL     OW29500   0.462   4.214   6.277  0.1064  0.6470 -0.0701
 6013SOL    HW129501   0.532   4.235   6.340  0.5340  2.1267 -1.0261
 6013SOL    HW229502   0.390   4.264   6.316 -0.9153 -0.8333 -0.0668
 6014SOL     OW29503   2.515   1.593   2.240 -0.4838  0.0379 -0.2627
 6014SOL    HW129504   2.601   1.587   2.198 -0.3292  0.0579  0.0467
 6014SOL    HW229505   2.524   1.533   2.315  1.7686 -0.3483 -0.8333
 6015SOL     OW29506   2.245   1.946  12.958 -0.0782  0.1346 -0.3678
 6015SOL    HW129507   2.197   2.022  12.990 -0.3511 -0.5099  0.7513
 6015SOL    HW229508   2.329   1.990  12.947  0.0169 -0.4098 -1.7984
 6016SOL     OW29509   4.406   0.634   3.161 -0.4220  0.0765 -0.2999
 6016SOL    HW129510   4.365   0.606   3.079 -0.7154  1.7761 -0.7142
 6016SOL    HW229511   4.423   0.725   3.137 -1.7110  0.4187  0.0998
 6017SOL     OW29512   1.946   4.414   5.262 -0.2436  0.0223  0.2641
 6017SOL    HW129513   1.982   4.332   5.228 -0.3526  0.1949 -0.2835
 6017SOL    HW229514   1.994   4.427   5.343  0.4437  0.1108 -0.1580
 6018SOL     OW29515   1.097   3.283  17.679 -0.2023  0.0022 -0.5654
 6018SOL    HW129516   1.070   3.370   0.009 -0.7421  0.2381 -1.8302
 6018SOL    HW229517   1.049   3.225   0.041  1.0196 -0.8437 -0.3999
 6019SOL     OW29518   0.882   2.580  15.089 -0.4878 -0.3675 -0.1369
 6019SOL    HW129519   0.904   2.494  15.052  1.0618 -0.8117  1.8083
 6019SOL    HW229520   0.875   2.631  15.009 -1.7326  0.3546  0.4302
 6020SOL     OW29521   0.271   0.059  17.691 -0.0223  0.5657 -0.1166
 6020SOL    HW129522   0.357   0.078  17.653  0.5642 -0.5182  0.6744
 6020SOL    HW229523   0.225   0.128  17.643 -2.2870  0.5590  2.0448
 6021SOL     OW29524   2.047   2.100  11.573 -0.5081  0.2809  0.3718
 6021SOL    HW129525   2.025   2.135  11.487 -0.4877  0.1974  0.3329
 6021SOL    HW229526   1.992   2.166  11.615 -1.3594 -0.5303  0.5330
 6022SOL     OW29527   1.513   0.238   8.257  0.0833  0.3446 -0.3310
 6022SOL    HW129528   1.497   0.314   8.312  0.5300  0.4393 -0.3311
 6022SOL    HW229529   1.430   0.199   8.231  1.2997 -2.0937 -0.5553
 6023SOL     OW29530   3.715   1.641   9.629  0.0917  0.9159 -0.0376
 6023SOL    HW129531   3.724   1.558   9.674 -1.4925  2.1455  2.5524
 6023SOL    HW229532   3.805   1.646   9.596  1.9095  0.2615  4.9300
 6024SOL     OW29533   2.586   0.721   3.038 -0.0350  0.0679  0.3862
 6024SOL    HW129534   2.568   0.694   2.949 -0.5267 -1.7300  1.0423
 6024SOL    HW229535   2.494   0.717   3.064  0.9621 -0.0004  3.9197
 6025SOL     OW29536   3.971   3.619   5.602  0.4269 -0.0764 -0.3494
 6025SOL    HW129537   4.064   3.595   5.612  0.0758 -1.3584 -0.1868
 6025SOL    HW229538   3.941   3.615   5.692  1.0931  0.6851 -0.0890
 6026SOL     OW29539   0.295   0.634   3.873 -0.2046  0.5703 -0.3882
 6026SOL    HW129540   0.278   0.656   3.965  2.1311 -0.9071  0.4075
 6026SOL    HW229541   0.348   0.712   3.853 -0.8956  0.9015 -0.9199
 6027SOL     OW29542   3.193   3.836   7.470  0.5421 -0.4937 -0.5082
 6027SOL    HW129543   3.257   3.778   7.511 -0.5317 -1.8579 -0.7541
 6027SOL    HW229544   3.165   3.787   7.392 -0.4073 -0.4607 -0.1928
 6028SOL     OW29545   1.987   2.566   3.182 -0.2413  0.1609 -0.3481
 6028SOL    HW129546   2.036   2.596   3.105  0.4984 -0.9999 -0.3440
 6028SOL    HW229547   2.027   2.630   3.241  1.5326  0.8223 -2.2440
 6029SOL     OW29548   2.915   0.307   7.690  0.3572 -0.3204 -0.1744
 6029SOL    HW129549   2.864   0.284   7.768  1.3316  1.3420  0.9604
 6029SOL    HW229550   2.872   0.387   7.659 -0.5664  0.2973  2.7140
 6030SOL     OW29551   2.686   1.776  15.307 -0.2174  0.3931 -0.0672
 6030SOL    HW129552   2.650   1.694  15.340  2.9863 -1.9116 -2.1877
 6030SOL    HW229553   2.776   1.771  15.338 -0.8155 -0.2184  1.5445
 6031SOL     OW29554   1.945   3.166  14.525  0.3583  0.0313  0.0399
 6031SOL    HW129555   1.895   3.147  14.605 -1.5996  1.1569 -0.9055
 6031SOL    HW229556   2.036   3.169  14.553  0.6826 -0.6220 -0.9385
 6032SOL     OW29557   1.166   2.611   8.465 -0.1001  0.0092 -0.3324
 6032SOL    HW129558   1.104   2.540   8.452 -0.8674  0.4480  0.8493
 6032SOL    HW229559   1.234   2.574   8.409 -0.7355  1.2065 -1.8699
 6033SOL     OW29560   3.078   4.580   4.576 -0.2938  0.2756  0.3852
 6033SOL    HW129561   3.133   4.506   4.601  0.6893  0.6130 -0.7582
 6033SOL    HW229562   3.149   4.637   4.545  0.1707  0.1361  1.2015
 6034SOL     OW29563   0.272   3.135   7.158  0.1298  0.7016 -0.9427
 6034SOL    HW129564   0.188   3.143   7.113  0.1523 -1.8139 -1.4020
 6034SOL    HW229565   0.219   3.132   7.238  1.0633  1.1765 -0.2995
 6035SOL     OW29566   0.985   0.878   7.231  0.2189  0.5292  0.0636
 6035SOL    HW129567   0.905   0.837   7.264  0.1316  0.6123 -0.0486
 6035SOL    HW229568   0.944   0.948   7.180  1.8907  1.3236 -0.1789
 6036SOL     OW29569   4.277   3.965   2.157 -0.5149 -0.0600  0.3743
 6036SOL    HW129570   4.345   3.996   2.216  1.1611 -1.6352 -0.7519
 6036SOL    HW229571   4.294   3.871   2.152 -0.1340 -0.0508  1.5593
 6037SOL     OW29572   0.649   1.393   8.113  0.0427  0.1479  0.2593
 6037SOL    HW129573   0.720   1.444   8.074 -0.5297  0.9944  0.3151
 6037SOL    HW229574   0.572   1.409   8.059  1.1117  0.5679 -1.1210
 6038SOL     OW29575   2.888   0.751   3.444  0.4086  0.1835  0.2546
 6038SOL    HW129576   2.913   0.699   3.368 -2.1208 -0.3321 -0.2307
 6038SOL    HW229577   2.866   0.683   3.508 -2.2740 -0.5019 -1.3985
 6039SOL     OW29578   0.562   0.615   2.767  0.4115 -0.0184 -0.2866
 6039SOL    HW129579   0.498   0.548   2.790 -0.1458  1.6535  2.9243
 6039SOL    HW229580   0.637   0.584   2.818  1.4099 -0.3285 -1.9446
 6040SOL     OW29581   1.210   2.326   7.575 -0.0691  0.0952 -0.1228
 6040SOL    HW129582   1.223   2.354   7.484  1.2981 -2.5412 -0.7675
 6040SOL    HW229583   1.134   2.268   7.574 -1.1669  1.5593 -0.6403
 6041SOL     OW29584   4.236   0.060   0.637  0.4301 -0.2809 -0.5366
 6041SOL    HW129585   4.291   0.114   0.582 -1.0656  1.9654  0.1946
 6041SOL    HW229586   4.152   0.105   0.629  0.5953 -0.0519 -0.9624
 6042SOL     OW29587   2.964   1.337   5.117 -0.1575 -0.0920  0.5430
 6042SOL    HW129588   2.884   1.297   5.150 -0.0217 -0.1106  0.8513
 6042SOL    HW229589   2.967   1.311   5.025  0.4633  1.9099  0.0080
 6043SOL     OW29590   2.996   2.365   8.154  0.1511  0.4426 -0.0848
 6043SOL    HW129591   2.973   2.358   8.246 -0.9839  1.9533 -0.2663
 6043SOL    HW229592   2.918   2.404   8.115  1.2190  1.3719 -1.2720
 6044SOL     OW29593   3.123   3.605   5.050 -0.2399 -0.7488 -0.8846
 6044SOL    HW129594   3.042   3.597   4.999  0.1748 -1.6328 -1.4093
 6044SOL    HW229595   3.169   3.523   5.030 -1.6391 -1.6453 -0.4426
 6045SOL     OW29596   4.260   1.657  13.797 -0.1436  0.7995  0.3412
 6045SOL    HW129597   4.166   1.665  13.812 -0.2498  2.6267 -1.3199
 6045SOL    HW229598   4.258   1.664  13.702  0.5146  1.7766  0.4006
 6046SOL     OW29599   0.909   3.764  11.994  0.7385 -0.3406 -0.2404
 6046SOL    HW129600   0.848   3.788  12.064  0.5700 -1.3086 -0.0545
 6046SOL    HW229601   0.968   3.839  11.995  0.5845 -0.1806 -3.0762
 6047SOL     OW29602   0.687   1.968  12.814  0.4444  0.6843 -0.2791
 6047SOL    HW129603   0.660   2.060  12.818 -0.7934  0.2913  0.4178
 6047SOL    HW229604   0.606   1.924  12.839 -0.4518  1.2824 -2.0743
 6048SOL     OW29605   1.482   3.389   7.294  0.1326 -0.5924 -0.3348
 6048SOL    HW129606   1.534   3.381   7.374 -1.0476  0.7826  0.5726
 6048SOL    HW229607   1.484   3.300   7.260 -1.6215 -1.4826  1.8195
 6049SOL     OW29608   1.338   3.016  17.016 -0.1053  0.3472 -0.0349
 6049SOL    HW129609   1.286   2.978  17.087 -1.1076  2.2177  0.2378
 6049SOL    HW229610   1.315   3.109  17.017 -1.9382 -0.1031 -0.1013
 6050SOL     OW29611   3.223   1.571   2.311 -0.4075 -0.1637  0.8668
 6050SOL    HW129612   3.274   1.497   2.342  0.7397  0.2478 -0.0702
 6050SOL    HW229613   3.292   1.616   2.263  0.9449  0.9621  3.8417
 6051SOL     OW29614   3.795   3.005   6.129  0.1600  0.3733 -0.6282
 6051SOL    HW129615   3.751   3.070   6.185 -0.4614 -0.2314 -0.4206
 6051SOL    HW229616   3.724   2.986   6.068 -0.7280  1.0708  0.1828
 6052SOL     OW29617   3.802   0.754   2.904  0.1503  0.7773  0.3071
 6052SOL    HW129618   3.867   0.777   2.971 -0.2988  0.8186  0.7302
 6052SOL    HW229619   3.848   0.716   2.829  1.4106  1.5038  0.7159
 6053SOL     OW29620   3.991   3.658  10.430 -0.0892  0.0768 -0.0212
 6053SOL    HW129621   3.930   3.605  10.379  1.4696  0.6067 -2.3766
 6053SOL    HW229622   3.934   3.688  10.502  0.5743 -0.1533  0.6055
 6054SOL     OW29623   4.197   1.463   2.099 -0.7549 -0.3176  0.0737
 6054SOL    HW129624   4.152   1.547   2.086 -3.8797 -2.4005 -2.7266
 6054SOL    HW229625   4.213   1.475   2.192  2.2509 -1.7105 -0.2762
 6055SOL     OW29626   1.296   0.706   0.455  0.7250  0.3564 -0.1525
 6055SOL    HW129627   1.294   0.713   0.359 -2.8356 -0.2672 -0.1478
 6055SOL    HW229628   1.244   0.782   0.477 -0.8473 -1.2200  1.5541
 6056SOL     OW29629   4.421   0.468   5.716  0.0334  0.5147 -0.3127
 6056SOL    HW129630   4.402   0.441   5.626 -0.6911  1.3166 -0.3994
 6056SOL    HW229631   4.487   0.532   5.691  1.9712 -1.1138  0.6374
 6057SOL     OW29632   2.727   2.296   9.072  0.4401 -0.8313 -0.5475
 6057SOL    HW129633   2.639   2.267   9.047 -0.8081  2.7684 -0.2754
 6057SOL    HW229634   2.759   2.212   9.104 -1.9902 -1.0269  1.4268
 6058SOL     OW29635   0.758   3.981   5.169 -0.6603 -0.1758 -0.1388
 6058SOL    HW129636   0.831   4.044   5.174 -1.3886  0.5971  0.8529
 6058SOL    HW229637   0.750   3.967   5.263 -1.2682  0.4231 -0.1035
 6059SOL     OW29638   1.789   2.819  12.708  0.2290  0.0412  0.2008
 6059SOL    HW129639   1.703   2.849  12.677  0.4972 -0.6046 -1.1588
 6059SOL    HW229640   1.812   2.780  12.623 -1.6418  0.7685 -0.6595
 6060SOL     OW29641   2.293   4.454  12.253  0.2582 -0.0725 -0.1560
 6060SOL    HW129642   2.263   4.375  12.208 -0.3980 -0.1221  0.3887
 6060SOL    HW229643   2.265   4.520  12.189  0.7716 -1.6160 -1.9974
 6061SOL     OW29644   1.383   1.112   8.049 -0.4514  0.0534  0.6834
 6061SOL    HW129645   1.365   1.022   8.075  0.7091 -0.5894 -0.6866
 6061SOL    HW229646   1.349   1.163   8.122 -2.6837  0.5357 -0.7056
 6062SOL     OW29647   2.166   1.349   6.811 -0.0143  0.2348  0.0555
 6062SOL    HW129648   2.086   1.400   6.796  0.0206  0.6047  1.0689
 6062SOL    HW229649   2.133   1.275   6.862  1.4578 -0.3318  0.2038
 6063SOL     OW29650   0.333   3.228   3.246 -0.2408  0.5479 -0.0536
 6063SOL    HW129651   0.363   3.259   3.160  0.9934  0.8745  0.4897
 6063SOL    HW229652   0.289   3.145   3.228 -0.3230  1.0331 -2.1051
 6064SOL     OW29653   0.326   2.861   5.077 -0.0332  0.2520 -0.2905
 6064SOL    HW129654   0.373   2.778   5.071  1.7760  1.0835  2.5166
 6064SOL    HW229655   0.258   2.844   5.143 -1.6917  1.0351 -1.7874
 6065SOL     OW29656   0.588   1.644   7.777  0.0729 -0.6105  0.4082
 6065SOL    HW129657   0.676   1.615   7.754  0.1482 -1.4427  1.7316
 6065SOL    HW229658   0.562   1.685   7.695  2.2099  1.6770  0.8976
 6066SOL     OW29659   2.196   3.493   6.851  0.2312  0.0580 -0.4458
 6066SOL    HW129660   2.222   3.506   6.942 -2.4027  1.2453  0.1444
 6066SOL    HW229661   2.103   3.517   6.850 -0.3913 -2.3545  0.4342
 6067SOL     OW29662   3.741   2.298  12.197 -0.0369 -0.2578 -0.2359
 6067SOL    HW129663   3.755   2.343  12.114 -0.6691  1.1702  0.4419
 6067SOL    HW229664   3.657   2.254  12.182  0.5657 -1.7118  0.5832
 6068SOL     OW29665   3.469   1.770  10.782 -0.3410  0.3759 -0.4746
 6068SOL    HW129666   3.552   1.817  10.777  0.2181 -0.5865 -0.1856
 6068SOL    HW229667   3.433   1.786  10.695  0.8692 -2.2515 -1.4450
 6069SOL     OW29668   4.093   3.144   6.740  0.3533  0.1528 -0.4589
 6069SOL    HW129669   4.055   3.180   6.659 -2.5499  0.8630  1.2181
 6069SOL    HW229670   4.184   3.171   6.745  0.5707 -0.6136 -0.3715
 6070SOL     OW29671   0.440   3.463   3.567  0.2097  0.6999  0.2690
 6070SOL    HW129672   0.443   3.545   3.615  0.8152  2.3488 -2.6039
 6070SOL    HW229673   0.533   3.446   3.551  0.5815 -0.0167  3.1588
 6071SOL     OW29674   0.826   2.311  17.577  0.2919 -0.2881 -0.3593
 6071SOL    HW129675   0.781   2.322  17.493 -2.7242 -2.6638  0.9234
 6071SOL    HW229676   0.785   2.373  17.637  1.2384 -1.0656  1.1078
 6072SOL     OW29677   4.168   0.040   7.415 -0.2672  0.5801  0.5864
 6072SOL    HW129678   4.154   0.100   7.488  1.6744 -0.8016  2.0821
 6072SOL    HW229679   4.230   4.705   7.457  0.2401  0.5265 -0.2539
 6073SOL     OW29680   3.810   2.789  12.418 -0.5859 -0.5950 -0.0277
 6073SOL    HW129681   3.832   2.699  12.441  2.3965 -0.0937 -0.9385
 6073SOL    HW229682   3.753   2.773  12.343  0.1961 -1.9456 -0.3218
 6074SOL     OW29683   2.922   1.168   7.722  0.4775 -0.2399  0.2341
 6074SOL    HW129684   2.900   1.249   7.769 -0.0004 -0.8499  1.0516
 6074SOL    HW229685   2.875   1.176   7.640  2.8239  3.2940 -0.7892
 6075SOL     OW29686   0.681   2.445   8.410 -0.3155  0.0770  0.3433
 6075SOL    HW129687   0.599   2.421   8.452 -0.7827 -0.7686 -1.0691
 6075SOL    HW229688   0.660   2.534   8.385  1.8628  0.2874 -0.7754
 6076SOL     OW29689   3.499   4.448   5.087  0.3113  0.5992  0.3626
 6076SOL    HW129690   3.449   4.486   5.015  0.0816  1.0101  0.7363
 6076SOL    HW229691   3.467   4.507   5.155  1.1506 -0.1667  1.4163
 6077SOL     OW29692   4.250   4.387   7.974  0.5127 -0.0885  0.6101
 6077SOL    HW129693   4.225   4.296   7.993  0.9327 -0.3022  0.1353
 6077SOL    HW229694   4.275   4.365   7.884  1.2714  2.5025  0.1928
 6078SOL     OW29695   4.243   2.582   4.392 -0.0061  0.4656  0.3005
 6078SOL    HW129696   4.214   2.516   4.455 -0.1425  0.5100  0.2839
 6078SOL    HW229697   4.292   2.528   4.329 -0.3329 -0.0718  0.5057
 6079SOL     OW29698   3.396   4.099   0.025 -0.9735  0.9190 -0.1479
 6079SOL    HW129699   3.410   4.018  17.674 -1.5628  1.4337 -1.1612
 6079SOL    HW229700   3.391   4.068   0.115  1.7229 -1.5908 -0.8978
 6080SOL     OW29701   0.577   3.503  17.049 -0.2496  0.2540 -0.3214
 6080SOL    HW129702   0.593   3.450  17.127 -0.6833  2.3009  1.1641
 6080SOL    HW229703   0.663   3.532  17.020 -0.0345 -0.9545 -0.8802
 6081SOL     OW29704   2.400   4.107   6.880  0.1878  0.0697 -0.1502
 6081SOL    HW129705   2.342   4.081   6.952  1.5681  0.8581  1.2501
 6081SOL    HW229706   2.477   4.138   6.928 -0.1219  0.6991 -0.0597
 6082SOL     OW29707   4.676   3.628   7.203 -0.5667  0.5920 -0.3373
 6082SOL    HW129708   4.615   3.634   7.277 -1.8822  2.8608 -1.6156
 6082SOL    HW229709   4.627   3.569   7.144 -1.2663  0.2585  0.5742
 6083SOL     OW29710   0.486   2.079   4.614  0.6489 -0.5897  0.0385
 6083SOL    HW129711   0.536   2.011   4.568  2.8365  1.2613 -0.3579
 6083SOL    HW229712   0.558   2.112   4.667  0.8325 -0.4020 -0.3228
 6084SOL     OW29713   0.060   1.820  15.969 -0.7046 -0.0642 -0.3156
 6084SOL    HW129714   0.082   1.877  15.895 -1.9369 -0.2865 -0.8547
 6084SOL    HW229715   4.695   1.849  15.986  0.6630  3.6438  0.4609
 6085SOL     OW29716   1.747   0.593   5.230  0.3693  0.2969 -0.0646
 6085SOL    HW129717   1.790   0.557   5.308  3.7212  2.2035 -1.0249
 6085SOL    HW229718   1.753   0.516   5.174  1.0152  0.0817  0.2935
 6086SOL     OW29719   2.355   1.672  13.457  0.1035  0.6386  0.0205
 6086SOL    HW129720   2.441   1.714  13.450  0.9544 -0.6452  2.7221
 6086SOL    HW229721   2.316   1.737  13.398 -0.0696  0.1906 -0.3540
 6087SOL     OW29722   1.189   1.964   7.368  0.1843 -0.4913 -0.2694
 6087SOL    HW129723   1.194   1.978   7.463  0.0908  2.1336 -0.6474
 6087SOL    HW229724   1.132   2.036   7.344  1.2463  0.4767  0.1091
 6088SOL     OW29725   3.056   3.188   3.960 -0.6184 -0.0365  0.1515
 6088SOL    HW129726   3.011   3.105   3.944  0.0718 -0.3353 -0.2289
 6088SOL    HW229727   3.149   3.173   3.943 -0.7204  0.2098 -0.6237
 6089SOL     OW29728   0.033   3.790  10.277 -0.5574  0.6284 -0.0044
 6089SOL    HW129729   0.101   3.739  10.320 -0.6284  0.9590  0.5033
 6089SOL    HW229730   4.721   3.727  10.215  1.0493  0.1192 -0.4223
 6090SOL     OW29731   1.877   4.076   4.115  0.3094  0.1241 -0.5979
 6090SOL    HW129732   1.834   4.042   4.037 -0.5061 -0.9546  0.3310
 6090SOL    HW229733   1.818   4.145   4.144 -1.3560 -1.2274 -0.8216
 6091SOL     OW29734   4.564   4.660   8.425 -0.1575 -0.5048 -0.3951
 6091SOL    HW129735   4.488   4.718   8.421 -0.3633 -0.8174 -0.9182
 6091SOL    HW229736   4.540   4.601   8.497 -1.1750  0.0288 -0.2964
 6092SOL     OW29737   3.132   3.252   2.687  0.2686 -0.1301  0.2249
 6092SOL    HW129738   3.169   3.298   2.762  0.4968 -1.6277  1.0289
 6092SOL    HW229739   3.195   3.279   2.620 -0.3378  0.9122  0.0660
 6093SOL     OW29740   4.179   1.249  11.988 -0.3538 -0.4949 -0.3595
 6093SOL    HW129741   4.128   1.205  11.921 -1.9126 -0.9693  1.1468
 6093SOL    HW229742   4.122   1.325  11.999 -1.6553 -1.7176  1.3403
 6094SOL     OW29743   4.479   2.748   0.209  0.1559  0.4321 -0.1712
 6094SOL    HW129744   4.542   2.732   0.278  1.1793 -3.1165 -1.9548
 6094SOL    HW229745   4.546   2.768   0.144  0.0736  1.0280 -0.0748
 6095SOL     OW29746   0.196   1.984   7.179 -0.2261 -0.0740 -0.8691
 6095SOL    HW129747   0.187   1.890   7.168 -3.3659  0.0571  0.5662
 6095SOL    HW229748   0.254   2.010   7.108 -0.4909 -2.2983 -1.8917
 6096SOL     OW29749   0.286   0.957   1.825  0.0741  0.2084  0.5102
 6096SOL    HW129750   0.326   0.944   1.911  0.8111 -1.6370 -0.1073
 6096SOL    HW229751   0.266   0.867   1.797  0.3825 -0.2313  1.6916
 6097SOL     OW29752   3.924   4.428  15.270 -0.0139 -0.1272  0.5367
 6097SOL    HW129753   3.996   4.376  15.305 -2.0184 -0.5297  4.1206
 6097SOL    HW229754   3.846   4.386  15.307 -0.0130  0.5408  1.2976
 6098SOL     OW29755   1.305   0.651   1.380 -0.2735 -0.1317  0.4893
 6098SOL    HW129756   1.386   0.601   1.370  0.1648  0.6440  0.1245
 6098SOL    HW229757   1.281   0.628   1.469  1.9892 -1.9523  0.6210
 6099SOL     OW29758   3.971   0.942   9.018 -0.0345  0.2493  0.1553
 6099SOL    HW129759   3.935   0.859   9.051 -0.0298  1.1220  2.3531
 6099SOL    HW229760   4.063   0.923   9.036 -0.3955 -1.3672  0.3654
 6100SOL     OW29761   3.069   4.418   7.613 -0.4567 -0.0203 -0.5348
 6100SOL    HW129762   3.109   4.484   7.670 -0.3977  1.8939 -2.7817
 6100SOL    HW229763   3.112   4.338   7.643 -3.7071 -0.5710  2.5705
 6101SOL     OW29764   0.788   2.432   2.389 -0.0862 -0.3959  0.3327
 6101SOL    HW129765   0.826   2.389   2.312 -0.3791  0.2060 -0.1554
 6101SOL    HW229766   0.826   2.520   2.382 -1.6044  0.1048 -1.6178
 6102SOL     OW29767   2.063   1.790   6.391  0.0459 -0.3665 -0.1950
 6102SOL    HW129768   2.050   1.880   6.361  2.0844 -0.7271 -2.1171
 6102SOL    HW229769   2.155   1.783   6.414  0.1123  0.3709 -0.2588
 6103SOL     OW29770   2.496   2.881   8.187  0.3833 -0.0940  0.6484
 6103SOL    HW129771   2.506   2.809   8.125 -0.6529  0.7337 -0.4812
 6103SOL    HW229772   2.542   2.941   8.128 -0.7684  0.5897  0.4625
 6104SOL     OW29773   0.742   0.952   8.391 -0.3745 -0.6074  0.0383
 6104SOL    HW129774   0.702   1.025   8.343  0.2607 -1.3748 -1.6764
 6104SOL    HW229775   0.716   0.873   8.343  0.2747 -1.7118  1.5160
 6105SOL     OW29776   3.100   0.111   7.094  0.5549 -0.0848  0.3388
 6105SOL    HW129777   3.035   0.102   7.163  2.3495 -0.4989  1.9730
 6105SOL    HW229778   3.153   0.179   7.135  1.5020 -0.2832 -0.5565
 6106SOL     OW29779   0.327   2.314   8.938  0.4014 -0.0005 -0.4265
 6106SOL    HW129780   0.335   2.380   9.007  0.5634 -0.3150 -0.1422
 6106SOL    HW229781   0.348   2.235   8.988  0.6341 -0.3819 -1.1272
 6107SOL     OW29782   3.839   3.112   2.053  0.3815 -0.7596  0.0720
 6107SOL    HW129783   3.882   3.156   2.127 -1.3210  1.4552 -0.2239
 6107SOL    HW229784   3.747   3.118   2.080  1.2331 -0.0272  2.9109
 6108SOL     OW29785   3.906   0.565   3.853 -0.3854 -0.3494  0.5045
 6108SOL    HW129786   3.947   0.651   3.867 -2.1876  0.2409  2.1993
 6108SOL    HW229787   3.814   0.587   3.869 -0.5501  1.2093 -2.4076
 6109SOL     OW29788   4.155   4.149  14.318 -0.0898  0.2817  1.0295
 6109SOL    HW129789   4.125   4.062  14.342  0.4291 -0.2623 -0.2854
 6109SOL    HW229790   4.090   4.210  14.353  0.1804  1.9572 -1.3280
 6110SOL     OW29791   1.722   2.885   2.516 -0.0067  0.3507  0.0867
 6110SOL    HW129792   1.745   2.863   2.426  0.8371  1.8983 -0.0603
 6110SOL    HW229793   1.662   2.811   2.533  0.2975  0.1157  0.1299
 6111SOL     OW29794   4.181   2.472  15.393  0.0543 -0.0479 -0.1303
 6111SOL    HW129795   4.210   2.541  15.452 -2.7748  2.7772 -2.0694
 6111SOL    HW229796   4.103   2.512  15.356 -0.3260 -0.9259 -0.2873
 6112SOL     OW29797   0.866   4.202   4.427  0.1790 -0.1457 -0.3124
 6112SOL    HW129798   0.778   4.168   4.443  1.2521 -2.2124  1.2662
 6112SOL    HW229799   0.912   4.118   4.425 -0.3361 -0.3990 -1.0266
 6113SOL     OW29800   1.895   2.778   5.049  0.3527  0.0701  0.3840
 6113SOL    HW129801   1.984   2.813   5.044  0.2983  0.1332 -0.1468
 6113SOL    HW229802   1.842   2.857   5.046  2.0406  1.2499  1.2261
 6114SOL     OW29803   4.149   3.124  13.750 -0.1527  0.7645 -0.0903
 6114SOL    HW129804   4.229   3.109  13.801  0.1991 -0.5466 -1.0439
 6114SOL    HW229805   4.190   3.150  13.667 -0.8412  0.8431 -0.3994
 6115SOL     OW29806   2.950   2.678   5.392  0.1663  0.1352 -0.1013
 6115SOL    HW129807   3.026   2.667   5.448  0.9135  1.4285 -0.8626
 6115SOL    HW229808   2.957   2.757   5.339  2.0492  0.1628  0.1948
 6116SOL     OW29809   3.214   2.030   3.352  0.0395  0.1278  0.2480
 6116SOL    HW129810   3.247   2.115   3.322  2.5405 -1.2185 -0.7941
 6116SOL    HW229811   3.150   2.006   3.285  0.2425  0.2065  0.0223
 6117SOL     OW29812   1.403   1.823   2.502  0.5579 -1.1393 -0.1546
 6117SOL    HW129813   1.399   1.817   2.598  1.9738 -1.3694 -0.1121
 6117SOL    HW229814   1.398   1.731   2.477  1.5519 -1.2909  0.1815
 6118SOL     OW29815   2.766   4.592   3.659  0.0777  0.2799 -0.1118
 6118SOL    HW129816   2.787   4.515   3.712 -0.4548  0.3139  0.1533
 6118SOL    HW229817   2.852   4.615   3.624  1.6858 -3.4145  1.3519
 6119SOL     OW29818   4.323   3.508   5.857  0.6300  0.6296 -0.1593
 6119SOL    HW129819   4.375   3.517   5.778 -0.1190  1.1777 -0.5874
 6119SOL    HW229820   4.289   3.596   5.874 -1.9028 -0.4519  0.3904
 6120SOL     OW29821   1.474   3.114   5.205  0.1332 -0.4420  0.1420
 6120SOL    HW129822   1.512   3.056   5.271  2.1827  2.2596  1.3535
 6120SOL    HW229823   1.388   3.140   5.238  1.4005  0.3981  2.7916
 6121SOL     OW29824   0.596   2.325  11.810 -0.0401 -0.0921  0.1444
 6121SOL    HW129825   0.635   2.373  11.883 -1.2146  0.1477  0.6151
 6121SOL    HW229826   0.638   2.362  11.733  0.5562 -0.5163  0.2679
 6122SOL     OW29827   4.332   4.581  16.993 -0.4980  0.6459  0.3555
 6122SOL    HW129828   4.351   4.585  16.899  2.9006  0.9813  1.0717
 6122SOL    HW229829   4.252   4.634  16.999 -1.3750 -0.5790 -0.4090
 6123SOL     OW29830   2.550   1.415   5.114  0.1033  0.5735  0.1007
 6123SOL    HW129831   2.589   1.495   5.148 -3.3935  2.4784 -0.3184
 6123SOL    HW229832   2.459   1.443   5.107  0.5014  0.8830 -3.8673
 6124SOL     OW29833   0.114   1.726   6.553 -0.7879  0.2162 -0.4944
 6124SOL    HW129834   0.088   1.752   6.464 -2.0474 -1.1568 -0.5197
 6124SOL    HW229835   0.201   1.686   6.543  0.4540  2.8583 -0.4205
 6125SOL     OW29836   3.360   1.660  10.308  0.0689  0.2891 -0.2810
 6125SOL    HW129837   3.290   1.601  10.336  1.9676 -1.5806  0.4905
 6125SOL    HW229838   3.361   1.725  10.379 -1.4368  2.2312 -2.0435
 6126SOL     OW29839   3.213   2.377   2.773  0.6357  0.3615  0.3524
 6126SOL    HW129840   3.147   2.372   2.843 -0.2465 -1.4357 -0.6121
 6126SOL    HW229841   3.218   2.468   2.745  0.9689  0.6191  1.2465
 6127SOL     OW29842   1.870   1.647   1.182 -0.5568 -0.4133  0.0252
 6127SOL    HW129843   1.802   1.713   1.198 -1.4522 -0.4771 -3.4787
 6127SOL    HW229844   1.942   1.697   1.144  0.0109 -1.1973  0.0601
 6128SOL     OW29845   2.332   3.486   7.857  0.0642 -0.2985  0.4220
 6128SOL    HW129846   2.325   3.398   7.819 -1.0695 -1.2311  2.7357
 6128SOL    HW229847   2.414   3.529   7.833  0.2503 -0.8487  0.0748
 6129SOL     OW29848   1.263   2.452  16.764 -0.1018  0.2207 -0.2031
 6129SOL    HW129849   1.234   2.377  16.816  0.3573 -0.0057 -0.2668
 6129SOL    HW229850   1.189   2.458  16.704  0.3014 -0.4397 -0.7702
 6130SOL     OW29851   0.345   3.989   6.586  0.0595 -0.7368  0.1456
 6130SOL    HW129852   0.422   4.045   6.579 -1.9004  2.1691  1.4079
 6130SOL    HW229853   0.391   3.911   6.616 -0.5269 -1.0632  0.1882
 6131SOL     OW29854   3.472   2.273   3.532  0.3656  0.0789  0.4010
 6131SOL    HW129855   3.558   2.291   3.571  0.1508  1.9323  0.0077
 6131SOL    HW229856   3.513   2.256   3.447 -0.5961  0.0040 -0.0451
 6132SOL     OW29857   2.587   1.524  16.412 -0.1319  0.1590  0.3197
 6132SOL    HW129858   2.503   1.500  16.453 -0.9454  2.8961  0.2374
 6132SOL    HW229859   2.546   1.567  16.337  0.1108 -0.2855 -0.0589
 6133SOL     OW29860   3.201   0.101  17.517  0.1299 -1.0235  0.3616
 6133SOL    HW129861   3.267   0.167  17.540 -1.3406  0.2987  0.8027
 6133SOL    HW229862   3.261   0.027  17.516  3.0981  1.3633 -0.0043
 6134SOL     OW29863   3.556   2.472   0.024 -0.0579  0.2543  0.2541
 6134SOL    HW129864   3.599   2.422  17.653  1.0872 -0.1069  1.2205
 6134SOL    HW229865   3.508   2.533  17.667 -2.0727 -0.4984  1.1739
 6135SOL     OW29866   4.609   3.991  15.793  0.2620 -0.1615  0.2222
 6135SOL    HW129867   4.541   4.010  15.857  0.5881 -1.1808  0.8740
 6135SOL    HW229868   4.662   4.070  15.783  0.4880 -0.3965 -0.4467
 6136SOL     OW29869   0.521   4.529   2.435  0.0136  0.0074 -0.3318
 6136SOL    HW129870   0.563   4.614   2.450  1.3164 -0.5853 -0.6472
 6136SOL    HW229871   0.503   4.494   2.523  1.0984 -0.0457 -0.1361
 6137SOL     OW29872   3.586   0.806   7.852 -0.2688  0.0982 -0.1825
 6137SOL    HW129873   3.675   0.823   7.822 -0.3998  1.0217 -0.0498
 6137SOL    HW229874   3.548   0.769   7.772  1.9018 -0.3282 -1.0035
 6138SOL     OW29875   4.537   0.712   5.675  0.3352 -0.4478 -0.2339
 6138SOL    HW129876   4.554   0.704   5.768  1.9778  0.8399 -0.4426
 6138SOL    HW229877   4.603   0.776   5.652 -0.4668  0.8318  1.0236
 6139SOL     OW29878   3.881   3.678   8.039 -0.0329  0.1471 -0.0641
 6139SOL    HW129879   3.821   3.752   8.035 -0.9207 -0.5770 -0.1422
 6139SOL    HW229880   3.815   3.611   8.054 -1.0206  0.2565 -3.9157
 6140SOL     OW29881   3.704   0.875   6.572 -0.0188  0.0143  0.3311
 6140SOL    HW129882   3.776   0.842   6.518  0.6735  0.8393  0.7556
 6140SOL    HW229883   3.654   0.932   6.514 -1.5779 -0.9490  0.7321
 6141SOL     OW29884   1.971   3.498  17.573 -0.0049 -0.2468  0.4641
 6141SOL    HW129885   1.896   3.539  17.529  0.3563  2.8926  2.7934
 6141SOL    HW229886   1.997   3.556  17.644 -0.3057 -1.8408  1.8995
 6142SOL     OW29887   1.406   4.091   6.100  0.2176 -0.6096 -0.0980
 6142SOL    HW129888   1.418   4.185   6.083 -0.2704 -0.7330 -1.1306
 6142SOL    HW229889   1.399   4.086   6.196  1.2904  0.8450  0.0605
 6143SOL     OW29890   1.946   1.060   5.511 -0.5151  0.0449 -0.0252
 6143SOL    HW129891   1.953   0.973   5.471  0.4763 -0.2277  0.7485
 6143SOL    HW229892   1.969   1.041   5.601 -0.3136  0.2510 -0.0347
 6144SOL     OW29893   0.830   1.701   6.072 -0.4940  0.0929  0.3719
 6144SOL    HW129894   0.784   1.784   6.078 -2.0535 -0.9815  3.4428
 6144SOL    HW229895   0.909   1.717   6.020  2.3367 -1.7091  4.0567
 6145SOL     OW29896   0.376   1.478   5.665 -0.2993  0.5059 -0.0724
 6145SOL    HW129897   0.402   1.487   5.574  1.2827  3.8131  0.6892
 6145SOL    HW229898   0.455   1.433   5.695 -0.4927 -0.9613 -1.7517
 6146SOL     OW29899   0.001   1.346  15.878  0.3845 -0.1310 -0.9477
 6146SOL    HW129900   0.089   1.371  15.849  1.5658  1.8945  4.4042
 6146SOL    HW229901   4.669   1.417  15.848 -1.4281 -0.0124  2.6603
 6147SOL     OW29902   2.552   3.132   6.629 -0.0984  0.2842  0.2657
 6147SOL    HW129903   2.633   3.172   6.660  1.0303 -1.2047 -0.8240
 6147SOL    HW229904   2.502   3.213   6.642  0.8052  0.7388  0.8657
 6148SOL     OW29905   1.635   1.737   1.316 -0.1424 -0.3367 -0.2331
 6148SOL    HW129906   1.606   1.828   1.323 -0.3799 -0.4350  0.0822
 6148SOL    HW229907   1.553   1.690   1.333  1.2222 -1.8558  2.1003
 6149SOL     OW29908   0.688   2.221   7.840  0.2475  0.2590  0.3912
 6149SOL    HW129909   0.673   2.280   7.766 -1.8571 -2.6573 -1.4964
 6149SOL    HW229910   0.620   2.154   7.831  0.9028 -0.4854  0.9283
 6150SOL     OW29911   3.778   2.522  13.723  0.0058 -0.8138  0.5426
 6150SOL    HW129912   3.704   2.461  13.721 -1.0617  0.5143 -0.0465
 6150SOL    HW229913   3.809   2.504  13.812  0.0469 -1.6022  0.3723
 6151SOL     OW29914   1.054   0.097   2.442 -0.0673  0.3178  0.1718
 6151SOL    HW129915   1.004   0.147   2.506  1.3187  4.0382 -1.6085
 6151SOL    HW229916   0.984   0.086   2.377  1.2248 -1.1243 -0.9899
 6152SOL     OW29917   3.930   3.892  10.773  0.2758  0.5021 -0.2031
 6152SOL    HW129918   3.872   3.855  10.707  0.3220  2.5258 -1.3644
 6152SOL    HW229919   4.012   3.859  10.738  0.9829 -0.8870  2.7297
 6153SOL     OW29920   4.192   4.447  11.796  0.2511  0.5714 -0.3324
 6153SOL    HW129921   4.198   4.520  11.859  0.5300 -0.2368  0.5780
 6153SOL    HW229922   4.208   4.488  11.711  0.0475 -1.8317 -1.4999
 6154SOL     OW29923   0.261   3.253   6.147  0.0800 -0.4585  0.3487
 6154SOL    HW129924   0.239   3.208   6.065  0.5355 -0.4710  0.2326
 6154SOL    HW229925   0.279   3.340   6.110  1.9171 -0.8276  0.3533
 6155SOL     OW29926   0.077   3.008   4.655  0.6759  0.5092  0.5820
 6155SOL    HW129927   0.144   3.030   4.719 -0.5463  0.6093  1.8178
 6155SOL    HW229928   0.067   3.090   4.607 -0.1479  1.2078  1.9528
 6156SOL     OW29929   1.256   0.992  13.708 -0.0363  0.1201 -0.0395
 6156SOL    HW129930   1.314   0.974  13.782  2.4632  1.5982 -1.6593
 6156SOL    HW229931   1.319   1.015  13.640  2.0715  1.2496  2.3069
 6157SOL     OW29932   4.009   3.237   9.844  0.1420  0.3231 -0.1174
 6157SOL    HW129933   3.946   3.167   9.828  2.1613 -1.5909  0.3554
 6157SOL    HW229934   3.979   3.295   9.774 -0.8352  1.4522  1.2441
 6158SOL     OW29935   3.673   1.716   3.076 -0.1886  0.1416  0.0566
 6158SOL    HW129936   3.707   1.792   3.029 -0.9583  0.0046 -0.7112
 6158SOL    HW229937   3.625   1.675   3.005 -0.2006 -0.4460  0.4015
 6159SOL     OW29938   4.616   2.227   7.268  0.1166 -0.4132  0.3088
 6159SOL    HW129939   4.650   2.140   7.289 -0.9075 -1.0513 -0.7390
 6159SOL    HW229940   4.577   2.265   7.347  0.0462 -0.1396  0.1407
 6160SOL     OW29941   1.543   3.396   4.134  0.3461  0.1373 -0.9280
 6160SOL    HW129942   1.484   3.339   4.085  0.5535  0.9120 -2.0861
 6160SOL    HW229943   1.621   3.386   4.079 -1.4400 -1.7589 -3.1229
 6161SOL     OW29944   4.160   2.583   6.537 -0.4114  0.0697 -0.2083
 6161SOL    HW129945   4.235   2.613   6.587  0.4694 -1.0102 -0.8801
 6161SOL    HW229946   4.184   2.490   6.534  0.1683  0.2418 -0.7942
 6162SOL     OW29947   0.991   3.260   3.264  0.9158  0.3762  0.0933
 6162SOL    HW129948   1.005   3.352   3.241 -1.5552  0.4344 -1.1551
 6162SOL    HW229949   1.034   3.220   3.189  0.1343 -1.5274  0.6596
 6163SOL     OW29950   4.508   3.838   1.142  0.2131 -0.2252  0.2649
 6163SOL    HW129951   4.573   3.801   1.082 -2.1519 -0.0865 -2.3665
 6163SOL    HW229952   4.451   3.762   1.154  0.0841  0.0954  1.6905
 6164SOL     OW29953   1.982   3.459   6.168 -0.3230  0.1342 -0.1788
 6164SOL    HW129954   1.948   3.410   6.093 -2.0681 -2.1333  2.1040
 6164SOL    HW229955   2.020   3.382   6.210  1.2505  0.9985 -0.0328
 6165SOL     OW29956   2.787   1.404  16.261  0.0872  0.6211 -0.1000
 6165SOL    HW129957   2.765   1.424  16.170  2.5531 -1.2241 -1.1084
 6165SOL    HW229958   2.713   1.443  16.308  2.1986  2.3100  1.7982
 6166SOL     OW29959   3.241   1.406   6.029 -0.0727 -0.4274 -0.2289
 6166SOL    HW129960   3.154   1.445   6.031  0.1969  0.2077 -1.0422
 6166SOL    HW229961   3.262   1.367   6.114 -2.0000  2.8010  1.7249
 6167SOL     OW29962   0.922   4.698   3.308  0.0443 -0.0817  0.1666
 6167SOL    HW129963   0.908   0.020   3.226 -0.0388 -1.0608 -0.3571
 6167SOL    HW229964   0.919   4.608   3.276 -1.9497 -0.2040  0.6670
 6168SOL     OW29965   4.634   1.579   2.281 -0.2385  0.3253 -0.0611
 6168SOL    HW129966   4.557   1.595   2.226  0.6148  1.0871 -1.0297
 6168SOL    HW229967   4.599   1.530   2.356 -1.3571  0.8305 -0.2533
 6169SOL     OW29968   0.695   0.800   7.410  0.3010 -0.0745 -0.3707
 6169SOL    HW129969   0.700   0.793   7.315 -2.3348 -2.8455 -0.3237
 6169SOL    HW229970   0.603   0.774   7.420  0.3847  1.1949  3.8062
 6170SOL     OW29971   1.604   1.295   8.929 -0.0973  0.4300 -0.6500
 6170SOL    HW129972   1.647   1.209   8.927 -5.0590 -2.1713  2.4739
 6170SOL    HW229973   1.547   1.287   9.006 -0.0293  0.1454 -0.6288
 6171SOL     OW29974   3.231   4.372   4.656  0.6797  0.0104 -0.3082
 6171SOL    HW129975   3.312   4.359   4.707  1.1795 -2.3592 -1.7008
 6171SOL    HW229976   3.175   4.319   4.713 -0.6241  1.4233 -0.2876
 6172SOL     OW29977   0.015   4.343   7.076  0.3410 -0.4537 -0.0563
 6172SOL    HW129978   4.700   4.256   7.066  1.0645 -0.5411 -2.1427
 6172SOL    HW229979   0.004   4.370   6.985 -2.7348  0.9092  0.7327
 6173SOL     OW29980   1.027   0.518   8.061 -0.6146 -0.1967 -0.2472
 6173SOL    HW129981   1.093   0.504   8.129 -1.2837 -1.4039  0.1423
 6173SOL    HW229982   1.070   0.562   7.987  2.2211 -1.0080  0.9140
 6174SOL     OW29983   3.283   0.348  17.650 -0.6287  0.1630 -0.1411
 6174SOL    HW129984   3.193   0.359  17.619 -0.3109 -1.8041 -1.7782
 6174SOL    HW229985   3.264   0.347   0.046  1.4903  0.1002  0.2731
 6175SOL     OW29986   3.605   0.038   5.037 -0.6104 -0.3530  0.3281
 6175SOL    HW129987   3.616   0.050   4.942 -1.6239 -0.1173  0.2370
 6175SOL    HW229988   3.517   0.004   5.053 -1.1646  0.5601 -0.7423
 6176SOL     OW29989   0.778   3.006   4.735  0.0246  0.3855 -0.1913
 6176SOL    HW129990   0.810   3.075   4.794 -1.2078  0.2562  0.6215
 6176SOL    HW229991   0.684   3.019   4.747  0.0325  0.7285 -0.5062
 6177SOL     OW29992   2.928   3.496  17.084 -0.0225 -0.0089 -0.6167
 6177SOL    HW129993   2.842   3.454  17.083  0.2519 -0.5293 -1.8508
 6177SOL    HW229994   2.904   3.587  17.066 -0.7713  0.2081  1.4395
 6178SOL     OW29995   1.760   1.345  14.113  0.2918 -0.1480 -0.7521
 6178SOL    HW129996   1.671   1.330  14.145  0.6225  0.0754  0.2893
 6178SOL    HW229997   1.762   1.437  14.088  0.1781 -0.1267 -0.6814
 6179SOL     OW29998   2.852   2.393  11.724  0.1480  0.2196 -0.2194
 6179SOL    HW129999   2.862   2.303  11.695 -0.6269 -0.1908  0.8030
 6179SOL    HW230000   2.769   2.423  11.687  0.3086  0.6821 -0.2131
 6180SOL     OW30001   1.160   0.561   9.479 -0.3833 -0.1794 -0.2953
 6180SOL    HW130002   1.127   0.495   9.541 -1.4002 -1.3505 -2.1029
 6180SOL    HW230003   1.224   0.609   9.531 -0.2253 -0.4108 -0.2733
 6181SOL     OW30004   2.651   1.010  11.283 -0.5936  0.5946  0.2610
 6181SOL    HW130005   2.592   0.943  11.248 -0.4694 -0.2485  1.6366
 6181SOL    HW230006   2.614   1.096  11.263  0.0684  0.1967 -2.6416
 6182SOL     OW30007   4.170   1.570   9.174  0.1504 -0.5606  0.3090
 6182SOL    HW130008   4.216   1.518   9.108 -0.8372 -0.3069 -0.5681
 6182SOL    HW230009   4.228   1.646   9.181 -1.8170  1.0401 -0.8227
 6183SOL     OW30010   0.996   3.100   6.758 -0.8111 -0.5652 -0.0989
 6183SOL    HW130011   1.047   3.121   6.836 -3.5335 -2.1803  2.1221
 6183SOL    HW230012   0.981   3.005   6.758 -1.1876 -0.4932  2.3613
 6184SOL     OW30013   4.497   0.615   8.562  0.2459  0.5609  0.0245
 6184SOL    HW130014   4.485   0.555   8.635  0.6577 -1.9809 -1.9894
 6184SOL    HW230015   4.465   0.562   8.489 -1.2873 -0.6259  1.5813
 6185SOL     OW30016   4.555   2.496  12.393 -0.0118  0.1935  0.2673
 6185SOL    HW130017   4.536   2.421  12.337 -1.7177  0.7996  0.0297
 6185SOL    HW230018   4.571   2.447  12.474 -5.0678 -1.4734  0.2325
 6186SOL     OW30019   3.996   2.425   6.749 -0.4826  0.6697  0.0038
 6186SOL    HW130020   4.034   2.460   6.669 -0.7010 -1.9993 -1.2864
 6186SOL    HW230021   4.027   2.487   6.815 -1.0395 -0.8131  1.6482
 6187SOL     OW30022   4.107   2.800   7.656 -0.1608  0.6209  0.0929
 6187SOL    HW130023   4.125   2.890   7.630  0.7588  1.2738  3.0256
 6187SOL    HW230024   4.114   2.774   7.564 -1.0422  0.6442  0.0153
 6188SOL     OW30025   1.031   2.652  13.805 -0.0515  0.2239 -0.0901
 6188SOL    HW130026   0.990   2.725  13.851 -0.7950 -0.7427  0.7843
 6188SOL    HW230027   1.077   2.620  13.883 -1.1599 -2.7451 -0.6460
 6189SOL     OW30028   3.393   2.059   4.503  0.2326  0.0499 -0.2302
 6189SOL    HW130029   3.355   2.082   4.588 -0.3787 -3.3399  0.4126
 6189SOL    HW230030   3.403   2.148   4.468  0.3761 -1.0265 -2.8977
 6190SOL     OW30031   3.638   0.283   0.280 -0.1764 -0.7209  0.3868
 6190SOL    HW130032   3.639   0.188   0.282  2.8176 -0.6940  0.5631
 6190SOL    HW230033   3.575   0.298   0.351  0.6075 -0.5108  1.0312
 6191SOL     OW30034   3.385   0.313  10.064  0.3067  0.3914  0.2170
 6191SOL    HW130035   3.392   0.335   9.971 -2.4218  1.0429  0.1532
 6191SOL    HW230036   3.466   0.360  10.079 -0.4881  1.2870  1.7022
 6192SOL     OW30037   4.314   1.910   5.281  0.5434  0.2623 -0.4628
 6192SOL    HW130038   4.263   1.967   5.339  2.2922  0.0755  1.2699
 6192SOL    HW230039   4.401   1.943   5.304  0.5823  2.5440 -3.9442
 6193SOL     OW30040   1.908   0.846   6.492  0.1875 -0.2860 -0.5275
 6193SOL    HW130041   1.947   0.929   6.463 -0.8908  0.5903  0.5165
 6193SOL    HW230042   1.980   0.789   6.467  0.1275 -0.0777 -1.1783
 6194SOL     OW30043   4.321   3.251   0.565  0.2137  0.2661 -0.4425
 6194SOL    HW130044   4.339   3.252   0.659 -0.6598 -0.1747 -0.2716
 6194SOL    HW230045   4.368   3.327   0.531  2.6296 -1.4205 -0.8718
 6195SOL     OW30046   4.252   2.420   3.950  0.2982  0.5703  0.5976
 6195SOL    HW130047   4.254   2.381   3.862 -0.8399  0.3125  0.6966
 6195SOL    HW230048   4.245   2.338   3.998  1.1629 -0.2413 -0.6547
 6196SOL     OW30049   2.196   1.807   5.897 -0.0041 -0.5312 -0.0496
 6196SOL    HW130050   2.114   1.816   5.849  1.3557  2.1834 -1.7924
 6196SOL    HW230051   2.188   1.876   5.963  1.2955 -0.6163  0.2034
 6197SOL     OW30052   0.634   2.246   3.170 -0.5989  0.3574  0.0495
 6197SOL    HW130053   0.581   2.238   3.250  0.9480 -1.4978  0.8854
 6197SOL    HW230054   0.589   2.321   3.131 -0.9732 -0.1878 -0.5856
 6198SOL     OW30055   0.699   1.138   7.513 -0.7368  0.4179 -0.0589
 6198SOL    HW130056   0.635   1.072   7.486  1.2954 -1.4824 -0.2168
 6198SOL    HW230057   0.710   1.179   7.427 -2.2778 -0.7369 -0.8084
 6199SOL     OW30058   2.929   2.424   5.920  0.7983  0.1955  0.2124
 6199SOL    HW130059   2.882   2.500   5.954 -0.4257 -0.3464 -0.2669
 6199SOL    HW230060   2.874   2.411   5.843  0.5025  0.4890  0.3748
 6200SOL     OW30061   3.174   1.166   7.823  0.0649 -0.1112 -0.3409
 6200SOL    HW130062   3.206   1.250   7.791 -0.6476 -0.7657 -2.8095
 6200SOL    HW230063   3.103   1.155   7.759 -0.9119  2.6937  0.2746
 6201SOL     OW30064   1.818   4.084  11.698  0.4759 -0.0913  0.1298
 6201SOL    HW130065   1.849   4.152  11.758  3.7614 -1.7683  0.3420
 6201SOL    HW230066   1.749   4.040  11.747  0.0347  1.1190  0.5868
 6202SOL     OW30067   3.524   3.793   3.474 -0.4219  0.1049  0.0535
 6202SOL    HW130068   3.520   3.755   3.386  1.5688  0.1973 -0.0776
 6202SOL    HW230069   3.616   3.814   3.493  0.2922 -1.4411 -1.6324
 6203SOL     OW30070   1.015   1.514  11.248 -0.6485 -0.2182  0.1257
 6203SOL    HW130071   1.012   1.556  11.162  0.4292 -2.1055 -0.8251
 6203SOL    HW230072   1.098   1.466  11.248 -1.0667 -0.9437 -0.4280
 6204SOL     OW30073   0.118   3.184   6.373  0.1766  0.4047 -0.5266
 6204SOL    HW130074   0.049   3.124   6.345 -1.3481  1.0232  1.9147
 6204SOL    HW230075   0.155   3.215   6.290  0.9403  0.6965 -0.0749
 6205SOL     OW30076   4.480   0.971   5.404 -0.0533  0.1761  0.5124
 6205SOL    HW130077   4.408   0.957   5.465 -0.6537  1.4569  0.1123
 6205SOL    HW230078   4.437   1.016   5.330 -0.9838 -0.5574  0.6065
 6206SOL     OW30079   1.268   0.447   8.200  0.1600 -0.5555  0.2775
 6206SOL    HW130080   1.338   0.467   8.263 -0.8226 -0.3448  1.3163
 6206SOL    HW230081   1.283   0.354   8.182  0.2330 -0.5029  0.0688
 6207SOL     OW30082   3.777   4.712   4.031 -0.1965 -0.9293 -0.1508
 6207SOL    HW130083   3.828   0.036   4.096 -0.1539  0.1035 -0.9471
 6207SOL    HW230084   3.817   4.723   3.945  1.0582 -1.3061  0.3964
 6208SOL     OW30085   0.891   4.498   0.834  0.6007  0.5013  0.0669
 6208SOL    HW130086   0.969   4.527   0.881 -1.3427  3.3470  1.5312
 6208SOL    HW230087   0.940   4.429   0.789 -0.4284 -0.0804 -0.1745
 6209SOL     OW30088   2.791   2.447   4.405 -0.0046  0.1314 -0.1767
 6209SOL    HW130089   2.768   2.375   4.346  0.5567 -0.8253  0.7644
 6209SOL    HW230090   2.885   2.453   4.385  0.8642  0.8180  4.2164
 6210SOL     OW30091   3.984   1.260   3.243 -0.6511 -0.2523  1.2847
 6210SOL    HW130092   3.930   1.340   3.246 -0.0404  0.1689  0.9331
 6210SOL    HW230093   3.951   1.224   3.325 -0.7483 -0.6148  1.0841
 6211SOL     OW30094   3.149   1.256   3.549  0.6773  0.3642  0.8865
 6211SOL    HW130095   3.159   1.165   3.578 -1.0931  0.8351  2.9336
 6211SOL    HW230096   3.072   1.289   3.596 -3.0640 -2.2000 -3.5223
 6212SOL     OW30097   1.173   3.792   5.118  0.2395 -0.2046 -0.0092
 6212SOL    HW130098   1.232   3.817   5.188  0.9877 -2.3072  0.1127
 6212SOL    HW230099   1.238   3.734   5.079 -1.6719 -0.7515 -2.4103
 6213SOL     OW30100   2.330   2.482   5.306  0.6845  0.0552 -0.1380
 6213SOL    HW130101   2.318   2.406   5.249 -1.5277  1.0700 -1.0225
 6213SOL    HW230102   2.248   2.491   5.355 -0.6906 -1.0355 -2.2126
 6214SOL     OW30103   0.035   4.469   2.563 -0.0812  0.7951 -0.1450
 6214SOL    HW130104   0.071   4.546   2.519  2.1212 -0.2117 -0.1286
 6214SOL    HW230105   0.073   4.397   2.513 -0.2838  1.7182 -1.6307
 6215SOL     OW30106   1.093   1.920  16.221 -0.4662 -0.7515  0.0169
 6215SOL    HW130107   1.095   1.828  16.247  0.1785 -1.2274 -1.7068
 6215SOL    HW230108   1.156   1.919  16.150 -1.5818 -0.5253 -0.9663
 6216SOL     OW30109   1.269   2.271  17.670 -0.5238 -0.0053 -0.0263
 6216SOL    HW130110   1.317   2.331  17.612 -0.1558  1.3329  1.6529
 6216SOL    HW230111   1.336   2.202  17.672 -0.0084  0.4747 -0.7823
 6217SOL     OW30112   4.525   3.633   5.674 -0.3960 -0.4008  0.5325
 6217SOL    HW130113   4.592   3.666   5.734  0.5173  0.4545 -0.9674
 6217SOL    HW230114   4.482   3.716   5.652  1.9628  0.9934  1.1524
 6218SOL     OW30115   1.527   3.621   5.826 -0.1082 -0.3868 -0.4811
 6218SOL    HW130116   1.563   3.639   5.739 -0.3209 -0.3059 -0.5529
 6218SOL    HW230117   1.518   3.707   5.868  2.0968 -1.7644  2.8941
 6219SOL     OW30118   4.010   3.114   8.814  0.1722 -0.4862 -0.2306
 6219SOL    HW130119   3.985   3.031   8.773 -1.0285 -0.0600 -0.3528
 6219SOL    HW230120   4.102   3.122   8.788  0.3687  0.7248  0.8262
 6220SOL     OW30121   1.933   1.798  10.704  0.4434 -0.5871  0.2990
 6220SOL    HW130122   2.010   1.744  10.723  1.4801  0.4912 -0.7744
 6220SOL    HW230123   1.920   1.850  10.783 -0.2434  1.9941 -1.4911
 6221SOL     OW30124   4.359   3.184   3.332  0.0535  0.2964  0.8424
 6221SOL    HW130125   4.290   3.190   3.397 -1.4071 -0.4170 -0.6296
 6221SOL    HW230126   4.440   3.187   3.382  0.3616  0.0869  0.3611
 6222SOL     OW30127   1.428   2.738   7.643  0.1196  0.4169 -0.2144
 6222SOL    HW130128   1.435   2.814   7.586  1.9740  0.2303 -0.2390
 6222SOL    HW230129   1.513   2.697   7.626 -1.3210 -2.7222  0.2227
 6223SOL     OW30130   0.309   1.868  11.844 -0.2251  0.1375  0.4946
 6223SOL    HW130131   0.234   1.830  11.891 -0.2089  2.3498  2.2913
 6223SOL    HW230132   0.378   1.869  11.910  1.2357  2.0518 -1.0606
 6224SOL     OW30133   4.627   3.312   5.910 -0.1476  1.0996  0.1017
 6224SOL    HW130134   4.573   3.235   5.931  1.2402  0.6612  2.0925
 6224SOL    HW230135   4.576   3.342   5.836 -0.9920 -1.2989 -0.3001
 6225SOL     OW30136   1.892   1.578  13.324 -0.3228  0.1971  0.3141
 6225SOL    HW130137   1.946   1.612  13.253 -0.6921  2.4878  1.1213
 6225SOL    HW230138   1.860   1.656  13.370 -0.1881  0.5798 -0.2401
 6226SOL     OW30139   3.883   2.340   2.489  0.2284 -0.5209 -0.2095
 6226SOL    HW130140   3.911   2.364   2.401  1.0344 -1.5221 -0.2317
 6226SOL    HW230141   3.963   2.342   2.541 -0.6050  0.1656  1.0558
 6227SOL     OW30142   0.897   2.052  11.281  0.2427 -0.0029 -0.1384
 6227SOL    HW130143   0.811   2.019  11.252  0.7481  0.3907 -2.1150
 6227SOL    HW230144   0.890   2.138  11.241 -0.5485 -0.2098 -0.4623
 6228SOL     OW30145   2.278   2.435   1.341  0.0986 -0.0548  0.6291
 6228SOL    HW130146   2.230   2.372   1.394 -1.4844  0.3092 -0.3597
 6228SOL    HW230147   2.365   2.440   1.380  0.6564 -2.0581 -0.3535
 6229SOL     OW30148   3.876   2.636   8.605  1.0253  0.3673  0.1423
 6229SOL    HW130149   3.788   2.604   8.622  0.1870  2.3068 -0.5562
 6229SOL    HW230150   3.870   2.644   8.510 -0.1130 -1.2816  0.0818
 6230SOL     OW30151   0.492   3.578   5.309 -0.1247 -0.4285  0.2158
 6230SOL    HW130152   0.580   3.611   5.290 -0.2684 -0.8747 -1.2606
 6230SOL    HW230153   0.517   3.508   5.369  0.2972 -0.1639  0.3421
 6231SOL     OW30154   1.588   4.288   9.197 -0.2269  0.4195 -0.2444
 6231SOL    HW130155   1.633   4.251   9.273  0.9886 -0.0681 -1.2067
 6231SOL    HW230156   1.637   4.370   9.190  0.3831 -0.0317 -1.1652
 6232SOL     OW30157   0.556   1.024   9.426 -0.2233  0.4840  0.4164
 6232SOL    HW130158   0.473   0.990   9.459  0.8139 -0.7438  1.7259
 6232SOL    HW230159   0.610   0.982   9.492 -1.2543 -0.4336  0.6847
 6233SOL     OW30160   2.882   1.425   3.580  0.1737  0.1878 -0.0533
 6233SOL    HW130161   2.874   1.515   3.611 -1.7876  0.4961 -1.4547
 6233SOL    HW230162   2.908   1.431   3.488  1.3475 -0.5209  0.2316
 6234SOL     OW30163   3.368   0.778   8.068 -0.0052 -0.2499 -0.1235
 6234SOL    HW130164   3.382   0.867   8.034  0.8398  0.7528  2.8684
 6234SOL    HW230165   3.386   0.730   7.987  0.6404 -0.2084 -0.0049
 6235SOL     OW30166   0.705   4.537   2.702  0.3038 -0.4282 -0.3974
 6235SOL    HW130167   0.655   4.504   2.628 -1.5845  0.6187  0.4178
 6235SOL    HW230168   0.689   4.463   2.762  0.9299 -0.9145 -0.8251
 6236SOL     OW30169   1.422   3.076   7.251 -0.2212 -0.2614 -0.6799
 6236SOL    HW130170   1.464   2.995   7.223 -2.4422 -1.4938 -0.4763
 6236SOL    HW230171   1.349   3.077   7.188  0.8098  1.3756 -1.8353
 6237SOL     OW30172   0.677   4.526   8.320  0.1448  0.6186  0.8145
 6237SOL    HW130173   0.631   4.444   8.335 -1.8085  0.9169 -3.2587
 6237SOL    HW230174   0.769   4.503   8.323  0.0430 -0.1364 -1.9341
 6238SOL     OW30175   2.897   2.913  12.220  0.1705 -0.0037 -0.0212
 6238SOL    HW130176   2.813   2.871  12.199  0.9481 -0.4124 -2.3187
 6238SOL    HW230177   2.933   2.914  12.132 -0.1627 -0.0489 -0.1604
 6239SOL     OW30178   0.311   4.421   2.857  0.5267  0.2973  0.1894
 6239SOL    HW130179   0.333   4.490   2.919 -1.9939  1.3800 -0.1482
 6239SOL    HW230180   0.222   4.449   2.836  0.7457  1.5367  0.9189
 6240SOL     OW30181   2.458   3.331   8.285  0.0176 -0.0275 -0.0988
 6240SOL    HW130182   2.444   3.406   8.227  0.5479 -1.8908 -2.6332
 6240SOL    HW230183   2.421   3.364   8.367 -3.7821 -0.3813 -1.6512
 6241SOL     OW30184   4.171   4.671  12.451  0.1324  0.3884  0.0972
 6241SOL    HW130185   4.249   4.682  12.505  1.0951  0.1053 -1.2470
 6241SOL    HW230186   4.096   4.691  12.508  0.8275  1.5656  0.6044
 6242SOL     OW30187   4.455   1.053   4.103  0.4926  0.0379 -0.8409
 6242SOL    HW130188   4.525   1.099   4.150 -1.3279  1.9804 -0.0466
 6242SOL    HW230189   4.517   0.989   4.069 -0.1599 -1.1074  0.1266
 6243SOL     OW30190   2.629   3.779   9.159  0.2609 -0.0049 -0.3377
 6243SOL    HW130191   2.624   3.842   9.231  2.2731 -0.9145  0.6060
 6243SOL    HW230192   2.724   3.774   9.149  0.4967  3.1656  0.2524
 6244SOL     OW30193   1.451   3.887   6.368 -0.1355 -0.4417 -0.6466
 6244SOL    HW130194   1.534   3.933   6.384 -0.0069 -1.2978  1.0494
 6244SOL    HW230195   1.392   3.955   6.402  2.4940  0.1542  2.7483
 6245SOL     OW30196   2.792   1.707  17.410  0.5403 -0.1318 -0.0657
 6245SOL    HW130197   2.857   1.686  17.342  2.2790 -1.6934  2.0847
 6245SOL    HW230198   2.761   1.795  17.386 -0.1706  0.1774  2.0241
 6246SOL     OW30199   4.342   0.996   9.717 -0.5450  0.7303 -0.6642
 6246SOL    HW130200   4.348   0.969   9.808  3.4915  4.6023  0.2087
 6246SOL    HW230201   4.428   1.038   9.714 -0.7647  1.0397 -3.1257
 6247SOL     OW30202   3.814   0.661   8.841  0.4828 -1.4545 -0.0867
 6247SOL    HW130203   3.773   0.595   8.897  1.4644 -1.0323  1.1390
 6247SOL    HW230204   3.774   0.739   8.881  0.0651 -2.7756  2.0874
 6248SOL     OW30205   3.528   2.599   5.209  0.5298 -0.3078 -0.6670
 6248SOL    HW130206   3.604   2.634   5.256 -2.4559  2.3615  2.1594
 6248SOL    HW230207   3.524   2.507   5.233  4.4727  0.2303  2.1442
 6249SOL     OW30208   3.028   2.702   7.896  0.2059  0.1920 -0.0660
 6249SOL    HW130209   2.982   2.731   7.974  2.0314 -0.1899  1.1516
 6249SOL    HW230210   2.978   2.754   7.833 -1.0783 -1.0894 -0.1003
 6250SOL     OW30211   4.019   4.666  12.715 -0.2146  0.2416 -0.0479
 6250SOL    HW130212   3.954   4.693  12.780 -2.4183 -1.8740 -1.3681
 6250SOL    HW230213   3.974   4.590  12.677 -0.9173  0.4202  0.4156
 6251SOL     OW30214   1.453   1.717  17.035 -0.3062 -0.4965 -0.1494
 6251SOL    HW130215   1.410   1.647  17.084  0.3605 -1.5828 -1.1038
 6251SOL    HW230216   1.463   1.777  17.109 -1.7077 -1.5794  0.9329
 6252SOL     OW30217   2.373   2.078  10.087 -0.0061  0.0182  0.0988
 6252SOL    HW130218   2.434   2.005  10.082 -1.7822 -1.4703  0.1560
 6252SOL    HW230219   2.431   2.152  10.072 -0.5780 -0.0747 -2.6076
 6253SOL     OW30220   4.030   3.994   8.639  0.2174  0.4905 -0.0836
 6253SOL    HW130221   4.070   4.078   8.615 -0.8581  0.2510 -2.7130
 6253SOL    HW230222   4.098   3.961   8.698 -1.1456 -0.5090  0.9456
 6254SOL     OW30223   2.146   3.773  11.897 -0.1166  0.1735 -0.0724
 6254SOL    HW130224   2.138   3.849  11.838 -1.6880  0.7772  0.8983
 6254SOL    HW230225   2.161   3.699  11.839 -1.0542  0.8698 -1.2018
 6255SOL     OW30226   0.881   2.951   6.313  0.2050  0.0881 -0.0198
 6255SOL    HW130227   0.901   3.044   6.310 -0.7155  0.3418  2.2449
 6255SOL    HW230228   0.950   2.922   6.373  1.0873  3.2136  0.4376
 6256SOL     OW30229   0.165   4.671   5.916  0.6167  0.0798 -0.1600
 6256SOL    HW130230   0.147   4.608   5.986 -0.0751  2.3019  1.6346
 6256SOL    HW230231   0.260   4.667   5.923  0.6102  0.5125  0.0954
 6257SOL     OW30232   0.193   2.957   7.826  0.0942 -0.6043  0.0217
 6257SOL    HW130233   0.136   2.880   7.838  0.2944 -0.5389  1.2870
 6257SOL    HW230234   0.182   2.993   7.914  0.3291  0.3123 -0.3285
 6258SOL     OW30235   0.887   3.750   2.845 -0.7171  0.5041 -0.3221
 6258SOL    HW130236   0.934   3.784   2.921  0.4170 -2.1890  0.1645
 6258SOL    HW230237   0.930   3.802   2.776 -1.9347 -0.1879 -1.6017
 6259SOL     OW30238   0.363   2.198   8.301  0.6161 -0.3297  0.2669
 6259SOL    HW130239   0.458   2.207   8.301  0.5603  0.3711 -0.8390
 6259SOL    HW230240   0.349   2.201   8.206  1.9376 -0.4860  0.0733
 6260SOL     OW30241   2.114   1.149   7.592  0.3881  0.1281 -0.4594
 6260SOL    HW130242   2.096   1.064   7.632  0.2166  1.0973  1.5105
 6260SOL    HW230243   2.061   1.206   7.647 -0.0678  0.5015 -1.2842
 6261SOL     OW30244   3.374   1.086   5.471 -0.5279 -0.2361  0.2187
 6261SOL    HW130245   3.416   1.046   5.395  0.7388  0.1046  0.7508
 6261SOL    HW230246   3.448   1.106   5.528 -0.1586  0.7636 -0.5920
 6262SOL     OW30247   0.137   3.312  17.284  0.0586  0.4965 -0.4921
 6262SOL    HW130248   0.211   3.290  17.340 -0.5910 -1.0920 -0.2690
 6262SOL    HW230249   0.176   3.312  17.197  1.5537  1.5200  0.1867
 6263SOL     OW30250   4.507   1.422   3.336 -0.6295  0.1629  0.3320
 6263SOL    HW130251   4.412   1.420   3.345 -0.6780  1.7829  0.2200
 6263SOL    HW230252   4.519   1.516   3.323  2.1528 -0.1401  0.6153
 6264SOL     OW30253   2.017   1.393   2.999  0.1726 -0.0389 -0.2319
 6264SOL    HW130254   1.946   1.332   2.975 -0.9355  0.8156  0.8793
 6264SOL    HW230255   2.070   1.329   3.047 -0.4621  0.0465  0.5838
 6265SOL     OW30256   3.124   2.142   8.007  0.4842 -0.0317  0.2199
 6265SOL    HW130257   3.213   2.166   7.981  0.2959 -0.4559 -0.8177
 6265SOL    HW230258   3.108   2.216   8.065 -0.9079 -1.1163  1.2064
 6266SOL     OW30259   0.276   3.101   1.970  0.1578 -0.2785 -0.0133
 6266SOL    HW130260   0.195   3.105   1.918  0.8042 -0.3826 -1.0223
 6266SOL    HW230261   0.271   3.012   2.005 -2.0656  0.1444  0.7772
 6267SOL     OW30262   4.087   3.082  14.164 -0.5061 -0.1359 -0.6930
 6267SOL    HW130263   4.150   3.112  14.099 -1.4781  2.2927 -0.5009
 6267SOL    HW230264   4.103   3.150  14.230 -0.8660 -0.6133 -0.1088
 6268SOL     OW30265   3.695   3.229   6.888 -0.2430 -0.7070  0.2866
 6268SOL    HW130266   3.785   3.203   6.909  0.4384  1.6693  0.2436
 6268SOL    HW230267   3.681   3.184   6.805 -0.1504  0.2052 -0.2150
 6269SOL     OW30268   4.608   1.855   9.370 -0.2838 -0.8761  0.6819
 6269SOL    HW130269   4.645   1.805   9.442 -0.6656 -2.8331 -0.4664
 6269SOL    HW230270   4.665   1.931   9.368  0.5261 -1.5192 -1.2965
 6270SOL     OW30271   3.104   0.586   5.694 -0.1274 -0.0880 -0.2710
 6270SOL    HW130272   3.165   0.654   5.666 -1.4462  0.6166 -1.4756
 6270SOL    HW230273   3.049   0.632   5.758 -1.1815 -1.8036  0.0685
 6271SOL     OW30274   0.761   0.654   2.274 -0.5195 -0.1054 -0.2953
 6271SOL    HW130275   0.775   0.638   2.180 -1.8498  2.2429 -0.9012
 6271SOL    HW230276   0.817   0.731   2.286  0.4738 -0.5460 -2.1326
 6272SOL     OW30277   3.705   4.495  17.571  0.4952 -0.0696  0.3587
 6272SOL    HW130278   3.732   4.580  17.605 -1.1850 -0.0493  1.6808
 6272SOL    HW230279   3.752   4.501  17.488 -0.1348 -2.0542 -0.1379
 6273SOL     OW30280   1.169   3.335  12.068  0.4041 -0.5263 -0.5997
 6273SOL    HW130281   1.219   3.256  12.052  1.0029  0.0232 -1.4304
 6273SOL    HW230282   1.108   3.309  12.137  1.1820 -0.4016  0.1354
 6274SOL     OW30283   3.730   2.370   6.918 -0.4655  0.3533  0.3051
 6274SOL    HW130284   3.784   2.370   6.997  1.9945 -2.4483 -1.3759
 6274SOL    HW230285   3.795   2.392   6.852 -0.5914 -2.0767 -0.6345
 6275SOL     OW30286   1.523   4.378   9.717 -0.1425 -0.5637 -0.1321
 6275SOL    HW130287   1.525   4.449   9.653 -1.1124 -1.7089 -1.4321
 6275SOL    HW230288   1.561   4.305   9.669  1.1378  0.3750 -0.5720
 6276SOL     OW30289   3.163   2.071   8.422 -0.2212  0.4243 -0.2756
 6276SOL    HW130290   3.113   2.146   8.455  2.2085  0.8046  2.4907
 6276SOL    HW230291   3.175   2.021   8.503  1.5742 -1.2336 -1.5718
 6277SOL     OW30292   1.025   2.208   5.437 -0.1787 -0.1327 -0.0546
 6277SOL    HW130293   1.018   2.147   5.510 -1.6481 -0.7202 -0.6799
 6277SOL    HW230294   0.949   2.179   5.387  0.1123 -2.4202  0.8487
 6278SOL     OW30295   3.471   3.404   6.844 -0.1281  0.0730 -0.0096
 6278SOL    HW130296   3.493   3.477   6.901 -1.6503 -1.0166  1.9964
 6278SOL    HW230297   3.525   3.333   6.877 -2.3028 -2.3930 -1.6599
 6279SOL     OW30298   2.622   0.464   9.507 -0.1546 -0.1346  0.3222
 6279SOL    HW130299   2.648   0.380   9.469  2.4684  0.6837  0.3499
 6279SOL    HW230300   2.569   0.435   9.581 -1.1701 -1.0759 -0.7806
 6280SOL     OW30301   1.229   3.928  11.126  0.0841 -0.4155 -0.0791
 6280SOL    HW130302   1.253   4.000  11.183 -0.8541  0.7199 -1.1255
 6280SOL    HW230303   1.206   3.968  11.042  2.7822 -0.3889 -0.8058
 6281SOL     OW30304   3.621   1.056   8.269 -0.7003  0.0859 -0.5483
 6281SOL    HW130305   3.695   1.083   8.215 -0.4882  0.4574 -0.0772
 6281SOL    HW230306   3.629   1.120   8.340  0.5926 -0.4470 -0.2007
 6282SOL     OW30307   1.996   3.868   5.382  0.4293  0.4731 -0.0528
 6282SOL    HW130308   2.027   3.897   5.468 -0.0311  0.6244  0.0621
 6282SOL    HW230309   1.921   3.927   5.378 -0.6897 -0.8198  2.1096
 6283SOL     OW30310   1.543   3.610   6.656  0.1759 -0.2734 -0.0628
 6283SOL    HW130311   1.548   3.541   6.722 -2.2366 -1.5044 -1.1407
 6283SOL    HW230312   1.595   3.572   6.585 -1.0255  0.4329 -1.3500
 6284SOL     OW30313   1.390   2.913   8.269  1.2597 -0.0136  0.5377
 6284SOL    HW130314   1.306   2.943   8.305  2.2326  1.5021  1.5969
 6284SOL    HW230315   1.378   2.921   8.175 -0.3421 -1.3733  0.6382
 6285SOL     OW30316   4.402   4.542   6.001 -0.2747 -0.3112  0.2326
 6285SOL    HW130317   4.444   4.617   5.960 -2.9052  2.7730  3.2399
 6285SOL    HW230318   4.477   4.483   6.009  0.1656  0.1894 -0.2027
 6286SOL     OW30319   2.647   4.598   5.842 -0.2959 -0.1826  0.0675
 6286SOL    HW130320   2.673   4.642   5.923 -0.8067  0.0863  0.0917
 6286SOL    HW230321   2.569   4.652   5.828 -1.0635 -1.5244 -0.7680
 6287SOL     OW30322   3.865   1.409  11.596 -0.0959  0.5282 -0.7275
 6287SOL    HW130323   3.837   1.321  11.622  0.1415  0.6609 -0.0150
 6287SOL    HW230324   3.841   1.400  11.504  3.0974 -0.2490 -1.4697
 6288SOL     OW30325   0.652   4.618   9.023 -0.2982  0.1306  0.0105
 6288SOL    HW130326   0.682   4.568   9.099 -0.5746  1.1671  0.8103
 6288SOL    HW230327   0.611   4.546   8.976 -0.0337 -0.6128  0.9172
 6289SOL     OW30328   1.019   0.356   3.562 -0.2541 -0.0794  0.2696
 6289SOL    HW130329   1.029   0.341   3.656  0.2954  0.5743  0.3199
 6289SOL    HW230330   1.041   0.270   3.526 -2.3704 -1.8567  3.2961
 6290SOL     OW30331   2.513   4.254   7.439 -0.2197 -0.0365  0.2079
 6290SOL    HW130332   2.430   4.302   7.439 -1.3863 -2.0449 -1.2859
 6290SOL    HW230333   2.528   4.255   7.533  1.9556 -3.2631 -0.1052
 6291SOL     OW30334   2.386   3.874  13.849 -0.1399 -0.2583  0.0402
 6291SOL    HW130335   2.478   3.866  13.873  0.5407  2.3639 -1.6420
 6291SOL    HW230336   2.395   3.918  13.764 -0.4839 -0.5507 -0.1490
 6292SOL     OW30337   1.225   3.649   6.961  0.3261 -0.0000 -0.3268
 6292SOL    HW130338   1.233   3.703   7.040  3.0670  2.0342 -1.9787
 6292SOL    HW230339   1.131   3.635   6.970 -0.1840  1.8256 -2.7177
 6293SOL     OW30340   3.066   0.387   9.802 -0.5356  0.7260 -0.0159
 6293SOL    HW130341   3.114   0.304   9.800 -0.7262  0.6244 -0.2499
 6293SOL    HW230342   3.014   0.363   9.879 -0.3460 -0.3123 -0.2151
 6294SOL     OW30343   4.334   2.340   4.289  0.5626  0.2601  0.1270
 6294SOL    HW130344   4.400   2.321   4.356  1.8966  1.3413 -0.8849
 6294SOL    HW230345   4.369   2.286   4.219  2.8993  2.0831 -0.1057
 6295SOL     OW30346   0.904   4.124   1.633 -0.1887 -0.0746 -0.0418
 6295SOL    HW130347   0.861   4.043   1.660  1.9118 -0.3500  2.4558
 6295SOL    HW230348   0.916   4.109   1.539  0.9405 -0.6255  0.1949
 6296SOL     OW30349   1.184   4.602   1.307 -0.1072  0.4096 -0.2574
 6296SOL    HW130350   1.228   4.643   1.233  0.4622 -1.5491 -0.9886
 6296SOL    HW230351   1.095   4.601   1.273 -0.4007 -2.4567  0.5512
 6297SOL     OW30352   2.947   0.653   2.331 -0.3454  0.6739  0.3405
 6297SOL    HW130353   2.905   0.739   2.325  0.1854  0.8548 -0.7709
 6297SOL    HW230354   3.022   0.666   2.273  1.0186 -0.7866  1.7861
 6298SOL     OW30355   0.656   1.928  11.137 -0.0772 -0.8532  0.0668
 6298SOL    HW130356   0.732   1.873  11.117  0.2409  0.0018 -1.0947
 6298SOL    HW230357   0.617   1.927  11.049 -1.9628 -0.1904  0.8993
 6299SOL     OW30358   2.014   4.693   8.638  0.6116  0.1756 -0.5676
 6299SOL    HW130359   1.993   4.669   8.548 -2.5160  1.7941 -0.2767
 6299SOL    HW230360   1.927   4.689   8.677  1.0019  2.1835  0.4993
 6300SOL     OW30361   3.389   3.943   6.090 -0.0175 -0.0216  0.4059
 6300SOL    HW130362   3.481   3.961   6.068 -0.6067  1.4731 -0.8740
 6300SOL    HW230363   3.378   3.857   6.050 -2.9136 -0.1193  1.4267
 6301SOL     OW30364   3.575   2.514   9.543  0.1625 -0.1969  0.2040
 6301SOL    HW130365   3.603   2.601   9.570  1.2289 -0.9189  1.4056
 6301SOL    HW230366   3.501   2.529   9.484  2.0125  2.3929 -1.4635
 6302SOL     OW30367   2.228   2.891   2.416  0.1240  0.4579 -0.0999
 6302SOL    HW130368   2.321   2.907   2.431 -0.4508  3.4866  0.1084
 6302SOL    HW230369   2.220   2.803   2.453 -1.0431  0.8167  0.4752
 6303SOL     OW30370   1.479   2.812   3.246 -0.4589 -0.4892 -0.0025
 6303SOL    HW130371   1.419   2.878   3.281 -1.5411  0.1438 -3.0996
 6303SOL    HW230372   1.457   2.806   3.153  3.4212 -1.4983 -0.8612
 6304SOL     OW30373   2.048   1.491   7.444 -0.0950  0.0513 -0.0376
 6304SOL    HW130374   2.072   1.572   7.398 -1.2986  0.2774 -0.2505
 6304SOL    HW230375   1.953   1.501   7.439 -0.0278  0.7437 -0.0490
 6305SOL     OW30376   0.204   2.422  11.425 -0.5213 -0.2037  0.0093
 6305SOL    HW130377   0.142   2.429  11.497 -0.0762  2.3616  0.1678
 6305SOL    HW230378   0.180   2.498  11.371  0.1808 -0.7429 -1.0681
 6306SOL     OW30379   1.467   2.339   9.053  0.6400  0.1862 -0.1573
 6306SOL    HW130380   1.386   2.378   9.086  1.3101  0.2715  1.3716
 6306SOL    HW230381   1.491   2.281   9.125  1.9407 -1.3269 -1.8130
 6307SOL     OW30382   1.077   0.723  13.434  0.5625  0.2750 -0.1536
 6307SOL    HW130383   1.120   0.638  13.426  2.3581  1.4647 -3.0884
 6307SOL    HW230384   1.067   0.744  13.527 -1.1371 -0.1751 -0.2348
 6308SOL     OW30385   4.408   1.072   8.831  0.1365  0.1653 -0.2633
 6308SOL    HW130386   4.455   1.006   8.779  0.1816  0.2591 -0.3422
 6308SOL    HW230387   4.335   1.017   8.859 -0.9337  0.6359 -2.1117
 6309SOL     OW30388   0.408   2.399   8.496  0.1583  0.3991  0.0391
 6309SOL    HW130389   0.422   2.350   8.576 -1.9446  2.0169  1.4238
 6309SOL    HW230390   0.363   2.332   8.446  2.4827 -0.3792 -0.9655
 6310SOL     OW30391   0.769   2.242   8.826 -0.1817 -0.0491  0.0822
 6310SOL    HW130392   0.739   2.174   8.885  0.2288  0.2070  0.5810
 6310SOL    HW230393   0.809   2.177   8.768  1.6525 -0.1740  1.5140
 6311SOL     OW30394   3.739   2.882   8.417 -0.2859  0.2882  0.5380
 6311SOL    HW130395   3.720   2.889   8.510 -0.3087  0.3072  0.5317
 6311SOL    HW230396   3.683   2.946   8.374 -0.0813 -0.2504 -0.5428
 6312SOL     OW30397   1.908   2.643  16.626 -0.2074 -0.6290  0.3454
 6312SOL    HW130398   1.849   2.717  16.608 -2.3952 -2.0989  1.4370
 6312SOL    HW230399   1.981   2.662  16.567 -1.1772 -0.2680 -0.7485
 6313SOL     OW30400   2.360   2.291   0.865  0.4000 -0.6820  0.9632
 6313SOL    HW130401   2.420   2.253   0.800 -0.1010  0.6604 -0.2874
 6313SOL    HW230402   2.354   2.378   0.826 -0.7616 -1.2701 -0.1658
 6314SOL     OW30403   4.633   4.461  11.797  0.0024 -0.0194 -0.0967
 6314SOL    HW130404   4.683   4.542  11.803 -0.1366  0.0222  0.5163
 6314SOL    HW230405   4.612   4.469  11.704  0.2829  2.9383  0.1250
 6315SOL     OW30406   3.416   2.900   3.681  0.2889 -0.0524 -0.2914
 6315SOL    HW130407   3.466   2.921   3.601  1.9954 -0.7478  0.5769
 6315SOL    HW230408   3.323   2.898   3.662  0.5802 -0.4079 -1.6738
 6316SOL     OW30409   1.595   1.959   2.375  0.2328 -0.0302 -0.1705
 6316SOL    HW130410   1.520   1.921   2.419  1.5190 -3.1243 -0.6552
 6316SOL    HW230411   1.616   1.885   2.318 -1.1218 -0.3070 -0.3050
 6317SOL     OW30412   0.557   3.502   6.377  0.2299  0.3272 -0.4158
 6317SOL    HW130413   0.570   3.408   6.392  1.2695  0.8050  1.7026
 6317SOL    HW230414   0.522   3.529   6.462  1.3424 -0.0361  0.1509
 6318SOL     OW30415   3.650   0.315   8.007  0.4047 -0.2036 -0.1126
 6318SOL    HW130416   3.582   0.289   8.070 -1.1108 -0.6982 -1.9504
 6318SOL    HW230417   3.644   0.411   8.002  2.0893 -0.0639  0.8139
 6319SOL     OW30418   0.076   4.273   1.990  0.4471  0.5372 -0.4914
 6319SOL    HW130419   0.033   4.343   2.038 -0.0017  0.1190 -0.2829
 6319SOL    HW230420   0.013   4.283   1.919  2.0281 -0.6977 -2.0799
 6320SOL     OW30421   2.246   4.204   3.293 -0.4669 -0.2034  0.5278
 6320SOL    HW130422   2.248   4.262   3.217  0.3418 -0.0167  0.6960
 6320SOL    HW230423   2.169   4.156   3.261 -0.4859  0.6862 -0.7761
 6321SOL     OW30424   0.751   0.844   3.572  0.1179  0.1672  0.7747
 6321SOL    HW130425   0.746   0.844   3.668 -0.1914 -2.2988  0.7598
 6321SOL    HW230426   0.759   0.749   3.562  0.2050  0.2055  0.4858
 6322SOL     OW30427   1.828   2.190   3.294 -0.2592  0.1889  0.0597
 6322SOL    HW130428   1.881   2.177   3.372  0.6761 -2.4235 -0.9968
 6322SOL    HW230429   1.740   2.165   3.322 -0.2517  0.1919  0.0853
 6323SOL     OW30430   2.798   2.032   9.682  0.1236  0.4699  0.0706
 6323SOL    HW130431   2.804   2.048   9.588  0.0662 -1.8534 -0.3202
 6323SOL    HW230432   2.760   1.945   9.670  1.5885 -0.2220  0.3648
 6324SOL     OW30433   4.450   4.700   5.231  0.2304  0.2853  0.0102
 6324SOL    HW130434   4.543   4.678   5.223 -0.3356 -2.2995  0.4940
 6324SOL    HW230435   4.433   0.013   5.145 -1.5024  2.2577  1.1783
 6325SOL     OW30436   3.902   4.697   4.892 -0.4572  0.1085  0.3189
 6325SOL    HW130437   3.845   0.016   4.830 -0.3936 -0.4889 -0.1565
 6325SOL    HW230438   3.889   0.039   4.960 -0.3569  0.2347  0.2145
 6326SOL     OW30439   1.640   2.003   6.896  0.1069  0.3539 -0.2540
 6326SOL    HW130440   1.630   2.095   6.922  1.1578  0.6310 -0.8388
 6326SOL    HW230441   1.559   1.960   6.923  0.7014 -1.8160 -1.9725
 6327SOL     OW30442   2.784   2.593   2.740 -0.4144 -0.3112  0.2124
 6327SOL    HW130443   2.795   2.688   2.732 -0.2829 -0.1864  1.8754
 6327SOL    HW230444   2.699   2.600   2.784 -1.7337 -1.2419 -2.1434
 6328SOL     OW30445   1.030   4.250  15.062  0.6048 -0.1039  0.1465
 6328SOL    HW130446   0.941   4.233  15.093 -0.4675 -0.8696 -3.3059
 6328SOL    HW230447   1.071   4.316  15.119 -0.3227  1.1008 -0.5792
 6329SOL     OW30448   4.303   1.145  15.458  0.0912  0.8528  0.9113
 6329SOL    HW130449   4.347   1.062  15.478 -2.4214 -0.9185 -1.0103
 6329SOL    HW230450   4.343   1.175  15.376  2.5212  1.4081  2.3004
 6330SOL     OW30451   1.888   0.618   8.048  0.1373  0.1639  0.2524
 6330SOL    HW130452   1.935   0.588   7.970  0.9558 -1.4924  1.3780
 6330SOL    HW230453   1.836   0.538   8.056  0.4044  0.2000  2.2925
 6331SOL     OW30454   2.725   1.207   5.029  0.4377 -0.0031  0.2825
 6331SOL    HW130455   2.675   1.166   4.958  0.7659  0.2082 -0.0721
 6331SOL    HW230456   2.666   1.277   5.057 -0.2054 -0.0759 -0.9049
 6332SOL     OW30457   4.174   2.263  14.709  0.4181 -0.4999  0.6587
 6332SOL    HW130458   4.179   2.271  14.805 -1.6471 -0.9237  0.8170
 6332SOL    HW230459   4.136   2.175  14.707 -0.6113 -0.1184  3.1218
 6333SOL     OW30460   1.812   0.431   4.608 -0.0057 -0.1632  0.4768
 6333SOL    HW130461   1.822   0.506   4.666  0.8117  1.2833 -1.5326
 6333SOL    HW230462   1.716   0.425   4.603 -0.2058  1.4015  2.4418
 6334SOL     OW30463   3.119   1.888   5.311  0.4102 -0.1250  0.7454
 6334SOL    HW130464   3.076   1.873   5.396 -3.0577 -2.7787 -1.4837
 6334SOL    HW230465   3.053   1.861   5.248  0.3989  2.7633 -0.4889
 6335SOL     OW30466   1.777   0.724   4.254 -0.0406 -0.2413 -0.0703
 6335SOL    HW130467   1.807   0.662   4.320  3.1957 -0.4205 -1.7328
 6335SOL    HW230468   1.736   0.661   4.193 -2.1822  2.3298 -1.3087
 6336SOL     OW30469   3.022   4.071  12.792  0.2548 -0.2880 -0.2780
 6336SOL    HW130470   2.928   4.063  12.776  0.1157  2.2562 -0.7286
 6336SOL    HW230471   3.054   4.090  12.704  1.5823 -0.1860  0.2261
 6337SOL     OW30472   0.384   1.672   3.526  0.1395 -0.3162  0.6850
 6337SOL    HW130473   0.465   1.655   3.478 -0.9797  0.1457 -1.3830
 6337SOL    HW230474   0.416   1.723   3.601 -2.4084  0.7445  1.0416
 6338SOL     OW30475   4.715   2.373   9.734 -0.0198  0.1521  0.1446
 6338SOL    HW130476   0.001   2.466   9.755 -2.1129  0.5239 -0.4325
 6338SOL    HW230477   4.635   2.352   9.783 -0.4813  3.7647  0.9754
 6339SOL     OW30478   4.433   0.892  12.197  0.4284  0.3054  0.2179
 6339SOL    HW130479   4.400   0.823  12.139 -1.0236  1.1156  0.0790
 6339SOL    HW230480   4.359   0.921  12.251  0.3792  0.3119  0.1466
 6340SOL     OW30481   2.580   1.690   8.496 -0.0887  0.5554 -0.6010
 6340SOL    HW130482   2.668   1.695   8.461  0.9273  0.6030  1.9558
 6340SOL    HW230483   2.590   1.659   8.586  0.6632  0.8504 -0.5867
 6341SOL     OW30484   2.194   1.670   7.672 -0.3285  0.0958 -0.2862
 6341SOL    HW130485   2.143   1.745   7.642  0.4027  0.3399 -0.9163
 6341SOL    HW230486   2.255   1.664   7.599  1.3363  0.2848  1.0987
 6342SOL     OW30487   4.675   1.030   8.619 -0.0184 -0.1237  0.5761
 6342SOL    HW130488   4.589   0.988   8.617 -0.1301  0.1809 -0.9592
 6342SOL    HW230489   4.704   1.007   8.531  0.3044 -1.8448  1.1372
 6343SOL     OW30490   1.396   4.499   5.818  0.4793 -0.4829 -0.2791
 6343SOL    HW130491   1.309   4.473   5.849  1.2567 -0.1777  2.1536
 6343SOL    HW230492   1.437   4.427   5.771 -0.7621 -1.6966  0.5177
 6344SOL     OW30493   3.003   1.712   1.750 -0.5027 -0.2755  0.0540
 6344SOL    HW130494   3.075   1.688   1.808 -1.2913 -1.6134  0.4682
 6344SOL    HW230495   3.036   1.744   1.665 -2.9431 -0.1017 -0.8189
 6345SOL     OW30496   1.813   2.331   8.015 -0.1399 -0.3185 -0.2791
 6345SOL    HW130497   1.761   2.388   8.072 -0.1097 -0.3344 -0.2353
 6345SOL    HW230498   1.812   2.381   7.934 -0.7018  1.5941  0.9140
 6346SOL     OW30499   0.439   1.985   3.248 -0.1076 -0.3404 -0.2303
 6346SOL    HW130500   0.500   1.911   3.243  1.1765  0.6968  0.3718
 6346SOL    HW230501   0.460   2.024   3.332  0.7361 -0.2365 -0.4973
 6347SOL     OW30502   4.318   2.083  10.742 -0.0940  0.4751 -0.5765
 6347SOL    HW130503   4.281   2.081  10.831 -1.3703  0.4363 -1.1011
 6347SOL    HW230504   4.320   1.991  10.717  0.8826  0.9427 -2.2109
 6348SOL     OW30505   3.879   0.644  15.951  0.4210 -0.0111  0.2226
 6348SOL    HW130506   3.957   0.620  16.002  0.2915 -0.4429  0.2168
 6348SOL    HW230507   3.809   0.588  15.983  1.8259 -2.8574 -1.6333
 6349SOL     OW30508   0.669   3.566   2.856  0.2185 -0.1933 -0.3479
 6349SOL    HW130509   0.659   3.659   2.836 -2.1305  0.2971  3.2108
 6349SOL    HW230510   0.701   3.540   2.769  0.2629 -0.8611 -0.1314
 6350SOL     OW30511   1.141   3.902   4.120 -0.4576 -0.6695 -0.2794
 6350SOL    HW130512   1.200   3.977   4.113  0.2816 -1.0001  2.3022
 6350SOL    HW230513   1.194   3.845   4.176  0.3562 -1.1067 -1.4809
 6351SOL     OW30514   4.290   1.352   4.166  0.3145  0.2220  0.0002
 6351SOL    HW130515   4.289   1.283   4.232  1.7290  0.3712  0.1791
 6351SOL    HW230516   4.214   1.323   4.115 -0.5404  1.7219  0.4034
 6352SOL     OW30517   1.304   2.633   2.433  0.1075  0.0361  0.3549
 6352SOL    HW130518   1.258   2.549   2.425 -0.6887  0.4691  0.4231
 6352SOL    HW230519   1.299   2.663   2.343 -0.9971  0.0229  0.4056
 6353SOL     OW30520   2.666   1.609   0.512 -0.1289  0.4170 -0.1878
 6353SOL    HW130521   2.648   1.541   0.577  0.5188 -1.6958 -2.2356
 6353SOL    HW230522   2.579   1.619   0.473 -1.4281 -4.2473  1.4390
 6354SOL     OW30523   2.271   0.355   5.036 -0.3209  0.5245  0.2292
 6354SOL    HW130524   2.243   0.263   5.033 -0.4861  0.5894 -0.1995
 6354SOL    HW230525   2.194   0.410   5.051 -1.9978 -1.6703 -0.2674
 6355SOL     OW30526   3.709   2.692   0.397 -0.2131 -0.1110  0.2460
 6355SOL    HW130527   3.790   2.670   0.444  0.0463 -0.1501 -0.2258
 6355SOL    HW230528   3.693   2.780   0.432 -0.6903 -0.2996  0.5113
 6356SOL     OW30529   3.719   2.108  13.008 -0.0736 -0.4756  0.6795
 6356SOL    HW130530   3.695   2.017  13.026 -2.4702  0.0260  0.0491
 6356SOL    HW230531   3.732   2.100  12.914  3.4209  0.9198  1.0649
 6357SOL     OW30532   1.013   1.344  11.605  0.5043  0.0425 -0.0546
 6357SOL    HW130533   1.023   1.251  11.625  1.7344  0.2570  0.3258
 6357SOL    HW230534   1.078   1.347  11.535  1.6461 -1.1842  0.9558
 6358SOL     OW30535   0.796   2.187   8.328  0.1874  0.4761 -0.1202
 6358SOL    HW130536   0.794   2.230   8.243 -0.1214  2.9534  1.1236
 6358SOL    HW230537   0.768   2.261   8.382  2.7984  1.3076  0.0664
 6359SOL     OW30538   0.508   0.016   6.592  0.0819 -0.4924  0.0424
 6359SOL    HW130539   0.509   4.675   6.662 -0.0516  0.2425  0.7218
 6359SOL    HW230540   0.470   0.095   6.631 -0.7678 -0.2456 -1.2993
 6360SOL     OW30541   2.362   2.598   0.286  0.2661 -0.6568  0.1262
 6360SOL    HW130542   2.366   2.675   0.343  0.4851  0.9697 -2.0657
 6360SOL    HW230543   2.269   2.584   0.302 -0.3962  2.9491 -0.4963
 6361SOL     OW30544   0.196   4.214  10.738 -0.4167 -0.4128  0.1521
 6361SOL    HW130545   0.139   4.237  10.665  0.2910 -1.1052 -0.6192
 6361SOL    HW230546   0.245   4.297  10.741 -0.0748 -0.6007 -0.1983
 6362SOL     OW30547   1.519   0.771   8.464 -0.0883  0.3693 -0.1334
 6362SOL    HW130548   1.606   0.805   8.489 -0.4509  0.9843  0.3020
 6362SOL    HW230549   1.494   0.759   8.556  1.2087  0.9553  0.3006
 6363SOL     OW30550   2.835   0.221   3.876 -0.2686 -0.4845  0.2705
 6363SOL    HW130551   2.759   0.177   3.913 -1.0426  0.6931  0.0724
 6363SOL    HW230552   2.892   0.144   3.869  0.3079 -0.0144 -0.2269
 6364SOL     OW30553   0.717   1.069   4.280 -0.1275 -0.3082 -0.0482
 6364SOL    HW130554   0.702   1.144   4.338  1.1842  1.7743 -2.4209
 6364SOL    HW230555   0.760   1.006   4.339  0.9332  1.3161  0.9063
 6365SOL     OW30556   2.531   1.500   6.359  0.5219  0.6074  0.1479
 6365SOL    HW130557   2.588   1.439   6.405 -1.4688 -2.0275 -0.8567
 6365SOL    HW230558   2.462   1.484   6.424  0.8546  3.4823  1.1819
 6366SOL     OW30559   0.234   2.704   9.022 -0.0035  0.1768 -0.1405
 6366SOL    HW130560   0.185   2.786   9.022 -0.1434  0.0906 -0.6814
 6366SOL    HW230561   0.223   2.667   8.935  0.0173 -1.0881  0.3882
 6367SOL     OW30562   4.271   3.788   7.213 -0.0107 -0.7732 -0.4444
 6367SOL    HW130563   4.290   3.750   7.299  0.7904  1.2402  0.2682
 6367SOL    HW230564   4.184   3.751   7.202 -0.8606  1.1121  0.0551
 6368SOL     OW30565   1.309   2.865  15.565  0.2230  0.5979 -0.2645
 6368SOL    HW130566   1.292   2.807  15.639 -1.5609  0.2179 -0.9798
 6368SOL    HW230567   1.402   2.846  15.555 -0.2844 -0.3715 -3.3133
 6369SOL     OW30568   0.108   2.585   4.602  0.0923  0.2520 -0.1296
 6369SOL    HW130569   0.170   2.602   4.530 -0.1879 -0.4479 -0.5344
 6369SOL    HW230570   0.140   2.508   4.648  0.6254 -0.3380 -1.4980
 6370SOL     OW30571   1.525   3.352  14.871 -0.2715 -0.0828 -0.5652
 6370SOL    HW130572   1.523   3.311  14.784 -0.2510 -0.2078 -0.5065
 6370SOL    HW230573   1.596   3.308  14.918 -1.3101 -2.4383 -1.2111
 6371SOL     OW30574   1.994   4.260   4.794  0.0019  0.2973  0.1638
 6371SOL    HW130575   2.050   4.193   4.755 -2.1336 -0.5870 -1.3327
 6371SOL    HW230576   1.937   4.283   4.721  1.5706  0.8393 -0.9158
 6372SOL     OW30577   3.881   1.516  15.534  0.0790 -0.6385 -0.2830
 6372SOL    HW130578   3.796   1.559  15.523  0.0453 -0.4837  0.6657
 6372SOL    HW230579   3.917   1.568  15.605 -1.6491  1.5800 -1.0413
 6373SOL     OW30580   2.591   1.006   5.465  0.0803  0.0682 -0.3288
 6373SOL    HW130581   2.589   1.087   5.413 -0.4696 -0.7883 -1.6587
 6373SOL    HW230582   2.516   0.965   5.423 -0.7544  1.2057  0.0481
 6374SOL     OW30583   3.571   1.732  13.391  0.2112  0.2463 -0.0224
 6374SOL    HW130584   3.483   1.738  13.354  0.5921 -0.1315 -0.9730
 6374SOL    HW230585   3.569   1.655  13.448  2.7295 -2.0694 -3.0173
 6375SOL     OW30586   1.591   1.504   4.130 -0.0151 -0.0048 -0.1385
 6375SOL    HW130587   1.525   1.444   4.165 -1.8563  1.1986 -1.5292
 6375SOL    HW230588   1.648   1.439   4.089 -0.9421 -0.5792 -0.5179
 6376SOL     OW30589   2.334   1.121  14.811 -0.0252  0.1342 -0.3609
 6376SOL    HW130590   2.292   1.157  14.889 -1.7446  0.7253 -1.5853
 6376SOL    HW230591   2.371   1.038  14.842 -1.9407  0.7679  3.5804
 6377SOL     OW30592   0.799   1.058  12.322  0.1743  0.4551 -0.3705
 6377SOL    HW130593   0.869   1.122  12.306  1.0060 -0.6375 -1.0761
 6377SOL    HW230594   0.724   1.108  12.355  0.4290  0.8549 -0.3960
 6378SOL     OW30595   1.304   3.026   3.328 -0.6173 -0.0146  0.0755
 6378SOL    HW130596   1.242   3.087   3.368  0.5298  1.1732  0.0722
 6378SOL    HW230597   1.364   3.091   3.291 -1.1840  1.3209  1.5191
 6379SOL     OW30598   3.061   2.158   2.061  0.4911  0.3329  0.5049
 6379SOL    HW130599   2.991   2.223   2.061  2.4236  2.4064 -1.0368
 6379SOL    HW230600   3.039   2.091   1.996  0.6157 -0.8069  1.6315
 6380SOL     OW30601   2.126   0.602  10.171  0.0699  0.2001 -0.2700
 6380SOL    HW130602   2.155   0.525  10.123 -3.4240 -0.8773 -0.6832
 6380SOL    HW230603   2.172   0.667  10.119  0.1794 -0.1102 -0.5584
 6381SOL     OW30604   2.315   3.056   8.281  0.6293  0.1460  0.4038
 6381SOL    HW130605   2.374   3.131   8.275  1.2050 -0.1895  1.7857
 6381SOL    HW230606   2.376   2.987   8.251  0.5445 -0.9610  2.7872
 6382SOL     OW30607   0.235   2.073   4.654  0.1859  0.3183 -0.2568
 6382SOL    HW130608   0.331   2.066   4.651  0.1786  0.1378 -0.0378
 6382SOL    HW230609   0.217   2.089   4.746  0.4862  0.1488 -0.1687
 6383SOL     OW30610   2.541   3.704   4.749 -0.2858 -0.3199  0.4329
 6383SOL    HW130611   2.468   3.749   4.707 -0.0158 -0.6192 -0.3573
 6383SOL    HW230612   2.509   3.613   4.753 -0.1458 -0.3787  0.1939
 6384SOL     OW30613   3.549   3.059   1.120 -0.2924 -0.1481  0.2925
 6384SOL    HW130614   3.505   2.988   1.167  1.2076 -0.8192  0.6789
 6384SOL    HW230615   3.593   2.999   1.060 -2.7034  0.9725 -2.6056
 6385SOL     OW30616   4.192   1.442   0.036 -0.1870 -0.1025 -0.6855
 6385SOL    HW130617   4.097   1.448   0.049 -0.1811 -1.7603  0.1267
 6385SOL    HW230618   4.192   1.382  17.659  0.6003  1.8446 -2.2279
 6386SOL     OW30619   1.521   2.000  12.615  0.4066 -0.2399  0.9574
 6386SOL    HW130620   1.443   1.945  12.621 -1.0817  1.7641  0.0068
 6386SOL    HW230621   1.559   1.958  12.537 -1.3295  1.6526 -0.9303
 6387SOL     OW30622   2.653   4.283  14.028  0.1217 -0.2047 -0.2527
 6387SOL    HW130623   2.613   4.356  13.981  0.2252 -0.9121 -1.4390
 6387SOL    HW230624   2.575   4.230  14.041 -0.0581 -0.0522 -0.7212
 6388SOL     OW30625   4.448   2.016   7.998 -0.2997  0.0746 -0.4446
 6388SOL    HW130626   4.525   2.027   7.942  0.0142  0.8492  0.1403
 6388SOL    HW230627   4.381   2.018   7.930  1.3383 -2.3679 -2.1684
 6389SOL     OW30628   0.591   3.810   1.022 -0.1542  0.2121  0.3846
 6389SOL    HW130629   0.510   3.848   0.988  0.9184  0.7951 -1.5150
 6389SOL    HW230630   0.640   3.790   0.942 -1.2968  0.8404 -0.4877
 6390SOL     OW30631   1.573   2.169   0.512  0.5124 -0.0799 -0.0074
 6390SOL    HW130632   1.660   2.134   0.493  0.1673 -1.9940  1.9646
 6390SOL    HW230633   1.545   2.211   0.431  0.9050 -1.2533 -0.7443
 6391SOL     OW30634   0.799   0.254   0.736 -0.0678  0.1218  0.1750
 6391SOL    HW130635   0.836   0.282   0.820  2.8774  0.0100 -1.0879
 6391SOL    HW230636   0.804   0.158   0.741  4.1536  0.2952 -0.2191
 6392SOL     OW30637   3.445   0.841   2.315  0.2704  0.5262 -1.1209
 6392SOL    HW130638   3.434   0.930   2.350  0.2913 -0.3171  1.0265
 6392SOL    HW230639   3.472   0.864   2.226  0.1034  2.8235 -0.5968
 6393SOL     OW30640   2.050   3.731  15.422  0.2510 -0.0555 -0.0735
 6393SOL    HW130641   2.055   3.809  15.367 -0.3983  0.2983  0.3780
 6393SOL    HW230642   2.078   3.663  15.360  1.5228 -1.0349  1.5730
 6394SOL     OW30643   4.451   0.887   8.626 -0.0040 -0.4470  0.8749
 6394SOL    HW130644   4.488   0.801   8.609  0.7084  0.1100 -0.4461
 6394SOL    HW230645   4.356   0.877   8.631 -0.4770  3.4957  0.0200
 6395SOL     OW30646   3.030   1.643  14.180  0.5215 -0.0382  0.2507
 6395SOL    HW130647   2.961   1.601  14.129  0.7571  0.0895 -0.1719
 6395SOL    HW230648   3.013   1.737  14.173  0.3925 -0.0272  0.6914
 6396SOL     OW30649   0.377   2.419   6.087  0.3016  0.7464 -0.2983
 6396SOL    HW130650   0.287   2.448   6.069  0.6675  2.1814  0.2137
 6396SOL    HW230651   0.426   2.498   6.066 -1.3749  1.2100 -2.4658
 6397SOL     OW30652   3.530   2.098  14.426 -0.3054 -0.1151  0.4417
 6397SOL    HW130653   3.444   2.057  14.413 -0.0305  0.0931 -2.0166
 6397SOL    HW230654   3.537   2.092  14.521  0.7167  2.4695  0.5387
 6398SOL     OW30655   2.722   2.240   2.708 -1.0485 -0.0426 -0.7560
 6398SOL    HW130656   2.747   2.218   2.619  0.6408  0.8171 -0.4879
 6398SOL    HW230657   2.759   2.167   2.758  0.2502  0.8024 -0.4800
 6399SOL     OW30658   3.503   0.932   5.249 -0.3970  0.8350  0.4145
 6399SOL    HW130659   3.527   0.875   5.322  0.1087  0.1301 -0.3016
 6399SOL    HW230660   3.441   0.870   5.211  0.0881  0.0968  0.8192
 6400SOL     OW30661   1.341   1.777  10.943  0.3115 -0.1083  0.4934
 6400SOL    HW130662   1.402   1.710  10.911  0.0884 -0.8296  1.6037
 6400SOL    HW230663   1.362   1.846  10.880 -3.4388 -0.6131 -1.3374
 6401SOL     OW30664   0.116   1.005   6.313 -0.4177  0.1472 -0.3813
 6401SOL    HW130665   0.059   1.010   6.390 -0.2666 -2.8571 -0.1049
 6401SOL    HW230666   0.076   0.934   6.263  2.0307 -3.0081  2.1688
 6402SOL     OW30667   3.475   3.567   5.360  0.1723 -0.1007  0.4388
 6402SOL    HW130668   3.559   3.601   5.329 -0.7689  0.2559 -1.7101
 6402SOL    HW230669   3.409   3.624   5.322  0.8695  0.8145  0.6024
 6403SOL     OW30670   1.462   1.466   4.826  0.0279  0.5885  0.0867
 6403SOL    HW130671   1.393   1.532   4.822 -1.3913 -0.8374  1.2719
 6403SOL    HW230672   1.531   1.515   4.781 -0.7865 -0.7636 -2.7020
 6404SOL     OW30673   4.641   0.184   7.210  0.4626 -0.1085  0.4365
 6404SOL    HW130674   4.675   0.262   7.165 -0.9980  1.0210  1.2790
 6404SOL    HW230675   4.563   0.167   7.157 -0.9131  0.4652  2.2697
 6405SOL     OW30676   3.582   0.654   7.616 -0.0623 -0.1873  0.1106
 6405SOL    HW130677   3.675   0.630   7.624 -0.3442 -1.4849 -0.4459
 6405SOL    HW230678   3.560   0.606   7.536 -3.7543  0.4090  0.7906
 6406SOL     OW30679   2.650   2.744   1.883 -0.2980  0.2768  1.0957
 6406SOL    HW130680   2.702   2.766   1.961  0.7556  0.6513  0.2955
 6406SOL    HW230681   2.562   2.768   1.912 -0.0909  0.4292  1.6095
 6407SOL     OW30682   3.534   2.188   5.000 -0.0311 -0.3988 -0.1556
 6407SOL    HW130683   3.572   2.101   4.990 -2.3407 -1.5307  0.8186
 6407SOL    HW230684   3.550   2.201   5.094 -0.9944 -1.7450  0.1964
 6408SOL     OW30685   2.396   1.206   7.066 -0.8989  0.1871  0.4432
 6408SOL    HW130686   2.315   1.157   7.083 -0.3288 -1.5343 -1.8067
 6408SOL    HW230687   2.407   1.235   7.157 -1.0822  2.4541 -0.2556
 6409SOL     OW30688   1.180   1.923  17.126 -0.2080 -0.5074 -0.1564
 6409SOL    HW130689   1.225   1.884  17.201 -0.8877 -3.4607 -1.2926
 6409SOL    HW230690   1.186   1.850  17.064  2.1015 -1.6986  1.4774
 6410SOL     OW30691   2.721   1.835   5.569  0.1859  0.4452  0.3603
 6410SOL    HW130692   2.659   1.763   5.556 -0.7127  1.4100 -0.7403
 6410SOL    HW230693   2.712   1.878   5.484  1.7893 -0.0646 -0.0811
 6411SOL     OW30694   1.066   4.108   5.905 -0.0648 -0.3491 -0.4721
 6411SOL    HW130695   0.994   4.067   5.953 -1.0440  2.9926  0.9094
 6411SOL    HW230696   1.060   4.195   5.945  1.4400 -0.2737 -0.4215
 6412SOL     OW30697   0.221   3.685   0.506  0.5495 -0.1259 -0.8966
 6412SOL    HW130698   0.304   3.670   0.461 -0.5692 -1.9865 -2.3379
 6412SOL    HW230699   0.243   3.766   0.553  0.3812 -1.1633  0.9613
 6413SOL     OW30700   1.671   3.390  15.464  0.0731 -0.2928  0.7544
 6413SOL    HW130701   1.649   3.482  15.474 -1.8089 -0.4391 -2.2464
 6413SOL    HW230702   1.612   3.351  15.528 -0.2408 -0.0185  0.6302
 6414SOL     OW30703   1.241   3.849   5.661  0.4878 -0.1182  0.3473
 6414SOL    HW130704   1.277   3.912   5.723 -1.1730  1.1301  0.0258
 6414SOL    HW230705   1.177   3.799   5.711  0.1066  0.6174  0.6017
 6415SOL     OW30706   3.052   2.273   0.955 -0.4826 -0.3292 -0.2189
 6415SOL    HW130707   3.115   2.200   0.962  0.3889  0.4947  0.5416
 6415SOL    HW230708   2.979   2.213   0.943 -0.9529  0.4156 -1.0100
 6416SOL     OW30709   3.384   4.413   8.294 -0.7575 -0.1866 -0.2651
 6416SOL    HW130710   3.391   4.357   8.371 -1.4657  0.9221  0.6140
 6416SOL    HW230711   3.288   4.419   8.289 -0.7830  1.1030  1.8749
 6417SOL     OW30712   0.412   1.975   2.547  0.7373 -0.0135  0.2822
 6417SOL    HW130713   0.450   2.045   2.495  0.3214  1.0531  1.4241
 6417SOL    HW230714   0.458   1.897   2.516  1.6636  0.8347 -0.4849
 6418SOL     OW30715   4.011   2.934   1.946 -0.3123  0.5840  0.6674
 6418SOL    HW130716   4.019   2.863   2.010  2.5863  0.4107  0.1078
 6418SOL    HW230717   3.942   2.976   1.998  0.6974  0.8082  1.8386
 6419SOL     OW30718   2.712   0.692  13.930  0.1058 -0.0373  0.1264
 6419SOL    HW130719   2.744   0.601  13.929  0.8460  0.2220 -0.8691
 6419SOL    HW230720   2.642   0.677  13.993  0.9914 -0.8141  0.9276
 6420SOL     OW30721   2.749   1.462  16.614  0.1522  0.4255  0.1170
 6420SOL    HW130722   2.693   1.489  16.542  0.7662 -0.6215 -0.7630
 6420SOL    HW230723   2.716   1.512  16.688 -1.6358 -0.3969 -0.1221
 6421SOL     OW30724   0.375   1.994   3.927  0.2367  0.4052 -0.0290
 6421SOL    HW130725   0.408   2.052   3.994 -0.2775  1.2748 -0.5289
 6421SOL    HW230726   0.303   1.948   3.971  1.0952 -1.1976 -0.3129
 6422SOL     OW30727   2.198   0.219   4.248  0.2686 -0.3384  0.4074
 6422SOL    HW130728   2.138   0.203   4.175  0.6889  0.4433 -0.1103
 6422SOL    HW230729   2.133   0.217   4.318  0.3709 -1.4456  0.4613
 6423SOL     OW30730   4.018   2.261   1.807  0.2542  0.1705 -0.1395
 6423SOL    HW130731   4.094   2.305   1.844 -0.1152 -0.3135  1.2025
 6423SOL    HW230732   3.986   2.332   1.752  1.7275 -0.3017 -1.6183
 6424SOL     OW30733   3.211   1.609  13.470 -0.0969 -0.0662  0.4242
 6424SOL    HW130734   3.270   1.657  13.412 -3.5234  0.4994 -2.5722
 6424SOL    HW230735   3.249   1.623  13.557  0.6047 -1.4003  0.3379
 6425SOL     OW30736   2.051   0.157   5.760  0.2059  0.3338  0.3285
 6425SOL    HW130737   1.989   0.146   5.688 -0.4617  1.7259  0.6977
 6425SOL    HW230738   1.993   0.139   5.833  0.0457  0.5119  0.2452
 6426SOL     OW30739   3.259   3.646  15.324  0.2499 -0.7171  0.0673
 6426SOL    HW130740   3.345   3.614  15.297 -0.3389 -2.1282 -0.1191
 6426SOL    HW230741   3.222   3.565  15.358  0.0968  0.2579  2.2501
 6427SOL     OW30742   2.900   4.400   9.693  0.7299 -0.7040  0.0602
 6427SOL    HW130743   2.916   4.461   9.621 -0.3646 -2.0389 -1.3080
 6427SOL    HW230744   2.896   4.318   9.645  1.7451  1.0593 -3.0380
 6428SOL     OW30745   1.322   3.532   1.005  0.5844 -0.9632 -0.3920
 6428SOL    HW130746   1.269   3.472   0.953  0.1283 -0.0255 -1.0179
 6428SOL    HW230747   1.259   3.552   1.074  1.8197  2.4537 -0.2611
 6429SOL     OW30748   4.562   1.759   8.012 -0.3380 -0.4010  0.8046
 6429SOL    HW130749   4.540   1.708   8.091 -1.7485 -0.1423  0.5872
 6429SOL    HW230750   4.534   1.844   8.044 -3.0025 -0.4600 -1.3372
 6430SOL     OW30751   2.211   2.025   2.244  0.0914  0.5141 -0.7195
 6430SOL    HW130752   2.252   1.954   2.293 -1.8113 -0.6478 -0.7841
 6430SOL    HW230753   2.285   2.083   2.258  1.3655 -1.7983  1.9379
 6431SOL     OW30754   1.432   1.403  14.621  0.0032  0.0731  0.3906
 6431SOL    HW130755   1.390   1.332  14.670  0.1737 -1.3476 -1.5336
 6431SOL    HW230756   1.446   1.465  14.693  1.6477 -1.0090  0.9981
 6432SOL     OW30757   3.241   2.563   4.859  0.1690  0.3215  0.3178
 6432SOL    HW130758   3.222   2.496   4.925  1.3065  0.4395  0.7601
 6432SOL    HW230759   3.285   2.503   4.799 -0.5093  0.5005 -0.3581
 6433SOL     OW30760   1.453   4.295   3.969 -0.7273  0.5146  0.4624
 6433SOL    HW130761   1.472   4.219   3.913  1.2815  1.6293 -0.3906
 6433SOL    HW230762   1.537   4.341   3.970 -0.7565  0.5623  0.6321
 6434SOL     OW30763   0.098   3.459  16.784 -0.4653  0.2147  0.2402
 6434SOL    HW130764   0.185   3.499  16.780 -1.1888  1.8220  0.7151
 6434SOL    HW230765   0.096   3.419  16.871 -0.5438 -0.9357 -0.2944
 6435SOL     OW30766   3.603   3.185  13.383  0.7502  0.4790  0.0717
 6435SOL    HW130767   3.583   3.189  13.289 -1.7455 -1.1238  0.5221
 6435SOL    HW230768   3.550   3.262  13.405 -0.1791 -1.2660  3.9867
 6436SOL     OW30769   3.697   3.607   5.993  0.0301  0.2041 -0.0191
 6436SOL    HW130770   3.709   3.589   6.086  1.2784  0.3040 -0.1600
 6436SOL    HW230771   3.603   3.610   5.976 -0.1372  1.3773  1.0610
 6437SOL     OW30772   2.357   2.368   9.135 -0.3651  0.5596  0.1635
 6437SOL    HW130773   2.273   2.332   9.107  0.1774 -0.1409 -0.5657
 6437SOL    HW230774   2.414   2.312   9.083  0.9545  0.0768  2.1420
 6438SOL     OW30775   3.393   4.196  15.461 -0.3782  0.0983  0.7154
 6438SOL    HW130776   3.299   4.200  15.478 -0.0532  1.9321  2.0381
 6438SOL    HW230777   3.417   4.223  15.549  0.1870 -1.8848  1.1781
 6439SOL     OW30778   0.872   0.127   8.347  0.1032  0.7579 -0.2124
 6439SOL    HW130779   0.794   0.086   8.384  0.4469 -1.4719 -1.9423
 6439SOL    HW230780   0.852   0.217   8.371  0.7579  0.3380  1.9397
 6440SOL     OW30781   2.687   0.783   7.644  0.1861  0.8088 -0.4745
 6440SOL    HW130782   2.769   0.740   7.618 -0.6433 -0.5099 -0.8917
 6440SOL    HW230783   2.718   0.852   7.702 -1.3597  0.9568  0.1751
 6441SOL     OW30784   3.636   1.514   7.191 -0.7063  0.1031 -0.2019
 6441SOL    HW130785   3.584   1.446   7.148 -0.5932 -1.5589  2.3193
 6441SOL    HW230786   3.585   1.588   7.158 -3.4179 -1.4013  0.6377
 6442SOL     OW30787   4.583   3.541  12.467  0.5199 -0.2471  0.3593
 6442SOL    HW130788   4.497   3.533  12.425  1.0872  1.0529 -1.0919
 6442SOL    HW230789   4.587   3.471  12.532 -0.3806 -0.1243  0.5385
 6443SOL     OW30790   2.000   2.580  13.246 -0.1918  0.1854  0.0291
 6443SOL    HW130791   1.925   2.521  13.256 -0.6182  0.9681  1.3166
 6443SOL    HW230792   2.071   2.552  13.304  0.3820 -0.0479 -0.7759
 6444SOL     OW30793   0.165   0.117   3.558  0.1693  0.0709  0.9262
 6444SOL    HW130794   0.244   0.157   3.594  1.0680 -0.3210 -0.6082
 6444SOL    HW230795   0.160   0.037   3.609 -0.8028 -0.4329  0.0320
 6445SOL     OW30796   2.461   1.300  13.870 -0.3770  0.2700  0.5553
 6445SOL    HW130797   2.410   1.294  13.789  1.1077  0.4619 -0.3852
 6445SOL    HW230798   2.394   1.305  13.938 -0.6233  1.3497  0.2251
 6446SOL     OW30799   3.376   2.821   1.207  0.2261  0.0339 -0.4365
 6446SOL    HW130800   3.297   2.780   1.172 -0.2947  0.5487  0.1314
 6446SOL    HW230801   3.405   2.754   1.268  0.7888 -0.3042 -1.0750
 6447SOL     OW30802   2.466   1.620   3.111 -0.6655  0.1758 -0.5841
 6447SOL    HW130803   2.419   1.670   3.177  1.4042  0.1409  0.9239
 6447SOL    HW230804   2.394   1.594   3.053 -0.3833  2.9236 -2.1637
 6448SOL     OW30805   2.053   0.186   2.024  0.0231 -0.3718 -0.0560
 6448SOL    HW130806   2.062   0.260   2.083 -1.6626 -1.7748  1.9775
 6448SOL    HW230807   1.971   0.143   2.051 -0.5378  1.1745  0.7147
 6449SOL     OW30808   4.276   2.184  14.433  0.4562 -0.3076  0.1760
 6449SOL    HW130809   4.363   2.144  14.446 -0.1907 -1.6785  0.2527
 6449SOL    HW230810   4.226   2.132  14.371  0.4554 -1.2998  1.0088
 6450SOL     OW30811   1.447   0.618   6.471 -0.7343  0.2502  0.2544
 6450SOL    HW130812   1.449   0.532   6.429  1.1284  2.0267 -3.2540
 6450SOL    HW230813   1.515   0.670   6.428 -0.5308 -0.0420  0.2252
 6451SOL     OW30814   3.191   3.474  12.879 -0.1366  0.2432  0.1924
 6451SOL    HW130815   3.267   3.459  12.935  0.5793  3.8460  0.1729
 6451SOL    HW230816   3.203   3.568  12.875 -1.6703  0.4374  0.0685
 6452SOL     OW30817   0.186   1.667  11.538  0.0762 -0.0345  0.0973
 6452SOL    HW130818   0.141   1.615  11.604 -1.9093 -0.2159 -1.3611
 6452SOL    HW230819   0.249   1.605  11.502  1.2954 -0.3312  2.7620
 6453SOL     OW30820   2.257   3.870   6.130 -0.3848  0.2690 -0.4900
 6453SOL    HW130821   2.233   3.784   6.165  0.0533 -0.6210 -2.3493
 6453SOL    HW230822   2.344   3.870   6.172 -0.9576 -3.3555  0.6774
 6454SOL     OW30823   4.185   0.864   7.821  0.2313  0.1908  0.1472
 6454SOL    HW130824   4.275   0.831   7.828  0.1438 -0.2163 -0.5998
 6454SOL    HW230825   4.160   0.883   7.911  2.2403 -1.4781  1.0644
 6455SOL     OW30826   0.852   1.171   6.866 -0.1570  0.5540  0.5149
 6455SOL    HW130827   0.931   1.186   6.813  0.5417 -0.4015  1.2960
 6455SOL    HW230828   0.806   1.104   6.815 -2.2177  0.5701  2.3379
 6456SOL     OW30829   0.218   3.130   8.978 -0.5197 -0.2662 -0.0133
 6456SOL    HW130830   0.214   3.201   8.914 -2.5588  0.3127  0.7420
 6456SOL    HW230831   0.193   3.176   9.058 -1.1757  0.4932 -0.6574
 6457SOL     OW30832   1.400   2.619   8.861  0.0882 -0.2293  0.5051
 6457SOL    HW130833   1.306   2.625   8.877 -0.3820 -2.9698 -1.1484
 6457SOL    HW230834   1.424   2.697   8.911  1.4133 -1.2114  1.3957
 6458SOL     OW30835   1.410   0.083   7.284  0.3895 -0.5847  0.1590
 6458SOL    HW130836   1.376   0.079   7.195 -0.0252 -0.9681  0.3361
 6458SOL    HW230837   1.436   4.717   7.300  0.1908 -0.8113 -0.8374
 6459SOL     OW30838   0.811   0.627   8.780 -0.2531  0.2038  0.1833
 6459SOL    HW130839   0.890   0.633   8.726 -1.0125 -0.7816 -1.0459
 6459SOL    HW230840   0.762   0.705   8.755 -0.3799  0.1101  0.1420
 6460SOL     OW30841   4.601   3.619   3.453  0.4866 -0.4871 -0.3220
 6460SOL    HW130842   4.517   3.659   3.430  1.3194 -0.1842 -2.9501
 6460SOL    HW230843   4.604   3.537   3.402 -0.3848 -1.0868  0.6097
 6461SOL     OW30844   4.643   0.910  12.348  0.0957 -0.2314 -0.4652
 6461SOL    HW130845   4.569   0.868  12.305  1.6642 -3.0426 -0.4498
 6461SOL    HW230846   4.596   0.979  12.395 -0.6743 -0.8748 -0.2877
 6462SOL     OW30847   4.216   2.824  17.324 -0.4302 -0.3369  0.1778
 6462SOL    HW130848   4.303   2.808  17.286 -0.2943  0.9102 -0.0560
 6462SOL    HW230849   4.174   2.740  17.308  1.4928 -0.9656 -1.5538
 6463SOL     OW30850   1.456   0.341   0.832  0.4600 -0.5370  0.4379
 6463SOL    HW130851   1.547   0.313   0.823  0.2479 -0.4562 -2.0598
 6463SOL    HW230852   1.458   0.342   0.927 -2.8205  2.1354  0.4862
 6464SOL     OW30853   2.308   3.230   7.751  0.4577  0.2597  0.1772
 6464SOL    HW130854   2.285   3.196   7.664  0.1858  1.4170 -0.2034
 6464SOL    HW230855   2.328   3.145   7.791  0.2084 -0.6037 -1.5079
 6465SOL     OW30856   0.151   2.965   2.313  0.2672  0.6875 -0.0268
 6465SOL    HW130857   0.189   2.896   2.367  0.4138  0.1473 -0.8111
 6465SOL    HW230858   0.149   2.928   2.224  0.2607  1.1684 -0.2277
 6466SOL     OW30859   3.981   1.517  16.140 -0.1074  0.1254  0.0299
 6466SOL    HW130860   4.039   1.465  16.195 -1.2914 -0.3416  0.8381
 6466SOL    HW230861   3.903   1.464  16.122  0.5031 -0.7879  0.0954
 6467SOL     OW30862   2.049   3.184   4.276  0.5432 -0.3576 -0.4124
 6467SOL    HW130863   2.036   3.167   4.369 -0.6723 -2.2881 -0.9297
 6467SOL    HW230864   1.993   3.119   4.233 -1.3321  1.6974 -1.0607
 6468SOL     OW30865   2.247   2.013   1.073  0.2499  0.0466 -0.2728
 6468SOL    HW130866   2.290   1.979   0.994  2.1144  1.7786 -0.0182
 6468SOL    HW230867   2.328   2.045   1.113 -0.3471 -0.8008  1.5946
 6469SOL     OW30868   0.313   0.421   7.059 -0.4871 -0.5428  0.0550
 6469SOL    HW130869   0.348   0.353   7.116 -0.2602  1.9842  2.9614
 6469SOL    HW230870   0.252   0.372   7.004  0.3373  1.1706 -2.3880
 6470SOL     OW30871   1.857   3.988   6.921 -0.2452 -0.1270  0.4157
 6470SOL    HW130872   1.817   4.069   6.951  0.0518 -1.3390  4.1153
 6470SOL    HW230873   1.803   3.912   6.941  1.2358 -0.8182  1.8057
 6471SOL     OW30874   1.463   3.697  11.826 -0.2004  0.2285  0.5121
 6471SOL    HW130875   1.457   3.749  11.746  2.3104 -0.5504 -0.1618
 6471SOL    HW230876   1.553   3.712  11.854  0.1127 -1.2845  0.3121
 6472SOL     OW30877   4.340   3.604   3.661 -0.5982  0.0589 -0.0358
 6472SOL    HW130878   4.301   3.673   3.608  0.6563 -1.0904 -2.4364
 6472SOL    HW230879   4.281   3.529   3.657 -0.2103 -0.1438 -1.7978
 6473SOL     OW30880   4.318   4.027  15.711  0.1414  0.2340 -0.2833
 6473SOL    HW130881   4.411   4.051  15.714 -0.4508  2.4229  0.5575
 6473SOL    HW230882   4.297   4.047  15.620 -3.0778  0.7011  0.5720
 6474SOL     OW30883   3.674   3.314  12.274 -0.0107 -0.2364 -0.1323
 6474SOL    HW130884   3.625   3.232  12.270 -1.1483  0.4402 -0.1655
 6474SOL    HW230885   3.651   3.337  12.364  0.4432 -0.2164 -0.0257
 6475SOL     OW30886   0.568   2.635   5.692  0.2806  0.4255  0.5861
 6475SOL    HW130887   0.627   2.569   5.729  0.5818 -1.0211 -2.4499
 6475SOL    HW230888   0.639   2.691   5.659  1.2891 -0.2765  1.5585
 6476SOL     OW30889   0.078   4.471  13.499 -0.3887 -0.4231  0.3975
 6476SOL    HW130890   0.023   4.500  13.572  1.6493 -1.3130  2.2958
 6476SOL    HW230891   0.098   4.382  13.528  2.2821 -0.0737 -0.3563
 6477SOL     OW30892   3.402   0.153   4.213  0.2259 -0.0738  0.0250
 6477SOL    HW130893   3.325   0.198   4.246 -2.0466 -2.2397 -2.2878
 6477SOL    HW230894   3.464   0.226   4.206 -0.3796  0.3668 -0.6693
 6478SOL     OW30895   2.105   1.073   1.446 -0.0458  0.7937 -0.2761
 6478SOL    HW130896   2.074   1.152   1.491  0.6679 -0.0956  1.7991
 6478SOL    HW230897   2.031   1.051   1.390  0.6950 -0.1810 -0.8709
 6479SOL     OW30898   3.260   0.804   3.433 -0.5932 -0.0852  0.5375
 6479SOL    HW130899   3.337   0.824   3.379  0.5981  1.7877  2.9308
 6479SOL    HW230900   3.265   0.710   3.419  0.7243  0.3056 -1.6861
 6480SOL     OW30901   2.841   1.931   8.612  0.6957  0.1803 -0.0412
 6480SOL    HW130902   2.861   1.866   8.680  1.7439 -0.5062 -1.0213
 6480SOL    HW230903   2.857   1.881   8.532  0.2419 -0.3580  0.2105
 6481SOL     OW30904   2.395   1.447   6.944  0.1299 -0.3076  0.0034
 6481SOL    HW130905   2.304   1.437   6.914  1.3471 -1.0240 -3.4778
 6481SOL    HW230906   2.421   1.366   6.986  1.1519  0.5674  1.0323
 6482SOL     OW30907   0.577   2.535   3.788  1.0480 -0.0287  0.4315
 6482SOL    HW130908   0.483   2.520   3.775  0.9717  1.2314 -0.4711
 6482SOL    HW230909   0.602   2.502   3.874  1.8794  0.2252  0.2907
 6483SOL     OW30910   0.872   2.460   8.962  0.2334  0.3352  0.6127
 6483SOL    HW130911   0.829   2.386   8.919  0.0348  1.6222 -1.3780
 6483SOL    HW230912   0.808   2.531   8.974 -0.0325 -0.0614  1.5772
 6484SOL     OW30913   2.531   2.716   5.632  0.3888  0.2013  0.0147
 6484SOL    HW130914   2.471   2.685   5.700 -0.4930  1.2466 -0.2868
 6484SOL    HW230915   2.530   2.808   5.658 -0.8049  0.4005 -0.7072
 6485SOL     OW30916   1.967   2.655   0.453 -0.2647  0.1471  0.1657
 6485SOL    HW130917   1.897   2.594   0.429 -0.3426  0.2406  0.1548
 6485SOL    HW230918   2.004   2.663   0.365 -1.3908  1.7457 -0.1717
 6486SOL     OW30919   1.394   1.141   2.414  0.0132  0.3660 -0.1142
 6486SOL    HW130920   1.318   1.168   2.363 -0.4610  0.3004  0.5640
 6486SOL    HW230921   1.415   1.217   2.467  0.3976  0.3746 -0.2770
 6487SOL     OW30922   2.965   4.226   3.673 -0.4064 -0.8579  0.7288
 6487SOL    HW130923   3.053   4.246   3.706 -0.7329  2.2888 -0.3233
 6487SOL    HW230924   2.977   4.226   3.578  1.0301 -1.0483  0.9091
 6488SOL     OW30925   3.439   4.263  13.777 -0.8672  0.4272 -0.3175
 6488SOL    HW130926   3.427   4.187  13.720  0.6576 -0.1311  0.1160
 6488SOL    HW230927   3.425   4.232  13.867  0.6612 -1.5895 -0.7894
 6489SOL     OW30928   1.052   2.895   8.790  0.8374  0.3056 -0.1019
 6489SOL    HW130929   0.984   2.830   8.774  1.4277 -0.3133 -0.1432
 6489SOL    HW230930   1.036   2.883   8.883 -0.7144 -1.5182 -0.6113
 6490SOL     OW30931   1.451   1.218   9.414 -0.3208  0.1527  0.3081
 6490SOL    HW130932   1.405   1.273   9.477 -0.2181  0.9648 -0.3304
 6490SOL    HW230933   1.378   1.211   9.353 -0.7090 -1.0939  0.9160
 6491SOL     OW30934   2.860   2.052   2.871  0.5340  0.6196  0.0480
 6491SOL    HW130935   2.827   1.968   2.903 -0.4498  1.1986  0.5215
 6491SOL    HW230936   2.838   2.115   2.940 -2.4131  1.0897 -1.3340
 6492SOL     OW30937   4.188   2.075   3.456 -0.4657 -0.2922  0.3187
 6492SOL    HW130938   4.246   2.129   3.403 -2.1387  0.5035 -0.7196
 6492SOL    HW230939   4.227   1.988   3.454  0.2742  0.0094  1.6700
 6493SOL     OW30940   1.454   3.434   5.025 -0.2075  0.0683 -0.2017
 6493SOL    HW130941   1.517   3.487   4.976 -0.8245  1.1595  0.1861
 6493SOL    HW230942   1.490   3.442   5.114  1.0804 -2.7663 -0.4791
 6494SOL     OW30943   1.172   0.042  15.792  0.5375  0.2313  0.3057
 6494SOL    HW130944   1.213   0.109  15.737 -0.3937  2.0083  1.7703
 6494SOL    HW230945   1.229   4.693  15.766 -0.5044 -0.4536 -0.0224
 6495SOL     OW30946   2.138   4.390  11.164  0.7088 -0.3217 -0.1812
 6495SOL    HW130947   2.186   4.473  11.163 -1.0304  0.6921 -1.5540
 6495SOL    HW230948   2.070   4.412  11.227  0.0540  2.4396 -1.8473
 6496SOL     OW30949   2.684   3.968   3.520  0.1734 -0.3410 -0.4808
 6496SOL    HW130950   2.734   3.958   3.602 -0.6221  2.1522  0.3207
 6496SOL    HW230951   2.595   3.982   3.553 -0.7827 -1.8775 -2.4739
 6497SOL     OW30952   1.113   4.660   8.873  0.3154 -0.6475  0.1016
 6497SOL    HW130953   1.156   4.575   8.865  1.5716 -0.1327  1.4103
 6497SOL    HW230954   1.047   4.633   8.937 -0.5061  1.5550  0.2242
 6498SOL     OW30955   1.750   0.302   1.986 -0.1348  0.4676  0.1651
 6498SOL    HW130956   1.657   0.315   1.973 -0.1256  0.5475  0.1779
 6498SOL    HW230957   1.777   0.393   1.973 -1.4248  0.7606 -0.4026
 6499SOL     OW30958   2.392   2.770   1.391 -0.0699  0.1996 -0.0813
 6499SOL    HW130959   2.427   2.812   1.469  0.9971  0.6504 -0.8041
 6499SOL    HW230960   2.366   2.686   1.428 -0.5614  0.1615 -0.5071
 6500SOL     OW30961   2.801   4.225   9.497  0.5886 -0.4314 -0.6798
 6500SOL    HW130962   2.787   4.275   9.417  1.0147 -0.5072 -0.8023
 6500SOL    HW230963   2.715   4.190   9.521 -0.3317  0.8897 -2.0497
 6501SOL     OW30964   2.985   1.733  15.330  0.0527  0.5547  0.7983
 6501SOL    HW130965   3.023   1.779  15.255 -0.3232 -1.2596 -0.5153
 6501SOL    HW230966   3.061   1.690  15.368  0.2236 -0.0931 -0.2726
 6502SOL     OW30967   1.650   3.745  11.572 -0.1638  0.3338 -0.2909
 6502SOL    HW130968   1.745   3.736  11.566 -0.1428  0.9049 -0.8943
 6502SOL    HW230969   1.618   3.714  11.487  0.1375 -1.6531  0.3330
 6503SOL     OW30970   2.735   3.154   4.948  0.1353 -0.2078  0.7013
 6503SOL    HW130971   2.806   3.173   4.886  1.5752 -0.8790  2.1466
 6503SOL    HW230972   2.665   3.203   4.905 -0.5182 -0.8931  0.9858
 6504SOL     OW30973   0.132   0.920   4.938  0.6562 -0.4437  0.0545
 6504SOL    HW130974   0.176   0.876   5.011  0.9183 -2.1370 -1.1184
 6504SOL    HW230975   0.172   0.887   4.858 -2.3959 -2.0394 -0.8214
 6505SOL     OW30976   3.259   2.284   3.749 -0.2201 -0.1757  0.0337
 6505SOL    HW130977   3.329   2.252   3.692 -0.2200  1.7428 -1.0647
 6505SOL    HW230978   3.250   2.216   3.816  1.7942 -1.0163 -0.5579
 6506SOL     OW30979   4.091   2.401  16.914 -0.4381 -0.4653  0.1009
 6506SOL    HW130980   4.141   2.459  16.972  0.6948 -2.9675  1.6609
 6506SOL    HW230981   4.123   2.435  16.831  1.4611 -2.1095  0.1588
 6507SOL     OW30982   3.868   4.651   5.843  0.1201 -0.3646  0.3338
 6507SOL    HW130983   3.841   4.589   5.911 -1.6705  0.2661  0.2063
 6507SOL    HW230984   3.950   4.610   5.816 -0.3040 -1.3330  0.5247
 6508SOL     OW30985   0.713   2.167   0.961 -0.5497  0.4180 -0.0433
 6508SOL    HW130986   0.725   2.074   0.983  0.7579  0.9787  1.6432
 6508SOL    HW230987   0.691   2.200   1.048  1.0358  0.5797  0.2906
 6509SOL     OW30988   0.610   4.622  13.320 -0.2194 -0.0426 -0.1387
 6509SOL    HW130989   0.667   4.578  13.257  0.4853  0.1866  0.3365
 6509SOL    HW230990   0.636   4.713  13.305 -0.4952  0.2055  0.8740
 6510SOL     OW30991   3.408   2.745  10.586 -0.0886 -0.0805 -0.1070
 6510SOL    HW130992   3.458   2.806  10.640 -3.4499 -0.2387  3.1744
 6510SOL    HW230993   3.361   2.707  10.660  0.1211 -1.5522 -0.7316
 6511SOL     OW30994   0.696   0.343  17.265 -0.1408  0.6107  0.1173
 6511SOL    HW130995   0.694   0.332  17.361  1.7228  2.0284  0.3255
 6511SOL    HW230996   0.635   0.416  17.259 -1.7641 -0.7226  0.3117
 6512SOL     OW30997   0.256   1.695  12.113  0.4763  0.1374  0.4473
 6512SOL    HW130998   0.240   1.723  12.203  1.2908 -0.6077  0.8282
 6512SOL    HW230999   0.336   1.642  12.112  0.8468  0.6829  1.1647
 6513SOL     OW31000   1.799   0.314  13.852 -0.4056 -0.3400  0.4119
 6513SOL    HW131001   1.746   0.308  13.931  1.3569 -0.2840  1.6018
 6513SOL    HW231002   1.786   0.226  13.816  1.0848 -0.7112  0.7803
 6514SOL     OW31003   1.593   0.971  14.703 -0.0007 -0.2057  0.5540
 6514SOL    HW131004   1.531   0.969  14.776 -0.1790  1.7847  0.4504
 6514SOL    HW231005   1.657   1.039  14.725  0.1441  0.1583 -0.9852
 6515SOL     OW31006   2.226   0.407  10.012  0.0216  0.4693  0.6621
 6515SOL    HW131007   2.296   0.341  10.015 -0.6271 -0.4492 -3.4274
 6515SOL    HW231008   2.169   0.362   9.949 -0.7705  0.3865  1.4451
 6516SOL     OW31009   4.086   0.285   9.895  0.7107  0.3252 -0.8091
 6516SOL    HW131010   4.071   0.271   9.802  0.7751 -0.3592 -0.7155
 6516SOL    HW231011   4.078   0.199   9.936  1.7993  0.6884  0.1779
 6517SOL     OW31012   1.829   1.012   3.081 -0.1227  0.1895  0.5710
 6517SOL    HW131013   1.823   0.928   3.034 -2.1719  0.1352  0.9621
 6517SOL    HW231014   1.924   1.024   3.075 -0.2256  0.4131 -0.6366
 6518SOL     OW31015   2.027   2.529   8.153  0.0484  0.4860 -0.1311
 6518SOL    HW131016   2.101   2.474   8.181  0.0423  0.4042 -0.2767
 6518SOL    HW231017   2.002   2.489   8.070 -1.2328 -0.4960  0.7246
 6519SOL     OW31018   4.122   2.613  15.945  0.1244 -0.3330 -0.1474
 6519SOL    HW131019   4.113   2.708  15.933  0.9680 -0.3159 -0.6079
 6519SOL    HW231020   4.129   2.607  16.040  2.0471 -1.9718 -0.3994
 6520SOL     OW31021   4.458   2.682  15.744 -0.4177  0.2062 -0.5098
 6520SOL    HW131022   4.371   2.647  15.721 -0.0524 -1.0713  0.1086
 6520SOL    HW231023   4.465   2.745  15.672 -0.2977  1.1744  0.3564
 6521SOL     OW31024   2.270   2.301   5.636 -0.3600 -0.2051  0.0613
 6521SOL    HW131025   2.186   2.344   5.620  0.7764  1.7854 -0.5201
 6521SOL    HW231026   2.234   2.214   5.653 -1.5553  0.1242 -0.8142
 6522SOL     OW31027   1.375   0.873   5.823 -0.4407  0.1102  0.0318
 6522SOL    HW131028   1.453   0.858   5.770 -0.2435  0.9570  0.0751
 6522SOL    HW231029   1.321   0.902   5.750  0.4379 -2.4684 -1.6384
 6523SOL     OW31030   1.716   1.474   3.187  0.6868 -0.4785 -0.5050
 6523SOL    HW131031   1.642   1.418   3.210  0.6310 -0.5311 -0.8220
 6523SOL    HW231032   1.764   1.490   3.269  0.3864  2.3078 -0.8565
 6524SOL     OW31033   3.204   1.432  10.179  0.6242 -0.1401 -0.4387
 6524SOL    HW131034   3.293   1.397  10.169  0.3503  0.0270 -3.3365
 6524SOL    HW231035   3.160   1.350  10.155 -0.1106  0.2800 -0.5175
 6525SOL     OW31036   0.230   2.032   2.763  0.2680 -0.6714 -0.1330
 6525SOL    HW131037   0.325   2.029   2.759  0.2288 -0.3818 -1.2138
 6525SOL    HW231038   0.198   2.007   2.676  1.1634 -3.2017  0.2757
 6526SOL     OW31039   2.291   3.912   7.332  0.2217 -0.5114 -0.4043
 6526SOL    HW131040   2.336   3.850   7.389 -0.8790  0.0246  1.0380
 6526SOL    HW231041   2.370   3.960   7.310 -0.0503 -1.0652 -2.5709
 6527SOL     OW31042   2.623   2.263  12.762 -0.5377  0.5343 -0.0559
 6527SOL    HW131043   2.592   2.352  12.743  1.1484  1.2707  0.6883
 6527SOL    HW231044   2.598   2.221  12.680  0.0401  2.6568 -1.3076
 6528SOL     OW31045   3.134   1.828   4.598 -0.0711  0.4380 -0.4370
 6528SOL    HW131046   3.080   1.793   4.528  1.0040 -0.9826 -0.5492
 6528SOL    HW231047   3.089   1.912   4.610  0.6759  0.9447 -1.1814
 6529SOL     OW31048   3.479   3.343   0.053 -0.3131  0.6236 -0.1361
 6529SOL    HW131049   3.408   3.375   0.109 -0.7407  0.8497 -0.8058
 6529SOL    HW231050   3.436   3.267   0.014  3.2053 -1.2145 -0.3996
 6530SOL     OW31051   3.617   0.260  11.829  0.3174  0.0668 -0.4102
 6530SOL    HW131052   3.681   0.276  11.899 -1.7565  3.4375  0.7315
 6530SOL    HW231053   3.665   0.209  11.764 -2.1199 -2.0072 -0.5434
 6531SOL     OW31054   0.451   3.417   4.612 -0.0926 -0.2242 -0.2867
 6531SOL    HW131055   0.474   3.335   4.656 -1.0241  1.2003  2.8157
 6531SOL    HW231056   0.413   3.384   4.531 -0.5783 -1.5126  0.4626
 6532SOL     OW31057   4.676   2.569   2.374  0.6600 -0.1568 -0.4493
 6532SOL    HW131058   4.724   2.583   2.293 -1.5034 -0.9713 -1.8771
 6532SOL    HW231059   0.017   2.576   2.444 -0.2283  2.2332  0.1702
 6533SOL     OW31060   0.710   4.484  11.919  0.5372  0.1233  0.5798
 6533SOL    HW131061   0.743   4.574  11.917 -0.8846  0.6274  0.2680
 6533SOL    HW231062   0.745   4.457  12.004 -1.4125  0.1981  1.4009
 6534SOL     OW31063   1.896   1.784   0.268  0.0023  0.1976  0.4766
 6534SOL    HW131064   1.819   1.728   0.273  1.3039 -1.5370  1.2890
 6534SOL    HW231065   1.878   1.851   0.335 -0.3092  1.3284 -0.7517
 6535SOL     OW31066   2.751   0.481   3.026  0.7586  0.2999 -0.5736
 6535SOL    HW131067   2.723   0.555   3.080 -2.0771 -0.9000 -0.3884
 6535SOL    HW231068   2.805   0.427   3.084  1.0483  0.3223 -0.8266
 6536SOL     OW31069   0.790   2.698   1.959 -0.2707  0.0613  0.1147
 6536SOL    HW131070   0.745   2.755   2.021 -0.4418 -1.6144  1.5264
 6536SOL    HW231071   0.716   2.650   1.921 -1.5128  0.5762  1.9107
 6537SOL     OW31072   2.251   0.515   1.347 -0.4522  0.0993 -0.2640
 6537SOL    HW131073   2.239   0.610   1.344 -0.4954 -0.0028 -3.3174
 6537SOL    HW231074   2.168   0.488   1.385  1.1101 -2.9951  0.9742
 6538SOL     OW31075   3.792   1.271  16.476 -0.1372 -0.4422 -0.0964
 6538SOL    HW131076   3.836   1.203  16.525  0.3704  0.7633  1.1286
 6538SOL    HW231077   3.748   1.321  16.545  1.2985 -1.3019  1.4102
 6539SOL     OW31078   0.510   4.309   3.030  0.1468  0.4229  0.1299
 6539SOL    HW131079   0.439   4.354   2.984  0.3952  1.2530  0.5656
 6539SOL    HW231080   0.460   4.250   3.087  0.9137  0.1761  0.5495
 6540SOL     OW31081   1.871   0.334   3.462  0.2811  0.3361 -0.6551
 6540SOL    HW131082   1.804   0.269   3.439  0.4500 -0.4763  1.1514
 6540SOL    HW231083   1.947   0.297   3.416  1.3357  0.6268  0.8579
 6541SOL     OW31084   0.212   1.331   9.251 -0.4385  0.1425  0.3345
 6541SOL    HW131085   0.195   1.320   9.158 -1.1397  0.6137  0.4101
 6541SOL    HW231086   0.278   1.263   9.265  0.4269  0.8217 -0.4262
 6542SOL     OW31087   4.286   4.590  12.195 -0.5358  0.1159 -0.0504
 6542SOL    HW131088   4.372   4.559  12.224 -1.0434 -0.3966  0.9079
 6542SOL    HW231089   4.240   4.619  12.274  0.5926 -0.0175  0.6547
 6543SOL     OW31090   1.363   0.929   9.473 -0.1754 -0.6643 -0.1827
 6543SOL    HW131091   1.382   1.016   9.508  1.2664 -1.5896  1.3722
 6543SOL    HW231092   1.441   0.907   9.423 -0.7727 -2.1620 -0.4641
 6544SOL     OW31093   4.257   2.195   8.560  0.2000  0.1768  0.3970
 6544SOL    HW131094   4.236   2.172   8.650  2.4384 -0.2431  0.8168
 6544SOL    HW231095   4.184   2.255   8.544 -0.7029 -1.4019 -1.4874
 6545SOL     OW31096   2.912   0.292  10.669  0.4953 -0.4660  0.0985
 6545SOL    HW131097   3.007   0.305  10.678  0.3372  0.3363  0.6210
 6545SOL    HW231098   2.870   0.324  10.749 -1.3532 -2.0697 -0.2564
 6546SOL     OW31099   0.503   0.282   7.872 -0.2351  0.0197 -0.4974
 6546SOL    HW131100   0.420   0.329   7.881 -0.6454 -0.6518 -0.8335
 6546SOL    HW231101   0.571   0.349   7.863 -1.1165  1.0980  0.8358
 6547SOL     OW31102   2.506   3.511  16.902  0.5346  0.0885  0.1030
 6547SOL    HW131103   2.502   3.448  16.830 -0.1438  0.8241 -0.5059
 6547SOL    HW231104   2.413   3.532  16.907  0.6596  0.4057  1.2774
 6548SOL     OW31105   1.966   1.502  14.881  0.2003  0.4008  0.1589
 6548SOL    HW131106   1.875   1.530  14.880 -0.1724 -0.7704  0.7162
 6548SOL    HW231107   1.961   1.406  14.876  1.6645  0.3276  0.0246
 6549SOL     OW31108   3.118   0.105   9.879  0.0318  0.0431 -0.0294
 6549SOL    HW131109   3.133   0.050   9.956 -1.3648 -1.6940 -1.0263
 6549SOL    HW231110   3.193   0.083   9.823  0.6018 -1.1373  1.2043
 6550SOL     OW31111   0.185   4.590  12.465 -0.5374 -0.4498  0.5903
 6550SOL    HW131112   0.211   4.682  12.463  1.6061 -1.0513  0.7595
 6550SOL    HW231113   0.115   4.601  12.529  1.2092  1.9054  2.0840
 6551SOL     OW31114   2.246   2.963   0.672 -0.0801 -0.5697  0.5046
 6551SOL    HW131115   2.222   3.050   0.704  1.3952  1.0888 -2.8808
 6551SOL    HW231116   2.159   2.947   0.635 -0.1064 -0.0426  0.3319
 6552SOL     OW31117   0.587   0.206   3.487  0.5397 -0.4302  0.3311
 6552SOL    HW131118   0.635   0.134   3.528 -1.8625 -1.7529  0.8214
 6552SOL    HW231119   0.573   0.158   3.406 -0.0985  0.2576  0.0433
 6553SOL     OW31120   1.483   2.199   5.577 -0.1603 -0.0711 -0.0778
 6553SOL    HW131121   1.421   2.198   5.650 -1.2522  0.4112 -1.0043
 6553SOL    HW231122   1.438   2.271   5.533  1.6243  0.2348 -1.4130
 6554SOL     OW31123   0.506   3.033  12.226  0.3133  0.1528 -0.3086
 6554SOL    HW131124   0.557   2.993  12.296  0.8325  1.0661 -0.1544
 6554SOL    HW231125   0.567   3.100  12.195  0.8223  0.8008  2.0525
 6555SOL     OW31126   0.846   2.674  17.315 -0.0162  0.0685 -0.3396
 6555SOL    HW131127   0.796   2.641  17.241 -0.2853  1.4912 -0.7859
 6555SOL    HW231128   0.786   2.661  17.389  1.6136  2.9600  1.5057
 6556SOL     OW31129   1.537   4.596   9.555 -0.3594 -0.4028  0.0157
 6556SOL    HW131130   1.571   4.603   9.466 -2.2046  1.0870 -0.5695
 6556SOL    HW231131   1.572   4.672   9.602  2.3494  0.1587 -2.9433
 6557SOL     OW31132   2.232   0.199   6.403  0.2226 -0.4553 -0.1611
 6557SOL    HW131133   2.156   0.144   6.419 -1.0139  0.8536 -1.6195
 6557SOL    HW231134   2.300   0.135   6.426  1.6507  0.2907 -2.2799
 6558SOL     OW31135   2.288   0.180   8.866 -0.0846 -0.1586  0.5173
 6558SOL    HW131136   2.233   0.147   8.795 -0.6145  1.2698  0.2598
 6558SOL    HW231137   2.227   0.211   8.933  0.0125  1.4621 -0.1276
 6559SOL     OW31138   2.628   2.847   0.239 -0.0620  0.1927  0.1176
 6559SOL    HW131139   2.569   2.843   0.314 -0.9748  2.9883 -0.4494
 6559SOL    HW231140   2.676   2.765   0.236  0.1235  0.2084  2.7805
 6560SOL     OW31141   3.321   1.298   1.898 -0.8417  0.1527  0.3770
 6560SOL    HW131142   3.317   1.341   1.813 -0.4895 -0.7236 -0.0888
 6560SOL    HW231143   3.252   1.231   1.890 -0.1995 -0.2922 -1.4611
 6561SOL     OW31144   0.475   0.743  12.985  0.6658 -0.1477  0.4618
 6561SOL    HW131145   0.471   0.663  13.038  0.2018  0.3821  1.2307
 6561SOL    HW231146   0.570   0.754  12.980  0.4558  1.1395 -0.7437
 6562SOL     OW31147   1.545   2.130  16.422  0.1176  0.0037 -0.0569
 6562SOL    HW131148   1.561   2.189  16.496 -3.7132  0.3285  0.5201
 6562SOL    HW231149   1.546   2.043  16.461 -0.3406  0.1387  0.2609
 6563SOL     OW31150   2.863   3.160   2.782 -0.1768  0.0484  0.7329
 6563SOL    HW131151   2.950   3.175   2.746 -0.9462  0.5627 -0.9103
 6563SOL    HW231152   2.888   3.158   2.875 -0.9971  0.7028  0.9749
 6564SOL     OW31153   1.087   3.691   8.176  0.4822  0.6096 -0.4199
 6564SOL    HW131154   0.992   3.685   8.172  0.1359  3.3640  2.8652
 6564SOL    HW231155   1.103   3.762   8.114  0.3516 -0.0606 -1.2145
 6565SOL     OW31156   2.349   1.855   7.226  0.2718 -0.4088  0.7490
 6565SOL    HW131157   2.278   1.791   7.225 -1.1635  1.2414 -1.5820
 6565SOL    HW231158   2.306   1.940   7.234 -0.2919 -0.4980 -1.2283
 6566SOL     OW31159   2.992   3.811   5.497  0.2337 -0.3271 -0.1387
 6566SOL    HW131160   3.071   3.843   5.541  0.5770 -1.9081  0.3949
 6566SOL    HW231161   2.993   3.715   5.502  2.5565 -0.1998  1.8396
 6567SOL     OW31162   3.520   4.204   8.170 -0.6087 -0.1101  0.2780
 6567SOL    HW131163   3.597   4.252   8.140  0.2328 -0.6297  1.6349
 6567SOL    HW231164   3.480   4.279   8.213 -1.4841 -0.1089 -0.5234
 6568SOL     OW31165   3.838   4.336   6.208  0.0816 -0.6648 -0.1416
 6568SOL    HW131166   3.934   4.331   6.217  0.2975  1.7610 -1.0121
 6568SOL    HW231167   3.816   4.374   6.293  1.3776  1.2417 -0.6565
 6569SOL     OW31168   1.282   0.608   3.109 -0.2091  0.1970  0.2662
 6569SOL    HW131169   1.305   0.695   3.076 -1.6105 -0.2549 -1.8411
 6569SOL    HW231170   1.337   0.605   3.188 -0.5111  1.9685  0.5367
 6570SOL     OW31171   3.779   3.683   5.354 -0.1274  0.3593  0.3317
 6570SOL    HW131172   3.779   3.593   5.386 -1.4754  0.2071 -0.1002
 6570SOL    HW231173   3.833   3.715   5.426  0.2965 -0.5809  0.4324
 6571SOL     OW31174   4.013   2.542   5.057  0.1777 -0.8327 -0.1653
 6571SOL    HW131175   3.985   2.464   5.009 -0.8704 -0.4231 -0.2397
 6571SOL    HW231176   3.933   2.587   5.028  1.0924 -0.7636 -2.6100
 6572SOL     OW31177   4.411   1.669  13.302 -0.4511 -1.0497  0.0029
 6572SOL    HW131178   4.388   1.721  13.226 -1.7854 -0.0924  1.0556
 6572SOL    HW231179   4.338   1.609  13.318 -0.6366 -1.1569 -1.3100
 6573SOL     OW31180   2.088   1.720   3.655  0.6657  0.3887  0.3139
 6573SOL    HW131181   2.181   1.714   3.630  1.0150 -0.5556  1.8843
 6573SOL    HW231182   2.072   1.788   3.589  1.5861  1.5059  1.2262
 6574SOL     OW31183   3.760   2.802   6.969  0.1161 -0.0031 -0.4541
 6574SOL    HW131184   3.830   2.856   7.007 -0.0447 -0.2134  0.1382
 6574SOL    HW231185   3.685   2.847   7.007  0.0216 -0.7900  0.2781
 6575SOL     OW31186   1.916   1.700   4.436  0.4605  0.3824 -0.2440
 6575SOL    HW131187   1.947   1.685   4.525  0.5898 -1.3807 -0.5729
 6575SOL    HW231188   1.916   1.611   4.399 -1.4274 -0.3692  1.5897
 6576SOL     OW31189   0.522   0.549   5.996 -0.2382  0.6187 -0.0664
 6576SOL    HW131190   0.428   0.566   5.990 -0.3031  0.4857  0.5268
 6576SOL    HW231191   0.522   0.458   6.027  1.6470  0.0191 -1.8629
 6577SOL     OW31192   0.570   1.201   3.910  0.1856  0.0554  0.2646
 6577SOL    HW131193   0.513   1.276   3.894 -1.4628 -1.0236  1.0384
 6577SOL    HW231194   0.617   1.232   3.987 -0.8442  1.3370  0.3797
 6578SOL     OW31195   0.947   0.495   7.693 -0.1674 -0.2231 -0.6672
 6578SOL    HW131196   0.858   0.529   7.701  0.2038  0.9279 -1.3003
 6578SOL    HW231197   0.927   0.402   7.697  1.2211 -0.5546 -1.4639
 6579SOL     OW31198   0.261   4.264  12.030 -0.0367 -0.3869 -0.6993
 6579SOL    HW131199   0.261   4.252  12.125  0.6225 -0.2421 -0.6764
 6579SOL    HW231200   0.170   4.258  12.002 -0.6353 -1.3320  1.4408
 6580SOL     OW31201   2.492   3.238  16.146  0.0873 -0.3791 -0.3937
 6580SOL    HW131202   2.565   3.274  16.096  0.0556  0.5293  0.2164
 6580SOL    HW231203   2.541   3.228  16.228 -0.6942 -0.6868  0.0384
 6581SOL     OW31204   3.040   4.239   5.760  0.1136  0.3988 -0.4533
 6581SOL    HW131205   2.976   4.302   5.728  0.0364  1.1422  1.1163
 6581SOL    HW231206   3.067   4.272   5.846 -1.9143  1.3897 -0.1961
 6582SOL     OW31207   0.155   0.318  11.051 -0.2728 -0.1753 -0.5923
 6582SOL    HW131208   0.166   0.412  11.042 -0.3202  0.0013  1.1432
 6582SOL    HW231209   0.239   0.282  11.022  0.3946 -0.9370  2.2263
 6583SOL     OW31210   2.531   0.925   7.382 -0.1867 -0.2789 -0.6628
 6583SOL    HW131211   2.477   0.984   7.435  1.9372  0.1031  1.0641
 6583SOL    HW231212   2.485   0.842   7.397 -1.9264  0.8856  0.5660
 6584SOL     OW31213   0.117   1.518   5.761  0.3645  0.3512 -0.0040
 6584SOL    HW131214   0.203   1.503   5.723  0.6267 -0.7858  1.0151
 6584SOL    HW231215   0.081   1.570   5.690  1.4876 -0.5201 -1.1982
 6585SOL     OW31216   0.785   2.804  14.006 -0.6157  0.0828 -0.1061
 6585SOL    HW131217   0.705   2.808  14.058  0.6298  0.8038  1.7216
 6585SOL    HW231218   0.849   2.758  14.061  0.7042  0.5282 -1.2690
 6586SOL     OW31219   3.842   2.266   5.640 -0.1837 -0.3957  0.1301
 6586SOL    HW131220   3.902   2.339   5.626  0.3968 -0.9965 -0.5212
 6586SOL    HW231221   3.820   2.271   5.733 -1.9313 -0.8287 -0.2578
 6587SOL     OW31222   3.321   3.622   0.632 -0.0680  0.6308 -0.5397
 6587SOL    HW131223   3.256   3.626   0.702  2.1582  0.6363  1.5299
 6587SOL    HW231224   3.381   3.694   0.652 -3.6054  2.4468  3.3619
 6588SOL     OW31225   2.209   3.722   7.147  0.0372 -0.9211  0.1853
 6588SOL    HW131226   2.201   3.636   7.189  0.7980  0.1472  2.4872
 6588SOL    HW231227   2.214   3.787   7.217  1.1220 -1.7205  0.8560
 6589SOL     OW31228   4.193   4.484   6.816  0.1396  0.5476 -0.0938
 6589SOL    HW131229   4.269   4.505   6.871  0.4559 -0.8688 -0.0067
 6589SOL    HW231230   4.142   4.565   6.813 -0.3101  0.3075  0.8518
 6590SOL     OW31231   0.217   2.876   0.055 -0.1193  0.3028 -0.1204
 6590SOL    HW131232   0.170   2.946   0.100  2.5898  1.9429  0.1302
 6590SOL    HW231233   0.151   2.825   0.007 -1.3817  1.1002  0.7654
 6591SOL     OW31234   4.267   0.083  11.992  0.5583 -0.0264 -0.5184
 6591SOL    HW131235   4.222   0.166  12.009 -0.9326 -1.1242  0.8356
 6591SOL    HW231236   4.229   0.031  12.063  2.2196 -0.7724 -0.1762
 6592SOL     OW31237   4.122   1.321  15.841 -0.1259  0.1544 -0.0320
 6592SOL    HW131238   4.181   1.302  15.914 -1.2485 -0.9688  0.5671
 6592SOL    HW231239   4.063   1.248  15.860  2.5161 -1.8034  0.6571
 6593SOL     OW31240   3.533   4.550   9.588  0.7492 -0.1765 -0.3907
 6593SOL    HW131241   3.573   4.562   9.674  0.6673 -0.0644 -0.3686
 6593SOL    HW231242   3.565   4.464   9.562 -2.7423 -1.4025 -0.5654
 6594SOL     OW31243   4.106   2.512   3.138 -0.0211  0.0380 -0.0034
 6594SOL    HW131244   4.137   2.519   3.228  1.8723  3.1996 -0.8827
 6594SOL    HW231245   4.035   2.448   3.140 -0.9924  1.1305  0.9707
 6595SOL     OW31246   2.093   1.903   6.986  0.4503  0.3513 -0.0971
 6595SOL    HW131247   2.144   1.982   7.002  1.8617 -0.3410 -1.1977
 6595SOL    HW231248   2.161   1.847   6.950  1.8889  1.1857  1.3368
 6596SOL     OW31249   4.220   0.842   9.104 -0.0627 -0.0498 -0.5381
 6596SOL    HW131250   4.254   0.894   9.177  0.2539 -1.5730  0.3793
 6596SOL    HW231251   4.306   0.805   9.083  0.2389 -1.0727  2.5519
 6597SOL     OW31252   3.966   1.433   6.837  0.5410  0.4077  0.1748
 6597SOL    HW131253   3.967   1.508   6.778  1.5378  0.8455  0.7539
 6597SOL    HW231254   3.952   1.478   6.920 -0.8141  0.8274 -0.2748
 6598SOL     OW31255   2.684   4.231   2.249 -0.8529  0.2585  0.2374
 6598SOL    HW131256   2.659   4.139   2.255 -0.5775  0.1520 -0.2448
 6598SOL    HW231257   2.647   4.259   2.165  1.0019 -0.7889 -0.9311
 6599SOL     OW31258   2.403   2.686  10.695  0.7228  0.3906  0.4026
 6599SOL    HW131259   2.323   2.717  10.653 -0.4023 -1.0621  1.4736
 6599SOL    HW231260   2.391   2.729  10.780 -0.2463  0.7921  0.0642
 6600SOL     OW31261   2.115   4.016   3.078 -0.1391  0.0083  0.3132
 6600SOL    HW131262   2.085   3.951   3.014 -0.3738  1.2036 -0.7713
 6600SOL    HW231263   2.112   3.965   3.159 -1.0926  2.2470  1.6811
 6601SOL     OW31264   3.089   3.889  12.545 -0.5261 -0.6328 -0.2593
 6601SOL    HW131265   3.141   3.907  12.624 -0.0431 -0.4640 -0.6193
 6601SOL    HW231266   3.075   3.795  12.548 -1.2844 -0.5396 -1.2544
 6602SOL     OW31267   2.149   1.541   3.895 -0.2240 -0.1137  0.6246
 6602SOL    HW131268   2.086   1.590   3.843  0.5792 -1.4994 -1.6320
 6602SOL    HW231269   2.202   1.506   3.823  1.8164  1.8924  1.1177
 6603SOL     OW31270   2.891   4.410  15.799  0.5773 -0.0169 -0.2421
 6603SOL    HW131271   2.838   4.372  15.730  0.7833  1.2893 -1.1256
 6603SOL    HW231272   2.860   4.500  15.794  0.9044  0.0109 -1.6943
 6604SOL     OW31273   1.552   4.298   3.587  0.3989 -0.1099 -0.2688
 6604SOL    HW131274   1.538   4.390   3.608  2.3374  0.1533 -0.1571
 6604SOL    HW231275   1.468   4.276   3.546  0.1957  0.3827 -0.1156
 6605SOL     OW31276   2.767   1.688   8.132 -0.2575  0.2075  0.5673
 6605SOL    HW131277   2.713   1.629   8.079  1.6167 -1.8009  0.9077
 6605SOL    HW231278   2.838   1.709   8.072 -1.5435  3.1941  0.1153
 6606SOL     OW31279   0.176   2.643   4.333  0.1758 -0.3664 -0.0671
 6606SOL    HW131280   0.195   2.633   4.240 -2.5814  0.6901 -0.7659
 6606SOL    HW231281   0.081   2.654   4.325  0.0511 -0.6498  1.0359
 6607SOL     OW31282   3.722   1.754   8.201  0.2411  0.3229  0.1901
 6607SOL    HW131283   3.806   1.777   8.241  0.2185  1.2239 -0.2851
 6607SOL    HW231284   3.736   1.660   8.186  0.1473  0.0923  1.5385
 6608SOL     OW31285   2.716   3.176   8.321 -0.5879 -0.7226 -0.5449
 6608SOL    HW131286   2.679   3.088   8.311 -0.8741 -0.4934 -1.5188
 6608SOL    HW231287   2.636   3.223   8.342 -0.4959  0.4724 -2.8571
 6609SOL     OW31288   0.534   2.672  13.770  0.5603 -0.2484  0.4172
 6609SOL    HW131289   0.544   2.747  13.829 -1.5586 -0.8010  1.4790
 6609SOL    HW231290   0.626   2.647  13.763  0.8534  0.4507  1.8890
 6610SOL     OW31291   0.359   4.683   4.147  0.1286 -0.1436  0.0129
 6610SOL    HW131292   0.316   0.028   4.097  0.5702 -0.1645 -0.3961
 6610SOL    HW231293   0.285   4.629   4.176 -0.1327 -0.6148 -1.5397
 6611SOL     OW31294   3.591   2.380   4.789  0.0616  0.6792 -0.1069
 6611SOL    HW131295   3.562   2.333   4.867  0.5972  1.0198  0.3035
 6611SOL    HW231296   3.681   2.408   4.807  0.0892  0.4001  0.1867
 6612SOL     OW31297   3.988   1.988   0.890  0.1354  0.3067  0.5143
 6612SOL    HW131298   3.957   1.907   0.852  0.3689 -0.6056  2.2649
 6612SOL    HW231299   3.901   2.026   0.902  0.2225  1.2449 -1.9006
 6613SOL     OW31300   2.361   2.684   8.357  0.0779 -0.4062  0.0231
 6613SOL    HW131301   2.278   2.672   8.403 -0.0809 -1.2533 -0.5028
 6613SOL    HW231302   2.347   2.767   8.311 -0.6450  0.2016  1.3396
 6614SOL     OW31303   0.553   3.770   7.908 -1.0287 -0.0567 -0.0868
 6614SOL    HW131304   0.543   3.701   7.973  2.0947  0.8640  1.3819
 6614SOL    HW231305   0.556   3.722   7.825  0.0809 -3.1066  1.7434
 6615SOL     OW31306   0.251   4.176   2.995  0.6407 -0.6086  0.3818
 6615SOL    HW131307   0.304   4.096   3.000  1.8599  0.0956 -1.2049
 6615SOL    HW231308   0.225   4.186   2.904  0.5751 -0.3455  0.4310
 6616SOL     OW31309   0.009   0.807   1.422 -0.6329  0.5497 -0.1377
 6616SOL    HW131310   0.065   0.851   1.358 -0.4395 -0.2773 -0.5467
 6616SOL    HW231311   0.005   0.879   1.485  0.4508 -0.3128  0.8944
 6617SOL     OW31312   3.176   3.467   4.099 -0.1205  0.2963  0.9619
 6617SOL    HW131313   3.147   3.472   4.190 -1.3710  0.7384  0.5361
 6617SOL    HW231314   3.105   3.432   4.046  0.3275 -0.8354  1.1081
 6618SOL     OW31315   1.833   3.050   4.170 -0.1719 -0.5288 -0.2369
 6618SOL    HW131316   1.819   2.964   4.210 -0.6194  0.3982  1.6163
 6618SOL    HW231317   1.757   3.093   4.209  0.3743  0.2343 -0.0201
 6619SOL     OW31318   0.782   2.166   2.505 -0.8741 -0.0420 -0.0060
 6619SOL    HW131319   0.793   2.260   2.491 -0.4291 -0.1809 -0.6070
 6619SOL    HW231320   0.771   2.165   2.600 -0.7692  2.3726  0.0252
 6620SOL     OW31321   3.058   4.099   3.260 -0.2597 -0.3633 -0.4911
 6620SOL    HW131322   2.979   4.118   3.311  0.0883 -0.1373 -0.0330
 6620SOL    HW231323   3.062   4.173   3.199 -1.7265  0.6907  0.6739
 6621SOL     OW31324   0.292   4.276   5.629  0.2997 -0.2836  0.7324
 6621SOL    HW131325   0.238   4.353   5.648  0.1300 -0.7544  2.1689
 6621SOL    HW231326   0.336   4.316   5.554 -0.7034  0.5029  0.5616
 6622SOL     OW31327   0.241   4.074   4.626 -0.4867  0.0174 -0.5053
 6622SOL    HW131328   0.333   4.060   4.602  0.0239  1.3483  0.6643
 6622SOL    HW231329   0.236   4.041   4.715 -0.7452 -0.2913 -0.6362
 6623SOL     OW31330   3.906   4.466   1.732  0.2417  0.2322  0.2633
 6623SOL    HW131331   3.852   4.391   1.757  0.2466  0.2025  0.1836
 6623SOL    HW231332   3.922   4.494   1.822  2.2685  0.5759 -0.2005
 6624SOL     OW31333   4.332   1.885  12.508  0.2534  0.2879 -0.5343
 6624SOL    HW131334   4.381   1.932  12.576  1.4978 -1.4383 -0.2477
 6624SOL    HW231335   4.280   1.958  12.473  0.7414  2.0251  2.3133
 6625SOL     OW31336   0.874   0.155   6.533  0.1045  0.2613  0.4387
 6625SOL    HW131337   0.965   0.184   6.542 -0.1104  0.7524  1.0289
 6625SOL    HW231338   0.849   0.124   6.620  0.2481 -0.0290  0.3775
 6626SOL     OW31339   1.859   2.543   5.147 -0.2244  0.0570  0.3183
 6626SOL    HW131340   1.910   2.567   5.224  0.8664 -0.0989 -0.3453
 6626SOL    HW231341   1.871   2.617   5.087 -0.7197 -0.3981 -0.3467
 6627SOL     OW31342   4.036   2.728  10.105  0.2924  1.2169  1.1334
 6627SOL    HW131343   4.030   2.807  10.050 -1.6514  0.2393 -0.0674
 6627SOL    HW231344   3.990   2.659  10.057  1.2003  0.9179  0.6990
 6628SOL     OW31345   3.983   3.533   4.257 -0.7648 -0.1099 -0.2757
 6628SOL    HW131346   4.021   3.616   4.228  0.6336 -1.0490 -1.1855
 6628SOL    HW231347   3.892   3.552   4.237 -0.6865  0.0208 -0.5189
 6629SOL     OW31348   3.717   4.539  10.501 -0.1537  0.1615 -0.5902
 6629SOL    HW131349   3.672   4.458  10.475 -1.0430  0.4402  0.0798
 6629SOL    HW231350   3.642   4.590  10.472 -0.3734 -0.4549 -1.0968
 6630SOL     OW31351   1.009   3.416   4.324  0.1311 -0.3441 -0.1303
 6630SOL    HW131352   1.033   3.450   4.410  0.6652  1.4080 -0.9799
 6630SOL    HW231353   1.032   3.487   4.264 -1.4131  1.3517  1.3174
 6631SOL     OW31354   4.345   1.576   7.826  0.4516  0.5160  0.2943
 6631SOL    HW131355   4.326   1.670   7.828  2.2103  0.7974  3.8407
 6631SOL    HW231356   4.425   1.581   7.773 -0.2295 -0.2678 -0.8092
 6632SOL     OW31357   3.447   3.710   5.894  0.5710  0.2204  0.0884
 6632SOL    HW131358   3.390   3.650   5.941  0.8657  0.8924  1.3151
 6632SOL    HW231359   3.440   3.689   5.801  1.3491 -0.4829  0.1823
 6633SOL     OW31360   4.472   3.275  15.897 -0.5296  0.1036  0.1387
 6633SOL    HW131361   4.415   3.351  15.890 -2.2872 -1.2912 -0.6437
 6633SOL    HW231362   4.550   3.302  15.946 -0.2611  1.2389 -0.9363
 6634SOL     OW31363   2.805   0.113   9.063  0.0049  0.3611  0.3311
 6634SOL    HW131364   2.717   0.128   9.030 -0.3387  1.1885  1.6331
 6634SOL    HW231365   2.829   0.195   9.107  0.4184  0.5731 -0.2977
 6635SOL     OW31366   2.273   1.841  13.257 -0.0683  0.3286 -0.5292
 6635SOL    HW131367   2.308   1.919  13.213  2.3609  0.2119  1.1504
 6635SOL    HW231368   2.200   1.883  13.302 -0.2510 -0.7392  0.1885
 6636SOL     OW31369   3.361   0.018   4.644 -0.0529 -0.5225 -0.1403
 6636SOL    HW131370   3.391   4.692   4.568 -1.4337  0.2998 -1.2253
 6636SOL    HW231371   3.291   0.071   4.607 -0.9091 -1.1560  0.5983
 6637SOL     OW31372   0.632   1.926   8.746 -0.5801  0.6966 -0.1541
 6637SOL    HW131373   0.548   1.883   8.762  0.1260 -0.2889  0.8900
 6637SOL    HW231374   0.645   1.985   8.820 -0.4651 -0.1855  0.5347
 6638SOL     OW31375   0.211   4.355   4.172 -0.0060  0.3731  0.1066
 6638SOL    HW131376   0.206   4.318   4.259 -0.1476 -1.9047 -0.8748
 6638SOL    HW231377   0.117   4.372   4.157 -0.4317 -1.2311  0.9981
 6639SOL     OW31378   3.907   3.007  13.674 -0.8078  0.2059 -0.2012
 6639SOL    HW131379   3.865   3.005  13.760 -2.3437 -2.3451 -1.0172
 6639SOL    HW231380   3.982   3.064  13.690 -0.6530  0.1936 -0.8757
 6640SOL     OW31381   0.424   3.419   8.505  0.5765 -0.0834  0.4118
 6640SOL    HW131382   0.348   3.464   8.468 -0.3523 -0.9028  1.2856
 6640SOL    HW231383   0.431   3.468   8.587  0.5424 -1.2545  1.1115
 6641SOL     OW31384   2.752   3.701  13.942 -0.1353  0.5819 -0.1054
 6641SOL    HW131385   2.835   3.657  13.925 -1.0243 -1.4985  1.0409
 6641SOL    HW231386   2.688   3.629  13.941  0.6692 -0.1268  0.2863
 6642SOL     OW31387   0.941   0.311   8.548  0.0959  0.6039 -0.0217
 6642SOL    HW131388   0.938   0.239   8.611  2.6927  0.3138 -0.2639
 6642SOL    HW231389   1.034   0.328   8.538 -0.0196 -0.0684 -2.0662
 6643SOL     OW31390   2.781   1.587   4.871 -0.3084  0.2241  0.4710
 6643SOL    HW131391   2.834   1.578   4.949  1.1205  0.3450 -0.4884
 6643SOL    HW231392   2.833   1.562   4.795 -0.8929 -2.3214  0.9196
 6644SOL     OW31393   4.469   3.895  13.703 -0.4166  0.0589  0.6198
 6644SOL    HW131394   4.382   3.904  13.742 -0.4656 -2.5328  1.0931
 6644SOL    HW231395   4.466   3.953  13.627 -1.7073 -1.3791 -0.3991
 6645SOL     OW31396   0.809   1.714   8.695 -0.0191 -0.1942  0.6297
 6645SOL    HW131397   0.778   1.776   8.761 -1.0567 -0.1594  0.1029
 6645SOL    HW231398   0.732   1.684   8.646 -0.4269 -0.4367  1.4145
 6646SOL     OW31399   0.375   1.314   7.119  0.3590  0.2355 -0.7096
 6646SOL    HW131400   0.291   1.302   7.075  0.6303 -3.2466 -0.2935
 6646SOL    HW231401   0.438   1.298   7.049 -0.3652  0.2847 -1.3707
 6647SOL     OW31402   3.145   2.674   1.508  0.5838 -0.6114  0.2174
 6647SOL    HW131403   3.210   2.606   1.496  1.1343 -0.7427  3.8875
 6647SOL    HW231404   3.149   2.685   1.603  1.3415 -1.4506  0.2810
 6648SOL     OW31405   0.712   0.590   7.766 -0.3621 -0.5587 -0.0048
 6648SOL    HW131406   0.618   0.606   7.757  0.0203  0.0206 -2.7359
 6648SOL    HW231407   0.723   0.542   7.848 -0.0881  0.4676  0.5633
 6649SOL     OW31408   2.493   3.404   1.896  0.4628  0.1475 -0.1809
 6649SOL    HW131409   2.412   3.377   1.940  1.1766  0.6244  1.4208
 6649SOL    HW231410   2.460   3.456   1.823 -1.1960  0.9032  1.1164
 6650SOL     OW31411   3.177   2.617  12.228 -0.2826  0.6085 -0.4750
 6650SOL    HW131412   3.258   2.567  12.230  1.8367  4.0592  1.5032
 6650SOL    HW231413   3.119   2.563  12.175  3.4146 -0.5678 -3.2886
 6651SOL     OW31414   4.625   1.295  14.119  0.1416 -0.5364  0.3249
 6651SOL    HW131415   4.650   1.320  14.030  0.5660  0.8107  0.8365
 6651SOL    HW231416   4.538   1.331  14.134  0.7486  0.9789  0.1628
 6652SOL     OW31417   2.134   1.022   4.969 -0.4387  0.0375 -0.0288
 6652SOL    HW131418   2.210   0.983   4.927  2.2082  3.7659  1.2977
 6652SOL    HW231419   2.137   1.102   4.917 -0.0175 -0.0761 -0.1789
 6653SOL     OW31420   1.149   0.663   4.557 -0.3299  0.3423 -0.6290
 6653SOL    HW131421   1.083   0.594   4.550 -0.0917  0.1274 -0.7477
 6653SOL    HW231422   1.105   0.741   4.591  0.7924  1.3168 -1.4500
 6654SOL     OW31423   2.871   2.513   6.804  0.2753  0.1294 -0.2270
 6654SOL    HW131424   2.915   2.531   6.887  0.1447  0.2562 -0.1863
 6654SOL    HW231425   2.955   2.490   6.764  1.1349 -0.9094  2.1554
 6655SOL     OW31426   1.876   2.932   0.739  0.0225  0.7878  0.2585
 6655SOL    HW131427   1.917   3.011   0.772 -1.4503  0.8623  1.9293
 6655SOL    HW231428   1.893   2.942   0.646  1.6198  0.9611  0.5793
 6656SOL     OW31429   2.261   1.327   2.111  0.3515 -0.1019  0.3450
 6656SOL    HW131430   2.192   1.354   2.050 -0.2859 -0.0365  1.0935
 6656SOL    HW231431   2.345   1.360   2.079  0.1289 -0.1564 -0.3082
 6657SOL     OW31432   3.959   2.999   7.012 -0.4190  0.1229 -0.5198
 6657SOL    HW131433   4.039   2.947   7.014 -0.9879 -0.6575  1.6803
 6657SOL    HW231434   3.995   3.088   7.016  2.8330 -1.1821 -0.9684
 6658SOL     OW31435   1.528   2.866  12.595  0.1835  0.0929 -0.2797
 6658SOL    HW131436   1.507   2.893  12.506 -1.7542  0.6420  0.3451
 6658SOL    HW231437   1.477   2.785  12.603  0.0840  0.0799 -1.1269
 6659SOL     OW31438   3.725   3.459   3.489  0.3019  0.3432 -0.4254
 6659SOL    HW131439   3.767   3.500   3.565  3.3898 -1.5350 -1.1396
 6659SOL    HW231440   3.766   3.372   3.486 -1.0801 -0.4028  1.9617
 6660SOL     OW31441   1.452   1.767   6.888 -0.3340 -0.6786  0.0257
 6660SOL    HW131442   1.527   1.737   6.836 -1.8145 -1.0846 -1.8432
 6660SOL    HW231443   1.414   1.686   6.921  0.8583 -1.2061  0.1294
 6661SOL     OW31444   4.021   2.124  13.389  0.1703 -0.3474  0.0288
 6661SOL    HW131445   3.999   2.202  13.441  0.9250  0.5779 -1.0465
 6661SOL    HW231446   3.934   2.097  13.359 -0.7948  0.8320  1.7546
 6662SOL     OW31447   2.570   4.678   4.492 -1.4477 -0.2653 -0.4201
 6662SOL    HW131448   2.530   4.717   4.415 -0.4745 -0.0947 -0.8396
 6662SOL    HW231449   2.515   4.714   4.562 -0.0011  0.2928  0.4361
 6663SOL     OW31450   4.144   0.920  13.906 -0.4079  0.1847  1.0697
 6663SOL    HW131451   4.055   0.886  13.897  0.6542 -1.9996 -1.1676
 6663SOL    HW231452   4.136   1.015  13.906  2.2129  0.4049  3.0941
 6664SOL     OW31453   2.861   0.912   2.824 -0.2632  0.5145 -0.2531
 6664SOL    HW131454   2.910   0.851   2.880  0.8076  0.4865 -1.2127
 6664SOL    HW231455   2.825   0.971   2.890 -2.0232 -0.1313 -0.6375
 6665SOL     OW31456   2.883   0.472   6.195 -0.2627  0.3214  0.0958
 6665SOL    HW131457   2.897   0.377   6.195 -0.6529  0.2631  0.1534
 6665SOL    HW231458   2.843   0.491   6.280  0.2285  2.0470 -0.0623
 6666SOL     OW31459   0.074   3.055   5.501  0.1774  0.1106 -0.1375
 6666SOL    HW131460   0.122   3.055   5.418 -0.6751  0.7453 -0.6334
 6666SOL    HW231461   0.128   2.992   5.550 -2.4135  0.8628  3.7106
 6667SOL     OW31462   4.548   1.389   3.023  0.2558  0.0392  0.2837
 6667SOL    HW131463   4.467   1.383   2.972  1.5987  1.9570 -2.0713
 6667SOL    HW231464   4.540   1.475   3.063 -0.9710 -0.6241  1.4781
 6668SOL     OW31465   3.305   3.091   5.877  0.1337  0.2849 -0.3327
 6668SOL    HW131466   3.265   3.013   5.836 -1.4985  0.6533  0.5279
 6668SOL    HW231467   3.243   3.158   5.849 -0.8585 -0.6498 -0.4309
 6669SOL     OW31468   4.159   4.284   6.210  0.4105 -0.8078  0.2174
 6669SOL    HW131469   4.220   4.357   6.202  1.7341 -1.7279  1.7836
 6669SOL    HW231470   4.165   4.246   6.122 -0.6437 -0.1951 -0.1173
 6670SOL     OW31471   3.174   1.243  11.046  0.1196  0.1722 -0.1498
 6670SOL    HW131472   3.084   1.248  11.077 -0.4126  0.2713 -1.7443
 6670SOL    HW231473   3.205   1.160  11.082 -2.0601 -2.0967 -3.4795
 6671SOL     OW31474   3.968   1.580   4.837 -0.3859 -0.0107  0.8552
 6671SOL    HW131475   4.056   1.548   4.820 -1.6423 -2.7302 -0.6143
 6671SOL    HW231476   3.928   1.515   4.778 -1.8828  1.4577  0.2582
 6672SOL     OW31477   2.410   1.271   0.285 -1.1536 -0.7152  0.4488
 6672SOL    HW131478   2.315   1.266   0.275 -0.8832 -0.5784 -2.2580
 6672SOL    HW231479   2.413   1.362   0.314  0.4073 -0.3266 -0.9159
 6673SOL     OW31480   0.998   0.319   6.003 -0.0093  0.2574 -0.2216
 6673SOL    HW131481   0.992   0.224   6.014  2.3492  0.1287 -0.0137
 6673SOL    HW231482   0.961   0.340   6.089  0.7246  1.1078 -0.1132
 6674SOL     OW31483   4.524   1.684   5.677  0.2499  0.4889 -0.5155
 6674SOL    HW131484   4.606   1.687   5.629 -0.1314  2.5389 -1.0476
 6674SOL    HW231485   4.551   1.705   5.766 -2.0777  2.4586 -0.2775
 6675SOL     OW31486   1.406   4.713   3.655  0.2808  0.3544  0.2366
 6675SOL    HW131487   1.500   0.009   3.660  0.4013 -0.5083  1.4551
 6675SOL    HW231488   1.370   0.068   3.694 -0.1934  0.2706 -0.0301
 6676SOL     OW31489   4.279   1.813  11.545 -0.1244  0.7091  0.0700
 6676SOL    HW131490   4.368   1.779  11.554  0.3001  2.0144  0.7947
 6676SOL    HW231491   4.287   1.890  11.488 -0.7654 -1.8494 -3.4545
 6677SOL     OW31492   0.751   1.393   0.591 -1.0166  0.3160 -0.6411
 6677SOL    HW131493   0.793   1.477   0.570  2.7956 -1.2431  0.7886
 6677SOL    HW231494   0.659   1.417   0.601 -0.5584  0.3673  3.4185
 6678SOL     OW31495   2.826   2.826  13.274  0.0687 -0.3033  0.7072
 6678SOL    HW131496   2.863   2.738  13.265 -0.5923 -0.3756 -1.2510
 6678SOL    HW231497   2.825   2.833  13.370 -2.8984 -2.9762  0.8965
 6679SOL     OW31498   3.681   3.929   6.383 -0.7257  0.5646 -0.1493
 6679SOL    HW131499   3.683   3.972   6.298  3.3613 -0.5613 -0.6394
 6679SOL    HW231500   3.752   3.970   6.433 -0.4219 -0.0650 -0.0580
 6680SOL     OW31501   2.196   3.343  13.948  0.0867 -0.1702  0.3217
 6680SOL    HW131502   2.129   3.314  13.886 -1.1673  1.6305  0.8289
 6680SOL    HW231503   2.137   3.372  14.017 -1.9136 -1.2916 -0.9129
 6681SOL     OW31504   2.183   4.201   2.889 -0.5399 -0.3027  0.0542
 6681SOL    HW131505   2.148   4.150   2.962  1.8609 -1.6648  0.2555
 6681SOL    HW231506   2.102   4.251   2.874 -0.0859  0.8245  1.3357
 6682SOL     OW31507   2.408   3.200  16.496 -0.6388  0.0191  0.7130
 6682SOL    HW131508   2.404   3.290  16.462  2.7017  0.0655  0.4524
 6682SOL    HW231509   2.492   3.178  16.456 -0.5041  1.7355  0.0755
 6683SOL     OW31510   1.059   2.920   7.608 -0.3671  0.2602 -0.9604
 6683SOL    HW131511   1.096   2.980   7.543  0.5460 -1.4063 -1.9864
 6683SOL    HW231512   0.986   2.972   7.642 -0.4062 -1.1214  1.0296
 6684SOL     OW31513   2.789   3.557  12.521 -0.1929 -0.5578 -0.3232
 6684SOL    HW131514   2.802   3.488  12.586 -1.4392  0.5254  1.0567
 6684SOL    HW231515   2.866   3.539  12.467 -0.3400  1.2430 -1.1141
 6685SOL     OW31516   2.846   4.669   8.012 -0.1017  0.2696  0.0159
 6685SOL    HW131517   2.781   4.699   8.076  0.2898 -1.3531  1.1535
 6685SOL    HW231518   2.820   4.578   7.999  1.1141 -0.1582  0.6432
 6686SOL     OW31519   1.376   1.100   5.989 -0.0888  0.6626 -0.6122
 6686SOL    HW131520   1.289   1.133   6.011 -0.3370 -1.0798  1.0148
 6686SOL    HW231521   1.371   1.015   5.944  0.0876 -0.3254  1.2221
 6687SOL     OW31522   1.689   3.186  15.771 -0.7253 -0.0798  0.2640
 6687SOL    HW131523   1.781   3.189  15.798 -0.8390  1.1332  0.5535
 6687SOL    HW231524   1.654   3.275  15.758 -1.4512 -0.4374 -0.1884
 6688SOL     OW31525   2.052   0.772  17.552 -0.3877  0.1239  0.1983
 6688SOL    HW131526   2.033   0.851  17.502  0.1720  0.5549  0.6700
 6688SOL    HW231527   2.082   0.814  17.633  0.5361 -0.4117  0.1272
 6689SOL     OW31528   1.538   1.050   1.465  0.1071  0.1502 -0.2037
 6689SOL    HW131529   1.566   0.968   1.506  0.3429  1.4910  2.3233
 6689SOL    HW231530   1.447   1.033   1.441  0.3786  0.6479 -1.6094
 6690SOL     OW31531   4.159   3.499   2.767 -0.1542 -0.2011  0.6463
 6690SOL    HW131532   4.093   3.539   2.823  1.4435  0.1186  2.3093
 6690SOL    HW231533   4.223   3.571   2.765  0.7773 -1.0023  1.7720
 6691SOL     OW31534   2.775   2.383  13.846 -1.0931 -0.2661 -0.0709
 6691SOL    HW131535   2.840   2.356  13.912 -2.0439  0.1023  1.0262
 6691SOL    HW231536   2.701   2.416  13.897  1.7581  0.6217  3.6084
 6692SOL     OW31537   2.530   2.422   6.556 -0.1406  0.2259 -0.3076
 6692SOL    HW131538   2.578   2.340   6.570 -0.9783 -0.6173 -2.4132
 6692SOL    HW231539   2.476   2.378   6.490  0.1157 -0.1646 -0.2597
 6693SOL     OW31540   3.220   0.508   3.392 -0.7204  0.3255  0.1237
 6693SOL    HW131541   3.255   0.437   3.338 -0.7777  0.2525  0.1808
 6693SOL    HW231542   3.128   0.480   3.389 -0.7005  0.2942 -0.2816
 6694SOL     OW31543   1.604   0.701  11.804 -0.0992  0.0847 -0.2629
 6694SOL    HW131544   1.660   0.643  11.856  0.4676  0.4144 -0.5014
 6694SOL    HW231545   1.588   0.653  11.723  0.5043 -2.3247  1.0626
 6695SOL     OW31546   2.625   0.016   6.299 -0.1475 -0.4340  0.9660
 6695SOL    HW131547   2.651   4.653   6.330 -0.6515 -1.1689 -0.6799
 6695SOL    HW231548   2.537   4.719   6.267  0.5630 -1.9851  0.0095
 6696SOL     OW31549   2.509   2.365   3.499  1.1915 -0.1095 -0.8157
 6696SOL    HW131550   2.523   2.353   3.593 -0.1510 -0.6797 -0.6835
 6696SOL    HW231551   2.527   2.458   3.483 -0.3720 -0.3365 -3.8339
 6697SOL     OW31552   2.020   3.146   4.544  0.2655  0.0809 -0.1117
 6697SOL    HW131553   1.981   3.188   4.620  3.8258  1.4999  0.9120
 6697SOL    HW231554   2.093   3.106   4.591 -1.2134  0.2093  2.2594
 6698SOL     OW31555   3.206   1.983   6.267 -0.2518 -0.2245 -0.0826
 6698SOL    HW131556   3.172   2.025   6.188 -0.5492  1.3406  0.8655
 6698SOL    HW231557   3.211   1.891   6.242 -0.1695 -0.0954 -0.5529
 6699SOL     OW31558   1.182   3.488   5.088 -0.4438 -0.3536  0.1707
 6699SOL    HW131559   1.177   3.531   5.003 -0.4318  0.8871  0.8018
 6699SOL    HW231560   1.276   3.472   5.093 -0.1053  2.3834  2.4729
 6700SOL     OW31561   3.697   2.616   5.610 -0.1069  0.2331 -0.1774
 6700SOL    HW131562   3.685   2.540   5.667  3.8621  0.7049  1.3012
 6700SOL    HW231563   3.748   2.664   5.676 -0.4424 -0.7952  0.8330
 6701SOL     OW31564   2.532   0.692   6.301  0.1346 -0.6651  0.1478
 6701SOL    HW131565   2.580   0.709   6.220 -2.2361  1.3192 -0.8210
 6701SOL    HW231566   2.471   0.766   6.296  0.3047 -0.5679 -0.5057
 6702SOL     OW31567   1.575   0.602  10.643  0.4911  0.3811 -0.1963
 6702SOL    HW131568   1.552   0.690  10.672 -1.4172  0.2032 -1.1936
 6702SOL    HW231569   1.521   0.605  10.564 -3.3239 -2.9528  2.2809
 6703SOL     OW31570   2.423   2.326  16.678 -0.5605 -0.4581 -0.5408
 6703SOL    HW131571   2.450   2.263  16.611  0.6021 -0.4909 -0.0390
 6703SOL    HW231572   2.506   2.370  16.697 -1.1522  1.1413 -1.6253
 6704SOL     OW31573   3.271   0.053   6.876  0.1369 -0.5029 -0.1059
 6704SOL    HW131574   3.215   0.038   6.953 -0.4178  0.8439 -0.2524
 6704SOL    HW231575   3.224   0.007   6.806  1.9697  1.7322 -2.7931
 6705SOL     OW31576   1.420   2.952  16.601  0.3429 -0.4011  0.1645
 6705SOL    HW131577   1.398   2.868  16.559  0.7914 -0.4107 -0.0497
 6705SOL    HW231578   1.469   2.926  16.678  0.3718 -0.4423  0.1323
 6706SOL     OW31579   1.788   2.021  10.588  0.3432 -0.4560 -0.6033
 6706SOL    HW131580   1.854   2.060  10.531  2.0956 -2.8855 -0.2479
 6706SOL    HW231581   1.807   2.071  10.667  0.1860  1.5153 -1.8290
 6707SOL     OW31582   4.055   3.026   9.104 -0.0192 -0.1432 -0.2566
 6707SOL    HW131583   4.061   2.933   9.083  2.7123  0.0504 -0.2231
 6707SOL    HW231584   4.005   3.053   9.027 -0.4231  1.1172  0.4516
 6708SOL     OW31585   1.283   3.482   8.063  0.2459  0.9200  0.6586
 6708SOL    HW131586   1.239   3.566   8.077 -1.1544  0.4437 -1.0228
 6708SOL    HW231587   1.206   3.426   8.062  1.3294 -0.5870  1.6990
 6709SOL     OW31588   2.208   3.623  13.942 -0.2786 -0.0956  0.0035
 6709SOL    HW131589   2.148   3.601  13.871  0.0345 -3.0806  0.6433
 6709SOL    HW231590   2.247   3.537  13.957 -0.3361 -0.4645 -2.0265
 6710SOL     OW31591   0.872   3.571   2.293 -0.2111 -0.2654  0.1586
 6710SOL    HW131592   0.848   3.611   2.376 -1.1995  0.6030 -0.5466
 6710SOL    HW231593   0.950   3.518   2.310 -0.2037 -1.0972 -2.4382
 6711SOL     OW31594   3.199   3.886  14.643  0.0472  0.2018 -0.2580
 6711SOL    HW131595   3.178   3.978  14.659 -0.7483 -0.0396  0.0559
 6711SOL    HW231596   3.212   3.879  14.548  0.1839 -1.0113 -0.1451
 6712SOL     OW31597   1.451   2.329   3.387  0.2640  0.0939 -0.2491
 6712SOL    HW131598   1.455   2.235   3.373  0.0478 -0.1426  1.2686
 6712SOL    HW231599   1.433   2.357   3.297 -0.2374 -0.3437 -0.2832
 6713SOL     OW31600   0.445   0.033   1.097 -0.3069  0.2244  0.4234
 6713SOL    HW131601   0.400   4.679   1.066  0.6634 -0.0538 -0.2913
 6713SOL    HW231602   0.516   0.032   1.033 -1.3762 -2.8667 -0.7073
 6714SOL     OW31603   3.223   3.867   1.555  0.0613 -0.1198  0.7625
 6714SOL    HW131604   3.221   3.959   1.581 -2.0634 -0.4194  1.6746
 6714SOL    HW231605   3.136   3.848   1.590  0.4466 -1.9109  0.7829
 6715SOL     OW31606   3.225   0.633   6.341  0.0529  0.0807 -0.2033
 6715SOL    HW131607   3.266   0.720   6.335  3.0435 -1.3649 -0.2302
 6715SOL    HW231608   3.163   0.650   6.413 -0.2186  0.3227 -0.4948
 6716SOL     OW31609   3.384   1.754  15.220 -0.1919  0.1763  0.4770
 6716SOL    HW131610   3.347   1.738  15.133 -1.4107  0.4944  0.9369
 6716SOL    HW231611   3.473   1.772  15.191 -0.9476  2.5458 -0.4252
 6717SOL     OW31612   1.169   2.856  17.218 -0.1250 -0.1403 -0.1863
 6717SOL    HW131613   1.144   2.819  17.302 -1.0462 -1.3226 -0.9864
 6717SOL    HW231614   1.127   2.941  17.229  0.7542  0.5750 -2.2859
 6718SOL     OW31615   1.005   1.975   2.875  0.3633  0.2628 -0.1455
 6718SOL    HW131616   1.061   2.036   2.827  0.0768 -1.9522 -3.3247
 6718SOL    HW231617   0.993   1.912   2.803  0.4682  0.7843 -0.6172
 6719SOL     OW31618   1.297   0.507   0.675 -0.2073 -0.5780  0.8610
 6719SOL    HW131619   1.339   0.588   0.646 -1.2278 -0.1701  0.4975
 6719SOL    HW231620   1.370   0.453   0.704 -0.0353 -0.2069  1.1151
 6720SOL     OW31621   1.117   1.042   5.174 -0.3630  0.2184  0.0983
 6720SOL    HW131622   1.071   1.123   5.154  1.1745  1.3402  1.0835
 6720SOL    HW231623   1.185   1.076   5.232 -0.8114  0.5528  0.4341
 6721SOL     OW31624   2.358   2.547   6.753  0.3646  0.2660  0.1607
 6721SOL    HW131625   2.397   2.497   6.681 -1.6057 -1.7219  0.4576
 6721SOL    HW231626   2.437   2.574   6.800 -0.9807  1.3636  1.7700
 6722SOL     OW31627   4.722   4.111   9.374  0.1384 -0.3044  0.4422
 6722SOL    HW131628   4.703   4.043   9.310 -0.9135  1.7291 -1.4235
 6722SOL    HW231629   0.048   4.066   9.442 -2.6501 -1.1176  1.9474
 6723SOL     OW31630   3.463   2.107  11.397 -0.1334 -0.0037  0.1222
 6723SOL    HW131631   3.517   2.057  11.336  0.7196  0.8194  0.2040
 6723SOL    HW231632   3.497   2.195  11.382  0.1861 -0.0037  0.8546
 6724SOL     OW31633   1.624   4.389   7.770 -0.0016  0.4599 -0.6087
 6724SOL    HW131634   1.681   4.459   7.738 -0.9259  0.9001 -1.3055
 6724SOL    HW231635   1.588   4.428   7.850  1.6536  1.7163 -0.4612
 6725SOL     OW31636   0.694   3.030   3.858 -0.0319 -0.4098 -0.6509
 6725SOL    HW131637   0.702   3.002   3.949  0.3006  0.5060 -0.3955
 6725SOL    HW231638   0.785   3.052   3.839 -0.5620  1.5917 -0.8280
 6726SOL     OW31639   4.142   3.165   3.119 -0.4560  0.8121  0.1983
 6726SOL    HW131640   4.166   3.205   3.036 -0.5422 -1.5494 -0.9546
 6726SOL    HW231641   4.162   3.228   3.189 -2.3777  0.1326  1.3413
 6727SOL     OW31642   1.367   0.100   9.880 -0.3386 -0.1197  0.2746
 6727SOL    HW131643   1.438   0.037   9.874 -2.4423 -2.4293 -0.5192
 6727SOL    HW231644   1.358   0.096   9.975  2.1092 -0.1940  0.4969
 6728SOL     OW31645   3.886   0.916   7.748 -0.1139 -0.4952  0.1123
 6728SOL    HW131646   3.884   1.001   7.790  1.1352  1.1444 -3.1593
 6728SOL    HW231647   3.956   0.881   7.802  1.7279  1.7422 -0.8266
 6729SOL     OW31648   2.477   2.072   2.620  0.5600  0.2565  0.1095
 6729SOL    HW131649   2.415   2.025   2.564  0.2506 -0.0168  0.6856
 6729SOL    HW231650   2.442   2.039   2.702  1.3052  2.3006  1.2389
 6730SOL     OW31651   2.715   1.230   3.665  0.1730  0.2112 -0.4465
 6730SOL    HW131652   2.785   1.294   3.665  2.0549 -1.8412  0.0294
 6730SOL    HW231653   2.770   1.152   3.657 -1.3862 -0.5145 -4.0059
 6731SOL     OW31654   2.206   3.231   8.919 -0.6621 -0.3223 -0.1378
 6731SOL    HW131655   2.191   3.325   8.932 -0.4892 -0.3131 -0.0080
 6731SOL    HW231656   2.290   3.233   8.874  0.3721 -2.2168  1.7623
 6732SOL     OW31657   2.724   4.648  12.437 -0.1362  0.1340  0.0599
 6732SOL    HW131658   2.744   4.660  12.530  0.0444  2.7155 -0.3247
 6732SOL    HW231659   2.644   4.595  12.437 -0.0445 -0.0144  2.6106
 6733SOL     OW31660   1.593   3.897   8.936  0.2870 -0.7238 -0.5966
 6733SOL    HW131661   1.523   3.844   8.975  0.1893  1.1973  1.8428
 6733SOL    HW231662   1.672   3.845   8.948  0.1279 -0.3985  1.8613
 6734SOL     OW31663   0.083   2.461   8.279  0.2100 -0.1549 -0.0192
 6734SOL    HW131664   0.008   2.433   8.331 -0.4112  1.9016  0.2054
 6734SOL    HW231665   0.067   2.409   8.201 -1.2993 -1.3554  1.0926
 6735SOL     OW31666   2.448   0.646   9.319 -0.4718  0.2400  0.0670
 6735SOL    HW131667   2.380   0.591   9.278 -0.1412 -0.5175  0.5263
 6735SOL    HW231668   2.481   0.586   9.386 -0.8433  0.5013  0.4771
 6736SOL     OW31669   2.165   4.200   8.100 -0.2372  0.0133 -0.2718
 6736SOL    HW131670   2.182   4.250   8.179 -1.1336 -2.0003  1.1903
 6736SOL    HW231671   2.192   4.264   8.034 -0.6009  0.0758 -0.3606
 6737SOL     OW31672   4.529   3.199   2.581 -0.2684 -0.1810 -0.5075
 6737SOL    HW131673   4.616   3.220   2.548 -0.7026  1.7332 -0.4160
 6737SOL    HW231674   4.498   3.279   2.624 -0.4330 -1.6315  2.0903
 6738SOL     OW31675   0.799   0.505  17.669  0.1979  0.1797 -0.3220
 6738SOL    HW131676   0.738   0.578  17.662  1.3418  1.1864  0.2102
 6738SOL    HW231677   0.822   0.515   0.063 -1.0969  0.4381 -0.0229
 6739SOL     OW31678   3.154   4.460  15.691  0.4215 -0.4332 -0.3585
 6739SOL    HW131679   3.069   4.441  15.731  0.4228 -0.3758 -0.3279
 6739SOL    HW231680   3.129   4.508  15.612 -1.7631 -1.4651 -0.2850
 6740SOL     OW31681   1.525   1.628  13.119 -0.3395  0.4064  0.3501
 6740SOL    HW131682   1.484   1.710  13.091  0.5106  0.6831 -0.0840
 6740SOL    HW231683   1.479   1.593  13.196  1.1003  1.6793  1.7840
 6741SOL     OW31684   1.478   1.737   6.390 -0.3830 -0.2048  0.3483
 6741SOL    HW131685   1.544   1.803   6.411  0.1656 -1.0163  1.1942
 6741SOL    HW231686   1.401   1.790   6.410  0.9821  1.0888  2.2428
 6742SOL     OW31687   1.694   3.161  13.316 -0.0133 -0.1659  0.3515
 6742SOL    HW131688   1.764   3.162  13.381 -1.7269  1.6004  2.1313
 6742SOL    HW231689   1.729   3.095  13.256 -1.2699 -1.7331  1.3723
 6743SOL     OW31690   0.740   3.825   4.931  0.1100  0.2640 -0.2319
 6743SOL    HW131691   0.820   3.837   4.879  0.3265 -0.2170 -0.0074
 6743SOL    HW231692   0.777   3.852   5.015 -0.2636 -0.4107  0.1473
 6744SOL     OW31693   3.183   2.720  17.687  0.5645 -0.0074 -0.5159
 6744SOL    HW131694   3.165   2.805   0.030 -0.4808 -0.6896  0.4213
 6744SOL    HW231695   3.113   2.717  17.622  0.8011 -0.5956 -0.7415
 6745SOL     OW31696   0.352   2.187  15.131  0.3571  0.5886 -0.1171
 6745SOL    HW131697   0.330   2.096  15.109  0.8305  0.9851 -2.3211
 6745SOL    HW231698   0.371   2.183  15.224  1.0699 -4.1613 -0.4768
 6746SOL     OW31699   2.539   3.271   9.222 -0.2417  0.2352 -0.2619
 6746SOL    HW131700   2.468   3.332   9.242  0.2036  1.0306 -1.0725
 6746SOL    HW231701   2.493   3.188   9.230  0.8110 -0.2936  0.3817
 6747SOL     OW31702   2.093   3.782   0.430 -0.2459 -0.0367 -0.5530
 6747SOL    HW131703   2.127   3.867   0.456  0.3494  0.3332 -2.5432
 6747SOL    HW231704   2.009   3.777   0.475  0.4305 -3.4332  0.3641
 6748SOL     OW31705   1.802   0.144   2.195  0.0809  0.2239  0.2388
 6748SOL    HW131706   1.794   0.220   2.138  0.1134 -0.9206 -1.2756
 6748SOL    HW231707   1.709   0.119   2.202  0.1592  0.1897  1.1459
 6749SOL     OW31708   2.242   3.789   1.780  0.2822 -0.4756 -0.2001
 6749SOL    HW131709   2.273   3.873   1.812 -0.8860  0.7881 -2.3597
 6749SOL    HW231710   2.229   3.746   1.864 -1.5478 -1.3571 -0.9176
 6750SOL     OW31711   3.210   3.638   2.759 -0.6168  0.1386 -0.3154
 6750SOL    HW131712   3.242   3.637   2.669  1.8189 -0.1286  0.5756
 6750SOL    HW231713   3.216   3.730   2.784 -2.1120 -0.0195  0.6557
 6751SOL     OW31714   2.509   1.682   5.470  0.4976  0.0242  0.4368
 6751SOL    HW131715   2.452   1.753   5.442  0.2734 -0.3547 -0.0657
 6751SOL    HW231716   2.446   1.610   5.475  1.7305 -0.9633  1.8660
 6752SOL     OW31717   2.637   1.116   7.678 -0.4975  0.2339  0.2393
 6752SOL    HW131718   2.556   1.066   7.668 -0.0917 -0.3680  0.0310
 6752SOL    HW231719   2.608   1.204   7.705  1.9999  2.1341 -3.3390
 6753SOL     OW31720   0.976   3.256  11.833  0.2481  0.5146  0.4718
 6753SOL    HW131721   0.933   3.331  11.875  0.9929  0.9986  0.3657
 6753SOL    HW231722   1.066   3.282  11.852  0.1536 -0.5723  2.4575
 6754SOL     OW31723   3.147   2.669   3.166 -0.9447  0.2602  0.1406
 6754SOL    HW131724   3.148   2.711   3.251 -0.5624  0.8525 -0.1620
 6754SOL    HW231725   3.240   2.654   3.148 -1.2579  1.7948 -2.8844
 6755SOL     OW31726   0.813   2.534   5.739 -0.2636 -0.7786 -0.2089
 6755SOL    HW131727   0.846   2.468   5.800  1.3161  1.1892  1.0892
 6755SOL    HW231728   0.874   2.527   5.666  0.1863  0.5821  0.0310
 6756SOL     OW31729   1.804   0.217   8.990  0.0944  0.0704  0.3235
 6756SOL    HW131730   1.729   0.158   8.982 -0.0080  0.0917  1.1184
 6756SOL    HW231731   1.824   0.232   8.897 -1.5944 -0.0147 -0.0582
 6757SOL     OW31732   2.623   1.314  11.928 -0.1410 -0.3917  0.0335
 6757SOL    HW131733   2.599   1.242  11.870 -0.7639  1.2485 -1.7659
 6757SOL    HW231734   2.627   1.275  12.015 -2.5427  0.4472  0.5224
 6758SOL     OW31735   3.124   3.250   4.410 -0.4684 -0.3827 -0.2959
 6758SOL    HW131736   3.064   3.321   4.388 -0.0620 -0.1668 -0.7104
 6758SOL    HW231737   3.083   3.218   4.490  1.8874 -0.7069  0.8034
 6759SOL     OW31738   3.923   2.398  13.531 -0.3281  0.7164 -0.4570
 6759SOL    HW131739   4.011   2.430  13.514  0.3392  0.1143  1.8366
 6759SOL    HW231740   3.877   2.472  13.571 -1.1878 -0.5931  0.9973
 6760SOL     OW31741   4.052   0.034  17.230 -0.1668 -0.1436 -0.0363
 6760SOL    HW131742   4.076   0.035  17.138 -0.2160 -0.6109 -0.0552
 6760SOL    HW231743   4.126   4.712  17.270 -0.3583  1.3893  2.1235
 6761SOL     OW31744   4.618   1.910   2.611 -0.2159 -0.1209  0.2246
 6761SOL    HW131745   4.683   1.924   2.542  0.2046 -1.9530  0.2651
 6761SOL    HW231746   4.621   1.995   2.655  0.6145 -0.5799  1.0681
 6762SOL     OW31747   1.641   2.646   6.983  0.1491  0.3830 -0.4821
 6762SOL    HW131748   1.671   2.645   6.893  0.3607 -0.0361 -0.4088
 6762SOL    HW231749   1.701   2.585   7.026 -0.8701  1.1352  2.0058
 6763SOL     OW31750   3.966   3.342   7.235  0.2983  0.1007 -0.4180
 6763SOL    HW131751   3.871   3.351   7.235  0.3594  0.7558 -0.0551
 6763SOL    HW231752   3.980   3.308   7.147 -1.0126 -1.4416 -0.0306
 6764SOL     OW31753   3.715   2.214  10.985 -0.5269  0.2129  0.0382
 6764SOL    HW131754   3.765   2.257  10.916 -1.3308 -0.0805 -0.7312
 6764SOL    HW231755   3.686   2.295  11.026 -1.3006 -0.1005  0.1100
 6765SOL     OW31756   1.656   2.558   9.055 -0.3053 -0.3914 -0.5187
 6765SOL    HW131757   1.610   2.621   9.111 -1.0664  0.1639 -1.7816
 6765SOL    HW231758   1.582   2.499   9.037  1.3916 -2.3000 -1.1926
 6766SOL     OW31759   1.381   3.368   5.829  0.2202 -0.1041  0.6977
 6766SOL    HW131760   1.431   3.448   5.847  2.7006 -1.3010 -0.9997
 6766SOL    HW231761   1.349   3.340   5.915  0.9549  1.6007  1.5277
 6767SOL     OW31762   0.256   3.452   6.733 -0.1782 -0.1394  0.0828
 6767SOL    HW131763   0.170   3.457   6.692  0.4666  0.8065 -1.1602
 6767SOL    HW231764   0.238   3.457   6.827  0.5717  1.1971  0.1534
 6768SOL     OW31765   0.823   3.989  10.402 -0.3320  0.3268 -0.2453
 6768SOL    HW131766   0.745   3.948  10.440  0.0610 -0.0129  0.2139
 6768SOL    HW231767   0.883   3.918  10.426  1.0451  1.5108 -0.2056
 6769SOL     OW31768   0.364   0.636   4.957 -0.0622  0.6644 -0.1578
 6769SOL    HW131769   0.312   0.679   5.025 -0.5919  0.4786 -0.4449
 6769SOL    HW231770   0.446   0.627   5.005  0.2811 -0.6529 -0.9816
 6770SOL     OW31771   2.456   0.713   7.769  0.1099  1.0942 -0.6941
 6770SOL    HW131772   2.537   0.733   7.722 -0.0868 -0.2424 -1.6094
 6770SOL    HW231773   2.479   0.746   7.856 -1.3496  4.0652 -1.4136
 6771SOL     OW31774   0.119   1.799   1.345  0.1358 -0.1154 -0.2230
 6771SOL    HW131775   0.114   1.763   1.434 -0.5162 -1.2031 -0.7061
 6771SOL    HW231776   0.059   1.750   1.289 -1.5945 -0.5739  2.0496
 6772SOL     OW31777   0.942   4.152   8.708 -0.1395  0.2497 -0.0209
 6772SOL    HW131778   0.967   4.191   8.791 -0.6793  1.8705 -0.6259
 6772SOL    HW231779   0.946   4.056   8.717  1.5726  0.4439  1.1888
 6773SOL     OW31780   4.639   4.432   2.105  0.0454  0.1100 -0.6442
 6773SOL    HW131781   4.550   4.420   2.139  0.3055  1.9518  0.6681
 6773SOL    HW231782   4.650   4.527   2.113  0.9878 -0.0909  0.4747
 6774SOL     OW31783   3.886   4.220   3.203  0.1858 -0.1006  0.5642
 6774SOL    HW131784   3.977   4.249   3.208  0.2388 -0.2173  0.3194
 6774SOL    HW231785   3.909   4.131   3.228  0.2657  0.5543  2.7621
 6775SOL     OW31786   4.378   2.244   3.330 -0.0587 -0.7237  0.2742
 6775SOL    HW131787   4.359   2.297   3.253  1.3056 -1.4391 -0.5646
 6775SOL    HW231788   4.417   2.305   3.393 -0.2893 -1.3811  1.0492
 6776SOL     OW31789   3.866   0.425   0.187  0.2481  0.3534 -0.8864
 6776SOL    HW131790   3.834   0.456   0.103 -0.0786  2.8053  0.1321
 6776SOL    HW231791   3.789   0.382   0.224  1.9883 -0.6007  1.6129
 6777SOL     OW31792   1.789   0.285   4.250  0.2904  0.1169 -0.2180
 6777SOL    HW131793   1.753   0.353   4.193  3.8869  1.8049 -0.4856
 6777SOL    HW231794   1.854   0.321   4.310  1.0972  0.1440 -1.1006
 6778SOL     OW31795   2.603   1.263  11.640  0.1620 -0.1777 -0.5176
 6778SOL    HW131796   2.554   1.337  11.604 -0.1080  0.0878  0.4044
 6778SOL    HW231797   2.689   1.301  11.655  0.4405  0.6408 -4.1321
 6779SOL     OW31798   4.313   2.716   3.812  0.3328  0.2001  0.4251
 6779SOL    HW131799   4.331   2.800   3.854 -3.0186  1.5994 -1.0065
 6779SOL    HW231800   4.285   2.666   3.889 -1.0343 -0.6678 -0.6425
 6780SOL     OW31801   0.484   2.258   8.734 -0.4109  0.4335  0.0003
 6780SOL    HW131802   0.565   2.308   8.737 -0.2642  0.1160  1.1111
 6780SOL    HW231803   0.438   2.275   8.816 -0.3381 -3.2979  0.8088
 6781SOL     OW31804   0.457   4.543  15.667  0.5557  0.7941  0.3002
 6781SOL    HW131805   0.553   4.545  15.672  0.6256 -3.3772  0.9062
 6781SOL    HW231806   0.440   4.630  15.702 -2.2806 -0.3155  1.6421
 6782SOL     OW31807   4.678   2.488   6.893  0.2312  0.0302  0.2024
 6782SOL    HW131808   4.593   2.454   6.919  1.0342 -0.9592  1.5245
 6782SOL    HW231809   4.656   2.565   6.841 -0.7431 -0.2805  0.1604
 6783SOL     OW31810   0.949   2.702   6.933 -0.3413 -0.5975  0.2401
 6783SOL    HW131811   1.031   2.681   6.888  0.3527  0.1408  1.1577
 6783SOL    HW231812   0.915   2.777   6.886  0.0165 -0.8653 -0.4440
 6784SOL     OW31813   3.974   4.329   7.701 -0.6625 -0.4643  0.4938
 6784SOL    HW131814   4.060   4.296   7.726 -1.3743 -3.0701 -0.5215
 6784SOL    HW231815   3.929   4.317   7.785  0.6393  0.9251  1.3883
 6785SOL     OW31816   1.658   2.899   6.640  0.0295 -0.3098 -0.5349
 6785SOL    HW131817   1.672   2.951   6.719  1.9394 -0.6729 -0.6333
 6785SOL    HW231818   1.599   2.962   6.598  1.8022  0.5660 -1.7631
 6786SOL     OW31819   0.066   0.772  12.632  1.3650  0.3784 -0.0472
 6786SOL    HW131820   0.055   0.686  12.672 -0.9386 -0.0994 -1.6775
 6786SOL    HW231821   0.118   0.756  12.553  0.1795 -0.4034 -0.6775
 6787SOL     OW31822   3.493   0.442   7.438  0.3721 -0.0983 -0.0132
 6787SOL    HW131823   3.458   0.356   7.418  0.2046  0.1180 -0.6514
 6787SOL    HW231824   3.586   0.426   7.421  0.4496  1.4969 -1.0877
 6788SOL     OW31825   1.101   2.766   5.469  0.4631 -0.1233 -0.5014
 6788SOL    HW131826   1.140   2.832   5.411  2.5934 -0.0809  0.9869
 6788SOL    HW231827   1.184   2.729   5.499  0.7151  1.4371  0.7013
 6789SOL     OW31828   0.973   1.488  16.246  0.1794  0.0418  0.5110
 6789SOL    HW131829   0.901   1.428  16.225  0.6484 -1.0551  2.0657
 6789SOL    HW231830   1.032   1.453  16.179  3.5879  0.5817  3.2309
 6790SOL     OW31831   1.887   4.160  11.221  0.0445  0.1714 -0.2606
 6790SOL    HW131832   1.850   4.134  11.306  0.8042  1.0463  0.3446
 6790SOL    HW231833   1.864   4.253  11.230 -2.1500 -0.1803 -2.1500
 6791SOL     OW31834   0.964   3.554  15.744 -0.0277 -0.2424 -0.2826
 6791SOL    HW131835   0.904   3.557  15.819 -1.5677  1.2004 -1.5873
 6791SOL    HW231836   0.963   3.461  15.722  2.0272 -0.1324 -0.7963
 6792SOL     OW31837   3.579   4.138  15.184  0.3460 -0.2871 -0.0349
 6792SOL    HW131838   3.605   4.161  15.095 -0.8997 -0.7620 -0.5293
 6792SOL    HW231839   3.631   4.199  15.236 -0.4535 -1.5800  2.2584
 6793SOL     OW31840   0.697   1.694   6.654 -0.0180 -0.2010  0.0426
 6793SOL    HW131841   0.749   1.661   6.727  2.0626  0.9743 -0.8812
 6793SOL    HW231842   0.727   1.785   6.662 -0.9461  0.1542 -0.4824
 6794SOL     OW31843   3.893   0.846  12.439 -0.3990  0.3963 -0.0540
 6794SOL    HW131844   3.941   0.875  12.362  0.5995 -1.5866 -0.1815
 6794SOL    HW231845   3.803   0.840  12.408 -0.6336 -2.0647  1.1010
 6795SOL     OW31846   4.514   2.402   6.138  0.1413 -0.2162  0.7260
 6795SOL    HW131847   4.558   2.486   6.125 -0.7813  0.0818 -0.5531
 6795SOL    HW231848   4.579   2.336   6.114  0.3537  0.2396  0.0370
 6796SOL     OW31849   2.341   1.694   8.074  0.3292  0.3937  0.1605
 6796SOL    HW131850   2.329   1.728   8.163 -2.7257  1.7818 -0.7732
 6796SOL    HW231851   2.324   1.768   8.015  0.1389 -0.1848 -0.5128
 6797SOL     OW31852   0.824   2.280   3.615 -0.0836 -0.3162  0.1956
 6797SOL    HW131853   0.739   2.236   3.611  1.1242 -2.5957 -0.8158
 6797SOL    HW231854   0.803   2.342   3.546  0.9237  0.8319  0.9146
 6798SOL     OW31855   1.192   2.330   6.696  0.4568 -0.0240 -0.0078
 6798SOL    HW131856   1.144   2.408   6.669  0.1088  0.4145  1.8780
 6798SOL    HW231857   1.201   2.356   6.788  1.3939  0.8441 -0.3488
 6799SOL     OW31858   0.526   4.078  17.121 -0.2225 -0.0002 -0.6689
 6799SOL    HW131859   0.591   4.052  17.056 -1.0611 -1.4111 -0.9595
 6799SOL    HW231860   0.490   4.161  17.091 -0.9157 -0.5227 -1.3032
 6800SOL     OW31861   0.163   0.204   5.808 -0.2832  0.4325  0.3494
 6800SOL    HW131862   0.151   0.180   5.716 -0.3110 -0.0325  0.4742
 6800SOL    HW231863   0.156   0.117   5.848  0.2568  0.6162  0.8503
 6801SOL     OW31864   1.089   1.245   4.467  0.3650  0.2272  0.0701
 6801SOL    HW131865   1.122   1.188   4.397  1.2010 -1.9653  2.2687
 6801SOL    HW231866   1.159   1.244   4.532 -0.4415  0.2664  0.9509
 6802SOL     OW31867   3.600   2.033  16.228  0.2353  0.2936 -0.3190
 6802SOL    HW131868   3.605   2.065  16.137 -0.8355  0.0239 -0.4699
 6802SOL    HW231869   3.592   2.110  16.283  3.6995  1.0813 -0.8902
 6803SOL     OW31870   0.117   1.084   8.807  0.4062  0.4832 -0.0368
 6803SOL    HW131871   0.171   1.006   8.806  0.1287  0.2636  1.1283
 6803SOL    HW231872   0.049   1.059   8.745  0.6741  1.3866 -0.6920
 6804SOL     OW31873   3.270   0.661   2.895 -0.4138 -0.3019  0.0725
 6804SOL    HW131874   3.309   0.719   2.829  0.0261  0.2509  0.8163
 6804SOL    HW231875   3.348   0.651   2.949 -0.2987 -0.1020 -0.0556
 6805SOL     OW31876   0.524   0.652  10.268 -0.2775 -0.4124 -0.4407
 6805SOL    HW131877   0.480   0.719  10.321  3.7405  1.1913  0.8083
 6805SOL    HW231878   0.545   0.714  10.199  1.1402  0.1002  0.4635
 6806SOL     OW31879   1.147   0.975   3.807  0.5067 -0.1713 -0.1977
 6806SOL    HW131880   1.053   0.974   3.824  0.6109 -1.9094  0.2892
 6806SOL    HW231881   1.188   0.964   3.894 -0.0671  0.0425  0.0985
 6807SOL     OW31882   4.332   4.021  14.716 -1.2032  0.2032  0.4100
 6807SOL    HW131883   4.417   4.041  14.756 -1.1632 -2.7451  1.8455
 6807SOL    HW231884   4.342   3.925  14.713 -1.8003  0.1396  0.4896
 6808SOL     OW31885   2.085   4.441   5.511 -0.1927 -0.5292 -0.3719
 6808SOL    HW131886   2.155   4.407   5.567 -0.2192  2.4204  1.4444
 6808SOL    HW231887   2.142   4.500   5.462  0.4851 -0.0706  0.9826
 6809SOL     OW31888   1.403   0.377   8.804  0.4753  0.1492  0.4983
 6809SOL    HW131889   1.466   0.344   8.739  0.7627 -0.3555  1.0321
 6809SOL    HW231890   1.352   0.298   8.826 -0.4569  0.8000  0.6926
 6810SOL     OW31891   0.088   1.289   0.761  0.4014  0.1476  0.3648
 6810SOL    HW131892   0.038   1.349   0.816 -0.8833 -1.2691  0.7315
 6810SOL    HW231893   0.102   1.338   0.679  2.5181 -1.7338 -0.3969
 6811SOL     OW31894   0.678   2.461   2.708  0.8297  0.6443 -0.3343
 6811SOL    HW131895   0.687   2.368   2.729  2.3008  0.6151 -1.1224
 6811SOL    HW231896   0.734   2.467   2.630  2.1388 -1.7469  0.4183
 6812SOL     OW31897   0.586   3.087  17.697 -0.3604 -0.4909  0.1211
 6812SOL    HW131898   0.504   3.107  17.651  1.0680  0.1405 -2.1917
 6812SOL    HW231899   0.577   2.993   0.012  0.1864 -0.5716 -0.0859
 6813SOL     OW31900   3.277   1.987  17.384  0.3661  0.2613 -0.9488
 6813SOL    HW131901   3.204   1.932  17.412 -0.7965  1.4219 -1.6718
 6813SOL    HW231902   3.250   2.068  17.426  1.0193  1.4060 -2.7160
 6814SOL     OW31903   2.527   2.476   8.318 -0.5359  0.2173  0.1771
 6814SOL    HW131904   2.562   2.463   8.406 -0.9786 -2.5814 -0.0548
 6814SOL    HW231905   2.478   2.556   8.337  1.7450  1.6840 -0.2266
 6815SOL     OW31906   3.536   2.361  11.316  0.3585 -0.1736 -0.6289
 6815SOL    HW131907   3.598   2.374  11.244 -1.2852  1.7323 -1.6839
 6815SOL    HW231908   3.573   2.421  11.380 -1.4581  0.0164  0.2311
 6816SOL     OW31909   0.671   2.855  13.023 -0.2276 -0.4159 -0.3094
 6816SOL    HW131910   0.577   2.847  13.009 -0.4005  0.7859  0.1920
 6816SOL    HW231911   0.684   2.930  12.966 -1.6444  0.0548 -0.0169
 6817SOL     OW31912   3.479   3.400   7.696 -0.9411  0.7251 -0.5037
 6817SOL    HW131913   3.529   3.413   7.777  0.3074 -1.6005 -0.9009
 6817SOL    HW231914   3.423   3.328   7.726 -0.2980  0.3307 -0.2351
 6818SOL     OW31915   1.384   1.763   3.288  0.5850  0.0587  0.7767
 6818SOL    HW131916   1.365   1.676   3.323  0.4382 -0.3933 -0.4514
 6818SOL    HW231917   1.472   1.769   3.324  1.3584 -2.0922 -0.7477
 6819SOL     OW31918   3.007   4.524   6.251  0.0758 -0.5603  0.1537
 6819SOL    HW131919   3.023   4.549   6.342 -1.1294  1.7733 -0.2775
 6819SOL    HW231920   3.097   4.521   6.220 -0.5685  0.5851 -1.8101
 6820SOL     OW31921   0.407   4.207  16.681  0.0973  0.2761  0.4313
 6820SOL    HW131922   0.377   4.233  16.594  0.4711 -1.0028 -0.0777
 6820SOL    HW231923   0.493   4.250  16.687  0.0852  0.8106 -3.0459
 6821SOL     OW31924   0.298   1.819  17.436  0.0498 -0.2708  0.6242
 6821SOL    HW131925   0.306   1.741  17.490  2.1224 -0.4402  0.0996
 6821SOL    HW231926   0.215   1.802  17.391  0.1578 -1.4464  0.8633
 6822SOL     OW31927   3.183   4.219   6.016  0.4134 -0.1608  0.2146
 6822SOL    HW131928   3.209   4.128   6.001  1.5161  0.2132 -0.1328
 6822SOL    HW231929   3.195   4.230   6.110  0.8685 -0.2566  0.1672
 6823SOL     OW31930   3.264   1.745  14.959  0.2759 -0.0011 -0.3988
 6823SOL    HW131931   3.356   1.765  14.939  0.3151  3.6230  3.3521
 6823SOL    HW231932   3.252   1.660  14.918  1.8652 -1.5732  2.3629
 6824SOL     OW31933   1.522   4.111   1.881  0.2975 -0.2071 -0.6238
 6824SOL    HW131934   1.555   4.198   1.906  1.4737 -0.8663  0.1056
 6824SOL    HW231935   1.460   4.132   1.811  0.7057  2.6056 -0.1518
 6825SOL     OW31936   4.168   4.363   0.902  0.1386  0.3768 -0.1352
 6825SOL    HW131937   4.178   4.287   0.845 -1.2785 -0.9253  1.3594
 6825SOL    HW231938   4.156   4.428   0.833  3.6070  2.1777  0.9607
 6826SOL     OW31939   1.982   1.982  12.067 -0.5127  0.0081 -0.4114
 6826SOL    HW131940   2.011   2.012  12.154  0.3595 -1.1286 -0.3201
 6826SOL    HW231941   2.013   1.892  12.068 -1.7450 -0.4210  0.8622
 6827SOL     OW31942   0.208   0.644  17.519  0.4961 -0.0712 -0.0917
 6827SOL    HW131943   0.261   0.564  17.519  0.7003  0.0615 -1.1518
 6827SOL    HW231944   0.120   0.608  17.531  0.4088  0.2167  0.1179
 6828SOL     OW31945   1.712   2.347   6.604  0.2937  0.5687 -0.1979
 6828SOL    HW131946   1.682   2.302   6.683 -0.3110  0.2194 -0.6297
 6828SOL    HW231947   1.806   2.350   6.620  0.2848 -0.9024  0.0939
 6829SOL     OW31948   1.629   3.011   7.919  0.1560  0.2629  0.2494
 6829SOL    HW131949   1.663   2.997   8.008 -0.5982 -4.6415 -0.2541
 6829SOL    HW231950   1.682   3.084   7.890 -1.8655  0.9670 -1.6701
 6830SOL     OW31951   3.669   3.998   1.952  0.8199 -0.5760  0.2545
 6830SOL    HW131952   3.729   4.066   1.921 -1.1351  0.9815 -0.0583
 6830SOL    HW231953   3.657   3.941   1.876  2.5222  0.9092 -1.1239
 6831SOL     OW31954   4.601   3.473  16.071  0.0305  0.2005 -0.0776
 6831SOL    HW131955   4.589   3.555  16.023  1.8692  0.7547  0.3864
 6831SOL    HW231956   4.527   3.484  16.131 -0.6279 -1.4951 -0.5832
 6832SOL     OW31957   0.569   1.671  12.835  0.1000 -0.3760 -0.4251
 6832SOL    HW131958   0.659   1.641  12.838 -0.3538 -1.7393 -0.6580
 6832SOL    HW231959   0.533   1.616  12.905 -0.8385  0.2093 -0.4360
 6833SOL     OW31960   2.267   2.441   4.264  0.3444  0.3730  0.6495
 6833SOL    HW131961   2.184   2.478   4.235  1.0114  1.1988 -0.2219
 6833SOL    HW231962   2.308   2.525   4.283  0.8990  0.0843  0.7321
 6834SOL     OW31963   1.944   2.040   2.323 -0.4071  0.8903 -0.4127
 6834SOL    HW131964   1.948   2.069   2.415 -1.3723 -0.1008 -0.0594
 6834SOL    HW231965   2.036   2.057   2.303 -0.6761  0.6275 -1.8303
 6835SOL     OW31966   1.174   2.313   5.062  0.0548 -0.0641 -0.3876
 6835SOL    HW131967   1.253   2.310   5.008  1.1209 -3.5038  1.3974
 6835SOL    HW231968   1.176   2.407   5.076 -3.7103 -0.2415  1.4380
 6836SOL     OW31969   3.371   4.427   2.448 -0.4493 -0.1473  0.4410
 6836SOL    HW131970   3.284   4.461   2.430 -1.1620 -2.1076  0.1988
 6836SOL    HW231971   3.370   4.342   2.404 -2.5005  0.4306 -0.6330
 6837SOL     OW31972   1.367   3.471   6.132  0.0839  0.2510  0.8391
 6837SOL    HW131973   1.300   3.531   6.100 -0.6153 -0.3783  1.1302
 6837SOL    HW231974   1.424   3.539   6.168  0.3336  0.2578  0.4287
 6838SOL     OW31975   1.190   3.273   3.463 -0.2880 -0.0902  0.0377
 6838SOL    HW131976   1.223   3.362   3.447  1.9295 -0.5230  2.3487
 6838SOL    HW231977   1.127   3.270   3.391 -0.6796  1.0776  0.3312
 6839SOL     OW31978   1.388   1.810   4.920 -0.2846 -0.0549  0.0436
 6839SOL    HW131979   1.315   1.861   4.955 -0.5247  0.1463 -0.7574
 6839SOL    HW231980   1.431   1.786   5.002  0.3460 -0.2797 -0.3528
 6840SOL     OW31981   1.384   1.062   5.582 -0.4274 -0.7646 -0.5142
 6840SOL    HW131982   1.382   0.975   5.542 -0.0409 -0.7794 -0.5016
 6840SOL    HW231983   1.330   1.101   5.513 -1.4043 -0.9855  0.1281
 6841SOL     OW31984   2.559   2.705   2.259 -0.1984 -0.3686 -0.3312
 6841SOL    HW131985   2.580   2.618   2.294  0.5988  0.7199  1.8454
 6841SOL    HW231986   2.566   2.747   2.344  1.5509  0.9288 -1.1014
 6842SOL     OW31987   2.198   1.165  12.489 -0.4954 -0.2118 -0.6567
 6842SOL    HW131988   2.217   1.111  12.566  0.9887  0.9687 -0.1845
 6842SOL    HW231989   2.160   1.099  12.431  1.5972 -1.7015 -0.3472
 6843SOL     OW31990   2.094   0.075   0.848 -0.3888  0.3682 -0.2025
 6843SOL    HW131991   2.151   0.059   0.923 -0.2967  1.6281 -0.0040
 6843SOL    HW231992   2.093   0.171   0.849 -1.7549  0.3255  1.3341
 6844SOL     OW31993   2.386   3.877   7.869  0.4373 -0.4331  0.4125
 6844SOL    HW131994   2.297   3.894   7.837  0.9424  0.3877 -0.5230
 6844SOL    HW231995   2.392   3.784   7.892 -0.2142 -0.5312  0.1831
 6845SOL     OW31996   2.993   0.311   5.672  0.4822 -0.3867 -0.4736
 6845SOL    HW131997   2.911   0.360   5.660  0.5847 -0.5643 -1.7926
 6845SOL    HW231998   3.050   0.382   5.701  0.5485 -0.7915  0.3989
 6846SOL     OW31999   2.724   0.141   8.586  0.0394 -0.2239  0.0216
 6846SOL    HW132000   2.780   0.070   8.555  2.3263  1.6873 -0.2571
 6846SOL    HW232001   2.791   0.209   8.599  0.4048 -0.6701  0.5177
 6847SOL     OW32002   4.113   2.184  11.202  0.1313 -0.4956 -0.0326
 6847SOL    HW132003   4.118   2.204  11.108 -0.6463 -0.1040  0.0106
 6847SOL    HW232004   4.148   2.261  11.248 -0.3307 -0.5657  0.4340
 6848SOL     OW32005   2.896   4.707   8.442 -0.1979  0.3629 -0.1937
 6848SOL    HW132006   2.890   4.636   8.378 -1.5068 -1.8101  2.3338
 6848SOL    HW232007   2.991   4.710   8.456 -0.3916  1.3569  0.8539
 6849SOL     OW32008   3.059   2.470   4.326  0.2899 -0.6993  0.2840
 6849SOL    HW132009   3.065   2.552   4.375 -0.6204  0.3044 -1.2665
 6849SOL    HW232010   3.110   2.504   4.252 -0.2349  1.2957  0.8555
 6850SOL     OW32011   0.431   4.604   3.016 -0.2837 -0.4366  0.0956
 6850SOL    HW132012   0.405   4.695   2.999  0.0707 -0.1685  0.9945
 6850SOL    HW232013   0.516   4.621   3.057  0.6613 -0.3782 -1.9058
 6851SOL     OW32014   0.260   2.168  11.378  0.3190 -0.1778 -0.5173
 6851SOL    HW132015   0.245   2.258  11.407  2.4117 -0.2329  0.7756
 6851SOL    HW232016   0.221   2.168  11.291 -0.0444 -0.2795 -0.3536
 6852SOL     OW32017   3.705   3.276   2.776  0.2155 -0.1462  0.8311
 6852SOL    HW132018   3.754   3.270   2.694  0.6828  0.8811  1.0373
 6852SOL    HW232019   3.747   3.355   2.809  0.8105  0.0435 -0.3808
 6853SOL     OW32020   2.220   0.496  16.980 -0.9277  0.3942  0.1598
 6853SOL    HW132021   2.274   0.471  16.905 -0.3238  0.0627  0.7030
 6853SOL    HW232022   2.292   0.494  17.043 -1.5530 -3.0430  0.7658
 6854SOL     OW32023   3.308   0.541  13.884 -0.0740 -0.1257 -0.1501
 6854SOL    HW132024   3.385   0.486  13.869  0.1578  0.5397 -1.3790
 6854SOL    HW232025   3.245   0.475  13.911  0.6540 -0.9027 -0.3278
 6855SOL     OW32026   2.285   1.381   7.548  0.1413 -0.4197 -0.0537
 6855SOL    HW132027   2.227   1.312   7.582 -0.7688  0.9326  1.1345
 6855SOL    HW232028   2.214   1.443   7.534 -0.6602 -0.7370  2.4878
 6856SOL     OW32029   4.200   4.563  15.428 -0.0134  0.2320  0.1517
 6856SOL    HW132030   4.193   4.582  15.335  2.3297 -0.4632 -0.1756
 6856SOL    HW232031   4.216   4.469  15.423  0.0134  0.3772 -2.2661
 6857SOL     OW32032   1.655   4.318   2.720 -0.7483  0.3468  0.2270
 6857SOL    HW132033   1.640   4.408   2.749 -0.4783 -0.5557  3.1405
 6857SOL    HW232034   1.570   4.294   2.684 -0.2116 -1.9352  0.4686
 6858SOL     OW32035   3.132   2.298   4.729 -0.3562 -0.0809  0.1126
 6858SOL    HW132036   3.218   2.280   4.691 -0.5773 -1.4130  0.2470
 6858SOL    HW232037   3.069   2.237   4.690  0.8057 -2.0451  1.3413
 6859SOL     OW32038   3.974   1.103  15.867 -0.2544 -0.2300 -0.1641
 6859SOL    HW132039   3.961   1.094  15.773  1.9047  1.3471 -0.6078
 6859SOL    HW232040   3.889   1.138  15.892 -0.3287  0.6948 -1.7735
 6860SOL     OW32041   0.233   2.284  11.118  0.5719 -0.3607  0.7866
 6860SOL    HW132042   0.302   2.222  11.095 -0.1054 -0.0913 -1.9614
 6860SOL    HW232043   0.270   2.362  11.077 -0.6311 -0.0210  0.3446
 6861SOL     OW32044   4.537   2.337   2.439  0.0587  0.3528 -0.2421
 6861SOL    HW132045   4.600   2.290   2.385 -0.8898 -1.2241  0.0308
 6861SOL    HW232046   4.585   2.419   2.448  1.8034 -0.6886 -0.1035
 6862SOL     OW32047   4.591   2.597   4.846  0.1606  0.8100 -0.0952
 6862SOL    HW132048   4.669   2.640   4.881  0.9812  0.1093 -1.0680
 6862SOL    HW232049   4.600   2.513   4.891 -1.6746  0.8265  0.3103
 6863SOL     OW32050   3.635   0.721   4.065 -0.2362 -0.3886  0.2803
 6863SOL    HW132051   3.563   0.666   4.034 -0.8947  0.6135  0.0429
 6863SOL    HW232052   3.620   0.790   4.000 -0.8397 -0.1717  0.6456
 6864SOL     OW32053   1.593   1.517   6.195 -0.2447 -0.0426 -0.3824
 6864SOL    HW132054   1.680   1.553   6.212  0.5246 -2.0509 -0.0406
 6864SOL    HW232055   1.552   1.536   6.280 -0.2778 -1.1025 -0.1652
 6865SOL     OW32056   2.801   1.985   4.388 -0.3189  0.3621  0.1498
 6865SOL    HW132057   2.779   1.906   4.437  0.0891  0.8777  1.1453
 6865SOL    HW232058   2.729   2.038   4.422 -0.5197  1.3179 -1.7738
 6866SOL     OW32059   2.400   3.860   4.082 -0.1831 -0.2273  0.1377
 6866SOL    HW132060   2.328   3.922   4.082 -0.0805 -0.1238  1.4869
 6866SOL    HW232061   2.368   3.804   4.011 -3.3567  0.6851  0.8419
 6867SOL     OW32062   0.857   4.452   7.307  0.5119  0.0998 -0.0442
 6867SOL    HW132063   0.937   4.413   7.341 -0.9125 -2.3625  0.4978
 6867SOL    HW232064   0.833   4.494   7.390 -0.8892 -0.9192  0.0735
 6868SOL     OW32065   3.456   4.041  13.605  0.4883 -0.2334  0.5740
 6868SOL    HW132066   3.518   4.016  13.537  0.8116 -0.1688  0.8469
 6868SOL    HW232067   3.377   4.048  13.551  0.2898  2.4005  1.1675
 6869SOL     OW32068   1.815   2.850   4.772  0.4453 -0.3899 -0.5010
 6869SOL    HW132069   1.897   2.868   4.727  0.8281  0.5246  0.5329
 6869SOL    HW232070   1.831   2.896   4.855  0.8102  1.9556 -1.8525
 6870SOL     OW32071   2.635   2.506   7.388 -0.5006  0.6044  0.9499
 6870SOL    HW132072   2.614   2.565   7.315 -0.4865  0.0236  0.4812
 6870SOL    HW232073   2.713   2.549   7.423 -0.3896  0.7166  0.5697
 6871SOL     OW32074   1.888   3.758   1.899 -0.1706  0.0725  0.0931
 6871SOL    HW132075   1.963   3.709   1.867 -1.3247 -0.8731 -1.1726
 6871SOL    HW232076   1.924   3.841   1.931 -0.1871 -0.1990  0.8265
 6872SOL     OW32077   2.376   3.257  10.809  0.1655  0.0073  0.3546
 6872SOL    HW132078   2.359   3.193  10.739 -0.9997 -0.8727  1.4507
 6872SOL    HW232079   2.365   3.337  10.757  1.4695  0.1391  0.2767
 6873SOL     OW32080   4.161   0.151   5.591  0.3670  0.2354 -0.5637
 6873SOL    HW132081   4.090   0.098   5.555  0.4523 -0.9757  1.0936
 6873SOL    HW232082   4.219   0.152   5.514  1.0892 -2.9189 -0.0612
 6874SOL     OW32083   3.757   2.144   4.488 -0.7656 -0.1170 -0.0140
 6874SOL    HW132084   3.784   2.170   4.576 -0.8610 -2.2183  0.6502
 6874SOL    HW232085   3.713   2.226   4.465  1.0142  1.1218  0.9864
 6875SOL     OW32086   0.287   1.124   8.201 -0.1306 -0.5392 -0.0242
 6875SOL    HW132087   0.273   1.086   8.114 -1.0883 -0.3791  0.0628
 6875SOL    HW232088   0.202   1.138   8.244 -1.4700 -2.7520 -1.9520
 6876SOL     OW32089   1.754   0.442   3.130 -0.0808  0.0228 -0.2932
 6876SOL    HW132090   1.779   0.416   3.042  1.0885 -0.7605  0.2672
 6876SOL    HW232091   1.666   0.406   3.143  0.0350 -0.0635  0.2728
 6877SOL     OW32092   2.272   0.816   4.824 -0.0045 -1.1816 -0.1613
 6877SOL    HW132093   2.199   0.800   4.764 -0.3693 -1.5965  0.3890
 6877SOL    HW232094   2.336   0.845   4.758  0.7708 -3.9917 -0.6786
 6878SOL     OW32095   1.495   3.919   4.141  0.5916  0.6326 -0.2808
 6878SOL    HW132096   1.437   3.875   4.079  0.2684  0.3449  0.2219
 6878SOL    HW232097   1.443   4.000   4.136  0.4663  0.6031  0.4610
 6879SOL     OW32098   0.290   4.014   5.737  0.1615  0.4046 -0.4223
 6879SOL    HW132099   0.296   4.109   5.728 -1.4754  0.4925 -0.5383
 6879SOL    HW232100   0.262   3.987   5.650  0.1566 -2.7185  0.5540
 6880SOL     OW32101   1.655   1.825   4.485 -0.1296  0.2730 -0.1482
 6880SOL    HW132102   1.663   1.907   4.534 -1.7096 -0.7307  1.7786
 6880SOL    HW232103   1.745   1.815   4.453 -0.3845 -1.6209 -0.2786
 6881SOL     OW32104   0.637   4.695   6.988 -0.6328 -0.2395  0.2297
 6881SOL    HW132105   0.603   4.649   7.065 -2.2074  0.8768  0.2147
 6881SOL    HW232106   0.556   4.693   6.935 -0.8076  0.1262  0.4776
 6882SOL     OW32107   4.325   3.714   6.390 -0.4198 -0.3824  0.0246
 6882SOL    HW132108   4.272   3.744   6.463  0.5835  1.9304 -0.2180
 6882SOL    HW232109   4.309   3.620   6.397 -0.6023 -0.3325  0.2884
 6883SOL     OW32110   2.944   4.233   5.433  0.0556 -0.1089  0.2429
 6883SOL    HW132111   2.881   4.252   5.502  1.0381 -0.1758  1.1459
 6883SOL    HW232112   2.874   4.192   5.381 -0.0470  1.3377 -0.7618
 6884SOL     OW32113   1.542   4.311   7.455  0.3582  0.4478  0.8041
 6884SOL    HW132114   1.463   4.301   7.509  0.2937 -1.2689  0.3843
 6884SOL    HW232115   1.578   4.223   7.463  1.7420  1.0407  1.1279
 6885SOL     OW32116   0.290   0.779   2.075 -0.1956  0.1706 -0.2535
 6885SOL    HW132117   0.242   0.701   2.046 -0.3698  0.4120 -0.6040
 6885SOL    HW232118   0.297   0.756   2.168  0.3672  2.0149  0.1714
 6886SOL     OW32119   2.762   3.073   4.109  0.2429  0.0353  0.3079
 6886SOL    HW132120   2.736   3.148   4.056  0.4348 -0.9237 -1.1482
 6886SOL    HW232121   2.676   3.063   4.150 -0.7173  1.6618 -1.3327
 6887SOL     OW32122   3.096   3.282   6.121 -0.0721  0.3597  0.0713
 6887SOL    HW132123   3.022   3.249   6.174 -0.1522 -0.1805 -0.3713
 6887SOL    HW232124   3.043   3.341   6.069  0.4331  0.6920 -0.0594
 6888SOL     OW32125   2.826   0.886   9.552 -0.2472 -0.5719 -0.5454
 6888SOL    HW132126   2.884   0.945   9.601  0.7782 -2.1917  0.1894
 6888SOL    HW232127   2.883   0.870   9.477  0.7746  0.4512  0.0011
 6889SOL     OW32128   0.757   3.077   8.719 -0.4069 -0.4150  0.3535
 6889SOL    HW132129   0.787   3.147   8.661  0.7831  0.3425  1.8822
 6889SOL    HW232130   0.748   3.001   8.663 -2.0988 -0.8518  1.2175
 6890SOL     OW32131   1.295   1.734   8.817  0.3336  0.3035 -0.0254
 6890SOL    HW132132   1.342   1.808   8.779  1.8412  0.2496  1.7064
 6890SOL    HW232133   1.210   1.740   8.775 -0.3124 -4.3149  0.6208
 6891SOL     OW32134   2.379   1.083   3.140  0.0846 -0.5974  0.3265
 6891SOL    HW132135   2.456   1.131   3.170  1.1162  0.3735 -3.8297
 6891SOL    HW232136   2.402   1.073   3.047  1.6328 -1.5923  0.8214
 6892SOL     OW32137   3.444   1.842   5.164 -0.3692  0.0730  0.0153
 6892SOL    HW132138   3.357   1.829   5.126  1.5149 -2.7000 -3.4224
 6892SOL    HW232139   3.464   1.756   5.201  2.9580  0.8729  0.0975
 6893SOL     OW32140   3.829   4.703   7.144 -0.7394 -0.3778  0.1895
 6893SOL    HW132141   3.752   4.688   7.200 -0.6750 -0.6916  0.1929
 6893SOL    HW232142   3.800   4.690   7.054  0.1329 -3.3552  0.3550
 6894SOL     OW32143   3.965   2.740  13.775  0.1707 -0.2435 -0.2004
 6894SOL    HW132144   3.912   2.671  13.735 -1.4095 -0.2603  1.9263
 6894SOL    HW232145   3.931   2.807  13.715 -0.4151  1.0317  1.5707
 6895SOL     OW32146   3.853   2.249  14.549  0.1177  0.7464  0.3839
 6895SOL    HW132147   3.912   2.190  14.596 -0.4709  0.5087  0.8365
 6895SOL    HW232148   3.770   2.211  14.581 -0.1461  1.7128  0.8554
 6896SOL     OW32149   2.349   0.373   3.345 -0.5466 -0.0939  0.0225
 6896SOL    HW132150   2.290   0.301   3.367  1.1779 -1.2387  0.8764
 6896SOL    HW232151   2.397   0.336   3.271 -1.1973  1.7346 -1.3270
 6897SOL     OW32152   1.037   2.722  10.434 -0.0063  0.5066  0.2104
 6897SOL    HW132153   1.045   2.817  10.439  0.5420  0.4994 -0.4896
 6897SOL    HW232154   1.072   2.714  10.345 -1.0075 -2.6864  0.1004
 6898SOL     OW32155   3.692   2.882  14.680  0.2111 -0.1347  0.2972
 6898SOL    HW132156   3.706   2.896  14.773  2.5963  0.6407 -0.1621
 6898SOL    HW232157   3.737   2.961  14.648  0.0226 -0.2084 -0.1470
 6899SOL     OW32158   3.434   4.652   3.622 -0.7880 -0.7545 -0.0831
 6899SOL    HW132159   3.472   4.695   3.699  0.7121 -0.6081 -0.9076
 6899SOL    HW232160   3.435   0.002   3.562  1.3748 -0.0451  0.8423
 6900SOL     OW32161   1.000   0.452  17.474 -0.0517 -0.3447  0.1368
 6900SOL    HW132162   1.001   0.548  17.470  1.2745 -0.3427  0.5497
 6900SOL    HW232163   0.925   0.441  17.533 -0.3736 -1.6024 -0.5140
 6901SOL     OW32164   1.310   1.177  12.730 -0.2128 -0.3161  0.0376
 6901SOL    HW132165   1.231   1.147  12.687 -0.1818  1.7997 -1.5145
 6901SOL    HW232166   1.279   1.264  12.758 -0.7295 -1.0243  1.6655
 6902SOL     OW32167   4.108   4.631   8.507  0.4870 -0.2609  0.1061
 6902SOL    HW132168   4.059   4.556   8.541 -0.1974  0.4793  0.7372
 6902SOL    HW232169   4.162   4.656   8.582  1.9794 -1.8764 -0.4340
 6903SOL     OW32170   3.413   2.568   4.534 -0.7449 -0.5452 -0.3146
 6903SOL    HW132171   3.423   2.641   4.596 -1.6461  0.3381 -1.2081
 6903SOL    HW232172   3.415   2.617   4.452 -1.0368 -0.2729 -0.1612
 6904SOL     OW32173   4.164   1.523   8.259 -0.1917 -0.4415 -0.1303
 6904SOL    HW132174   4.139   1.615   8.264  1.3058  0.0528 -1.8122
 6904SOL    HW232175   4.226   1.520   8.331 -0.1230  1.2976 -0.1259
 6905SOL     OW32176   1.001   4.639   4.267  0.3880 -0.1723 -0.1116
 6905SOL    HW132177   1.028   4.662   4.356 -2.1604  1.3968  0.2710
 6905SOL    HW232178   0.974   4.548   4.278  2.3145 -1.0624 -2.7173
 6906SOL     OW32179   3.923   2.094   3.821 -0.0611 -0.1483 -0.1392
 6906SOL    HW132180   3.921   2.095   3.725  0.7359  1.2254 -0.1310
 6906SOL    HW232181   3.924   2.186   3.845  2.2314 -0.6621  1.6490
 6907SOL     OW32182   3.784   2.581   5.344 -0.3972 -0.5753 -0.6708
 6907SOL    HW132183   3.873   2.613   5.354 -0.8691  0.8215 -0.9213
 6907SOL    HW232184   3.756   2.593   5.435  2.6409  1.2148  0.0318
 6908SOL     OW32185   0.124   0.976   7.661 -0.4245  0.2215  0.3136
 6908SOL    HW132186   0.110   0.904   7.722 -0.9874  1.3701  1.5392
 6908SOL    HW232187   0.055   0.968   7.595 -0.5716 -1.6036  0.6967
 6909SOL     OW32188   0.712   4.711  15.488  0.6694 -0.1792 -0.0569
 6909SOL    HW132189   0.778   4.710  15.557 -1.0902  4.4298  1.6709
 6909SOL    HW232190   0.635   0.036  15.516  0.9267  0.5707 -0.6656
 6910SOL     OW32191   3.951   3.682   3.347  0.3595  0.2698 -0.0736
 6910SOL    HW132192   4.039   3.720   3.357  1.1717 -1.9051  1.0985
 6910SOL    HW232193   3.902   3.744   3.401  0.9118 -0.0367  0.7779
 6911SOL     OW32194   0.620   2.907   9.567 -0.0816 -0.1961 -0.0185
 6911SOL    HW132195   0.702   2.908   9.617  0.1220  2.4376 -0.4585
 6911SOL    HW232196   0.602   2.999   9.585  0.5008 -0.1492  0.3244
 6912SOL     OW32197   0.773   1.514   3.472 -1.0631  0.2806  0.4110
 6912SOL    HW132198   0.754   1.426   3.504 -0.6376  0.6893  1.7915
 6912SOL    HW232199   0.865   1.509   3.445 -1.0472  0.8294  0.3500
 6913SOL     OW32200   2.534   2.942   4.703 -0.0671 -0.1705 -0.0192
 6913SOL    HW132201   2.585   2.861   4.708  1.1608  0.6737  1.2192
 6913SOL    HW232202   2.491   2.946   4.789  1.5794 -1.5724  0.8732
 6914SOL     OW32203   3.595   3.411  11.483 -0.1944  0.4244 -0.1280
 6914SOL    HW132204   3.589   3.382  11.392  0.3457 -2.1778  0.6521
 6914SOL    HW232205   3.581   3.329  11.531 -0.3404 -0.5244 -1.7913
 6915SOL     OW32206   4.147   3.974   1.199 -0.4527 -0.1748  0.2226
 6915SOL    HW132207   4.093   3.905   1.160 -1.0757 -0.0941  0.9285
 6915SOL    HW232208   4.106   4.057   1.173 -2.9185 -0.5401  2.8774
 6916SOL     OW32209   2.870   0.206  10.277  0.7151  0.2778 -0.1810
 6916SOL    HW132210   2.902   0.136  10.333  2.1820  1.3495  0.3051
 6916SOL    HW232211   2.860   0.279  10.338  1.1100  1.0700 -1.0706
 6917SOL     OW32212   3.595   4.301   3.858  0.2879 -0.0713  0.0731
 6917SOL    HW132213   3.588   4.265   3.946  2.0306 -1.2422 -0.2565
 6917SOL    HW232214   3.519   4.359   3.865 -3.1948 -4.4696 -1.9381
 6918SOL     OW32215   3.079   4.049   0.212  0.2234  0.3398 -0.5176
 6918SOL    HW132216   3.165   4.041   0.253 -0.3904 -1.4713  0.4365
 6918SOL    HW232217   3.031   3.976   0.252 -2.3564  0.8341 -2.6926
 6919SOL     OW32218   3.596   0.571   9.713 -0.3880  0.7016  0.2247
 6919SOL    HW132219   3.520   0.525   9.750 -1.0219  3.3044  2.1661
 6919SOL    HW232220   3.652   0.579   9.790 -0.0453 -0.7126  0.1124
 6920SOL     OW32221   4.164   0.281   2.351  0.1893  0.2507 -0.7073
 6920SOL    HW132222   4.169   0.268   2.257  0.4040  1.3920 -0.8607
 6920SOL    HW232223   4.179   0.376   2.352 -1.4152  0.4980 -0.3878
 6921SOL     OW32224   2.323   2.929   3.191  0.2470  0.5923  0.0335
 6921SOL    HW132225   2.314   3.021   3.168 -0.5081  0.6102  0.4051
 6921SOL    HW232226   2.400   2.941   3.247 -1.0006 -1.0197  2.1192
 6922SOL     OW32227   4.439   2.643   1.882  0.5923  0.2091  0.1322
 6922SOL    HW132228   4.402   2.673   1.799 -1.3041  0.9743  1.2441
 6922SOL    HW232229   4.496   2.720   1.890 -0.7392  1.0695  1.3864
 6923SOL     OW32230   4.060   2.548   2.876  0.2982  0.0533 -0.3337
 6923SOL    HW132231   4.074   2.549   2.971  2.2273  2.3981 -0.6449
 6923SOL    HW232232   4.078   2.457   2.854 -3.5701 -1.2344  1.7644
 6924SOL     OW32233   3.609   1.124   7.897  0.1654  0.0592 -0.0159
 6924SOL    HW132234   3.594   1.181   7.822 -0.4989 -0.5587 -0.3492
 6924SOL    HW232235   3.703   1.127   7.918  0.4508  0.7401 -1.3797
 6925SOL     OW32236   4.357   1.122  16.519  0.3509 -0.1722 -0.3149
 6925SOL    HW132237   4.359   1.101  16.613 -0.0327  1.3437  0.0421
 6925SOL    HW232238   4.264   1.109  16.501 -0.2246  0.5999  2.0787
 6926SOL     OW32239   3.192   0.305   4.263 -0.2320  0.5020 -0.2529
 6926SOL    HW132240   3.213   0.323   4.171  0.5441 -0.7666 -0.3166
 6926SOL    HW232241   3.107   0.348   4.275 -1.3469 -1.8627  0.5117
 6927SOL     OW32242   3.065   4.592   4.843 -0.0888  0.4543 -0.7462
 6927SOL    HW132243   3.028   4.680   4.853 -0.1628  0.5159 -1.5929
 6927SOL    HW232244   3.069   4.585   4.748 -0.3266 -0.5967 -0.6720
 6928SOL     OW32245   1.225   1.963   2.693  0.1691 -0.1109 -0.0419
 6928SOL    HW132246   1.175   1.882   2.678  2.3586 -1.7366  1.4016
 6928SOL    HW232247   1.275   1.973   2.612  1.2600 -2.3020  0.3467
 6929SOL     OW32248   3.432   4.085   6.494 -0.0962  0.2211 -0.1346
 6929SOL    HW132249   3.503   4.137   6.532  0.0862 -0.4863  0.4856
 6929SOL    HW232250   3.487   4.007   6.485 -0.1120  0.3194 -1.1646
 6930SOL     OW32251   2.474   4.394   2.627 -0.1893  0.5351 -0.4365
 6930SOL    HW132252   2.553   4.430   2.667 -0.7829 -0.3563  1.4927
 6930SOL    HW232253   2.461   4.456   2.554  1.6771  0.9162 -0.4473
 6931SOL     OW32254   2.458   3.805   8.258 -0.6473  0.1953 -0.6385
 6931SOL    HW132255   2.495   3.887   8.291  2.3549 -0.5160 -2.2507
 6931SOL    HW232256   2.366   3.833   8.259 -0.5760  0.4127 -0.1546
 6932SOL     OW32257   2.129   0.257   9.810 -0.7192 -0.3381  0.9047
 6932SOL    HW132258   2.176   0.295   9.737 -1.7458  0.7793  0.8354
 6932SOL    HW232259   2.179   0.177   9.825 -0.6118 -0.3128  0.6764
 6933SOL     OW32260   3.496   4.698  17.080 -0.2348 -0.2365  0.6868
 6933SOL    HW132261   3.453   0.051  17.116  0.1961  0.7534 -0.9453
 6933SOL    HW232262   3.537   0.006  17.000  2.6535 -2.7448  1.1646
 6934SOL     OW32263   4.626   2.700  15.209 -0.3748  0.1068 -0.0407
 6934SOL    HW132264   4.641   2.652  15.291 -1.1044 -1.4147 -0.7932
 6934SOL    HW232265   4.549   2.754  15.228 -0.1731  0.4565 -0.2232
 6935SOL     OW32266   3.431   3.572  11.651 -0.0227 -0.1367 -0.0294
 6935SOL    HW132267   3.492   3.625  11.703 -0.3672  2.0909 -1.8633
 6935SOL    HW232268   3.493   3.533  11.590 -1.3646 -1.4955 -0.5244
 6936SOL     OW32269   1.281   3.965  16.458  0.1613  0.1123  0.3046
 6936SOL    HW132270   1.198   3.981  16.502  0.3388  0.7725  0.4143
 6936SOL    HW232271   1.256   3.931  16.373 -1.2344 -1.4170  1.3221
 6937SOL     OW32272   4.484   3.266   7.157 -0.1604 -0.0792 -0.2263
 6937SOL    HW132273   4.484   3.357   7.128  1.4616  0.3641  1.1850
 6937SOL    HW232274   4.496   3.279   7.251 -0.3600 -1.5674  0.0001
 6938SOL     OW32275   4.432   1.651  12.583  0.0406 -0.1940  0.1786
 6938SOL    HW132276   4.376   1.729  12.579  0.7560  0.2284 -1.4336
 6938SOL    HW232277   4.407   1.610  12.500  1.8510  0.7933 -0.8501
 6939SOL     OW32278   3.694   1.772  13.159  0.4567  0.2644 -0.0108
 6939SOL    HW132279   3.654   1.726  13.085  0.1079  0.7042 -0.0973
 6939SOL    HW232280   3.636   1.750  13.232  1.3845  1.3560  1.0406
 6940SOL     OW32281   1.825   2.372  15.960  0.2150 -0.2961  0.4049
 6940SOL    HW132282   1.903   2.338  16.003 -1.6254 -1.7641  2.5696
 6940SOL    HW232283   1.870   2.433  15.901 -0.6300  0.2750  0.3550
 6941SOL     OW32284   1.125   2.083  15.868  0.3042 -0.8941 -0.5567
 6941SOL    HW132285   1.157   1.995  15.849  0.1228 -1.2025  0.5621
 6941SOL    HW232286   1.036   2.060  15.896  0.0087  0.1138 -0.6661
 6942SOL     OW32287   0.262   2.590   7.516 -0.5232 -0.9149 -0.3035
 6942SOL    HW132288   0.277   2.682   7.537 -2.5264 -0.0668 -2.5369
 6942SOL    HW232289   0.329   2.545   7.567 -0.3013 -0.0751  0.1402
 6943SOL     OW32290   0.790   1.201   7.803 -0.0168 -0.3302 -0.5876
 6943SOL    HW132291   0.763   1.180   7.713 -0.1409  0.5716 -0.7618
 6943SOL    HW232292   0.706   1.226   7.841  0.1903  1.0238 -1.0300
 6944SOL     OW32293   2.530   2.298   2.888 -0.0027 -0.2528  0.1507
 6944SOL    HW132294   2.558   2.382   2.923  3.3465 -0.4409 -2.1169
 6944SOL    HW232295   2.590   2.276   2.816 -0.2542  2.0947 -0.7667
 6945SOL     OW32296   3.570   2.672  10.962  0.3002  0.3067  0.8132
 6945SOL    HW132297   3.552   2.730  11.036 -0.4522  1.8692 -0.5859
 6945SOL    HW232298   3.487   2.692  10.917  1.3728  1.2105 -0.7654
 6946SOL     OW32299   2.827   4.179   2.931  0.3576  0.4044 -0.7359
 6946SOL    HW132300   2.884   4.182   2.855 -3.4924  1.6857 -3.5744
 6946SOL    HW232301   2.855   4.092   2.959 -0.4640 -0.2803 -2.0312
 6947SOL     OW32302   0.616   1.697   9.595 -0.3319 -0.0778 -0.1328
 6947SOL    HW132303   0.578   1.725   9.678  0.0967  3.0217 -0.9739
 6947SOL    HW232304   0.536   1.670   9.551 -0.1559  1.0868 -1.1682
 6948SOL     OW32305   4.139   1.072   7.126  0.2550 -0.2251 -0.4618
 6948SOL    HW132306   4.045   1.084   7.122  0.1362 -0.6308  0.9294
 6948SOL    HW232307   4.140   1.071   7.222 -1.6474 -0.7910 -0.4610
 6949SOL     OW32308   3.795   1.440   2.701 -0.4336  0.5081 -0.2066
 6949SOL    HW132309   3.838   1.387   2.768  0.6220  0.8157 -0.6331
 6949SOL    HW232310   3.846   1.419   2.622 -0.7866  1.7333 -0.7653
 6950SOL     OW32311   3.331   0.770   5.560  0.0256  0.1127  0.5833
 6950SOL    HW132312   3.339   0.693   5.504 -1.0925  0.5979 -0.2528
 6950SOL    HW232313   3.426   0.783   5.559 -0.3047  2.5817  0.8241
 6951SOL     OW32314   2.179   1.016   0.291  0.3265  0.1783  0.3904
 6951SOL    HW132315   2.108   1.079   0.273  0.6106 -0.1911 -2.0340
 6951SOL    HW232316   2.153   0.975   0.373  0.6411 -1.8259 -0.5264
 6952SOL     OW32317   2.706   4.373   9.883 -0.6371  0.1827 -0.5858
 6952SOL    HW132318   2.793   4.387   9.847  0.2305 -0.2860  1.2965
 6952SOL    HW232319   2.711   4.281   9.911  1.4738  0.0588 -1.4499
 6953SOL     OW32320   1.849   2.089   5.772 -0.0697 -0.2199  0.1086
 6953SOL    HW132321   1.822   2.105   5.681  1.8390 -0.6218 -0.5305
 6953SOL    HW232322   1.923   2.147   5.786  1.2895 -1.9461 -0.0016
 6954SOL     OW32323   1.289   0.920   1.455  0.0366 -0.3503 -0.1446
 6954SOL    HW132324   1.288   0.830   1.420  0.2608  0.3461 -1.9641
 6954SOL    HW232325   1.276   0.966   1.372 -0.5126  0.0920  0.1889
 6955SOL     OW32326   2.204   2.751   2.068  0.1442  0.6788  0.0868
 6955SOL    HW132327   2.169   2.786   1.986 -0.8269  0.8147  0.5490
 6955SOL    HW232328   2.291   2.790   2.070  0.5890 -0.2325 -2.0840
 6956SOL     OW32329   3.569   4.648   9.092 -0.8185  0.1184 -0.3411
 6956SOL    HW132330   3.581   0.009   9.134 -0.4754  0.2130 -0.6277
 6956SOL    HW232331   3.506   4.608   9.152  1.2538  0.3687  2.0461
 6957SOL     OW32332   4.501   2.549   4.083 -0.4012 -0.1904  0.1115
 6957SOL    HW132333   4.578   2.544   4.026  0.3238 -0.5242  1.1247
 6957SOL    HW232334   4.434   2.519   4.022 -1.2175 -0.9516  1.3780
 6958SOL     OW32335   4.683   3.992   4.242  0.0229 -0.1756  0.3257
 6958SOL    HW132336   4.713   4.024   4.157  2.4904 -0.2345  1.1971
 6958SOL    HW232337   0.033   3.937   4.268  0.0967 -1.2706 -2.1553
 6959SOL     OW32338   1.192   1.835  15.729  0.5678 -0.2549 -0.2106
 6959SOL    HW132339   1.280   1.870  15.714  0.4886  0.1821  0.3407
 6959SOL    HW232340   1.207   1.765  15.792  0.2816 -0.2343 -0.1192
 6960SOL     OW32341   1.262   0.528   8.602  0.0716 -0.1675 -0.5735
 6960SOL    HW132342   1.181   0.579   8.609  1.6756  2.2564  0.2960
 6960SOL    HW232343   1.270   0.482   8.686  3.0956  1.0537 -0.2169
 6961SOL     OW32344   0.547   2.815   3.676 -0.1907  0.0288  0.4235
 6961SOL    HW132345   0.571   2.728   3.709  1.2425 -0.2178 -1.2385
 6961SOL    HW232346   0.587   2.873   3.741  1.0732  1.2492 -1.4409
 6962SOL     OW32347   0.913   3.919   9.595 -0.0255  0.1813  0.3263
 6962SOL    HW132348   0.825   3.933   9.630 -0.1845  0.1021 -0.0445
 6962SOL    HW232349   0.922   3.824   9.600 -0.0076  0.2190  1.0513
 6963SOL     OW32350   4.526   3.613  11.346 -0.0697 -0.1268  0.1457
 6963SOL    HW132351   4.519   3.697  11.300  2.1404  1.5663  2.9413
 6963SOL    HW232352   4.460   3.625  11.414 -0.3951  0.5419 -0.2847
 6964SOL     OW32353   3.559   3.072   4.273 -0.1021 -0.3627 -0.3607
 6964SOL    HW132354   3.565   2.986   4.230 -1.0488 -0.0853 -1.0502
 6964SOL    HW232355   3.467   3.095   4.286 -0.1527  0.2867 -1.7784
 6965SOL     OW32356   3.177   0.428  10.192 -0.0777  0.0850 -0.6793
 6965SOL    HW132357   3.251   0.390  10.144  0.4023 -0.2640  0.3507
 6965SOL    HW232358   3.100   0.405  10.139 -0.3706 -1.9287  0.6225
 6966SOL     OW32359   4.435   2.423   8.213 -0.0103 -0.5527  0.9296
 6966SOL    HW132360   4.366   2.356   8.211 -0.2150 -0.2610 -1.9947
 6966SOL    HW232361   4.515   2.372   8.202  1.2830  1.5300  0.6098
 6967SOL     OW32362   4.153   1.923   9.705  0.0239  0.0001 -0.0868
 6967SOL    HW132363   4.200   1.950   9.627 -1.9971  2.3005 -0.5007
 6967SOL    HW232364   4.120   1.840   9.670  0.0517  0.7992 -1.9774
 6968SOL     OW32365   1.076   1.993   7.016  0.0744  0.3968  0.5757
 6968SOL    HW132366   1.129   1.996   6.936 -1.0388 -0.8353 -0.1922
 6968SOL    HW232367   1.034   2.076   6.993  1.0996  0.0578 -2.4912
 6969SOL     OW32368   2.841   0.458  10.869  0.0586  0.2492 -0.2067
 6969SOL    HW132369   2.908   0.514  10.829  0.5964  2.3880  3.6905
 6969SOL    HW232370   2.821   0.511  10.946  0.3905  2.9538 -1.9636
 6970SOL     OW32371   3.425   1.888   9.828 -0.3113 -0.2223 -0.3146
 6970SOL    HW132372   3.406   1.883   9.922  0.0431  1.5641 -0.1399
 6970SOL    HW232373   3.368   1.821   9.791 -0.5173  0.3045 -0.9558
 6971SOL     OW32374   1.313   3.822   3.199  0.3018 -0.2680 -0.0368
 6971SOL    HW132375   1.383   3.814   3.134 -2.6012 -2.7675 -2.8822
 6971SOL    HW232376   1.323   3.914   3.222  2.2099 -1.0097  2.1575
 6972SOL     OW32377   1.951   3.398  14.072  0.3804  0.0089 -0.3167
 6972SOL    HW132378   1.885   3.440  14.016 -1.1276  1.2014  2.3918
 6972SOL    HW232379   1.889   3.368  14.139 -0.9404  2.3283 -0.5228
 6973SOL     OW32380   4.432   2.432   5.319  0.6956  0.6716  0.3726
 6973SOL    HW132381   4.497   2.369   5.287  0.7050  0.6303  0.4747
 6973SOL    HW232382   4.405   2.474   5.236  0.8980 -0.3263 -0.1959
 6974SOL     OW32383   3.473   3.972   5.668 -0.2679  0.0063  0.3957
 6974SOL    HW132384   3.475   3.975   5.763  0.8632  0.4418  0.3558
 6974SOL    HW232385   3.422   4.049   5.643 -0.0468 -0.4409 -1.4415
 6975SOL     OW32386   2.732   3.803  11.309  0.1143 -0.1374 -0.0747
 6975SOL    HW132387   2.772   3.854  11.380 -1.1013 -0.1089  0.5880
 6975SOL    HW232388   2.767   3.853  11.235 -1.1065  0.1330 -0.4664
 6976SOL     OW32389   0.031   1.865   2.913  0.0403  0.2275  0.2778
 6976SOL    HW132390   0.117   1.907   2.917  0.3004 -0.3830  1.1349
 6976SOL    HW232391   4.698   1.938   2.889 -0.6856  0.2393  2.0750
 6977SOL     OW32392   4.260   3.094   9.838 -0.0940 -0.2875 -0.3077
 6977SOL    HW132393   4.229   3.009   9.806  0.8849 -0.0249 -1.9911
 6977SOL    HW232394   4.172   3.127   9.856  1.5205  2.9111  1.6654
 6978SOL     OW32395   1.531   1.143   7.369 -0.1055  0.2261  0.6656
 6978SOL    HW132396   1.587   1.219   7.381  0.5894 -0.5780  2.4646
 6978SOL    HW232397   1.519   1.154   7.274  0.5880  1.5342  0.7441
 6979SOL     OW32398   0.177   3.625   4.937 -0.3127 -0.3451  0.1693
 6979SOL    HW132399   0.153   3.533   4.948  0.0579 -0.5258 -0.5249
 6979SOL    HW232400   0.273   3.630   4.937 -0.1649 -3.3138  3.1027
 6980SOL     OW32401   2.928   0.613   3.684  0.4641 -0.4383 -0.1765
 6980SOL    HW132402   2.965   0.657   3.761 -1.3834  1.0018 -0.0979
 6980SOL    HW232403   2.977   0.531   3.693  2.0921  0.2997 -2.6482
 6981SOL     OW32404   2.927   2.761  11.631 -0.7179  0.1837  0.0136
 6981SOL    HW132405   2.909   2.832  11.570 -1.0634  0.4766  0.4634
 6981SOL    HW232406   2.994   2.802  11.685  0.4158 -2.5007  0.6700
 6982SOL     OW32407   1.207   4.692   3.306  0.1349  0.1103 -0.0719
 6982SOL    HW132408   1.111   4.697   3.314  0.0215 -0.4853 -1.1294
 6982SOL    HW232409   1.223   4.676   3.213 -2.6900 -0.5866 -0.4633
 6983SOL     OW32410   4.075   0.550   4.914 -0.5063 -0.4095  0.1638
 6983SOL    HW132411   4.016   0.544   4.839  0.1268 -3.1593 -0.1264
 6983SOL    HW232412   4.143   0.609   4.884 -0.8315 -0.5531 -0.8727
 6984SOL     OW32413   3.952   0.703   7.909 -0.2340  0.1660  0.6795
 6984SOL    HW132414   3.876   0.663   7.952  0.4655 -1.1581  0.6859
 6984SOL    HW232415   4.023   0.641   7.928  1.3335  1.4911 -0.8020
 6985SOL     OW32416   0.276   1.195   3.136 -0.4283 -0.1615 -0.5466
 6985SOL    HW132417   0.333   1.195   3.059  1.8535  0.7392  1.1468
 6985SOL    HW232418   0.229   1.279   3.128 -0.5418 -0.1289  0.4774
 6986SOL     OW32419   1.374   3.147  12.074 -0.0497  0.1362  0.4829
 6986SOL    HW132420   1.379   3.168  11.981 -0.4930  2.2394  0.9187
 6986SOL    HW232421   1.450   3.197  12.106  1.4016 -1.7611 -0.0431
 6987SOL     OW32422   0.290   1.896   9.273  0.3948 -0.5713  0.3100
 6987SOL    HW132423   0.260   1.807   9.295  2.3969 -0.9912  1.3078
 6987SOL    HW232424   0.229   1.954   9.318  0.6974  0.3105 -0.4207
 6988SOL     OW32425   0.366   3.889  15.299  0.4807 -0.1820 -0.2447
 6988SOL    HW132426   0.448   3.907  15.254  0.9743 -1.3988  0.1659
 6988SOL    HW232427   0.304   3.920  15.233  0.0286  1.4442  0.9632
 6989SOL     OW32428   0.121   1.503  15.224  0.0758  0.1356  0.1749
 6989SOL    HW132429   0.180   1.436  15.260  0.0348 -0.3984 -0.7532
 6989SOL    HW232430   0.048   1.448  15.195 -0.0161  0.6784 -0.6091
 6990SOL     OW32431   2.390   1.121   6.475  0.3334  0.2992  0.9120
 6990SOL    HW132432   2.365   1.208   6.505 -1.3669  0.1412 -0.0447
 6990SOL    HW232433   2.453   1.104   6.546  0.5193  0.2329  0.7295
 6991SOL     OW32434   1.239   0.811   7.338 -0.1422  0.1743  0.2857
 6991SOL    HW132435   1.257   0.905   7.338 -0.1903  0.1912 -2.7782
 6991SOL    HW232436   1.154   0.807   7.294  0.3672 -3.2713 -0.4083
 6992SOL     OW32437   3.639   2.464   3.278  0.2105 -0.2216 -0.6274
 6992SOL    HW132438   3.637   2.369   3.273  0.6717 -0.2244 -0.7968
 6992SOL    HW232439   3.612   2.483   3.189  1.2256  1.7798 -0.5131
 6993SOL     OW32440   0.445   1.143   1.692 -0.3490 -0.1534 -0.0350
 6993SOL    HW132441   0.451   1.214   1.755  0.7205  0.1456 -0.4879
 6993SOL    HW232442   0.381   1.089   1.739 -1.2394 -0.9604 -2.1430
 6994SOL     OW32443   0.689   4.177   4.940 -0.5701 -0.6157 -0.3531
 6994SOL    HW132444   0.756   4.132   4.890 -0.5330 -0.5309 -0.3810
 6994SOL    HW232445   0.648   4.103   4.985 -1.0540 -0.1226  0.0211
 6995SOL     OW32446   3.621   4.586   8.609 -0.1960  0.1824  0.0237
 6995SOL    HW132447   3.626   4.490   8.600 -0.7249  0.4562 -3.2050
 6995SOL    HW232448   3.582   4.591   8.696  1.5396 -2.1926  0.9682
 6996SOL     OW32449   0.754   0.246   7.646  0.5993  0.2060 -0.4108
 6996SOL    HW132450   0.835   0.200   7.623 -0.4073 -2.3074  1.1347
 6996SOL    HW232451   0.718   0.264   7.559 -1.2312  1.8689  0.6991
 6997SOL     OW32452   2.801   2.280   2.451  0.3601  0.3423 -0.3667
 6997SOL    HW132453   2.765   2.367   2.432  2.0074  1.4207  1.4865
 6997SOL    HW232454   2.765   2.228   2.380  0.6070  0.6080 -0.6898
 6998SOL     OW32455   1.987   3.504   7.961  0.2308 -0.0279  0.6436
 6998SOL    HW132456   2.056   3.488   7.896  0.5498  1.8979  0.5026
 6998SOL    HW232457   1.978   3.420   8.006  0.3796 -0.3586  0.0539
 6999SOL     OW32458   4.384   3.769   8.144 -0.2908  0.2068 -0.0343
 6999SOL    HW132459   4.299   3.727   8.132 -0.8195  0.7949  1.6204
 6999SOL    HW232460   4.393   3.801   8.234 -3.3059 -0.1572  0.3895
 7000SOL     OW32461   4.390   0.146   8.307 -0.1292 -0.0966  0.6880
 7000SOL    HW132462   4.370   0.111   8.220 -1.1715 -0.9173  1.2445
 7000SOL    HW232463   4.302   0.152   8.345  0.0253 -1.1748  1.2118
 7001SOL     OW32464   1.281   1.321  11.109  0.1280  0.1539  0.4994
 7001SOL    HW132465   1.319   1.391  11.056 -0.4893 -1.4510 -2.0371
 7001SOL    HW232466   1.258   1.251  11.047  0.5915  0.2669  0.2048
 7002SOL     OW32467   2.057   0.177   3.262 -0.6826 -0.0502  0.2350
 7002SOL    HW132468   2.008   0.101   3.229 -2.5093  2.0328 -1.8452
 7002SOL    HW232469   2.142   0.139   3.283 -1.0079  0.5656  2.6636
 7003SOL     OW32470   3.427   0.186   2.427  0.2303  0.2862  1.0156
 7003SOL    HW132471   3.481   0.218   2.355 -1.4350 -0.4823 -0.5775
 7003SOL    HW232472   3.342   0.207   2.387  0.1981  0.3624  1.1256
 7004SOL     OW32473   4.333   0.224   6.741 -0.2871  0.1810  0.0022
 7004SOL    HW132474   4.250   0.271   6.748 -0.9313 -0.9354 -0.0061
 7004SOL    HW232475   4.297   0.140   6.712 -0.2875 -0.6216  2.2708
 7005SOL     OW32476   0.744   4.637   9.735 -0.0242 -0.0907  0.2858
 7005SOL    HW132477   0.784   4.614   9.818  0.1977 -1.8224 -0.3045
 7005SOL    HW232478   0.774   4.569   9.674 -0.8402 -0.2873  0.0960
 7006SOL     OW32479   4.474   1.393   7.313  0.3327  0.3221 -0.2956
 7006SOL    HW132480   4.383   1.369   7.329  0.1118  0.5684 -1.1895
 7006SOL    HW232481   4.467   1.486   7.334  2.2434 -0.1796  2.5976
 7007SOL     OW32482   2.371   0.365  15.840  0.0179  0.2677 -0.0438
 7007SOL    HW132483   2.371   0.449  15.886  0.9828  1.3801 -2.0619
 7007SOL    HW232484   2.278   0.348  15.829 -0.2190  1.2451  0.4182
 7008SOL     OW32485   3.943   4.413   0.002  0.1769  0.5432 -0.2441
 7008SOL    HW132486   3.955   4.502  17.668  2.2095 -0.8891 -3.4440
 7008SOL    HW232487   3.849   4.405  17.686  0.5041 -1.8698 -1.1982
 7009SOL     OW32488   4.610   2.139   2.752  0.0334  0.0416 -0.1189
 7009SOL    HW132489   4.573   2.169   2.835 -0.1258  0.2595 -0.2686
 7009SOL    HW232490   4.624   2.224   2.709 -2.1173 -0.1929 -1.2872
 7010SOL     OW32491   2.897   4.330  17.139 -0.5392 -0.4318 -0.1883
 7010SOL    HW132492   2.868   4.401  17.197 -3.7968 -0.5785 -1.6027
 7010SOL    HW232493   2.922   4.264  17.204  0.6008  1.4331  1.2884
 7011SOL     OW32494   0.637   4.558   4.790  0.3088  0.7811 -0.3524
 7011SOL    HW132495   0.630   4.652   4.807  2.0256  0.6455  1.0991
 7011SOL    HW232496   0.732   4.549   4.783  0.3513  1.0384 -0.0808
 7012SOL     OW32497   2.666   2.890   8.961 -0.0329 -0.6535  0.4240
 7012SOL    HW132498   2.680   2.855   9.049  1.1404  1.0510  0.9145
 7012SOL    HW232499   2.710   2.818   8.916  0.7393  0.3824 -0.4782
 7013SOL     OW32500   2.085   0.028  15.817 -0.0409  0.3820  0.2673
 7013SOL    HW132501   2.091   0.121  15.797  0.6629  0.1195 -0.7241
 7013SOL    HW232502   2.171   4.721  15.786 -0.2239 -1.6906  1.8153
 7014SOL     OW32503   1.860   3.091   2.234  0.3788 -0.1138 -0.0903
 7014SOL    HW132504   1.864   3.126   2.145  3.9468  1.4521  0.6966
 7014SOL    HW232505   1.933   3.029   2.228 -1.8586 -2.6780 -0.7309
 7015SOL     OW32506   4.612   4.347   6.773 -0.7658  0.0867 -0.1873
 7015SOL    HW132507   4.618   4.430   6.819 -2.1005 -0.7863  1.5363
 7015SOL    HW232508   4.696   4.347   6.726  0.8803 -0.2891  2.7999
 7016SOL     OW32509   1.112   3.665   9.158  0.4144 -0.6573  0.1332
 7016SOL    HW132510   1.116   3.589   9.101 -1.8603 -0.1323 -0.7380
 7016SOL    HW232511   1.203   3.687   9.178  0.2678 -0.6772  0.8433
 7017SOL     OW32512   0.816   1.253   4.084 -0.2390 -0.4994  0.4110
 7017SOL    HW132513   0.841   1.317   4.151 -0.3973  0.1999 -0.2019
 7017SOL    HW232514   0.786   1.181   4.140 -1.1453 -0.4320  0.0033
 7018SOL     OW32515   0.790   3.759   5.593  0.6779 -0.0466  0.1367
 7018SOL    HW132516   0.710   3.707   5.587  0.3845  0.6542 -1.8610
 7018SOL    HW232517   0.855   3.694   5.569  2.4031  1.5842  0.3648
 7019SOL     OW32518   3.369   3.102  15.622  0.1622  0.3638  0.0332
 7019SOL    HW132519   3.440   3.136  15.677  1.5658 -2.1339 -0.2547
 7019SOL    HW232520   3.423   3.039  15.575  1.9844  0.8112  1.5213
 7020SOL     OW32521   2.082   1.737   7.295  0.5577  0.0842 -0.4692
 7020SOL    HW132522   2.075   1.832   7.301  0.4386  0.0919 -0.7513
 7020SOL    HW232523   2.028   1.710   7.221 -1.1259  0.4567  0.6114
 7021SOL     OW32524   2.577   0.839   9.205  0.0114 -0.0354  0.5020
 7021SOL    HW132525   2.512   0.769   9.215  0.3964 -0.6036 -0.9783
 7021SOL    HW232526   2.548   0.893   9.279  0.1121  1.9881 -0.9320
 7022SOL     OW32527   1.712   0.262   7.571  0.4202  0.3380 -0.4395
 7022SOL    HW132528   1.669   0.178   7.589  0.4390  0.0718 -1.6473
 7022SOL    HW232529   1.642   0.326   7.588 -1.2789 -1.5338 -0.3157
 7023SOL     OW32530   3.779   2.606   6.671 -0.0010  0.2553 -0.3328
 7023SOL    HW132531   3.839   2.540   6.707 -2.0435  0.4328  3.3250
 7023SOL    HW232532   3.838   2.678   6.648  0.8544 -0.1683  0.5178
 7024SOL     OW32533   3.789   0.211  15.872 -0.3518  0.0863 -0.5598
 7024SOL    HW132534   3.810   0.245  15.786 -1.6858  0.5051 -0.7124
 7024SOL    HW232535   3.717   0.258  15.914  0.8189  0.1166  1.4247
 7025SOL     OW32536   1.667   0.272   4.838 -0.3634 -0.6103  0.1915
 7025SOL    HW132537   1.706   0.184   4.834  0.3647 -0.2464 -0.5209
 7025SOL    HW232538   1.629   0.286   4.751  0.1692  0.0230  0.0669
 7026SOL     OW32539   2.575   1.639   3.654  0.2582  0.1913  0.8305
 7026SOL    HW132540   2.588   1.545   3.671 -2.5460 -0.5466 -1.1466
 7026SOL    HW232541   2.626   1.653   3.574 -0.1396 -1.2846  0.3080
 7027SOL     OW32542   3.021   0.549   6.603  0.4991 -0.0294  0.1463
 7027SOL    HW132543   3.014   0.623   6.542  1.0200 -1.6705 -1.8732
 7027SOL    HW232544   2.942   0.555   6.657  0.0472 -0.3948 -0.4903
 7028SOL     OW32545   0.443   3.892   2.485 -0.6960  0.0118 -0.4573
 7028SOL    HW132546   0.375   3.923   2.426 -2.4653 -1.7952  0.6509
 7028SOL    HW232547   0.446   3.962   2.551 -1.5529 -0.5156  0.1408
 7029SOL     OW32548   3.414   2.639   0.301  0.3319  0.3398  0.6103
 7029SOL    HW132549   3.318   2.637   0.301  0.2964  2.5921 -2.7813
 7029SOL    HW232550   3.429   2.697   0.376  0.9032 -0.1044  0.8371
 7030SOL     OW32551   2.082   4.017  15.621  0.3337  0.1201 -0.1940
 7030SOL    HW132552   2.098   3.994  15.530  1.6925  1.1453 -0.2194
 7030SOL    HW232553   2.169   4.001  15.657  0.5768  0.5604 -0.5854
 7031SOL     OW32554   0.284   1.972   8.448  0.1013 -0.1727  0.5060
 7031SOL    HW132555   0.253   2.058   8.477 -1.7606 -0.9088  0.6787
 7031SOL    HW232556   0.378   1.993   8.442 -0.0544  0.6972  1.1330
 7032SOL     OW32557   3.882   0.014  16.857 -0.0969  0.4315  0.1994
 7032SOL    HW132558   3.856   0.086  16.913 -2.0026 -0.0947 -0.0211
 7032SOL    HW232559   3.870   4.660  16.910  0.8099 -0.4710 -0.9078
 7033SOL     OW32560   4.365   2.086  15.726 -0.8557 -0.2510 -0.0210
 7033SOL    HW132561   4.367   2.026  15.652 -2.2864 -0.4029  0.0647
 7033SOL    HW232562   4.442   2.140  15.707 -0.7565 -0.3952 -0.0241
 7034SOL     OW32563   2.330   0.196   1.874 -0.1292 -0.2664  0.1034
 7034SOL    HW132564   2.360   0.162   1.959 -1.6409  1.2605  1.2427
 7034SOL    HW232565   2.282   0.275   1.896  2.2988  1.7633 -1.9423
 7035SOL     OW32566   1.773   1.878   0.689 -0.3626 -0.1943  0.4767
 7035SOL    HW132567   1.831   1.948   0.719 -0.6752  0.2296  0.1045
 7035SOL    HW232568   1.690   1.924   0.704 -0.8374 -1.0069  0.3283
 7036SOL     OW32569   2.857   1.050   2.520 -0.4114  0.3631 -0.2056
 7036SOL    HW132570   2.946   1.078   2.539 -0.4449  0.4313 -0.1507
 7036SOL    HW232571   2.838   0.988   2.591 -0.2730  1.3102  0.6506
 7037SOL     OW32572   2.410   2.211   9.789  0.0717  0.4214 -0.4352
 7037SOL    HW132573   2.347   2.160   9.839  0.0219 -0.3462 -1.2766
 7037SOL    HW232574   2.385   2.200   9.698 -2.2200 -0.1277  0.2584
 7038SOL     OW32575   3.265   1.979   2.500  0.6959 -0.1212 -0.2694
 7038SOL    HW132576   3.218   1.896   2.509 -1.8600  1.4039  0.6470
 7038SOL    HW232577   3.188   2.033   2.482 -1.4150 -3.0141  0.1297
 7039SOL     OW32578   2.951   4.394   1.735 -0.1865 -0.6565 -0.3795
 7039SOL    HW132579   2.934   4.428   1.823 -0.5402 -0.6658 -0.4437
 7039SOL    HW232580   2.955   4.469   1.676 -0.0397  0.5789  1.1954
 7040SOL     OW32581   2.660   1.676  10.886  0.4200 -0.0833 -0.4634
 7040SOL    HW132582   2.634   1.766  10.871  3.1827  0.7685 -0.0665
 7040SOL    HW232583   2.749   1.680  10.851  0.5481 -0.2025 -0.1550
 7041SOL     OW32584   0.297   3.154  12.063 -0.0382 -0.0240  0.4303
 7041SOL    HW132585   0.357   3.118  12.128 -1.3171 -4.2561 -0.6903
 7041SOL    HW232586   0.213   3.148  12.110 -0.3936 -3.2876 -0.5789
 7042SOL     OW32587   2.518   2.256   8.120  0.1913  0.2204  0.2361
 7042SOL    HW132588   2.583   2.196   8.083  0.5958  1.5163 -1.1468
 7042SOL    HW232589   2.568   2.310   8.182  0.8165 -0.2019  0.0969
 7043SOL     OW32590   4.340   1.955   8.452  0.8401  0.0573 -0.0512
 7043SOL    HW132591   4.429   1.965   8.485 -0.3428  0.5945  3.0422
 7043SOL    HW232592   4.291   2.021   8.502  0.2017 -1.6459  1.5371
 7044SOL     OW32593   0.163   4.632   0.539 -0.6989  0.2855 -0.4446
 7044SOL    HW132594   0.117   4.598   0.616  0.8522 -0.6505  0.0700
 7044SOL    HW232595   0.163   4.554   0.484 -1.1698 -0.3780  0.5036
 7045SOL     OW32596   4.312   3.135  15.551  0.6883  0.1793  0.0663
 7045SOL    HW132597   4.291   3.125  15.458  0.5388 -1.5229  0.2708
 7045SOL    HW232598   4.237   3.181  15.587  0.4804 -1.0692  1.2270
 7046SOL     OW32599   2.173   0.663   5.779  0.1467  0.6390 -0.1371
 7046SOL    HW132600   2.234   0.614   5.723 -0.7040 -0.4990 -0.0784
 7046SOL    HW232601   2.122   0.586   5.806  0.0667 -0.2302 -2.7790
 7047SOL     OW32602   3.986   3.798  13.683 -0.4965 -0.2732  0.4958
 7047SOL    HW132603   3.904   3.754  13.663  0.2775 -1.2509 -0.5242
 7047SOL    HW232604   3.952   3.887  13.678 -0.8791 -0.4474  0.0544
 7048SOL     OW32605   1.328   3.255   2.502  0.4076 -0.1617 -0.2081
 7048SOL    HW132606   1.328   3.260   2.598 -1.3027  0.0291 -0.2124
 7048SOL    HW232607   1.397   3.194   2.477 -0.9627 -1.6767 -0.3352
 7049SOL     OW32608   3.839   1.244   9.827  0.1614  0.2044 -0.2633
 7049SOL    HW132609   3.780   1.240   9.752  1.7156  5.1356 -1.7563
 7049SOL    HW232610   3.822   1.334   9.857 -1.0920 -0.3575  0.7220
 7050SOL     OW32611   3.966   2.227  13.088  0.2434  0.2248 -0.5506
 7050SOL    HW132612   3.934   2.317  13.079  1.4130  0.5077 -1.8478
 7050SOL    HW232613   3.885   2.178  13.104  1.7183 -1.5056  1.5697
 7051SOL     OW32614   3.430   0.071   1.063  0.0174  0.2523 -0.3090
 7051SOL    HW132615   3.426   0.125   1.141  1.8170 -1.8346  1.2192
 7051SOL    HW232616   3.337   0.046   1.054  0.7513 -2.3744 -0.7090
 7052SOL     OW32617   2.147   2.143  10.210 -0.0423 -0.0753 -0.0321
 7052SOL    HW132618   2.181   2.173  10.293 -0.7389  0.8974 -0.0990
 7052SOL    HW232619   2.231   2.122  10.170 -0.4073  1.3995 -1.5789
 7053SOL     OW32620   4.312   1.258  11.682 -0.1475 -0.5707  0.3853
 7053SOL    HW132621   4.277   1.210  11.758 -0.5685 -2.0045 -0.7252
 7053SOL    HW232622   4.260   1.338  11.687  0.1307 -0.3193 -1.0340
 7054SOL     OW32623   3.884   2.495   1.390 -0.6510  0.3808  0.1426
 7054SOL    HW132624   3.864   2.407   1.359 -1.7933  0.1854  1.4061
 7054SOL    HW232625   3.886   2.484   1.485  1.9256 -1.2646 -0.1095
 7055SOL     OW32626   1.929   3.231   3.572 -0.2833  0.1310 -0.2845
 7055SOL    HW132627   1.837   3.246   3.595 -0.2745 -0.0423 -0.1343
 7055SOL    HW232628   1.929   3.140   3.542  0.8549  0.6253 -1.7689
 7056SOL     OW32629   2.260   3.664  11.568 -0.4190 -0.0228 -0.0713
 7056SOL    HW132630   2.252   3.752  11.532  0.3926 -0.5374 -1.5210
 7056SOL    HW232631   2.205   3.613  11.508  0.6603 -0.2117 -0.9023
 7057SOL     OW32632   3.082   2.301   2.483 -0.0489  0.4713 -0.0728
 7057SOL    HW132633   3.029   2.223   2.466  1.2767 -0.0030 -2.0450
 7057SOL    HW232634   3.085   2.299   2.579  1.7247 -1.0311 -0.1689
 7058SOL     OW32635   2.442   1.620   6.098 -0.4420  0.0402 -0.3782
 7058SOL    HW132636   2.448   1.555   6.168 -1.3153  2.9055  2.3546
 7058SOL    HW232637   2.478   1.704   6.126 -1.7873  0.5048 -0.0161
 7059SOL     OW32638   1.245   3.108   7.970  0.0695  0.2593  0.4766
 7059SOL    HW132639   1.284   3.044   7.911  0.0592 -0.4596  1.2449
 7059SOL    HW232640   1.327   3.148   7.999 -0.4543  1.8570 -0.2224
 7060SOL     OW32641   2.122   0.346   7.353 -0.4572  0.3036 -0.1996
 7060SOL    HW132642   2.057   0.395   7.302 -1.6635 -1.7085 -0.5949
 7060SOL    HW232643   2.188   0.413   7.372  0.5169 -0.5082 -0.7725
 7061SOL     OW32644   4.433   3.043   3.123  0.2954  0.2498 -0.4754
 7061SOL    HW132645   4.352   3.018   3.079 -1.1352  2.0260  1.1959
 7061SOL    HW232646   4.396   3.092   3.196 -1.3666 -2.0751  0.2429
 7062SOL     OW32647   3.515   0.570   8.282 -0.2888  0.3139  0.6704
 7062SOL    HW132648   3.485   0.502   8.343  0.2201  1.0440  1.7418
 7062SOL    HW232649   3.561   0.625   8.346 -1.6045  0.0039  1.8981
 7063SOL     OW32650   4.468   3.912  11.705  0.1752  0.0396 -0.0668
 7063SOL    HW132651   4.490   3.899  11.797  2.3673  2.6002 -0.2310
 7063SOL    HW232652   4.553   3.943  11.674 -0.1765  0.3823 -0.6978
 7064SOL     OW32653   1.680   1.610   4.672  0.1163 -0.0928  0.2499
 7064SOL    HW132654   1.655   1.700   4.652  3.4896  0.8498  0.1906
 7064SOL    HW232655   1.755   1.621   4.731 -0.5830 -1.6013  1.4265
 7065SOL     OW32656   1.197   1.580   7.016 -0.3040  0.0029  0.0329
 7065SOL    HW132657   1.108   1.585   7.052 -0.1401  0.0306  0.4293
 7065SOL    HW232658   1.228   1.664   7.048 -1.7086  0.7229 -0.5138
 7066SOL     OW32659   2.215   2.626   9.119  0.0446  0.2611 -0.5993
 7066SOL    HW132660   2.195   2.622   9.213 -2.8922  0.7253 -1.2076
 7066SOL    HW232661   2.145   2.571   9.083  0.4916 -1.9861  1.9417
 7067SOL     OW32662   4.385   1.088   2.215 -0.0437 -0.5375 -0.1756
 7067SOL    HW132663   4.297   1.111   2.186  0.6616 -0.0516 -1.9920
 7067SOL    HW232664   4.437   1.132   2.147 -0.3242 -1.0244 -0.7131
 7068SOL     OW32665   4.521   4.475   6.417  0.3539  0.4135  0.1929
 7068SOL    HW132666   4.463   4.510   6.349  1.3370  0.9383 -0.3916
 7068SOL    HW232667   4.502   4.528   6.494 -2.1590 -1.0710  0.5828
 7069SOL     OW32668   3.572   4.335  10.438 -0.0338 -0.2743 -0.7573
 7069SOL    HW132669   3.537   4.292  10.516 -0.3781  1.0841 -0.1611
 7069SOL    HW232670   3.498   4.325  10.378 -0.7812  0.5069  0.0393
 7070SOL     OW32671   3.200   2.427   1.869  0.3655 -0.3589  0.0558
 7070SOL    HW132672   3.220   2.501   1.927 -2.0696 -0.0109  0.4428
 7070SOL    HW232673   3.122   2.462   1.825 -0.7336 -2.2769  0.4754
 7071SOL     OW32674   1.502   1.864  13.807 -0.0248 -0.1847  0.0382
 7071SOL    HW132675   1.460   1.913  13.877  0.3724  0.0071  0.1393
 7071SOL    HW232676   1.533   1.788  13.857  0.4993  0.1336  0.1915
 7072SOL     OW32677   0.410   3.974   3.012 -0.6668 -0.8862 -0.4704
 7072SOL    HW132678   0.361   3.899   2.977  0.9977 -1.4322 -1.6730
 7072SOL    HW232679   0.423   3.945   3.102  0.3953 -0.1362 -0.3759
 7073SOL     OW32680   0.391   2.025   6.973 -0.5141 -0.1581 -0.0494
 7073SOL    HW132681   0.395   2.060   6.883 -0.8980  4.2545  1.6552
 7073SOL    HW232682   0.436   1.941   6.976  1.2497  0.7830  0.0435
 7074SOL     OW32683   2.738   1.671   1.588  0.5085  1.2557 -0.4496
 7074SOL    HW132684   2.713   1.735   1.522  1.0090  3.3035  1.3319
 7074SOL    HW232685   2.820   1.713   1.616  1.1097  0.1110 -0.4748
 7075SOL     OW32686   3.900   3.989  16.773 -0.0470  0.5389  0.8536
 7075SOL    HW132687   3.975   4.047  16.758  0.9344 -0.8677  0.2867
 7075SOL    HW232688   3.873   4.011  16.862 -0.7255 -1.1357  1.0559
 7076SOL     OW32689   0.388   4.647   8.221  0.4381  0.0335 -0.3506
 7076SOL    HW132690   0.475   4.611   8.233  0.0091 -0.6133  0.9325
 7076SOL    HW232691   0.346   4.644   8.308  2.2844 -0.7745  0.5045
 7077SOL     OW32692   3.285   3.321   0.264  0.5227 -0.1379 -0.0296
 7077SOL    HW132693   3.214   3.321   0.200 -0.5111  0.4727  1.1171
 7077SOL    HW232694   3.227   3.296   0.335  0.9864 -0.9174  0.0756
 7078SOL     OW32695   4.272   4.318   4.410 -0.7794 -0.2759 -0.1358
 7078SOL    HW132696   4.222   4.370   4.347 -2.6206 -1.7460  0.0823
 7078SOL    HW232697   4.277   4.372   4.489 -1.7901  0.7987 -0.8078
 7079SOL     OW32698   1.283   0.132   8.180 -0.0577 -0.0395 -0.1998
 7079SOL    HW132699   1.204   0.101   8.134  0.0712  0.3737 -0.7046
 7079SOL    HW232700   1.262   0.106   8.270  1.5719  0.4395  0.2973
 7080SOL     OW32701   2.963   3.476   4.369  0.1969  0.7884 -0.0670
 7080SOL    HW132702   2.946   3.434   4.285  0.5945  0.0415  0.2204
 7080SOL    HW232703   2.957   3.570   4.359  2.5823  1.1143  1.4164
 7081SOL     OW32704   3.011   2.390  14.016 -0.3545 -0.0775 -0.0700
 7081SOL    HW132705   3.043   2.305  14.045 -2.6262 -1.2897 -1.0882
 7081SOL    HW232706   2.974   2.432  14.094  0.1340 -1.0588  0.6936
 7082SOL     OW32707   3.504   2.100   2.424  0.1816 -0.5330  0.1249
 7082SOL    HW132708   3.423   2.049   2.432  1.6706 -2.3871  3.5046
 7082SOL    HW232709   3.557   2.068   2.498  0.2840  0.5641  0.5174
 7083SOL     OW32710   1.264   2.448   8.255  0.4398  0.9433 -0.1441
 7083SOL    HW132711   1.316   2.495   8.189  1.2833  0.9311  0.5093
 7083SOL    HW232712   1.198   2.404   8.201 -1.0574  2.4027  0.5017
 7084SOL     OW32713   1.654   1.817   5.419 -0.0953 -0.2029 -0.6380
 7084SOL    HW132714   1.623   1.737   5.461 -1.6852  0.7587  0.0286
 7084SOL    HW232715   1.575   1.866   5.444  0.5021  0.2495  0.3290
 7085SOL     OW32716   0.347   1.685   4.678 -0.4155 -0.4262  0.0821
 7085SOL    HW132717   0.388   1.612   4.725 -0.2134  0.8629  1.9063
 7085SOL    HW232718   0.280   1.627   4.641  0.0513  0.3809 -2.0484
 7086SOL     OW32719   2.558   2.710   3.153 -0.5887  0.4886  0.0669
 7086SOL    HW132720   2.626   2.776   3.148  0.3119 -0.7203 -3.7795
 7086SOL    HW232721   2.523   2.732   3.239  1.2229 -0.9587  1.1584
 7087SOL     OW32722   2.671   0.303  15.488 -0.0439  0.1643  0.2729
 7087SOL    HW132723   2.613   0.227  15.479  3.2262 -2.0036 -2.6564
 7087SOL    HW232724   2.685   0.305  15.583 -1.6269 -3.2494  0.5780
 7088SOL     OW32725   1.104   2.286  17.419 -0.2036  0.0685  0.1038
 7088SOL    HW132726   1.097   2.240  17.335  0.9720  0.5667 -0.2629
 7088SOL    HW232727   1.092   2.369  17.374  1.0862  0.0139 -0.3387
 7089SOL     OW32728   2.224   0.915  11.573 -0.1697  0.3574 -0.0641
 7089SOL    HW132729   2.313   0.946  11.588  0.7022 -2.3732  0.3935
 7089SOL    HW232730   2.190   0.967  11.500 -1.9839  0.1860  0.6544
 7090SOL     OW32731   2.967   1.675   6.642  0.2839 -0.1357  0.0673
 7090SOL    HW132732   2.919   1.715   6.715  1.3306  1.1447  0.0719
 7090SOL    HW232733   3.047   1.663   6.693  0.0488 -1.4028  0.1273
 7091SOL     OW32734   0.585   2.023  10.860  0.3523 -0.0267  0.5555
 7091SOL    HW132735   0.648   1.972  10.809  1.1731 -0.0632  1.5943
 7091SOL    HW232736   0.638   2.101  10.878  1.1702 -0.2374 -0.9129
 7092SOL     OW32737   4.706   0.028   8.166  0.5418 -0.5905  0.4872
 7092SOL    HW132738   4.649   0.012   8.242  0.6358 -0.2016  0.6365
 7092SOL    HW232739   4.721   4.661   8.140  2.4221  0.0993 -0.8122
 7093SOL     OW32740   3.482   1.477   6.247  0.3287 -0.0614 -0.6902
 7093SOL    HW132741   3.420   1.536   6.290 -0.0154 -2.0099  1.4683
 7093SOL    HW232742   3.444   1.390   6.255 -4.8303  2.0015 -2.5879
 7094SOL     OW32743   1.730   0.886  11.226  0.4373 -0.1986 -0.5008
 7094SOL    HW132744   1.770   0.813  11.179 -0.4162  0.0663 -1.6405
 7094SOL    HW232745   1.688   0.847  11.303 -1.9861  3.1383 -0.0912
 7095SOL     OW32746   1.842   3.451   2.524  0.3340  0.4514 -0.6011
 7095SOL    HW132747   1.775   3.474   2.588 -0.0780  1.9388 -1.5832
 7095SOL    HW232748   1.817   3.360   2.507 -1.1955  0.6667  0.5106
 7096SOL     OW32749   4.650   1.428   8.239  0.5149 -0.5493 -0.1445
 7096SOL    HW132750   4.696   1.362   8.290  0.0862 -0.4294  0.4072
 7096SOL    HW232751   4.707   1.501   8.265 -0.3758 -0.7310  2.3879
 7097SOL     OW32752   3.563   4.405   4.672  0.2052  0.2694 -0.9234
 7097SOL    HW132753   3.586   4.490   4.711 -0.2524 -0.0380 -0.0101
 7097SOL    HW232754   3.556   4.419   4.577  0.0474  2.0459 -0.6531
 7098SOL     OW32755   4.297   1.594   6.898 -1.0007 -0.7605 -0.3450
 7098SOL    HW132756   4.262   1.514   6.938 -0.2278  1.0882  4.0310
 7098SOL    HW232757   4.383   1.607   6.938 -0.5170 -0.1521 -1.5841
 7099SOL     OW32758   2.592   1.333   5.696  0.0535 -0.7094  0.2505
 7099SOL    HW132759   2.528   1.328   5.624 -0.7189 -1.4832  0.9875
 7099SOL    HW232760   2.654   1.355   5.627  0.1411 -2.1951 -0.1542
 7100SOL     OW32761   2.777   3.715   7.191  0.4255  0.4103  0.9307
 7100SOL    HW132762   2.782   3.621   7.176  0.0366  0.3722  1.0500
 7100SOL    HW232763   2.843   3.739   7.125 -0.4629  1.7265  0.5247
 7101SOL     OW32764   2.402   1.123   0.514 -0.4900  0.0054 -0.5068
 7101SOL    HW132765   2.386   1.032   0.489  1.1984 -0.7895  1.2953
 7101SOL    HW232766   2.407   1.167   0.429  0.9718  1.1837  0.1940
 7102SOL     OW32767   2.929   4.666  13.253 -0.2792 -0.1115  0.1613
 7102SOL    HW132768   2.892   4.586  13.289 -1.7411 -0.3218 -1.8161
 7102SOL    HW232769   2.980   4.630  13.180 -0.9419  1.5824 -1.1414
 7103SOL     OW32770   4.282   1.085   3.510  0.4258  0.2954 -0.5369
 7103SOL    HW132771   4.282   1.018   3.578  0.8043  0.4156 -0.4163
 7103SOL    HW232772   4.374   1.078   3.484  0.5089 -0.0027 -0.1715
 7104SOL     OW32773   3.204   1.489   4.757  0.0231  0.3114 -0.2474
 7104SOL    HW132774   3.173   1.527   4.839 -0.8202 -0.9867  0.0336
 7104SOL    HW232775   3.238   1.566   4.711  0.0500 -0.4817 -1.5565
 7105SOL     OW32776   0.996   3.886   8.628  0.5277  0.0623  0.0645
 7105SOL    HW132777   0.977   3.904   8.536 -0.8221  0.9260  0.5067
 7105SOL    HW232778   0.945   3.807   8.646  1.5649 -0.3837  1.1207
 7106SOL     OW32779   1.564   0.521   9.545  0.0546 -0.2414  0.8553
 7106SOL    HW132780   1.491   0.462   9.526  0.8160 -0.4826 -1.3009
 7106SOL    HW232781   1.521   0.606   9.560  0.6287  0.1785  0.1129
 7107SOL     OW32782   3.436   0.884  14.039 -0.1758 -0.7004  0.2956
 7107SOL    HW132783   3.395   0.939  13.973  0.6122 -0.2176  0.2085
 7107SOL    HW232784   3.499   0.937  14.088 -3.9624  1.9438  2.2481
 7108SOL     OW32785   1.116   1.110   3.564 -0.3253 -0.4346  0.0146
 7108SOL    HW132786   1.131   1.088   3.656  1.8168  1.1895  0.0497
 7108SOL    HW232787   1.100   1.024   3.527 -0.6540 -0.7218  0.8160
 7109SOL     OW32788   2.673   2.583   5.139  0.2366  0.5301 -0.0581
 7109SOL    HW132789   2.662   2.495   5.102  0.5667  1.5331 -2.5477
 7109SOL    HW232790   2.648   2.573   5.230  1.1381 -0.6452  0.0623
 7110SOL     OW32791   1.940   1.744   6.617 -0.5247 -0.5472  0.3387
 7110SOL    HW132792   1.849   1.775   6.612 -0.8567 -1.6091 -0.2636
 7110SOL    HW232793   1.976   1.770   6.533 -0.0552 -0.8355  0.4508
 7111SOL     OW32794   0.628   0.882   2.782  0.2368  0.0440  0.5093
 7111SOL    HW132795   0.679   0.804   2.759  0.2180  0.3038 -0.4484
 7111SOL    HW232796   0.632   0.886   2.877 -1.5075  1.4978  0.5142
 7112SOL     OW32797   1.902   0.868  16.092  0.5788  0.3514  0.2486
 7112SOL    HW132798   1.936   0.940  16.145  1.3890 -0.5732  0.9887
 7112SOL    HW232799   1.905   0.794  16.154  1.7870  0.0601 -0.1523
 7113SOL     OW32800   1.818   1.485   2.377  0.5815  0.2739 -0.0290
 7113SOL    HW132801   1.777   1.527   2.453 -0.0115 -0.8826  0.2850
 7113SOL    HW232802   1.897   1.445   2.412  0.0768 -0.5691  0.1508
 7114SOL     OW32803   0.163   0.883  15.101  0.2105  0.4090 -0.2552
 7114SOL    HW132804   0.217   0.838  15.036 -1.0686 -0.8089 -0.4625
 7114SOL    HW232805   0.171   0.974  15.071  1.5072  1.1102  2.1961
 7115SOL     OW32806   1.552   1.297   2.605 -0.0262 -0.7493  0.2453
 7115SOL    HW132807   1.642   1.270   2.623  0.2430 -0.0617 -0.0506
 7115SOL    HW232808   1.534   1.344   2.686  1.9081  0.1591  0.1458
 7116SOL     OW32809   3.169   2.699   3.435  0.5955  0.2723  0.1811
 7116SOL    HW132810   3.161   2.754   3.513 -1.3927  0.3255 -0.0669
 7116SOL    HW232811   3.242   2.638   3.448  0.8403  0.6194  0.4395
 7117SOL     OW32812   1.015   0.906   4.645 -0.2515  0.4921 -0.1621
 7117SOL    HW132813   1.099   0.936   4.679  0.3234 -0.4826 -0.7369
 7117SOL    HW232814   0.953   0.949   4.704 -0.0129 -0.3899  0.7189
 7118SOL     OW32815   1.365   4.124  12.579 -0.0119  0.4440 -0.5313
 7118SOL    HW132816   1.376   4.177  12.500  1.2941  0.1197 -0.5797
 7118SOL    HW232817   1.440   4.065  12.571  0.7485  1.3721 -0.2167
 7119SOL     OW32818   1.810   1.021  11.664 -0.5134 -0.1726  0.0111
 7119SOL    HW132819   1.767   1.062  11.739  0.9789 -0.8671  1.2536
 7119SOL    HW232820   1.797   1.094  11.603  0.4781 -0.0151 -0.0235
 7120SOL     OW32821   1.224   2.912  12.043  0.2021 -0.3118  0.5193
 7120SOL    HW132822   1.146   2.925  11.989  0.2904 -1.0901  0.2140
 7120SOL    HW232823   1.236   3.000  12.080 -0.4694  0.5875 -1.4018
 7121SOL     OW32824   4.041   4.395   5.803  0.4002 -0.2244  0.0213
 7121SOL    HW132825   4.069   4.338   5.875  2.5924 -0.6205 -1.1636
 7121SOL    HW232826   4.101   4.468   5.816  0.9907 -0.4488 -1.4393
 7122SOL     OW32827   3.130   2.048   4.937 -0.5784 -0.0938  0.3374
 7122SOL    HW132828   3.110   2.138   4.911 -0.1853  0.1246  0.7947
 7122SOL    HW232829   3.082   2.035   5.019 -0.0116 -2.7684  0.2429
 7123SOL     OW32830   0.170   3.639   1.840  0.1145 -0.4031  0.2132
 7123SOL    HW132831   0.079   3.636   1.871 -1.6109 -0.5955 -4.9348
 7123SOL    HW232832   0.201   3.720   1.882  0.6091 -0.7305  0.4827
 7124SOL     OW32833   1.649   2.046   3.701 -0.3604  0.0004 -0.1245
 7124SOL    HW132834   1.632   2.028   3.609  1.7853  0.8090 -0.6662
 7124SOL    HW232835   1.578   2.000   3.746 -1.7805  0.7948 -1.5521
 7125SOL     OW32836   3.953   4.643  13.822 -0.5700  0.1882 -0.5324
 7125SOL    HW132837   3.944   4.604  13.909 -0.7703 -1.3375 -1.2230
 7125SOL    HW232838   3.908   4.575  13.770  1.0129 -0.6606 -0.7945
 7126SOL     OW32839   2.747   3.595  10.188  0.0785 -0.5369 -0.4695
 7126SOL    HW132840   2.652   3.610  10.188  0.2319  0.4026 -2.4417
 7126SOL    HW232841   2.757   3.655  10.262 -1.2265  1.9035 -2.2467
 7127SOL     OW32842   0.526   1.553   4.130 -0.0169  0.3120 -0.1133
 7127SOL    HW132843   0.517   1.564   4.035  1.2728  0.5795 -0.2091
 7127SOL    HW232844   0.497   1.638   4.161 -1.3370 -0.8335  1.7966
 7128SOL     OW32845   0.202   3.574   7.260  0.4016  0.3549  0.6304
 7128SOL    HW132846   0.124   3.611   7.218  1.1449  1.5226  0.2648
 7128SOL    HW232847   0.171   3.573   7.351 -2.2725  1.2073 -0.2738
 7129SOL     OW32848   0.264   1.929  11.598  0.4009 -0.4039 -0.1299
 7129SOL    HW132849   0.314   1.901  11.674  2.2919 -0.1055 -1.2616
 7129SOL    HW232850   0.246   1.843  11.561  1.3271 -0.9549  0.7157
 7130SOL     OW32851   1.694   3.932   3.948 -0.2340 -0.8171 -0.4184
 7130SOL    HW132852   1.646   3.890   4.018 -0.7522 -0.4325 -0.5458
 7130SOL    HW232853   1.615   3.961   3.903  0.4134  1.3255 -0.1562
 7131SOL     OW32854   1.108   4.298   1.678 -0.1229 -0.4048 -0.4352
 7131SOL    HW132855   1.023   4.270   1.644  0.0438 -0.9466 -0.3931
 7131SOL    HW232856   1.116   4.389   1.648 -2.3948 -0.0737 -0.0613
 7132SOL     OW32857   2.749   1.460   2.385 -0.0997  0.0812 -0.2901
 7132SOL    HW132858   2.801   1.524   2.433  1.3611  0.2417 -2.0524
 7132SOL    HW232859   2.690   1.428   2.453 -2.0797  0.8470 -1.6331
 7133SOL     OW32860   0.909   0.882  12.525  0.0970  0.4904 -0.4021
 7133SOL    HW132861   0.923   0.864  12.432 -0.0310  1.0489 -0.5262
 7133SOL    HW232862   0.836   0.943  12.518 -0.1885  0.3667  1.3994
 7134SOL     OW32863   2.203   0.477   6.544  0.8412 -0.7318 -0.6897
 7134SOL    HW132864   2.231   0.392   6.510  0.3140 -1.7364  1.3940
 7134SOL    HW232865   2.285   0.507   6.584  1.3864 -1.8779 -0.9499
 7135SOL     OW32866   1.198   4.602   5.544  0.1075  0.3650  0.1572
 7135SOL    HW132867   1.122   4.560   5.584  0.4171  1.2577  1.7091
 7135SOL    HW232868   1.180   4.693   5.569  2.1104  1.1290 -1.1476
 7136SOL     OW32869   1.927   1.136   7.805  1.2345  0.0132  0.3207
 7136SOL    HW132870   1.998   1.101   7.858  3.0844  3.8258  0.3459
 7136SOL    HW232871   1.869   1.060   7.806  1.7781 -0.4530 -3.4034
 7137SOL     OW32872   3.063   3.013  11.331 -0.2549 -0.2716 -0.5590
 7137SOL    HW132873   2.972   2.991  11.311 -0.1121 -1.3636 -0.0526
 7137SOL    HW232874   3.107   2.933  11.302  2.5552  0.8357  0.6268
 7138SOL     OW32875   3.957   4.338   4.899  0.5654 -0.1341 -0.8139
 7138SOL    HW132876   4.028   4.397   4.925  0.5651 -1.5474  2.4981
 7138SOL    HW232877   3.883   4.369   4.951  1.2869  0.1688  0.0471
 7139SOL     OW32878   0.016   2.904  10.486 -0.8285 -0.0949  0.4759
 7139SOL    HW132879   4.663   2.955  10.459  0.2877 -0.0789 -2.7352
 7139SOL    HW232880   4.708   2.846  10.555  1.6500  0.9304  2.4701
 7140SOL     OW32881   0.199   1.475   8.717  0.2859 -1.2638 -0.2532
 7140SOL    HW132882   0.125   1.510   8.667 -1.2389 -3.8327  0.1988
 7140SOL    HW232883   0.244   1.557   8.738 -0.5971 -0.7258 -0.4855
 7141SOL     OW32884   1.583   2.713   7.395  1.0231 -0.0037  0.3018
 7141SOL    HW132885   1.629   2.774   7.338  0.1600  0.5989  0.2416
 7141SOL    HW232886   1.654   2.655   7.423  3.0311  1.7820 -1.2241
 7142SOL     OW32887   3.950   1.876   8.678 -0.1724  0.2410 -0.1998
 7142SOL    HW132888   3.950   1.811   8.607  0.3516  1.5770 -1.4120
 7142SOL    HW232889   3.949   1.809   8.747  3.0785 -2.6730 -2.9719
 7143SOL     OW32890   1.238   2.579   5.045  0.2813 -0.2812 -0.0228
 7143SOL    HW132891   1.283   2.664   5.047  2.3052 -1.3789  1.4289
 7143SOL    HW232892   1.248   2.546   4.956  1.5049  5.3302 -1.9500
 7144SOL     OW32893   2.233   4.630  15.517 -0.0028  0.2790  0.4009
 7144SOL    HW132894   2.253   4.569  15.445  3.3485  1.6712  0.1601
 7144SOL    HW232895   2.142   4.613  15.540 -0.3170  2.6251  0.8545
 7145SOL     OW32896   4.291   2.028   9.096 -0.1282 -0.5965 -0.1272
 7145SOL    HW132897   4.256   2.103   9.144  0.8198  0.8880 -1.7356
 7145SOL    HW232898   4.281   2.055   9.005 -2.1885  1.9297  0.8283
 7146SOL     OW32899   1.840   1.789   1.497 -0.1533  0.3218 -0.0406
 7146SOL    HW132900   1.786   1.783   1.575  0.0995  0.6000  0.1549
 7146SOL    HW232901   1.775   1.792   1.426  1.9487  0.5784 -1.9587
 7147SOL     OW32902   0.870   4.024   7.951 -0.2481 -0.0886 -0.6155
 7147SOL    HW132903   0.853   4.068   7.868 -0.3074  1.9397  0.4879
 7147SOL    HW232904   0.914   4.097   7.995  0.7945 -1.3237  0.4126
 7148SOL     OW32905   1.615   0.512  11.621  0.2018  0.0951 -0.1064
 7148SOL    HW132906   1.677   0.536  11.552  1.7599 -0.9130  0.9382
 7148SOL    HW232907   1.665   0.450  11.675 -0.9003 -0.1334  0.6563
 7149SOL     OW32908   0.173   1.391   0.539 -0.4185 -0.1583 -0.5316
 7149SOL    HW132909   0.087   1.423   0.512 -0.7172 -1.0215 -0.5981
 7149SOL    HW232910   0.225   1.456   0.492  0.1079  0.9864  1.5881
 7150SOL     OW32911   4.013   1.744   3.589 -0.2344 -0.4260  0.0626
 7150SOL    HW132912   4.006   1.732   3.683  2.4016 -1.6443  0.0936
 7150SOL    HW232913   3.985   1.836   3.581 -0.1286 -0.1997  2.4245
 7151SOL     OW32914   2.231   4.680   2.974  0.0863  0.1033 -0.2929
 7151SOL    HW132915   2.312   4.698   2.926 -0.4416 -0.2765 -1.3287
 7151SOL    HW232916   2.220   0.046   3.004 -0.0695 -0.0809  0.2120
 7152SOL     OW32917   1.952   0.567   3.904  0.8577 -0.4018 -0.0818
 7152SOL    HW132918   2.046   0.557   3.918  0.8200 -3.4898 -1.9764
 7152SOL    HW232919   1.936   0.512   3.827 -1.3058 -1.0589  0.8241
 7153SOL     OW32920   1.705   1.462   1.395 -0.1208 -0.3719  0.5042
 7153SOL    HW132921   1.776   1.497   1.342 -0.3724  0.1443  0.5057
 7153SOL    HW232922   1.648   1.538   1.409  1.1127  0.5533  0.4391
 7154SOL     OW32923   2.902   1.669   7.875 -0.1566 -0.4230 -0.1329
 7154SOL    HW132924   2.896   1.746   7.818  0.0091 -0.2538  0.0749
 7154SOL    HW232925   2.858   1.600   7.825  0.8915 -0.7910 -0.5470
 7155SOL     OW32926   1.082   1.197   1.457  0.1948 -0.1383  0.5765
 7155SOL    HW132927   1.155   1.169   1.401  1.0105  1.2907  0.9483
 7155SOL    HW232928   1.020   1.221   1.388  2.0379 -0.7590 -1.2896
 7156SOL     OW32929   3.093   0.286   7.474 -0.2856 -0.3137 -0.0921
 7156SOL    HW132930   3.061   0.361   7.424  1.9098 -0.0654 -1.1361
 7156SOL    HW232931   3.032   0.288   7.548 -0.3870  0.2368 -0.1922
 7157SOL     OW32932   4.364   0.165  15.572  0.1892  0.0151 -0.4597
 7157SOL    HW132933   4.383   0.208  15.489  1.4685  1.1564  0.4325
 7157SOL    HW232934   4.333   0.079  15.543 -0.4181 -0.3158  1.1524
 7158SOL     OW32935   4.063   3.293   6.219  0.1570 -0.2081 -1.1171
 7158SOL    HW132936   4.067   3.389   6.216  4.1951 -0.2876  1.2453
 7158SOL    HW232937   4.155   3.270   6.232  0.0921 -0.2189 -0.6795
 7159SOL     OW32938   4.540   2.772   0.591  0.1678 -0.0017  0.1315
 7159SOL    HW132939   4.622   2.774   0.641  0.9525 -2.3334 -1.0626
 7159SOL    HW232940   4.553   2.835   0.520 -0.2122 -1.3993 -1.1898
 7160SOL     OW32941   3.165   2.511   0.873 -0.3740 -0.6871 -0.5008
 7160SOL    HW132942   3.089   2.539   0.923 -0.3640  0.2133 -0.9886
 7160SOL    HW232943   3.147   2.417   0.876 -0.3078 -0.7295 -1.3009
 7161SOL     OW32944   3.884   4.133   6.493  0.0647  0.5084 -0.2564
 7161SOL    HW132945   3.879   4.227   6.514  0.6008 -0.1927  2.9731
 7161SOL    HW232946   3.913   4.091   6.574 -0.9970 -1.1499 -0.7554
 7162SOL     OW32947   2.917   0.495   8.726 -0.4162  0.3771 -0.0823
 7162SOL    HW132948   2.906   0.510   8.820  2.0317  0.2763  0.2119
 7162SOL    HW232949   2.826   0.510   8.699 -1.3450 -0.0978  2.7619
 7163SOL     OW32950   0.777   3.051   5.659  0.2391  0.1799  0.1966
 7163SOL    HW132951   0.794   2.958   5.641  1.6157  0.1451  1.7223
 7163SOL    HW232952   0.696   3.068   5.611  1.8691  0.6427 -2.3902
 7164SOL     OW32953   2.239   0.142  13.252 -0.0710 -0.1067  0.4895
 7164SOL    HW132954   2.155   0.126  13.209  0.1301  0.6922 -0.1806
 7164SOL    HW232955   2.286   0.173  13.175 -0.8052 -0.6516 -0.1739
 7165SOL     OW32956   1.492   0.910  12.806  0.4778  0.0884 -0.2923
 7165SOL    HW132957   1.554   0.838  12.796 -1.3842 -1.9974  3.2033
 7165SOL    HW232958   1.404   0.874  12.791  0.1756  0.4036  0.7182
 7166SOL     OW32959   2.127   1.696   4.705 -0.2172  0.2242 -0.1962
 7166SOL    HW132960   2.184   1.757   4.659 -2.1904  0.2252 -2.6512
 7166SOL    HW232961   2.142   1.621   4.648  2.5044 -0.2452  1.1483
 7167SOL     OW32962   0.791   3.214   4.978  0.3330  0.1223  0.2243
 7167SOL    HW132963   0.736   3.289   4.998  1.3681  1.1459 -0.7551
 7167SOL    HW232964   0.797   3.187   5.070  0.9608 -0.6777 -0.0585
 7168SOL     OW32965   1.141   1.814  13.979  0.0264  0.5664  0.5591
 7168SOL    HW132966   1.062   1.868  13.976  0.2580  0.9476  1.2704
 7168SOL    HW232967   1.201   1.860  14.037  0.7010 -1.2467  1.3145
 7169SOL     OW32968   0.736   2.314   9.348  0.5020  0.8098  0.6144
 7169SOL    HW132969   0.773   2.364   9.422  1.5834 -0.3513  0.8593
 7169SOL    HW232970   0.811   2.315   9.289 -0.3889 -0.1864 -0.5199
 7170SOL     OW32971   1.167   1.714  16.936  0.1367  0.3788 -0.8089
 7170SOL    HW132972   1.158   1.639  16.878 -0.8650  0.1181 -0.3214
 7170SOL    HW232973   1.087   1.689  16.982 -0.2719  0.2996 -1.5686
 7171SOL     OW32974   4.029   1.296   4.054  0.2345  0.2473  0.2131
 7171SOL    HW132975   3.957   1.350   4.086 -1.8271 -2.5172  0.3367
 7171SOL    HW232976   3.983   1.236   3.995 -0.2079  0.0284  0.7828
 7172SOL     OW32977   0.263   3.549   0.862 -0.5438  0.1197 -0.0001
 7172SOL    HW132978   0.190   3.514   0.913 -0.2592 -1.7295 -0.8641
 7172SOL    HW232979   0.248   3.643   0.874 -2.1889 -0.4504  2.4430
 7173SOL     OW32980   1.280   4.113   7.530 -0.0589 -0.6476 -0.3464
 7173SOL    HW132981   1.273   4.201   7.566 -0.2366 -1.2295  1.0738
 7173SOL    HW232982   1.309   4.064   7.607  0.2736 -0.0315 -0.0820
 7174SOL     OW32983   4.279   1.799  12.240  0.1554  0.6728 -0.2529
 7174SOL    HW132984   4.286   1.706  12.262  0.4442  1.0871  1.4302
 7174SOL    HW232985   4.282   1.826  12.332 -0.2203  0.4493 -0.1764
 7175SOL     OW32986   3.485   4.144   6.907 -0.1579  0.1920 -0.2145
 7175SOL    HW132987   3.424   4.079   6.942 -0.4974  1.3835  1.3649
 7175SOL    HW232988   3.427   4.220   6.913 -0.6277 -0.4266  2.8245
 7176SOL     OW32989   2.643   1.566   7.323  0.0776 -0.6215 -0.0147
 7176SOL    HW132990   2.731   1.531   7.309  0.3465 -0.3664  1.0537
 7176SOL    HW232991   2.650   1.652   7.363  2.7442 -0.8454 -0.0547
 7177SOL     OW32992   1.344   0.583  12.269 -0.8053  0.2053  0.1670
 7177SOL    HW132993   1.432   0.567  12.304 -1.1626 -1.2303  0.4121
 7177SOL    HW232994   1.353   0.677  12.253 -2.1183  0.2323 -0.3477
 7178SOL     OW32995   0.504   4.724   9.630 -0.0019 -0.1160  0.3122
 7178SOL    HW132996   0.484   4.719   9.723 -1.9088  1.9342 -0.0000
 7178SOL    HW232997   0.598   4.706   9.635 -0.2888 -0.9694  2.4275
 7179SOL     OW32998   1.238   2.576   3.782  0.5763  0.7262  0.1751
 7179SOL    HW132999   1.144   2.581   3.802  0.1961 -1.7409 -1.0142
 7179SOL    HW233000   1.254   2.488   3.815 -0.9072  0.1211 -0.6948
 7180SOL     OW33001   3.682   1.079   5.084  0.2623 -0.4091  0.0395
 7180SOL    HW133002   3.609   1.060   5.144 -0.9816  0.9204 -1.0642
 7180SOL    HW233003   3.642   1.080   4.997  1.0427 -2.0538 -0.3377
 7181SOL     OW33004   4.531   3.857  16.668  0.2345  0.3409  0.2873
 7181SOL    HW133005   4.510   3.907  16.589 -0.2618  0.1390  0.2937
 7181SOL    HW233006   4.450   3.858  16.719  0.5200 -1.6910  0.7730
 7182SOL     OW33007   4.100   1.853  14.525 -0.5573  0.0282  0.2466
 7182SOL    HW133008   4.108   1.902  14.443  2.8505 -1.0622 -0.0829
 7182SOL    HW233009   4.191   1.828  14.542  0.0945  1.8093 -0.6274
 7183SOL     OW33010   1.961   0.963  16.372 -0.0228 -0.2336  0.0632
 7183SOL    HW133011   1.941   0.877  16.409  0.0961 -0.3821 -0.2128
 7183SOL    HW233012   2.053   0.976  16.395 -0.1563 -1.2300  1.1704
 7184SOL     OW33013   4.242   4.028  10.083 -0.5042 -0.2298 -0.1516
 7184SOL    HW133014   4.277   4.108  10.122 -0.3388 -0.4003  0.0499
 7184SOL    HW233015   4.304   3.961  10.114 -1.1997 -0.7996  0.0043
 7185SOL     OW33016   3.133   3.990   6.166 -0.1920  0.0675  0.3037
 7185SOL    HW133017   3.156   4.039   6.245 -2.3124 -0.4626  1.2437
 7185SOL    HW233018   3.222   3.977   6.133  0.8913  0.0754  3.1349
 7186SOL     OW33019   4.215   4.229   2.934  0.3763  0.4425 -0.6467
 7186SOL    HW133020   4.128   4.243   2.898  0.1817  0.9444  0.0054
 7186SOL    HW233021   4.224   4.141   2.900 -1.9737 -0.1277  0.2736
 7187SOL     OW33022   3.882   4.201   3.870 -0.0389  0.1261 -0.3270
 7187SOL    HW133023   3.935   4.280   3.875  0.3881 -0.1501 -0.5708
 7187SOL    HW233024   3.800   4.243   3.897 -1.1122  0.2653 -3.8987
 7188SOL     OW33025   0.980   4.246   5.454  0.1548  0.1268 -0.3165
 7188SOL    HW133026   0.893   4.211   5.473  0.0162  1.2502  1.1112
 7188SOL    HW233027   1.003   4.220   5.365  1.2884  0.4575 -0.1163
 7189SOL     OW33028   0.738   2.353   6.545  0.0264 -0.5098 -0.0432
 7189SOL    HW133029   0.680   2.324   6.474 -1.4837 -1.8867  1.7785
 7189SOL    HW233030   0.747   2.277   6.601  0.2056  0.1336  0.7962
 7190SOL     OW33031   2.391   1.603  13.709 -0.1378  0.2708 -0.5144
 7190SOL    HW133032   2.363   1.605  13.618  0.2823  2.3655 -0.5985
 7190SOL    HW233033   2.307   1.588  13.754  0.4603 -0.9908  0.1698
 7191SOL     OW33034   2.140   3.012   8.484 -0.4143  0.3874 -0.3114
 7191SOL    HW133035   2.195   3.041   8.411  0.8276  0.0035  0.4701
 7191SOL    HW233036   2.137   2.919   8.464  0.6895  0.7590 -2.2296
 7192SOL     OW33037   2.062   1.192   8.995  0.1177  0.5765  0.0392
 7192SOL    HW133038   2.114   1.113   8.980 -1.6465 -0.8459  1.1955
 7192SOL    HW233039   1.979   1.149   9.017 -0.9866  2.2339 -0.9313
 7193SOL     OW33040   0.813   2.038  16.184  0.4139 -0.0553  0.4207
 7193SOL    HW133041   0.761   2.051  16.105 -1.6883 -0.4600  1.7405
 7193SOL    HW233042   0.844   2.127  16.205  0.1864  0.8704 -3.1970
 7194SOL     OW33043   2.499   1.179   5.274  0.2307 -0.1441 -0.2656
 7194SOL    HW133044   2.418   1.133   5.253 -0.4257  1.7523 -1.8697
 7194SOL    HW233045   2.483   1.267   5.239  0.4830 -0.0990 -0.2658
 7195SOL     OW33046   0.609   0.760   1.956  0.2137 -0.0597 -0.9556
 7195SOL    HW133047   0.653   0.842   1.936 -0.6606  0.7832  0.6219
 7195SOL    HW233048   0.559   0.784   2.034 -1.2954  2.2856 -2.6196
 7196SOL     OW33049   1.895   3.560  15.078  0.0636 -0.3564 -0.0761
 7196SOL    HW133050   1.888   3.655  15.086 -1.8381 -0.4655 -0.2580
 7196SOL    HW233051   1.980   3.544  15.118  0.2597  1.3349  0.1831
 7197SOL     OW33052   3.594   0.075   8.437 -0.1234  0.0377 -0.2859
 7197SOL    HW133053   3.600   0.004   8.502 -0.3507 -0.3148 -0.6471
 7197SOL    HW233054   3.585   0.143   8.504 -0.8443 -2.0144  1.7264
 7198SOL     OW33055   1.846   0.903   1.177 -0.1814 -0.0980 -0.1676
 7198SOL    HW133056   1.898   0.965   1.127 -0.8178 -0.1635 -0.9119
 7198SOL    HW233057   1.833   0.964   1.250 -0.5946 -2.0585  1.3835
 7199SOL     OW33058   3.251   3.254  14.350 -0.5140  0.9832 -0.2003
 7199SOL    HW133059   3.265   3.271  14.444 -1.5989  1.3027 -0.1030
 7199SOL    HW233060   3.194   3.178  14.356 -0.6545  1.2045  1.5073
 7200SOL     OW33061   0.868   4.415  10.921  0.4557 -0.5915  0.0237
 7200SOL    HW133062   0.904   4.431  10.834 -1.8466 -0.8013 -0.9823
 7200SOL    HW233063   0.924   4.340  10.937 -1.1428 -2.0729 -1.3620
 7201SOL     OW33064   2.106   2.485   2.036  0.2343 -0.4608  0.6736
 7201SOL    HW133065   2.017   2.495   2.070  0.1503  2.2633 -0.3398
 7201SOL    HW233066   2.135   2.576   2.045 -2.9052  0.8865 -2.6610
 7202SOL     OW33067   1.572   4.578   5.358  0.2440 -0.4995  0.3126
 7202SOL    HW133068   1.552   4.490   5.389  0.8514 -1.1069 -1.0171
 7202SOL    HW233069   1.487   4.623   5.357  1.1001  1.1033 -0.9312
 7203SOL     OW33070   2.541   2.304   5.551  0.1420 -0.6585  0.2590
 7203SOL    HW133071   2.511   2.311   5.460  1.5659 -0.3795 -0.1794
 7203SOL    HW233072   2.458   2.278   5.591  0.2002 -0.3059  0.6083
 7204SOL     OW33073   2.915   1.329  11.062 -0.4633 -0.4334 -0.1090
 7204SOL    HW133074   2.909   1.367  10.974  1.3469  0.5926  0.2258
 7204SOL    HW233075   2.855   1.394  11.099  2.0941  1.4260  0.7824
 7205SOL     OW33076   2.037   0.345   4.510 -0.1834  0.6263  0.7198
 7205SOL    HW133077   2.102   0.361   4.579 -2.0250 -1.0906  2.8754
 7205SOL    HW233078   1.951   0.350   4.551  0.2506  1.7282  1.4966
 7206SOL     OW33079   3.631   4.204   7.345 -0.1213 -0.4428 -0.0995
 7206SOL    HW133080   3.572   4.213   7.270  0.0599  3.1245  0.2017
 7206SOL    HW233081   3.643   4.292   7.380 -0.3303  0.6314 -2.7088
 7207SOL     OW33082   3.934   2.463  11.301 -0.2900  0.4533 -0.0840
 7207SOL    HW133083   4.030   2.461  11.300 -0.2862 -0.1640  0.7676
 7207SOL    HW233084   3.912   2.399  11.233  1.0797 -1.3454  1.1355
 7208SOL     OW33085   0.090   1.728   4.287  1.1658  0.1057  0.3032
 7208SOL    HW133086   0.106   1.773   4.370  1.1741  3.2170 -1.4206
 7208SOL    HW233087   0.017   1.676   4.320  0.2984 -0.3351 -2.3394
 7209SOL     OW33088   3.989   1.621  13.838  0.5921 -0.3215 -0.0911
 7209SOL    HW133089   3.934   1.654  13.766 -1.2310 -2.1847  0.4522
 7209SOL    HW233090   3.976   1.693  13.900  0.6053 -0.5075  0.1255
 7210SOL     OW33091   1.852   2.326   6.158  0.7064 -0.8394 -0.2947
 7210SOL    HW133092   1.790   2.256   6.179 -1.9352  0.9170 -2.2694
 7210SOL    HW233093   1.789   2.396   6.170 -0.3712 -1.8469 -0.0522
 7211SOL     OW33094   1.096   2.914   6.057 -0.0860 -0.1044 -0.6752
 7211SOL    HW133095   1.084   2.857   6.133  0.2091 -0.4839 -0.9127
 7211SOL    HW233096   1.005   2.930   6.030 -0.0662 -2.0432 -1.9044
 7212SOL     OW33097   2.566   0.321  11.951  0.2497 -0.2308  0.4328
 7212SOL    HW133098   2.513   0.399  11.965  0.3856  0.0632 -0.6629
 7212SOL    HW233099   2.597   0.333  11.861  0.0680 -0.1537  0.3803
 7213SOL     OW33100   4.146   2.120   4.035  0.1877  0.7305 -0.4367
 7213SOL    HW133101   4.076   2.097   3.974 -0.0014  1.9866 -0.6886
 7213SOL    HW233102   4.101   2.098   4.116  2.3505 -2.6551 -0.1564
 7214SOL     OW33103   4.554   4.589   5.560 -0.7657  0.1917  0.0335
 7214SOL    HW133104   4.505   4.533   5.499 -0.0241 -1.5118  1.0017
 7214SOL    HW233105   4.533   4.543   5.641  0.5302  2.8566  1.8449
 7215SOL     OW33106   4.061   2.355   3.438  0.3445  0.0020 -0.2421
 7215SOL    HW133107   3.990   2.415   3.462  1.9050  2.0897 -0.8247
 7215SOL    HW233108   4.029   2.304   3.364  2.0079 -1.1012 -0.2065
 7216SOL     OW33109   4.368   3.842   5.558 -0.1761 -0.1678  0.4022
 7216SOL    HW133110   4.410   3.901   5.496  0.0626 -0.4666  0.2824
 7216SOL    HW233111   4.275   3.861   5.545  0.0870  1.0507  0.3200
 7217SOL     OW33112   3.350   4.433   4.224 -0.4113  0.3791 -0.3206
 7217SOL    HW133113   3.404   4.425   4.302 -0.7340  0.4648 -0.0918
 7217SOL    HW233114   3.293   4.356   4.229 -2.6352  2.0363 -0.3180
 7218SOL     OW33115   4.719   4.239  10.535 -0.1931  0.2459  0.1652
 7218SOL    HW133116   4.705   4.332  10.516  1.2854  0.5476  0.5825
 7218SOL    HW233117   4.642   4.216  10.588 -0.8826  0.8630 -0.5646
 7219SOL     OW33118   0.644   1.495   2.235 -0.1780 -0.0749  0.0244
 7219SOL    HW133119   0.560   1.451   2.219 -0.9674  2.1560 -1.9815
 7219SOL    HW233120   0.618   1.585   2.219  2.5843  0.9664  1.4938
 7220SOL     OW33121   0.103   0.576  14.665  0.3110  0.0758 -0.1236
 7220SOL    HW133122   0.084   0.565  14.572  1.9049  1.3371 -0.5934
 7220SOL    HW233123   0.185   0.528  14.664  0.1861 -0.1272 -0.4056
 7221SOL     OW33124   2.007   2.613  11.993  0.1671  0.0836  0.1055
 7221SOL    HW133125   1.975   2.575  12.075 -2.0851 -0.9572 -1.2503
 7221SOL    HW233126   1.929   2.610  11.937  0.0414  0.7384  0.2365
 7222SOL     OW33127   3.600   4.495   4.437 -0.2898 -0.6710  0.0198
 7222SOL    HW133128   3.628   4.465   4.350  1.0722  0.3618  0.1117
 7222SOL    HW233129   3.572   4.584   4.416 -2.8992 -1.1572  1.5049
 7223SOL     OW33130   1.581   0.966   3.153  0.3825  0.2600  0.7399
 7223SOL    HW133131   1.619   0.892   3.200  1.5044  0.0040 -0.5645
 7223SOL    HW233132   1.656   1.007   3.110 -0.5801 -0.6543 -1.7625
 7224SOL     OW33133   2.268   1.493  12.324 -0.9234 -0.4102  0.0142
 7224SOL    HW133134   2.274   1.498  12.228 -0.6915 -1.5657 -0.0323
 7224SOL    HW233135   2.175   1.508  12.339 -0.9392 -1.3579  0.8825
 7225SOL     OW33136   1.652   1.321   9.716 -0.2081  0.5100  0.1343
 7225SOL    HW133137   1.721   1.293   9.655  0.3811  1.6500  0.2872
 7225SOL    HW233138   1.708   1.346   9.790  0.8620  1.3015 -0.9488
 7226SOL     OW33139   2.389   2.917  10.339  0.4181 -0.0806 -0.2082
 7226SOL    HW133140   2.422   2.834  10.307  1.6386  1.4214 -2.8189
 7226SOL    HW233141   2.341   2.947  10.262 -1.0538 -0.5691  0.5220
 7227SOL     OW33142   0.574   1.399   9.250 -0.0475  0.1480 -0.1573
 7227SOL    HW133143   0.597   1.484   9.287  0.2342 -0.4797  1.0992
 7227SOL    HW233144   0.593   1.422   9.158  3.1082  1.8119  0.8943
 7228SOL     OW33145   4.129   3.036   3.543 -0.6694 -0.2749  0.3558
 7228SOL    HW133146   4.074   2.959   3.557  0.6544 -1.3833 -0.6111
 7228SOL    HW233147   4.160   3.011   3.456 -0.8101  1.3651 -0.1745
 7229SOL     OW33148   0.456   1.354   1.891 -0.8156  0.3691 -0.0557
 7229SOL    HW133149   0.428   1.445   1.897  0.0383  0.6980 -0.9248
 7229SOL    HW233150   0.423   1.307   1.967  1.5785  2.2250  2.1267
 7230SOL     OW33151   1.117   3.133   3.073  0.1343 -0.0791  0.2392
 7230SOL    HW133152   1.146   3.045   3.050  1.3926  0.5279 -0.5001
 7230SOL    HW233153   1.086   3.168   2.990  1.1974 -1.9231 -0.9278
 7231SOL     OW33154   2.182   1.585   2.389  0.2886  0.3495 -0.3024
 7231SOL    HW133155   2.094   1.617   2.371  0.1538  0.3669  0.4066
 7231SOL    HW233156   2.229   1.646   2.332  0.1759  0.0859 -0.6758
 7232SOL     OW33157   3.461   0.913  15.084  0.4291 -0.2710  0.4913
 7232SOL    HW133158   3.459   0.941  15.175  0.5034 -0.0924  0.4396
 7232SOL    HW233159   3.420   0.827  15.092  0.7409 -0.3343  1.3961
 7233SOL     OW33160   3.704   3.910   9.620  0.1526 -0.1590  1.2432
 7233SOL    HW133161   3.670   3.958   9.544  1.5936 -0.5233  0.3762
 7233SOL    HW233162   3.790   3.953   9.621  0.6070 -1.0586  0.7976
 7234SOL     OW33163   3.212   4.450   5.518  0.0551 -0.6140 -0.2385
 7234SOL    HW133164   3.180   4.435   5.607 -0.0488  1.2092  0.0388
 7234SOL    HW233165   3.187   4.541   5.502 -0.8504 -0.8821 -0.3523
 7235SOL     OW33166   0.835   3.997   1.900 -0.2924 -0.3297  0.5985
 7235SOL    HW133167   0.809   4.087   1.882  0.9675 -0.3918 -1.4718
 7235SOL    HW233168   0.912   4.001   1.957  0.0311 -0.7759  0.1855
 7236SOL     OW33169   2.132   1.270  13.179 -0.2791 -0.1302 -0.7918
 7236SOL    HW133170   2.143   1.338  13.245  0.6098  0.3022 -1.3825
 7236SOL    HW233171   2.147   1.323  13.101  3.0970 -0.5151 -0.4378
 7237SOL     OW33172   0.916   2.795  13.150  0.2819 -0.0152  0.2415
 7237SOL    HW133173   0.954   2.881  13.137  0.0918  0.4593  2.8868
 7237SOL    HW233174   0.832   2.802  13.105  1.2130 -0.4385 -1.5584
 7238SOL     OW33175   4.523   2.581  17.638 -0.4619  0.7121  0.0185
 7238SOL    HW133176   4.614   2.598  17.613 -0.3621 -1.5347 -1.1191
 7238SOL    HW233177   4.496   2.673  17.642 -0.2856  0.8477 -2.1010
 7239SOL     OW33178   4.634   0.870  13.143  0.0145 -0.2175 -0.1572
 7239SOL    HW133179   4.639   0.776  13.157  1.1344  0.2106  2.3407
 7239SOL    HW233180   4.560   0.892  13.200  1.6461  2.7486  0.8528
 7240SOL     OW33181   4.037   0.205   2.758 -0.2528 -0.3760  0.2294
 7240SOL    HW133182   4.124   0.209   2.716  0.1947  0.4577  1.2648
 7240SOL    HW233183   3.985   0.228   2.681  0.2324 -1.3710 -0.4078
 7241SOL     OW33184   0.708   1.452   8.696  0.1037 -0.3040  0.0960
 7241SOL    HW133185   0.633   1.512   8.701 -0.9582 -1.7198  1.0761
 7241SOL    HW233186   0.671   1.395   8.628 -0.3408  0.1053 -0.0052
 7242SOL     OW33187   1.625   0.118   6.329 -0.5398 -0.0075 -0.4141
 7242SOL    HW133188   1.578   0.110   6.412  0.6232  0.9834  0.3463
 7242SOL    HW233189   1.669   0.033   6.319 -0.5374 -0.2845  1.9920
 7243SOL     OW33190   0.588   3.105  10.680  0.2959 -0.2623  1.1247
 7243SOL    HW133191   0.662   3.117  10.739  1.0978  0.3518  0.0084
 7243SOL    HW233192   0.594   3.193  10.644  1.2738 -0.8274 -0.1199
 7244SOL     OW33193   1.708   2.446   3.190  0.4040  0.4683 -0.3105
 7244SOL    HW133194   1.793   2.489   3.201  1.2794 -1.8244  1.9884
 7244SOL    HW233195   1.733   2.358   3.220  1.4609  0.4964 -1.1085
 7245SOL     OW33196   1.431   1.819   4.305 -0.2829 -0.2621  0.0652
 7245SOL    HW133197   1.503   1.791   4.249  0.9176  1.6893  0.6359
 7245SOL    HW233198   1.480   1.806   4.386 -1.3265 -0.2304  0.7028
 7246SOL     OW33199   2.186   0.828   5.197  0.5605  0.2454 -0.2992
 7246SOL    HW133200   2.236   0.774   5.136  0.6957  1.9590 -1.6989
 7246SOL    HW233201   2.158   0.899   5.140 -0.6776 -0.7698 -0.9604
 7247SOL     OW33202   1.633   3.654  13.779 -0.0347  0.4445 -0.1862
 7247SOL    HW133203   1.649   3.748  13.773 -1.6668  0.9148  2.8168
 7247SOL    HW233204   1.546   3.658  13.819  1.9581 -1.5695  4.2708
 7248SOL     OW33205   0.845   3.767   8.079  0.7338 -0.1937 -0.3483
 7248SOL    HW133206   0.838   3.842   8.020  0.2162 -0.6455 -0.8567
 7248SOL    HW233207   0.773   3.717   8.042 -0.5133  1.7925 -0.5657
 7249SOL     OW33208   1.220   1.870   6.372  0.7329 -0.4751  0.3753
 7249SOL    HW133209   1.186   1.794   6.324 -0.7370  1.5903 -1.8433
 7249SOL    HW233210   1.136   1.900   6.408  0.7808  0.0160  0.0700
 7250SOL     OW33211   3.330   0.481   3.677  0.8088  0.2854 -0.6031
 7250SOL    HW133212   3.243   0.441   3.683  0.4702  0.8816 -1.5302
 7250SOL    HW233213   3.315   0.559   3.624  0.0486  2.4240  2.7718
 7251SOL     OW33214   1.490   0.091   7.701  0.1537  0.1234 -0.4666
 7251SOL    HW133215   1.541   0.039   7.639  0.4833 -0.3697  0.2112
 7251SOL    HW233216   1.435   0.146   7.646 -0.6249 -0.8146 -0.6197
 7252SOL     OW33217   2.238   3.984   8.603 -0.0106 -0.4582 -0.3031
 7252SOL    HW133218   2.199   4.048   8.662 -0.4060 -1.5834  0.6502
 7252SOL    HW233219   2.280   3.917   8.657  1.3992 -0.9508 -2.0176
 7253SOL     OW33220   3.421   2.152   8.490  0.0119 -0.1743  0.3008
 7253SOL    HW133221   3.397   2.239   8.455  2.3056  0.2158 -0.2975
 7253SOL    HW233222   3.345   2.102   8.459  0.1389 -0.5696  0.6506
 7254SOL     OW33223   3.247   2.806   6.886  0.4427 -0.0531 -0.3912
 7254SOL    HW133224   3.250   2.767   6.799 -0.8008 -1.6472  0.2723
 7254SOL    HW233225   3.235   2.726   6.938 -0.0405 -0.5961 -1.3427
 7255SOL     OW33226   1.139   2.478  16.260  0.0824 -0.3792 -0.3061
 7255SOL    HW133227   1.128   2.523  16.176 -0.0322  0.2060  0.0188
 7255SOL    HW233228   1.217   2.520  16.294 -0.4276 -0.3435  0.8238
 7256SOL     OW33229   4.460   3.878   6.050 -0.4001  0.8025  0.7848
 7256SOL    HW133230   4.429   3.832   5.972  1.8379  0.8399 -0.1453
 7256SOL    HW233231   4.500   3.809   6.104  1.2251  0.5997 -0.6797
 7257SOL     OW33232   4.184   1.828   2.729 -0.3190  0.1113  0.6805
 7257SOL    HW133233   4.235   1.752   2.702  0.0991  0.7088 -0.2265
 7257SOL    HW233234   4.207   1.891   2.661  1.2729  0.2767  1.3455
 7258SOL     OW33235   3.848   4.143  16.324 -0.1783 -0.3565 -0.7328
 7258SOL    HW133236   3.925   4.188  16.358 -0.6421  0.4382 -0.7101
 7258SOL    HW233237   3.834   4.188  16.240  0.6165 -2.9775 -2.2667
 7259SOL     OW33238   2.134   1.622  10.778  0.0075  0.1389 -0.3173
 7259SOL    HW133239   2.183   1.552  10.735  0.4497  0.0570  0.3124
 7259SOL    HW233240   2.135   1.592  10.869  1.8822 -1.4337 -0.8453
 7260SOL     OW33241   2.235   4.039   1.965  0.3214 -0.0770  0.4722
 7260SOL    HW133242   2.319   4.031   2.011  0.2743  3.2735  1.0914
 7260SOL    HW233243   2.235   4.134   1.973 -2.9142  0.1735 -2.5870
 7261SOL     OW33244   3.775   3.890   8.596 -0.1488 -0.0670 -0.6689
 7261SOL    HW133245   3.787   3.905   8.503  1.7752 -0.7344 -0.5071
 7261SOL    HW233246   3.856   3.929   8.629 -0.2242 -1.1113  0.7585
 7262SOL     OW33247   3.314   3.514   3.159 -0.6947  0.1142  0.0828
 7262SOL    HW133248   3.279   3.602   3.169  0.8150  1.1368 -3.5302
 7262SOL    HW233249   3.353   3.496   3.244  1.1520  0.5522 -0.6621
 7263SOL     OW33250   2.417   3.735   7.485  0.7455  0.3928 -0.2250
 7263SOL    HW133251   2.482   3.668   7.462 -1.0783 -0.9199 -1.5838
 7263SOL    HW233252   2.455   3.786   7.557 -1.5083 -0.7667  1.7907
 7264SOL     OW33253   3.238   4.573   3.097 -0.3580  0.0258  0.0922
 7264SOL    HW133254   3.296   4.521   3.152  2.0012  1.0088 -1.4827
 7264SOL    HW233255   3.217   4.521   3.020 -0.1867 -2.8161  1.9570
 7265SOL     OW33256   0.289   3.704   2.973 -0.5257  0.2045 -1.0164
 7265SOL    HW133257   0.229   3.674   3.040  1.2595  0.4054  0.6696
 7265SOL    HW233258   0.343   3.628   2.953 -0.5999 -0.1595  0.2107
 7266SOL     OW33259   3.951   1.842   8.299  0.5849  0.4648  1.0401
 7266SOL    HW133260   3.966   1.809   8.388  0.9234  1.9851  1.5438
 7266SOL    HW233261   4.031   1.823   8.250 -0.2058  0.8654 -0.3804
 7267SOL     OW33262   0.101   3.600   3.617 -0.2981  0.0571  0.2958
 7267SOL    HW133263   0.012   3.594   3.584 -1.2731 -1.3817  3.1609
 7267SOL    HW233264   0.093   3.570   3.707 -1.4848  1.6924  0.7452
 7268SOL     OW33265   3.008   4.095  16.235 -0.7496  0.1705  0.1315
 7268SOL    HW133266   2.934   4.039  16.254 -1.1493  0.6639  0.0418
 7268SOL    HW233267   3.028   4.077  16.143 -0.5000  1.1359 -0.0148
 7269SOL     OW33268   1.993   2.272   5.948  0.5416 -0.1320  0.5992
 7269SOL    HW133269   1.928   2.299   6.013 -0.2118 -0.2249 -0.1205
 7269SOL    HW233270   2.024   2.356   5.915 -0.1654 -0.5854 -1.1842
 7270SOL     OW33271   4.699   4.697   5.170 -0.6087 -0.2667  0.0642
 7270SOL    HW133272   4.707   0.001   5.079  1.2929 -3.2403 -0.6783
 7270SOL    HW233273   0.059   0.008   5.201 -1.4844  1.1100  0.9150
 7271SOL     OW33274   4.633   3.268   5.414  0.3571  0.2214  0.7347
 7271SOL    HW133275   4.567   3.294   5.478 -0.8252 -1.3984  0.1870
 7271SOL    HW233276   4.680   3.200   5.462  1.0914  0.7647  0.7845
 7272SOL     OW33277   3.352   1.210   2.147  0.1518  0.7029  0.1125
 7272SOL    HW133278   3.352   1.267   2.070  1.2150 -0.5806 -0.8218
 7272SOL    HW233279   3.378   1.127   2.108 -1.0229  1.7062 -2.8005
 7273SOL     OW33280   0.631   3.809   3.711 -0.0087  0.0336  0.3773
 7273SOL    HW133281   0.545   3.772   3.692 -0.5791  1.7770 -0.4703
 7273SOL    HW233282   0.642   3.875   3.643  2.0830  0.3888  1.0446
 7274SOL     OW33283   3.813   1.597   5.075  0.0819  0.1579 -0.0620
 7274SOL    HW133284   3.877   1.564   5.012 -0.1786  0.6570 -0.5870
 7274SOL    HW233285   3.732   1.614   5.027  0.9177  0.7269 -1.2457
 7275SOL     OW33286   1.342   0.860   3.042  0.0346 -0.0697 -0.2522
 7275SOL    HW133287   1.418   0.907   3.074  0.0873 -0.2115 -0.1675
 7275SOL    HW233288   1.350   0.881   2.949  0.7313 -1.5668 -0.5353
 7276SOL     OW33289   4.136   2.935   3.291 -0.3029 -0.9610 -1.1671
 7276SOL    HW133290   4.141   3.004   3.225 -1.4366 -0.6221 -0.9020
 7276SOL    HW233291   4.049   2.903   3.269  0.3698 -0.6068 -4.2504
 7277SOL     OW33292   3.478   1.327   4.855 -0.1000  0.0451  0.1922
 7277SOL    HW133293   3.503   1.415   4.828 -2.7077  0.5615 -0.5907
 7277SOL    HW233294   3.460   1.279   4.774  1.5929 -0.1917 -0.0498
 7278SOL     OW33295   3.899   4.083   5.313 -0.1845 -0.0094  0.2521
 7278SOL    HW133296   3.867   4.035   5.389 -1.4864  2.1767  1.0956
 7278SOL    HW233297   3.975   4.032   5.288 -1.2385 -1.4002 -0.1055
 7279SOL     OW33298   1.448   3.881   7.268  0.3156 -1.2119 -0.2293
 7279SOL    HW133299   1.460   3.810   7.204 -1.9308 -0.4994 -1.4201
 7279SOL    HW233300   1.453   3.830   7.348  0.1260 -0.5160  0.2250
 7280SOL     OW33301   4.021   0.957   3.276  0.0076  0.2624  0.4323
 7280SOL    HW133302   4.068   0.873   3.273  0.7016  0.6454  0.5888
 7280SOL    HW233303   4.056   1.002   3.353 -0.3106  0.5408  0.4143
 7281SOL     OW33304   0.245   4.320   2.445 -0.2536 -0.8952  0.6140
 7281SOL    HW133305   0.312   4.300   2.380  0.8049  0.8599  1.1688
 7281SOL    HW233306   0.298   4.358   2.515 -0.3792 -1.2788  0.9175
 7282SOL     OW33307   0.642   1.912   4.280  0.0169  0.3389 -0.0081
 7282SOL    HW133308   0.562   1.867   4.252 -0.7395  1.7440 -0.0723
 7282SOL    HW233309   0.693   1.832   4.293  0.0715  0.3382 -0.2244
 7283SOL     OW33310   1.898   1.633  16.797 -0.1134 -0.0164  0.4439
 7283SOL    HW133311   1.864   1.718  16.768  1.0694 -0.3064 -1.7886
 7283SOL    HW233312   1.922   1.657  16.887  1.1152  0.0814  0.0879
 7284SOL     OW33313   3.961   0.325   5.931  0.1575 -0.0409  0.0192
 7284SOL    HW133314   3.938   0.417   5.942 -1.0834 -0.3527  0.0534
 7284SOL    HW233315   3.901   0.306   5.859  1.6892 -0.6882 -1.0679
 7285SOL     OW33316   4.378   0.867  17.342 -0.5677  0.0127 -0.0319
 7285SOL    HW133317   4.288   0.835  17.346 -0.1330 -1.0655  1.1596
 7285SOL    HW233318   4.411   0.827  17.422 -0.1307 -0.9129 -0.6811
 7286SOL     OW33319   3.987   1.231   8.592  0.2911  0.6211  0.3801
 7286SOL    HW133320   3.938   1.227   8.674 -2.0181  0.5736 -1.0026
 7286SOL    HW233321   3.933   1.176   8.536  0.7921 -0.6698  1.1640
 7287SOL     OW33322   3.775   0.112   8.725 -0.2554  0.2719  0.0455
 7287SOL    HW133323   3.724   0.043   8.683 -0.2759  0.5697 -0.4140
 7287SOL    HW233324   3.705   0.157   8.773  0.2744 -1.1046  2.1037
 7288SOL     OW33325   1.601   0.598  14.939 -0.1298 -0.3309 -0.3895
 7288SOL    HW133326   1.585   0.506  14.918 -0.8202 -0.2604 -0.1756
 7288SOL    HW233327   1.518   0.634  14.969 -0.5566 -0.2428 -1.6583
 7289SOL     OW33328   4.390   1.146   5.207 -0.7437 -0.1518  0.2930
 7289SOL    HW133329   4.294   1.141   5.211 -0.8078 -0.7843 -1.9375
 7289SOL    HW233330   4.390   1.172   5.115  0.2686 -2.1442 -0.2703
 7290SOL     OW33331   1.814   3.118  10.100  0.0405 -0.4686  0.0242
 7290SOL    HW133332   1.799   3.134  10.006  0.4741  0.8738  0.1781
 7290SOL    HW233333   1.758   3.042  10.112 -1.5782  1.0258  1.9572
 7291SOL     OW33334   1.823   0.511   6.378  0.1349 -0.1852  0.7131
 7291SOL    HW133335   1.843   0.438   6.437 -1.9084  0.0886  1.7331
 7291SOL    HW233336   1.907   0.558   6.385  0.7677 -1.4772  1.7676
 7292SOL     OW33337   3.526   1.862   2.646  0.0637 -0.5704  0.4145
 7292SOL    HW133338   3.449   1.919   2.645 -0.9143 -1.8885  1.2151
 7292SOL    HW233339   3.475   1.782   2.661 -2.3371  0.8893  0.0540
 7293SOL     OW33340   3.179   0.297  13.926 -0.6254  0.0869  0.9153
 7293SOL    HW133341   3.095   0.282  13.970  0.0406  2.2543  2.9463
 7293SOL    HW233342   3.230   0.262  14.000 -1.0837 -0.5250  0.9494
 7294SOL     OW33343   2.326   2.557   7.665 -0.6823 -0.3279  0.1099
 7294SOL    HW133344   2.352   2.483   7.609 -1.1054 -0.6647  0.3613
 7294SOL    HW233345   2.384   2.547   7.741 -0.9176  0.7665  0.4292
 7295SOL     OW33346   3.895   0.618   2.237  1.0163 -0.3889  0.2495
 7295SOL    HW133347   3.881   0.573   2.154  0.8262 -1.2894  0.7770
 7295SOL    HW233348   3.872   0.706   2.206  1.0796 -0.9819 -1.5063
 7296SOL     OW33349   0.392   2.817   9.246 -0.7109 -0.0155  0.6419
 7296SOL    HW133350   0.380   2.754   9.318 -1.4745  0.5152  0.9835
 7296SOL    HW233351   0.363   2.773   9.166  1.4119 -1.2268  0.5589
 7297SOL     OW33352   1.284   0.560   7.103  0.1564  0.6360 -0.0003
 7297SOL    HW133353   1.200   0.523   7.131  1.2362  0.3413  2.8201
 7297SOL    HW233354   1.262   0.640   7.056  0.1537 -1.2764 -3.2855
 7298SOL     OW33355   4.536   3.442   2.701 -0.0321 -0.3722 -0.3897
 7298SOL    HW133356   4.501   3.465   2.787  0.4151 -2.3870  0.3431
 7298SOL    HW233357   4.586   3.519   2.675  1.5431 -1.2331  0.0977
 7299SOL     OW33358   0.448   2.049   0.144 -0.2764  0.5467  0.1087
 7299SOL    HW133359   0.354   2.045   0.126 -0.1636  1.4703 -0.7376
 7299SOL    HW233360   0.469   2.087   0.229  0.4338 -2.1549  1.1434
 7300SOL     OW33361   2.046   3.219   8.029  0.1929  0.0280  0.5513
 7300SOL    HW133362   2.129   3.183   7.995  0.9765  0.5888  1.8634
 7300SOL    HW233363   1.991   3.147   7.999 -0.5362  2.1374 -3.0946
 7301SOL     OW33364   2.910   1.738   5.162  0.0379  0.1046  0.3948
 7301SOL    HW133365   2.911   1.729   5.066  1.1789 -0.4123  0.4561
 7301SOL    HW233366   2.830   1.688   5.178  0.0564 -0.9441 -2.7440
 7302SOL     OW33367   2.795   2.268   3.563  0.0526 -0.1256 -0.0180
 7302SOL    HW133368   2.794   2.299   3.654 -0.8158  1.8004 -0.6935
 7302SOL    HW233369   2.749   2.183   3.567  1.1018 -0.6223  1.4457
 7303SOL     OW33370   0.103   0.058  10.692 -0.2392  0.3860 -0.1118
 7303SOL    HW133371   0.017   0.059  10.733 -0.2527  1.4699 -0.1652
 7303SOL    HW233372   0.138   0.145  10.710  0.5391 -0.1225  0.8355
 7304SOL     OW33373   0.030   2.265   5.566 -0.1378 -0.3331  0.0542
 7304SOL    HW133374   0.035   2.352   5.605 -0.4557  0.6141 -2.0622
 7304SOL    HW233375   4.718   2.215   5.639 -2.2830  0.2894 -0.5850
 7305SOL     OW33376   2.875   0.890  11.347  0.1721 -0.9873 -0.1951
 7305SOL    HW133377   2.814   0.961  11.328 -0.7644 -1.5594  0.7294
 7305SOL    HW233378   2.824   0.845  11.414 -2.0540 -0.6879 -1.6793
 7306SOL     OW33379   2.956   1.916   0.419 -0.7346  0.3548 -0.0429
 7306SOL    HW133380   3.007   1.960   0.487  2.3436  0.5109 -2.4502
 7306SOL    HW233381   2.904   1.858   0.474  1.4156 -1.6274 -0.1243
 7307SOL     OW33382   2.358   2.730   3.475 -0.2338  0.1296  0.1986
 7307SOL    HW133383   2.323   2.710   3.562  0.4283  1.6485  0.8162
 7307SOL    HW233384   2.441   2.685   3.460  0.6414  1.8153 -0.0363
 7308SOL     OW33385   2.831   1.971   4.100  0.1719 -0.1356  0.3260
 7308SOL    HW133386   2.915   1.930   4.120  0.5424 -0.9922 -2.8893
 7308SOL    HW233387   2.822   2.000   4.190  0.0196 -2.4781  1.0690
 7309SOL     OW33388   0.228   3.266   7.414 -0.3354  0.7920 -0.4542
 7309SOL    HW133389   0.186   3.351   7.427 -0.9252  0.7613 -2.1806
 7309SOL    HW233390   0.205   3.215   7.491 -0.7837 -0.6439 -1.5275
 7310SOL     OW33391   0.003   1.996   7.372  0.0534  0.2634  0.1028
 7310SOL    HW133392   0.061   1.982   7.297  0.2693  1.2270  0.0837
 7310SOL    HW233393   0.064   2.033   7.436 -1.9803  0.4569  1.9523
 7311SOL     OW33394   2.762   3.967  14.033 -0.2473 -0.4656  0.0095
 7311SOL    HW133395   2.671   3.962  14.061 -0.3134  0.7302 -0.0097
 7311SOL    HW233396   2.763   3.887  13.980  0.9319 -0.2998 -0.2235
 7312SOL     OW33397   1.738   3.990   3.040  0.0792  0.3549  0.1927
 7312SOL    HW133398   1.795   3.935   2.986 -0.4180 -0.5614  0.6056
 7312SOL    HW233399   1.681   4.024   2.971 -0.1575  1.1214  0.7640
 7313SOL     OW33400   0.364   2.715   7.949  0.4518  0.0086  0.4604
 7313SOL    HW133401   0.387   2.738   8.039  1.0718  2.0561 -0.2394
 7313SOL    HW233402   0.274   2.686   7.965  1.4019 -2.1452  1.9688
 7314SOL     OW33403   1.210   4.266  16.154 -0.0938  0.3767  0.5237
 7314SOL    HW133404   1.222   4.361  16.148  1.2058  0.3958  3.1547
 7314SOL    HW233405   1.183   4.258  16.246 -1.8745  0.0665 -0.0299
 7315SOL     OW33406   1.148   2.390   6.945 -0.3608 -0.3488  0.1946
 7315SOL    HW133407   1.191   2.462   6.991 -0.4451  0.8691 -1.6325
 7315SOL    HW233408   1.143   2.330   7.019 -1.9128 -1.3444 -0.6892
 7316SOL     OW33409   4.182   3.913  16.080 -0.4509  0.3481 -0.7573
 7316SOL    HW133410   4.118   3.955  16.022 -0.7345 -1.4758 -1.7477
 7316SOL    HW233411   4.146   3.825  16.088  1.3012 -0.1918  1.2800
 7317SOL     OW33412   2.586   4.012   5.012  0.0692 -0.2893  0.3444
 7317SOL    HW133413   2.500   3.979   4.986  1.0397 -3.9334  1.7368
 7317SOL    HW233414   2.633   3.929   5.020  0.2056 -0.2739 -0.2858
 7318SOL     OW33415   2.727   2.873   7.529  0.0691 -0.5118 -0.0869
 7318SOL    HW133416   2.811   2.897   7.490 -0.3908 -0.8357 -1.2742
 7318SOL    HW233417   2.675   2.857   7.451 -1.8775 -0.3463  1.1924
 7319SOL     OW33418   0.745   0.403   9.477  0.1496 -0.3186 -0.2076
 7319SOL    HW133419   0.836   0.389   9.503  0.1815 -0.7901 -0.5684
 7319SOL    HW233420   0.684   0.400   9.550  0.2487  1.3644 -0.0567
 7320SOL     OW33421   2.872   1.663   3.751 -0.0091  0.2303  0.3382
 7320SOL    HW133422   2.802   1.688   3.812  0.1195  1.0540  0.1519
 7320SOL    HW233423   2.873   1.742   3.697  1.3828  0.5577  0.8510
 7321SOL     OW33424   4.127   4.033   4.959  0.5036  0.7234 -0.9399
 7321SOL    HW133425   4.144   3.945   4.993 -0.1969  0.7031 -0.6337
 7321SOL    HW233426   4.206   4.062   4.914  1.4140  0.2603  0.3698
 7322SOL     OW33427   1.668   3.073   9.677 -0.4872 -0.2005 -0.1528
 7322SOL    HW133428   1.687   3.163   9.702  0.8779 -0.5621  0.1532
 7322SOL    HW233429   1.625   3.045   9.758 -2.0106  0.2865 -0.8005
 7323SOL     OW33430   3.949   4.350   0.591  0.0147 -0.1685  0.3692
 7323SOL    HW133431   4.028   4.303   0.566 -0.4941  0.2851 -2.1113
 7323SOL    HW233432   3.984   4.433   0.622  0.0698  0.3971 -1.2564
 7324SOL     OW33433   0.185   3.555   5.977 -0.7536  0.3098  0.2182
 7324SOL    HW133434   0.276   3.531   5.996 -1.4450 -2.6983 -0.2567
 7324SOL    HW233435   0.167   3.601   6.059 -0.1125 -2.0147  1.6689
 7325SOL     OW33436   1.463   0.223   1.413  0.3539  0.4223  0.4599
 7325SOL    HW133437   1.476   0.304   1.364  0.9624  0.4711  0.6999
 7325SOL    HW233438   1.479   0.162   1.341 -0.3546  0.8938 -0.1016
 7326SOL     OW33439   2.962   2.466   9.066  0.1419  0.5309 -0.6965
 7326SOL    HW133440   3.018   2.398   9.028 -2.0557 -1.3473 -0.5233
 7326SOL    HW233441   2.883   2.414   9.078 -0.8278  1.6891 -2.0488
 7327SOL     OW33442   1.675   2.394   2.424 -0.1530  0.4105 -0.2149
 7327SOL    HW133443   1.685   2.490   2.422 -2.0151  0.5274 -3.5594
 7327SOL    HW233444   1.682   2.383   2.519  0.4210 -0.5078 -0.3659
 7328SOL     OW33445   2.770   2.383   5.704  0.6885  0.3567  0.7399
 7328SOL    HW133446   2.692   2.413   5.658  1.2172 -0.0197 -0.4065
 7328SOL    HW233447   2.815   2.331   5.637 -0.2516  0.7834 -0.2082
 7329SOL     OW33448   3.978   0.361   7.792  0.6790  0.0802 -0.3457
 7329SOL    HW133449   3.994   0.301   7.864 -1.0101  0.0852  0.0373
 7329SOL    HW233450   4.010   0.440   7.836  1.8664  0.8774 -2.6333
 7330SOL     OW33451   3.321   3.193   7.767  0.3195  0.3770  1.0771
 7330SOL    HW133452   3.361   3.107   7.751  3.0064  1.8939 -0.4025
 7330SOL    HW233453   3.257   3.164   7.833  0.3077  0.6208  1.1713
 7331SOL     OW33454   1.296   1.583  16.633 -0.2384  0.1065 -0.1678
 7331SOL    HW133455   1.217   1.563  16.683  0.1159  1.1998  0.8315
 7331SOL    HW233456   1.359   1.528  16.681  0.9354 -0.1128 -1.9355
 7332SOL     OW33457   0.971   2.221   4.655  0.0058  0.6724 -0.0843
 7332SOL    HW133458   1.062   2.192   4.658 -0.8814 -1.8252  2.4674
 7332SOL    HW233459   0.918   2.142   4.654  1.0743 -0.0375 -0.1878
 7333SOL     OW33460   4.136   0.964   7.395 -0.0916 -0.0642 -0.2000
 7333SOL    HW133461   4.110   1.039   7.449 -1.6157 -0.6377 -0.1390
 7333SOL    HW233462   4.134   0.889   7.455  0.4093 -0.8106 -1.1185
 7334SOL     OW33463   1.365   0.900   3.466  0.5644  0.1422 -0.4186
 7334SOL    HW133464   1.448   0.870   3.431  0.7863 -1.1186  1.1821
 7334SOL    HW233465   1.295   0.835   3.470  0.0874  0.5781 -1.5768
 7335SOL     OW33466   0.497   2.558   7.038 -0.8559  0.0209  0.1039
 7335SOL    HW133467   0.451   2.593   7.114 -3.2657  0.0254 -1.3450
 7335SOL    HW233468   0.457   2.472   7.023 -1.4074  0.3402 -0.2726
 7336SOL     OW33469   1.908   3.543   7.167  0.5460  0.2541  0.1546
 7336SOL    HW133470   1.896   3.614   7.104 -1.6280 -0.2316  0.0194
 7336SOL    HW233471   1.992   3.502   7.150  0.5418 -0.1634  1.1880
 7337SOL     OW33472   2.704   4.692   7.025  0.0122  0.2674  0.3579
 7337SOL    HW133473   2.612   4.717   7.037 -0.1411 -0.8239  1.5848
 7337SOL    HW233474   2.695   4.617   6.966  3.9288 -1.7145  2.2474
 7338SOL     OW33475   0.486   1.450   0.648  0.2011  0.0255  0.0666
 7338SOL    HW133476   0.443   1.497   0.578 -0.7114 -1.8887 -0.6510
 7338SOL    HW233477   0.423   1.378   0.651 -0.7643  0.8345 -1.2488
 7339SOL     OW33478   0.352   4.295   2.013 -1.1343  0.0500  0.3001
 7339SOL    HW133479   0.329   4.363   2.076  2.0694  2.0471 -0.7507
 7339SOL    HW233480   0.267   4.275   1.972 -2.9973  1.4806  3.4711
 7340SOL     OW33481   0.574   4.596   4.032 -0.6805  0.1121 -0.1333
 7340SOL    HW133482   0.586   4.505   4.060  0.8641  0.8846  1.6767
 7340SOL    HW233483   0.500   4.634   4.080 -0.1584 -1.8212  2.1931
 7341SOL     OW33484   3.161   2.031  17.114 -0.9042 -0.0746  0.1655
 7341SOL    HW133485   3.201   2.004  17.196  1.5741  0.7270 -0.7471
 7341SOL    HW233486   3.190   1.961  17.056 -1.0293 -1.3865  1.6948
 7342SOL     OW33487   3.936   0.235   2.493 -0.6130 -0.1888 -0.1095
 7342SOL    HW133488   3.912   0.157   2.443  1.5635 -0.7900 -0.2361
 7342SOL    HW233489   4.017   0.249   2.444 -1.8560  1.8462 -1.5584
 7343SOL     OW33490   0.760   3.927   8.863 -0.0125 -0.1757 -0.4890
 7343SOL    HW133491   0.793   3.849   8.820  2.5061  1.2925 -1.2126
 7343SOL    HW233492   0.827   3.928   8.932 -0.2845 -0.9353 -0.2128
 7344SOL     OW33493   0.231   4.398   7.500 -0.0518  0.5995 -0.2076
 7344SOL    HW133494   0.253   4.456   7.573 -1.0717 -0.2830  0.8046
 7344SOL    HW233495   0.177   4.342   7.555 -1.7495  1.5590 -0.8820
 7345SOL     OW33496   0.700   3.322   0.058 -0.4152  0.2090 -0.0551
 7345SOL    HW133497   0.667   3.234   0.040 -0.5527  0.0536  0.9819
 7345SOL    HW233498   0.633   3.347   0.121 -0.1253 -0.9822  0.7247
 7346SOL     OW33499   2.235   1.094   3.713 -0.0970 -0.5058  0.3259
 7346SOL    HW133500   2.175   1.068   3.783  0.5568 -0.4437  0.9160
 7346SOL    HW233501   2.315   1.064   3.757 -0.3325 -0.0434  1.0648
 7347SOL     OW33502   1.335   2.536   1.266 -0.3087  0.2705  0.6126
 7347SOL    HW133503   1.349   2.598   1.338 -2.5150  2.8983 -1.2421
 7347SOL    HW233504   1.367   2.592   1.196 -1.5772 -0.4230 -0.5213
 7348SOL     OW33505   2.196   1.493   4.468 -0.0638  0.3253  0.5209
 7348SOL    HW133506   2.289   1.475   4.482 -0.3092 -2.4157 -1.4420
 7348SOL    HW233507   2.164   1.411   4.507 -0.4468 -0.7582 -2.0814
 7349SOL     OW33508   1.280   1.385   6.121  0.1979  0.4406  0.0292
 7349SOL    HW133509   1.310   1.410   6.033 -0.8278 -0.6748 -0.6412
 7349SOL    HW233510   1.358   1.337   6.149  0.2417  0.5556  0.1031
 7350SOL     OW33511   2.315   3.606  15.051 -0.7230  0.4397  0.0017
 7350SOL    HW133512   2.397   3.560  15.034  0.3832  2.0768  0.9460
 7350SOL    HW233513   2.319   3.670  14.981  0.5798  2.5263  1.9717
 7351SOL     OW33514   0.240   4.612   7.701 -0.0640 -0.4898  0.4243
 7351SOL    HW133515   0.237   4.708   7.695 -0.9526 -0.5290  0.2073
 7351SOL    HW233516   0.152   4.585   7.727 -1.8597  2.2234 -2.8990
 7352SOL     OW33517   4.627   0.915   9.640  0.0352 -0.0980  0.0369
 7352SOL    HW133518   4.631   1.009   9.622  1.4129 -0.2407 -0.4261
 7352SOL    HW233519   4.575   0.888   9.565 -1.7113 -0.2119  1.2982
 7353SOL     OW33520   0.013   4.230  17.490 -0.8519  0.4163  0.5723
 7353SOL    HW133521   0.098   4.273  17.480 -1.3257  1.2958  0.3395
 7353SOL    HW233522   0.039   4.151  17.443 -0.4025  0.0372  1.4467
 7354SOL     OW33523   0.678   4.237   7.192 -0.0902  0.2584  0.0262
 7354SOL    HW133524   0.680   4.298   7.266  1.7915  0.7861 -0.4630
 7354SOL    HW233525   0.735   4.167   7.223  1.7553  0.5166 -2.8199
 7355SOL     OW33526   1.848   3.422   6.740  0.5082  0.5770 -0.7498
 7355SOL    HW133527   1.847   3.512   6.709  4.0957  1.0914  0.6343
 7355SOL    HW233528   1.772   3.430   6.797  1.2575 -0.4815  0.4049
 7356SOL     OW33529   0.308   3.469   8.197 -0.5524  0.7801  0.0070
 7356SOL    HW133530   0.235   3.522   8.230 -2.6424 -2.4238  0.5283
 7356SOL    HW233531   0.284   3.388   8.242  1.4431  0.2767  0.1500
 7357SOL     OW33532   3.476   3.592   7.048  0.4684  0.6111 -0.0559
 7357SOL    HW133533   3.418   3.651   7.096 -0.5811  1.4802 -2.4212
 7357SOL    HW233534   3.553   3.647   7.062  0.7920 -0.1789  1.2925
 7358SOL     OW33535   2.833   1.038  13.728 -0.1410  0.1472  0.1902
 7358SOL    HW133536   2.892   0.978  13.775 -1.3535 -2.4429 -1.5529
 7358SOL    HW233537   2.749   1.007  13.762 -0.2303 -1.4176 -1.4273
 7359SOL     OW33538   3.106   1.778   1.511 -0.7600 -0.0319 -0.3992
 7359SOL    HW133539   3.075   1.866   1.535 -1.2144  0.1398 -1.5591
 7359SOL    HW233540   3.070   1.775   1.422 -2.2414 -2.5317  0.2878
 7360SOL     OW33541   3.586   0.616   3.461 -0.4011  0.2173  0.4833
 7360SOL    HW133542   3.557   0.672   3.533  0.6349 -1.4603  2.1867
 7360SOL    HW233543   3.659   0.672   3.433  0.0589  0.5164  2.2347
 7361SOL     OW33544   4.667   2.160   2.288 -0.0042 -0.4111  0.1973
 7361SOL    HW133545   0.001   2.162   2.212  2.5570  1.5985  2.2121
 7361SOL    HW233546   4.666   2.066   2.308 -0.4116 -0.9658 -2.4932
 7362SOL     OW33547   4.236   2.811   0.436  0.1030 -0.2044 -0.4721
 7362SOL    HW133548   4.273   2.898   0.451  0.2075 -0.4564  0.6843
 7362SOL    HW233549   4.149   2.839   0.407  0.6740  0.3262 -1.6695
 7363SOL     OW33550   2.643   3.580   7.381 -0.1345  0.1722  0.5109
 7363SOL    HW133551   2.700   3.506   7.401  0.7502  0.5756 -0.4944
 7363SOL    HW233552   2.686   3.632   7.313 -0.6779 -0.0596 -0.0159
 7364SOL     OW33553   1.458   0.730  15.535 -0.3896  0.3057 -0.1496
 7364SOL    HW133554   1.535   0.776  15.566  0.5601 -2.3685  1.5073
 7364SOL    HW233555   1.401   0.804  15.514 -1.6914 -0.2189  1.4783
 7365SOL     OW33556   0.562   0.880   3.082 -0.1870 -0.1083  0.0296
 7365SOL    HW133557   0.619   0.813   3.121 -0.1629  1.0615  2.0117
 7365SOL    HW233558   0.539   0.934   3.158  1.3149 -0.2995  0.6248
 7366SOL     OW33559   2.921   4.487   9.429 -0.6828 -0.2724  0.5305
 7366SOL    HW133560   2.829   4.486   9.402 -1.0123  1.3376  1.5586
 7366SOL    HW233561   2.944   4.561   9.373 -2.7848  0.8460  1.1265
 7367SOL     OW33562   4.431   1.264  15.238  0.4026 -0.3416 -0.3288
 7367SOL    HW133563   4.522   1.263  15.208  0.1871  0.6080 -0.9888
 7367SOL    HW233564   4.387   1.212  15.171 -1.1153  1.2109 -0.5425
 7368SOL     OW33565   0.066   4.334  16.524  0.0881  0.5224 -0.6646
 7368SOL    HW133566   0.050   4.240  16.529  1.1166  0.3038 -1.4957
 7368SOL    HW233567   4.721   4.367  16.467  0.1389  0.3988 -0.7972
 7369SOL     OW33568   3.594   0.951   2.079 -0.1859 -0.1381  0.2816
 7369SOL    HW133569   3.535   0.950   2.004  0.1666  0.8147 -0.0144
 7369SOL    HW233570   3.665   0.893   2.055  1.9506  1.8717  1.7110
 7370SOL     OW33571   3.147   0.393   9.161 -0.0915  0.0247 -0.2198
 7370SOL    HW133572   3.110   0.398   9.249  1.4201  0.4788  0.3891
 7370SOL    HW233573   3.170   0.301   9.147  1.0663  0.6004 -2.0922
 7371SOL     OW33574   1.896   3.149   9.191 -0.3126 -0.4008  0.1040
 7371SOL    HW133575   1.804   3.149   9.166  0.4907  2.1697 -2.7479
 7371SOL    HW233576   1.897   3.067   9.241  0.5250 -0.0945  0.5962
 7372SOL     OW33577   0.437   3.678  15.126 -0.3092 -0.1954 -0.2015
 7372SOL    HW133578   0.359   3.733  15.117  2.1140  3.2937  0.3189
 7372SOL    HW233579   0.411   3.590  15.098  0.3065 -1.0093  1.8399
 7373SOL     OW33580   4.433   3.819   3.298 -0.0718  0.0596 -0.0350
 7373SOL    HW133581   4.473   3.755   3.239 -0.5369 -1.3117  1.1397
 7373SOL    HW233582   4.453   3.894   3.241  0.5615  0.3043  0.5176
 7374SOL     OW33583   1.096   0.239   7.827  0.4846 -0.2025 -0.0231
 7374SOL    HW133584   1.176   0.290   7.811  0.1073  0.1288 -0.8757
 7374SOL    HW233585   1.058   0.282   7.903 -0.5122  1.1557 -1.2936
 7375SOL     OW33586   1.245   3.483   3.314  0.1931 -0.1473  0.1823
 7375SOL    HW133587   1.188   3.559   3.325  0.4832  0.1156 -0.1516
 7375SOL    HW233588   1.329   3.524   3.335 -0.2791  0.4914  0.8348
 7376SOL     OW33589   4.174   2.998   5.872 -0.9961 -0.0338 -0.2052
 7376SOL    HW133590   4.170   3.092   5.852 -0.0825  0.2795  1.0785
 7376SOL    HW233591   4.135   2.993   5.959  1.7846 -2.6539  0.8951
 7377SOL     OW33592   0.376   2.713   2.193 -0.2218  0.3587 -0.3562
 7377SOL    HW133593   0.283   2.705   2.173 -1.1621  1.0202  3.8583
 7377SOL    HW233594   0.363   2.745   2.282  1.6321 -1.9761  0.7632
 7378SOL     OW33595   0.993   1.958   8.059  0.3479 -0.1529  0.4068
 7378SOL    HW133596   1.045   2.035   8.035 -0.8746  0.3086 -0.7644
 7378SOL    HW233597   1.063   1.892   8.063  0.7265  0.2537  0.4500
 7379SOL     OW33598   1.527   3.683  11.312 -0.0498  0.3353  0.9560
 7379SOL    HW133599   1.528   3.756  11.250  1.7418  0.1100  0.7370
 7379SOL    HW233600   1.455   3.632  11.274 -1.8277  2.0884  1.9297
 7380SOL     OW33601   0.437   0.679   7.514  0.1712  0.3888  0.3442
 7380SOL    HW133602   0.390   0.760   7.494  0.5685  0.8540  1.3023
 7380SOL    HW233603   0.418   0.616   7.444  0.6956 -0.6408  1.1299
 7381SOL     OW33604   1.146   0.201   1.444  0.1357 -0.5211  0.3660
 7381SOL    HW133605   1.140   0.135   1.513 -0.2209 -2.2125 -1.2829
 7381SOL    HW233606   1.230   0.175   1.404  0.0033 -0.6324  0.1608
 7382SOL     OW33607   0.961   4.324   6.035  0.8757 -0.1185 -0.3272
 7382SOL    HW133608   0.980   4.389   6.103  0.3185 -0.6708  0.3515
 7382SOL    HW233609   0.890   4.376   5.997  1.4008  0.4631 -0.5137
 7383SOL     OW33610   3.553   3.077  12.368 -0.2828  0.3508 -0.2230
 7383SOL    HW133611   3.471   3.039  12.335  1.1517 -1.6347 -1.4795
 7383SOL    HW233612   3.572   3.022  12.444 -1.4346 -0.3739 -0.4690
 7384SOL     OW33613   4.612   0.511   5.988 -0.0017  0.2512  0.6401
 7384SOL    HW133614   4.650   0.513   5.900 -0.5736  0.6476  0.3962
 7384SOL    HW233615   4.553   0.436   5.989 -0.4079  0.5371 -1.2202
 7385SOL     OW33616   0.063   4.218  10.973  0.1215  0.1435 -0.7241
 7385SOL    HW133617   0.108   4.285  11.024  0.0102  0.0737 -0.5374
 7385SOL    HW233618   0.120   4.217  10.896  0.4145  1.3174 -0.5237
 7386SOL     OW33619   3.779   1.955  10.235 -0.1405  0.6581 -0.0377
 7386SOL    HW133620   3.808   2.014  10.305  3.2708  1.8865 -2.4936
 7386SOL    HW233621   3.772   1.877  10.291 -1.8949  0.4436 -0.5582
 7387SOL     OW33622   1.106   1.017   6.018 -0.2041  0.2151 -0.2756
 7387SOL    HW133623   1.098   0.957   6.092  1.8580 -0.0857 -0.3098
 7387SOL    HW233624   1.065   1.093   6.059 -3.1971 -1.0842 -0.8522
 7388SOL     OW33625   3.332   3.984   3.402  0.2811 -0.5822 -0.3892
 7388SOL    HW133626   3.392   4.052   3.431  1.8421 -2.1203  0.0174
 7388SOL    HW233627   3.392   3.913   3.423 -0.1366 -0.8482 -0.0995
 7389SOL     OW33628   4.174   0.537   3.515 -0.2007  0.1304  0.0707
 7389SOL    HW133629   4.196   0.457   3.467  2.8304  0.0478  1.5967
 7389SOL    HW233630   4.082   0.515   3.527 -0.4585  1.0907 -0.1380
 7390SOL     OW33631   2.815   3.527   5.349  0.2283 -0.0613 -0.1716
 7390SOL    HW133632   2.751   3.593   5.322 -0.5291 -0.7795 -0.1817
 7390SOL    HW233633   2.794   3.460   5.283  1.1243  1.2322 -1.7435
 7391SOL     OW33634   0.657   0.672  10.706  0.2344 -0.3671 -0.3155
 7391SOL    HW133635   0.604   0.704  10.778 -2.1156 -3.5019 -0.6362
 7391SOL    HW233636   0.642   0.739  10.639 -0.1108  1.3423  1.4919
 7392SOL     OW33637   2.315   1.949   0.194  0.5053 -0.2887  0.3707
 7392SOL    HW133638   2.311   2.045   0.195  2.5081 -0.2394  3.0757
 7392SOL    HW233639   2.398   1.944   0.148  0.0745 -1.0387 -0.3156
 7393SOL     OW33640   1.020   2.803   0.027  0.7999  0.0104 -0.1170
 7393SOL    HW133641   0.963   2.853   0.086  1.5742 -0.7206  1.2474
 7393SOL    HW233642   1.093   2.795   0.089 -1.0070 -0.3037  1.9826
 7394SOL     OW33643   2.648   3.317   5.730  0.1459 -0.1456 -0.0940
 7394SOL    HW133644   2.680   3.236   5.768 -0.9772 -0.2233  0.6960
 7394SOL    HW233645   2.715   3.380   5.757  1.7532 -1.4403 -1.1460
 7395SOL     OW33646   1.430   2.252   2.309  0.2371  0.2766  0.1555
 7395SOL    HW133647   1.511   2.289   2.345 -0.1943  1.2386  0.1272
 7395SOL    HW233648   1.472   2.212   2.233  1.7456 -0.9592  1.6312
 7396SOL     OW33649   4.259   3.818  14.443  0.3720 -0.1292 -0.4545
 7396SOL    HW133650   4.287   3.809  14.352 -1.1047 -0.1872 -0.9053
 7396SOL    HW233651   4.178   3.863  14.417  0.4112  0.4984  0.5087
 7397SOL     OW33652   4.161   1.502   8.860  0.7831 -0.3396  0.0496
 7397SOL    HW133653   4.174   1.529   8.769  1.9881 -1.2009 -0.0320
 7397SOL    HW233654   4.250   1.478   8.887  0.4066 -0.1414  1.4914
 7398SOL     OW33655   4.607   3.700   3.112  0.4626 -0.2123 -0.0245
 7398SOL    HW133656   4.696   3.669   3.131  0.6159 -0.1615 -0.6527
 7398SOL    HW233657   4.617   3.754   3.033 -0.4186  0.4021  0.2845
 7399SOL     OW33658   3.785   2.308   5.212  0.3324  0.7412  0.2746
 7399SOL    HW133659   3.747   2.267   5.290 -3.5480 -0.3433 -2.2110
 7399SOL    HW233660   3.777   2.399   5.238  0.1067  0.4655  1.1784
 7400SOL     OW33661   3.779   1.226  15.135  0.0053  0.0542  0.0046
 7400SOL    HW133662   3.855   1.283  15.121 -0.7293  1.5318  1.9049
 7400SOL    HW233663   3.714   1.289  15.166  1.6918  1.8302 -0.0000
 7401SOL     OW33664   0.660   0.277   4.638  0.0816 -0.0304  0.0320
 7401SOL    HW133665   0.587   0.319   4.685  2.3558  1.9505  1.7804
 7401SOL    HW233666   0.729   0.338   4.663 -2.3037  2.6072  0.2908
 7402SOL     OW33667   2.202   3.282  16.940 -0.0715 -0.2037 -0.1612
 7402SOL    HW133668   2.109   3.278  16.920 -0.2936  0.7333  0.6825
 7402SOL    HW233669   2.207   3.377  16.929 -0.0491 -0.2197 -0.2909
 7403SOL     OW33670   2.621   3.045  13.458 -0.0198 -0.8182  0.5949
 7403SOL    HW133671   2.678   2.969  13.455 -0.8013 -1.3881  0.0876
 7403SOL    HW233672   2.618   3.041  13.553  2.3064  2.2088  0.8128
 7404SOL     OW33673   1.793   1.581   7.350 -0.0232  0.4694 -0.6508
 7404SOL    HW133674   1.720   1.641   7.335 -0.4529  0.1547  0.1177
 7404SOL    HW233675   1.830   1.579   7.262  0.2720 -0.9771 -0.4973
 7405SOL     OW33676   3.308   3.945   4.055  0.4026 -0.0387 -0.3079
 7405SOL    HW133677   3.400   3.938   4.082  0.4876 -0.8407 -0.8279
 7405SOL    HW233678   3.298   3.862   4.010  3.1060 -0.6751  0.2382
 7406SOL     OW33679   2.886   4.017   9.170  0.0060 -0.3696 -0.1463
 7406SOL    HW133680   2.796   4.047   9.181  0.1289 -0.0080 -0.1531
 7406SOL    HW233681   2.923   4.008   9.257 -2.8029 -0.9607  0.9976
 7407SOL     OW33682   0.987   1.715   4.531  0.2368 -0.2378 -0.5145
 7407SOL    HW133683   1.000   1.670   4.448  2.1044 -0.4808 -0.0965
 7407SOL    HW233684   0.979   1.806   4.503  3.4454  0.1221 -0.2947
 7408SOL     OW33685   1.404   3.582   2.571 -0.3230 -0.3387 -0.3835
 7408SOL    HW133686   1.420   3.531   2.492  0.3844 -1.0030  0.1905
 7408SOL    HW233687   1.471   3.546   2.630  0.3079  2.5523  0.7126
 7409SOL     OW33688   2.451   1.448   8.382  0.4788  0.6496  0.4009
 7409SOL    HW133689   2.463   1.534   8.422  1.1294  1.1105 -0.7923
 7409SOL    HW233690   2.542   1.429   8.361  1.0907  2.3856  1.4662
 7410SOL     OW33691   0.726   4.681   3.602  0.2839  1.0137 -0.5904
 7410SOL    HW133692   0.729   0.013   3.680  0.3124  0.9165 -0.5215
 7410SOL    HW233693   0.809   4.635   3.610  0.0993  0.5597 -1.2680
 7411SOL     OW33694   2.081   3.614  16.359  0.4990 -0.3522  0.1943
 7411SOL    HW133695   2.077   3.592  16.452 -2.0456  0.2625  0.2124
 7411SOL    HW233696   2.066   3.527  16.321  1.7893  0.0022 -1.1496
 7412SOL     OW33697   3.908   2.576   4.522 -0.1792 -0.2296  0.0544
 7412SOL    HW133698   3.979   2.519   4.495 -1.3128 -1.5316 -0.2092
 7412SOL    HW233699   3.945   2.605   4.605  0.8878  0.5741 -0.7111
 7413SOL     OW33700   0.470   0.320  13.379  0.1144  0.1003 -0.2918
 7413SOL    HW133701   0.415   0.246  13.353  1.4888 -1.5322  1.4192
 7413SOL    HW233702   0.492   0.279  13.463 -0.3737 -1.0212 -0.7019
 7414SOL     OW33703   0.451   3.860   5.105  0.3417  0.0891 -0.2101
 7414SOL    HW133704   0.417   3.936   5.152 -0.4796 -0.4453  0.0611
 7414SOL    HW233705   0.528   3.903   5.068 -0.5265  1.7126 -0.1163
 7415SOL     OW33706   1.288   4.527   3.502  0.5394  0.0885 -0.2462
 7415SOL    HW133707   1.246   4.590   3.444 -0.8560  0.3350  1.0293
 7415SOL    HW233708   1.323   4.587   3.568  2.7397  0.4946 -1.7784
 7416SOL     OW33709   1.247   3.508  11.888 -0.3270 -0.4442  0.0117
 7416SOL    HW133710   1.224   3.443  11.954 -0.5330  1.2692  1.5881
 7416SOL    HW233711   1.336   3.538  11.905  0.1834 -1.1719 -1.3218
 7417SOL     OW33712   4.012   4.157  11.974 -0.3918 -0.2930 -0.3187
 7417SOL    HW133713   3.973   4.072  11.995  0.5044 -1.2337 -2.4837
 7417SOL    HW233714   3.929   4.205  11.975 -2.3291 -3.6970  1.3066
 7418SOL     OW33715   3.897   2.337   4.943 -0.1417  0.1664  1.0355
 7418SOL    HW133716   3.847   2.300   5.015 -0.0935 -1.7416  0.1146
 7418SOL    HW233717   3.900   2.266   4.878  0.7221  0.6493  0.5545
 7419SOL     OW33718   3.715   1.449  12.760  0.2253 -0.2079  0.2323
 7419SOL    HW133719   3.786   1.403  12.715  0.2836 -0.8248  0.9566
 7419SOL    HW233720   3.667   1.469  12.679  0.5519 -0.9221 -0.1359
 7420SOL     OW33721   3.815   4.706   6.218  0.0773 -0.0950 -0.0286
 7420SOL    HW133722   3.888   0.034   6.185  0.2010  1.7339  3.0654
 7420SOL    HW233723   3.808   0.003   6.311  1.6693 -1.5137  0.4061
 7421SOL     OW33724   1.141   0.703   8.315  0.0589 -0.3867  0.0257
 7421SOL    HW133725   1.186   0.622   8.294 -0.2437  0.1531 -2.6461
 7421SOL    HW233726   1.205   0.749   8.370  0.1137 -1.1734  0.6154
 7422SOL     OW33727   1.424   4.052   3.826  0.1335  0.3387  0.0295
 7422SOL    HW133728   1.417   3.969   3.779 -0.1711 -0.3663  1.3181
 7422SOL    HW233729   1.334   4.071   3.852 -0.6701 -1.8545 -1.1567
 7423SOL     OW33730   0.509   2.208   2.411  0.0059  0.0706  0.1006
 7423SOL    HW133731   0.582   2.181   2.355  0.4648 -1.5172  1.4837
 7423SOL    HW233732   0.523   2.302   2.417  3.6136 -0.4434 -0.2806
 7424SOL     OW33733   1.849   0.933   0.076 -0.2856 -0.2653 -0.1456
 7424SOL    HW133734   1.825   0.841   0.073  1.1588 -0.6938  1.9026
 7424SOL    HW233735   1.942   0.932   0.053  0.0159  0.3971  1.0447
 7425SOL     OW33736   2.576   0.828   8.196 -0.8343  0.4595  0.2333
 7425SOL    HW133737   2.523   0.762   8.152 -0.5711  0.3035  0.1565
 7425SOL    HW233738   2.660   0.806   8.157  0.1643  0.5209  2.3440
 7426SOL     OW33739   0.539   0.515  13.143 -0.2576  0.0385  0.2972
 7426SOL    HW133740   0.499   0.459  13.210 -2.4364  3.0646  1.5366
 7426SOL    HW233741   0.618   0.541  13.190 -0.7944 -0.5649  1.5348
 7427SOL     OW33742   3.922   1.337   5.928  0.2761 -0.6243  0.1551
 7427SOL    HW133743   3.950   1.427   5.907 -3.4763  1.2465  3.2794
 7427SOL    HW233744   3.931   1.336   6.023  0.1534 -1.5617  0.1547
 7428SOL     OW33745   2.287   0.850   5.976 -0.8556 -0.1316 -0.2709
 7428SOL    HW133746   2.209   0.880   6.024  0.4907  2.7979  0.1083
 7428SOL    HW233747   2.250   0.803   5.901 -1.8722  1.4798 -0.8016
 7429SOL     OW33748   0.912   3.950   6.064 -0.5213 -0.1506 -0.2189
 7429SOL    HW133749   0.977   3.981   6.127 -2.3589  0.1921  1.5251
 7429SOL    HW233750   0.904   3.863   6.103  1.7778 -1.6858 -3.1719
 7430SOL     OW33751   0.693   0.142  13.272  0.4043 -0.1272  0.0724
 7430SOL    HW133752   0.656   0.228  13.294  0.0187 -1.0985  3.1884
 7430SOL    HW233753   0.629   0.112  13.208 -1.5218  1.7382  1.0979
 7431SOL     OW33754   4.281   3.210  13.531  0.9243  0.1666  0.0436
 7431SOL    HW133755   4.251   3.243  13.446  1.4475 -0.4220 -0.3686
 7431SOL    HW233756   4.375   3.211  13.516  0.8262 -0.3501 -0.6172
 7432SOL     OW33757   4.214   1.590   2.334 -0.1314  0.2767  0.2042
 7432SOL    HW133758   4.299   1.559   2.365  0.3818  0.7897 -0.6779
 7432SOL    HW233759   4.162   1.582   2.413  1.8490 -0.4880  1.4231
 7433SOL     OW33760   3.592   2.305   9.732  0.2166  0.4201 -0.4562
 7433SOL    HW133761   3.572   2.369   9.664  2.6440  1.7612  0.0735
 7433SOL    HW233762   3.672   2.336   9.776 -0.1949  1.9173 -0.7688
 7434SOL     OW33763   2.749   3.935   7.499  0.1516 -0.5178  0.3896
 7434SOL    HW133764   2.759   3.858   7.555 -2.4208 -1.5654 -0.5857
 7434SOL    HW233765   2.813   3.927   7.429  0.5823 -0.9848  0.8412
 7435SOL     OW33766   4.566   2.872   6.114  0.4989 -0.3132  0.7301
 7435SOL    HW133767   4.472   2.868   6.135 -0.0856 -0.9049 -1.8871
 7435SOL    HW233768   4.600   2.864   6.203 -2.3720  1.3515  1.9717
 7436SOL     OW33769   0.125   2.088  17.121 -0.4690  0.1527 -0.4256
 7436SOL    HW133770   0.046   2.104  17.069  0.9305  3.9290 -1.4140
 7436SOL    HW233771   0.098   2.102  17.211 -0.6840 -1.4285 -0.2556
 7437SOL     OW33772   3.028   4.546  11.072 -0.2355 -0.2847 -0.0715
 7437SOL    HW133773   3.019   4.551  11.167  0.8800  0.8391 -0.0211
 7437SOL    HW233774   3.120   4.566  11.058 -0.2027 -0.3681  0.0305
 7438SOL     OW33775   3.516   0.096  15.205  0.0112 -0.1701 -0.2881
 7438SOL    HW133776   3.597   0.056  15.236  0.0763 -0.0531 -0.3077
 7438SOL    HW233777   3.455   0.055  15.267 -0.1777 -1.6582 -1.4615
 7439SOL     OW33778   2.158   0.588  12.073 -0.1977 -0.0488  0.2005
 7439SOL    HW133779   2.137   0.540  12.153 -1.4825  0.7533  0.3624
 7439SOL    HW233780   2.113   0.673  12.078  1.4331  0.8894 -1.2615
 7440SOL     OW33781   0.348   1.063   3.486  0.2090  0.2757 -0.4478
 7440SOL    HW133782   0.302   1.147   3.488  0.7669  0.5899 -0.7179
 7440SOL    HW233783   0.289   1.007   3.536 -0.1498  1.2402  0.1991
 7441SOL     OW33784   3.299   4.686  15.325 -0.3267 -0.2812  0.3658
 7441SOL    HW133785   3.336   4.608  15.283 -1.6405 -0.6488 -0.1122
 7441SOL    HW233786   3.255   4.651  15.402 -0.5096  1.3466  0.9979
 7442SOL     OW33787   4.292   2.508  17.119  0.1239  0.2195  0.0311
 7442SOL    HW133788   4.365   2.569  17.131 -1.0281  1.0470  3.0089
 7442SOL    HW233789   4.260   2.506  17.209  1.8051  2.4489  0.6876
 7443SOL     OW33790   1.634   3.145   9.106 -0.6128 -0.2564  0.0210
 7443SOL    HW133791   1.611   3.221   9.159  0.1537  0.8758 -1.2818
 7443SOL    HW233792   1.551   3.100   9.089 -0.6023 -0.6299  0.9203
 7444SOL     OW33793   0.116   3.070  12.230  0.5610  0.6592  0.0330
 7444SOL    HW133794   0.063   3.150  12.226 -0.7999 -0.1961  0.5826
 7444SOL    HW233795   0.160   3.086  12.314  0.5018 -1.3702  0.4530
 7445SOL     OW33796   1.824   3.925  17.222  0.1760 -0.3824  0.2429
 7445SOL    HW133797   1.903   3.915  17.170  0.2958  3.8432 -0.3805
 7445SOL    HW233798   1.825   4.015  17.256  0.4589 -0.3352  0.1096
 7446SOL     OW33799   3.507   4.165   3.441  0.0815  0.7804  0.4062
 7446SOL    HW133800   3.589   4.146   3.487  0.6191 -0.2848 -0.9672
 7446SOL    HW233801   3.475   4.235   3.498  0.8100  1.9730 -0.6559
 7447SOL     OW33802   4.070   1.859   2.270 -0.9887  0.3983 -0.6955
 7447SOL    HW133803   3.985   1.834   2.307 -1.5822  2.7849 -0.4358
 7447SOL    HW233804   4.126   1.798   2.317 -0.1844  0.7830 -1.1612
 7448SOL     OW33805   4.069   2.996   4.089 -0.4608 -0.1043  0.1236
 7448SOL    HW133806   4.037   2.937   4.022  0.4641 -0.4191 -0.0427
 7448SOL    HW233807   4.016   2.977   4.166  0.7143 -1.2241  0.6659
 7449SOL     OW33808   2.721   1.967   2.549  0.0634 -0.4498 -0.1997
 7449SOL    HW133809   2.653   2.018   2.593  0.4843  0.8778 -1.0768
 7449SOL    HW233810   2.679   1.911   2.483  0.0807 -2.5000  1.5493
 7450SOL     OW33811   1.423   0.624   7.348  0.5921 -0.7521 -0.0139
 7450SOL    HW133812   1.419   0.600   7.255 -0.9040 -0.7760  0.0575
 7450SOL    HW233813   1.365   0.700   7.344  1.3924 -0.2093 -1.2522
 7451SOL     OW33814   4.019   1.329   9.024  0.0038  0.8841  0.1762
 7451SOL    HW133815   4.074   1.388   8.972 -1.2167 -0.0066 -2.0917
 7451SOL    HW233816   4.084   1.304   9.090  0.4737 -2.6120 -1.6274
 7452SOL     OW33817   4.199   2.372   6.075  0.7912  0.5570  0.3066
 7452SOL    HW133818   4.196   2.352   6.169  0.2240 -2.1897 -0.2868
 7452SOL    HW233819   4.213   2.285   6.036  0.4751  0.8444 -0.4277
 7453SOL     OW33820   1.668   0.902   9.711 -0.1459 -0.8645 -0.2011
 7453SOL    HW133821   1.716   0.929   9.789  0.4525 -1.5282 -0.3350
 7453SOL    HW233822   1.711   0.819   9.691  0.1373 -1.1921  1.8175
 7454SOL     OW33823   1.727   3.601   6.022  0.2582 -0.2041  0.2885
 7454SOL    HW133824   1.646   3.611   5.973  0.3300 -0.1491  0.1830
 7454SOL    HW233825   1.750   3.515   5.987  3.1432  0.2194  1.0795
 7455SOL     OW33826   0.333   0.698   4.473 -0.8288  0.6269 -0.4859
 7455SOL    HW133827   0.423   0.666   4.467 -1.8893 -2.6280  0.7964
 7455SOL    HW233828   0.352   0.790   4.491  1.3101  0.6523 -2.8942
 7456SOL     OW33829   3.061   1.616  16.046  0.0901 -0.0599 -0.3161
 7456SOL    HW133830   3.106   1.678  15.989 -0.0070  0.5407  0.2541
 7456SOL    HW233831   2.967   1.623  16.025 -0.2418 -0.3839  1.0514
 7457SOL     OW33832   3.803   0.328   2.044  0.6528  0.0147 -0.4319
 7457SOL    HW133833   3.845   0.304   1.962  0.6163  1.4117 -0.8716
 7457SOL    HW233834   3.797   0.421   2.020 -0.6166 -0.0944 -0.5356
 7458SOL     OW33835   1.521   1.788   0.948 -0.0341  0.5461  0.0952
 7458SOL    HW133836   1.544   1.817   0.860 -1.5707 -0.1833 -0.5492
 7458SOL    HW233837   1.592   1.824   1.002  0.6818  0.7674 -1.0012
 7459SOL     OW33838   2.033   2.055   4.617 -0.6232 -0.2750  0.7010
 7459SOL    HW133839   1.989   2.083   4.698  0.6374 -0.6218  1.5091
 7459SOL    HW233840   2.046   1.963   4.641 -0.0102 -0.3644  0.0031
 7460SOL     OW33841   3.496   2.687   2.836  0.5020 -0.3404 -0.2892
 7460SOL    HW133842   3.422   2.665   2.779 -0.2635  0.2321  0.5062
 7460SOL    HW233843   3.567   2.726   2.785  0.8093  1.3050  1.4152
 7461SOL     OW33844   2.269   4.172   7.637 -0.0257 -0.1401 -0.2267
 7461SOL    HW133845   2.349   4.121   7.650  0.5556  0.5513 -1.1789
 7461SOL    HW233846   2.285   4.219   7.556 -0.0537  1.3485  0.6362
 7462SOL     OW33847   1.711   0.918   2.564  0.2389 -0.2490 -0.0043
 7462SOL    HW133848   1.677   0.946   2.480  3.3365 -1.3528 -1.6256
 7462SOL    HW233849   1.768   0.994   2.576 -0.8722  0.4990  0.4569
 7463SOL     OW33850   4.453   0.723   9.024 -0.4166  0.1776  0.3882
 7463SOL    HW133851   4.508   0.658   8.980  0.3203  0.7570  0.4538
 7463SOL    HW233852   4.519   0.792   9.030  0.8127 -0.8123 -1.7820
 7464SOL     OW33853   4.608   0.745   3.308 -0.0119 -0.7018 -0.1631
 7464SOL    HW133854   4.604   0.812   3.239  0.2825  0.0308  0.5377
 7464SOL    HW233855   4.532   0.689   3.292 -1.6504  1.5805 -0.4958
 7465SOL     OW33856   3.804   2.828  12.690 -0.1632  0.1802  0.4152
 7465SOL    HW133857   3.832   2.841  12.599  1.4062  0.6998  0.9668
 7465SOL    HW233858   3.713   2.854  12.693 -0.1866  0.4093 -2.0191
 7466SOL     OW33859   1.717   4.608   4.918 -0.2992 -0.3453 -0.3547
 7466SOL    HW133860   1.742   4.611   5.010  1.6398  0.3257 -0.9118
 7466SOL    HW233861   1.714   4.514   4.900 -1.0903 -0.6200  1.1576
 7467SOL     OW33862   4.221   4.215   8.263  0.0584  0.4763 -0.0964
 7467SOL    HW133863   4.260   4.174   8.186  0.1945  0.7076 -0.1517
 7467SOL    HW233864   4.153   4.267   8.220 -0.9548 -1.7307 -1.1665
 7468SOL     OW33865   1.829   0.185   2.746  0.1246  0.2045  0.1030
 7468SOL    HW133866   1.884   0.190   2.667 -0.8219  0.1890 -0.5543
 7468SOL    HW233867   1.761   0.123   2.720  1.2294 -0.4559 -1.2504
 7469SOL     OW33868   3.829   3.251   2.528 -0.5109  0.3938 -0.1921
 7469SOL    HW133869   3.869   3.215   2.449  1.7624  0.5738  0.8980
 7469SOL    HW233870   3.754   3.297   2.491 -0.1793  0.8024 -0.3502
 7470SOL     OW33871   0.533   1.664   8.554 -0.6446 -0.1707 -0.4009
 7470SOL    HW133872   0.453   1.668   8.606 -0.0001 -0.4383  0.5998
 7470SOL    HW233873   0.490   1.684   8.471 -1.9286  0.7369  0.4794
 7471SOL     OW33874   3.956   1.150   1.878  0.3718  0.8156  0.3365
 7471SOL    HW133875   4.039   1.184   1.913  0.4676  1.9180 -0.9803
 7471SOL    HW233876   3.905   1.231   1.880 -0.2835  0.4099 -0.1021
 7472SOL     OW33877   3.231   0.794  13.766  0.2563 -0.0575  0.0964
 7472SOL    HW133878   3.146   0.797  13.809 -0.9777 -0.7843 -2.3162
 7472SOL    HW233879   3.259   0.707  13.797 -1.8889 -1.0529 -0.7777
 7473SOL     OW33880   0.191   0.960   3.675  0.3926  0.2187 -0.3981
 7473SOL    HW133881   0.137   1.032   3.707 -0.4937 -0.5981 -0.0404
 7473SOL    HW233882   0.134   0.882   3.671  1.3708 -0.6834  2.5096
 7474SOL     OW33883   3.316   3.343  16.292 -0.1920 -0.0099 -0.0108
 7474SOL    HW133884   3.347   3.252  16.300 -1.7267 -0.3547  1.9118
 7474SOL    HW233885   3.389   3.392  16.256  0.2098 -0.7977 -0.2748
 7475SOL     OW33886   4.576   0.139   6.856  0.2190 -0.1464  0.3905
 7475SOL    HW133887   4.536   0.107   6.936  0.7927 -1.3823  0.1755
 7475SOL    HW233888   4.492   0.164   6.817  0.9365  1.2174 -0.3050
 7476SOL     OW33889   1.286   2.386  12.612 -0.3717 -0.2912 -0.4448
 7476SOL    HW133890   1.275   2.310  12.669 -0.7667  0.0307 -0.0885
 7476SOL    HW233891   1.326   2.343  12.537 -0.5662 -0.2198 -0.5879
 7477SOL     OW33892   0.973   4.501   9.059  0.1913  0.3553  0.8165
 7477SOL    HW133893   0.888   4.478   9.095  0.7961  0.2691  2.1743
 7477SOL    HW233894   1.030   4.499   9.136  3.0353  2.8769 -1.2387
 7478SOL     OW33895   2.185   4.700  10.092  0.1279  0.2418  0.5475
 7478SOL    HW133896   2.098   0.012  10.106 -0.3357 -0.8015  0.2768
 7478SOL    HW233897   2.228   0.019  10.166 -0.2318 -0.7881  1.3502
 7479SOL     OW33898   4.353   3.830   4.680 -0.2283 -0.3820 -0.1904
 7479SOL    HW133899   4.403   3.773   4.739  1.7709  3.1220  1.4861
 7479SOL    HW233900   4.316   3.898   4.737  0.4984 -1.1450  1.1921
 7480SOL     OW33901   3.764   0.496   4.187  0.0363 -0.3020 -0.0948
 7480SOL    HW133902   3.742   0.565   4.126  0.5441  0.2374  0.3345
 7480SOL    HW233903   3.813   0.543   4.255  0.1991 -1.4885  0.6267
 7481SOL     OW33904   1.521   4.336   6.487  0.7016 -0.0386  0.6054
 7481SOL    HW133905   1.594   4.361   6.430 -0.9701  0.0954 -1.4894
 7481SOL    HW233906   1.467   4.415   6.493 -0.1893 -0.5608 -0.4670
 7482SOL     OW33907   1.460   1.109  11.494  0.1927 -0.5072 -0.2705
 7482SOL    HW133908   1.479   1.061  11.414 -1.6599 -0.2219 -0.8764
 7482SOL    HW233909   1.550   1.120  11.524  0.2672  2.0275 -1.3591
 7483SOL     OW33910   4.183   0.186  15.804 -0.1546  0.2362  0.0853
 7483SOL    HW133911   4.158   0.110  15.751  0.6503  0.3834 -0.5020
 7483SOL    HW233912   4.267   0.207  15.765 -0.8853  0.5656 -1.3093
 7484SOL     OW33913   1.037   3.782  15.634 -0.4140 -0.0747 -0.4659
 7484SOL    HW133914   0.969   3.789  15.567 -1.0721  0.2738  0.2575
 7484SOL    HW233915   1.015   3.694  15.666  3.1426 -1.6350 -2.1699
 7485SOL     OW33916   3.800   2.806   2.931  0.6069 -0.0875 -0.3244
 7485SOL    HW133917   3.781   2.825   2.839 -2.2211 -1.0204  0.0723
 7485SOL    HW233918   3.759   2.885   2.965  1.2563  0.0679  0.1071
 7486SOL     OW33919   4.165   1.640   6.469  0.3237 -0.2496  0.1175
 7486SOL    HW133920   4.089   1.689   6.502  0.3603  1.1149 -1.8033
 7486SOL    HW233921   4.128   1.621   6.382 -0.7342  1.5800  0.1655
 7487SOL     OW33922   3.912   4.502  15.001  0.3232 -0.1452 -0.5102
 7487SOL    HW133923   3.990   4.555  14.983  0.8714 -0.9360 -0.4225
 7487SOL    HW233924   3.927   4.477  15.092 -0.6357  0.7931 -0.0833
 7488SOL     OW33925   4.376   2.819  15.256  0.0035 -0.6685 -0.2142
 7488SOL    HW133926   4.406   2.902  15.218  2.0352 -2.2641 -2.0866
 7488SOL    HW233927   4.285   2.836  15.281  0.2039 -1.1825  0.8813
 7489SOL     OW33928   0.714   0.638  14.867  0.0093  0.0269  0.1572
 7489SOL    HW133929   0.719   0.626  14.772  0.1859 -0.9767  0.2858
 7489SOL    HW233930   0.796   0.595  14.890 -0.1665 -1.0647 -1.2020
 7490SOL     OW33931   0.553   0.605  16.596  0.1443  0.1215  0.1648
 7490SOL    HW133932   0.589   0.517  16.612 -0.3185  0.0657  0.8516
 7490SOL    HW233933   0.580   0.613  16.504 -0.7948  1.6038  0.0112
 7491SOL     OW33934   1.573   4.052  11.849 -0.0178 -0.7263  0.0254
 7491SOL    HW133935   1.589   4.062  11.943 -0.9331 -0.1413  0.1173
 7491SOL    HW233936   1.480   4.031  11.839 -0.0669 -0.9075  0.8235
 7492SOL     OW33937   3.893   0.276   9.077 -0.3537 -0.1566  0.0223
 7492SOL    HW133938   3.846   0.322   9.146  0.5218  1.7985 -0.6815
 7492SOL    HW233939   3.975   0.256   9.122 -0.3701  0.3367  0.2729
 7493SOL     OW33940   4.369   1.915  15.484  0.5150  0.0082  0.8572
 7493SOL    HW133941   4.319   1.834  15.476  1.0604 -0.4010  1.6746
 7493SOL    HW233942   4.456   1.885  15.461  0.6969  1.5428 -0.4486
 7494SOL     OW33943   2.932   3.112   1.007 -0.3415  0.3921  0.3581
 7494SOL    HW133944   3.022   3.080   1.008 -0.1314  0.9619 -0.3751
 7494SOL    HW233945   2.939   3.207   1.018 -0.3513  0.0957  2.8636
 7495SOL     OW33946   3.044   1.721   3.451  0.2385  0.3260  0.0118
 7495SOL    HW133947   3.117   1.744   3.393  0.6660  0.2743  0.5303
 7495SOL    HW233948   3.017   1.641   3.407  1.4418 -1.3636  2.3662
 7496SOL     OW33949   3.000   0.007   3.841  0.2855 -0.0610 -0.2886
 7496SOL    HW133950   3.036   4.668   3.779 -1.3087  1.2073 -2.5120
 7496SOL    HW233951   2.983   4.678   3.919  0.5318 -0.9218 -0.8297
 7497SOL     OW33952   0.317   1.985   6.486 -0.3563  0.2580 -0.0526
 7497SOL    HW133953   0.303   2.045   6.413  0.7077  0.0742 -0.4119
 7497SOL    HW233954   0.226   1.969   6.511  0.6885 -3.0910  1.5734
 7498SOL     OW33955   3.264   0.596   7.321 -0.3842  0.2229  0.3827
 7498SOL    HW133956   3.329   0.551   7.374  1.1820  2.2142  0.1365
 7498SOL    HW233957   3.309   0.673   7.285  0.6142 -0.8529 -0.7055
 7499SOL     OW33958   2.952   3.525   8.703  0.0960  0.6763 -0.3332
 7499SOL    HW133959   2.886   3.558   8.764 -0.0925  0.5097 -0.4488
 7499SOL    HW233960   2.947   3.608   8.655  0.2716  0.6927 -0.3221
 7500SOL     OW33961   1.175   0.830   1.182 -0.3895  0.1576 -0.0355
 7500SOL    HW133962   1.203   0.746   1.218  2.5313  0.9595 -0.4567
 7500SOL    HW233963   1.253   0.872   1.146 -0.8960  1.5742  0.5079
 7501SOL     OW33964   3.090   0.050   3.287 -0.1569 -0.6033  0.0063
 7501SOL    HW133965   3.180   0.053   3.321 -0.6247 -0.9930  1.2764
 7501SOL    HW233966   3.119   0.010   3.205 -0.1696 -2.7425  1.0498
 7502SOL     OW33967   2.510   4.585   7.797  0.1388 -0.0559 -0.4253
 7502SOL    HW133968   2.416   4.591   7.778  0.3062  0.3956 -1.1194
 7502SOL    HW233969   2.555   4.578   7.713 -1.4797 -0.1692 -1.2886
 7503SOL     OW33970   0.432   3.248   6.711  0.0044 -0.0249 -0.1121
 7503SOL    HW133971   0.374   3.191   6.761  0.4782 -1.4574 -1.1614
 7503SOL    HW233972   0.382   3.329   6.702  0.7116  0.6356  1.9872
 7504SOL     OW33973   4.002   4.039   7.852 -0.0763 -0.2155  0.1528
 7504SOL    HW133974   3.939   3.970   7.830 -0.6825  0.6895 -0.9732
 7504SOL    HW233975   3.942   4.109   7.878  1.0514  1.2833 -1.2784
 7505SOL     OW33976   3.137   1.951   6.877  0.6427  0.4804  0.4089
 7505SOL    HW133977   3.187   1.962   6.957 -1.6484  0.5943  1.8414
 7505SOL    HW233978   3.070   1.891   6.908  0.0529  0.1016 -1.6055
 7506SOL     OW33979   2.049   3.156   2.831  0.2162  0.0312 -0.0057
 7506SOL    HW133980   2.132   3.187   2.793  0.9274 -0.7060  0.9308
 7506SOL    HW233981   2.043   3.077   2.778 -1.1764 -0.2845  0.6251
 7507SOL     OW33982   0.101   3.723   6.183  0.5233  0.0031 -0.4389
 7507SOL    HW133983   0.182   3.718   6.234 -0.2101 -1.3469  0.5821
 7507SOL    HW233984   0.129   3.802   6.136  0.2403  0.6838  0.5442
 7508SOL     OW33985   4.270   3.984   4.208 -0.3612  0.3772  0.0256
 7508SOL    HW133986   4.320   3.999   4.288 -1.5760 -0.6673  0.9901
 7508SOL    HW233987   4.328   3.985   4.131  0.1317  0.0259  0.3908
 7509SOL     OW33988   4.622   2.266   5.256  0.4632  0.2447 -0.4329
 7509SOL    HW133989   4.589   2.188   5.211  0.6906  1.5851 -2.9469
 7509SOL    HW233990   4.673   2.226   5.326 -0.3732 -1.0864 -0.5900
 7510SOL     OW33991   0.305   0.189   9.253 -0.1390 -0.2587 -0.4661
 7510SOL    HW133992   0.392   0.152   9.234  1.1191  2.9697 -1.1005
 7510SOL    HW233993   0.287   0.145   9.336 -2.3984 -1.8540 -1.8084
 7511SOL     OW33994   1.410   4.191  12.835  1.1840  0.6932  0.3197
 7511SOL    HW133995   1.485   4.133  12.827 -0.2312 -0.9768 -0.5711
 7511SOL    HW233996   1.361   4.179  12.754  0.6805  0.6574  0.6263
 7512SOL     OW33997   0.184   1.006  13.218  0.0730 -0.7203  0.4215
 7512SOL    HW133998   0.132   0.931  13.189 -0.8213  0.2958 -0.6229
 7512SOL    HW233999   0.263   0.999  13.165  1.3511 -1.2106  2.3894
 7513SOL     OW34000   3.293   3.460   8.735 -0.0335 -0.1210  0.8229
 7513SOL    HW134001   3.301   3.425   8.823 -4.6491 -2.7256  0.2529
 7513SOL    HW234002   3.339   3.392   8.685 -1.2919 -0.9523  0.7742
 7514SOL     OW34003   1.592   3.716  14.251  0.0370  0.5805  0.0268
 7514SOL    HW134004   1.624   3.800  14.283  0.6886  1.1163 -2.0098
 7514SOL    HW234005   1.500   3.730  14.272  0.3543  0.9560  1.1399
 7515SOL     OW34006   0.538   2.040   8.543 -0.1949 -0.1313  0.1116
 7515SOL    HW134007   0.565   1.970   8.603  0.9901  0.8639  0.7325
 7515SOL    HW234008   0.510   2.109   8.602 -0.2219 -1.7962  2.0531
 7516SOL     OW34009   0.043   1.002   1.602 -0.4426 -0.2645 -0.4911
 7516SOL    HW134010   4.693   1.053   1.571 -0.5974 -0.2466 -0.0908
 7516SOL    HW234011   0.027   0.994   1.696  1.3244 -0.2947 -0.1853
 7517SOL     OW34012   1.578   3.967   2.534 -0.1509  0.3648 -0.1824
 7517SOL    HW134013   1.630   4.045   2.516 -3.5539  2.4953 -0.8156
 7517SOL    HW234014   1.633   3.904   2.487  2.2841  1.2671  1.4405
 7518SOL     OW34015   0.284   4.322  14.981 -0.4017 -0.3710  0.5766
 7518SOL    HW134016   0.288   4.345  15.074  1.0602 -1.9980  0.9136
 7518SOL    HW234017   0.278   4.227  14.983  2.7722 -0.5460  2.1707
 7519SOL     OW34018   0.118   0.979   2.338 -0.3239 -0.2920  0.3485
 7519SOL    HW134019   0.181   0.917   2.301  1.8894  0.2949  3.0783
 7519SOL    HW234020   0.167   1.060   2.351  0.1134 -0.5590  0.3637
 7520SOL     OW34021   3.507   2.439   5.755 -0.1657 -0.4827 -0.4786
 7520SOL    HW134022   3.512   2.372   5.823 -0.6969  1.8176  1.8069
 7520SOL    HW234023   3.505   2.376   5.683 -0.3033 -0.8274 -0.1751
 7521SOL     OW34024   4.590   3.657   2.293  0.0429  0.5795 -0.7941
 7521SOL    HW134025   4.650   3.584   2.306 -1.5441 -1.0475 -2.5110
 7521SOL    HW234026   4.563   3.674   2.383 -0.6723  1.9922 -1.2700
 7522SOL     OW34027   1.766   3.443  12.941 -0.1188  0.0057  0.2279
 7522SOL    HW134028   1.838   3.487  12.897  0.2820  0.3944  1.2624
 7522SOL    HW234029   1.691   3.489  12.904 -0.0052  0.1790  0.2145
 7523SOL     OW34030   1.894   1.653   4.863 -0.1378 -0.2536  0.2227
 7523SOL    HW134031   1.931   1.565   4.855  2.5720  0.9324 -0.2566
 7523SOL    HW234032   1.957   1.692   4.803  0.6605 -0.0729  1.1825
 7524SOL     OW34033   4.571   0.694  12.905  0.1791  0.3028 -0.4308
 7524SOL    HW134034   4.509   0.651  12.963  1.4522  2.0037  2.1716
 7524SOL    HW234035   4.585   0.774  12.955  1.2005  0.2272 -0.5895
 7525SOL     OW34036   0.171   0.333   4.536  0.0376  0.7040  0.1818
 7525SOL    HW134037   0.221   0.349   4.616  1.1169 -2.0890  0.0783
 7525SOL    HW234038   0.103   0.399   4.544  0.5047  1.2465 -0.2241
 7526SOL     OW34039   4.304   3.432   3.202  0.0728  0.3922  0.3158
 7526SOL    HW134040   4.229   3.447   3.258  0.2808 -0.7614  0.9086
 7526SOL    HW234041   4.368   3.383   3.254  0.7176  0.5663 -0.3190
 7527SOL     OW34042   2.496   1.767   4.250 -0.3890  0.7066  0.0882
 7527SOL    HW134043   2.489   1.857   4.220 -0.4936  0.9621  0.8980
 7527SOL    HW234044   2.413   1.739   4.213 -0.2734  1.6969 -0.9166
 7528SOL     OW34045   3.494   1.348  10.228 -0.1260 -0.9509  0.0257
 7528SOL    HW134046   3.515   1.432  10.188 -0.0667  0.5497  3.2281
 7528SOL    HW234047   3.524   1.361  10.318  1.5550 -0.2106 -0.6437
 7529SOL     OW34048   1.188   2.364   3.503  0.5786  0.4913 -0.4905
 7529SOL    HW134049   1.277   2.345   3.474  0.4084 -0.1219 -0.6091
 7529SOL    HW234050   1.196   2.450   3.544 -0.0963 -0.2692  1.2298
 7530SOL     OW34051   1.802   4.369   2.987  0.2309  0.1587 -0.1425
 7530SOL    HW134052   1.826   4.461   2.978  0.7741  0.1827  1.4252
 7530SOL    HW234053   1.745   4.348   2.914  0.3704 -3.0454  0.6595
 7531SOL     OW34054   0.856   1.616   7.716 -0.4025  0.1078 -0.7647
 7531SOL    HW134055   0.924   1.569   7.667  0.2010 -0.9222  1.0263
 7531SOL    HW234056   0.883   1.707   7.712 -0.1060 -0.1502 -4.2856
 7532SOL     OW34057   1.794   3.037  15.527 -0.0755  0.4966  0.0040
 7532SOL    HW134058   1.884   3.055  15.499 -0.2945  1.0533 -0.3299
 7532SOL    HW234059   1.785   3.091  15.605 -1.0559  1.2737 -0.6448
 7533SOL     OW34060   3.589   2.401   2.067  0.1142 -0.1534 -0.0196
 7533SOL    HW134061   3.500   2.368   2.052 -0.2481  1.0009 -0.4161
 7533SOL    HW234062   3.603   2.401   2.162  1.1078  1.1198 -0.1630
 7534SOL     OW34063   3.179   1.190   8.417 -0.2119  0.1953 -0.3825
 7534SOL    HW134064   3.229   1.271   8.406 -1.4005  1.1355  1.1579
 7534SOL    HW234065   3.249   1.130   8.390  1.2727  1.9538 -0.4521
 7535SOL     OW34066   0.945   2.450   8.499 -0.3607  0.5802 -0.5248
 7535SOL    HW134067   0.851   2.438   8.481  0.0561 -1.5768 -1.2739
 7535SOL    HW234068   0.982   2.363   8.485  0.0234  0.4332  1.4760
 7536SOL     OW34069   0.682   0.265   6.151  0.6249 -0.2637  0.4023
 7536SOL    HW134070   0.607   0.253   6.209  0.3952 -2.2140 -0.2917
 7536SOL    HW234071   0.755   0.265   6.213  0.7630  1.4745  0.2488
 7537SOL     OW34072   1.621   4.028  12.496  0.0097  0.2553 -0.1675
 7537SOL    HW134073   1.576   4.087  12.436  1.4390 -1.8291 -3.2524
 7537SOL    HW234074   1.694   3.990  12.446 -0.6395 -0.1611 -0.7895
 7538SOL     OW34075   0.346   4.407  12.365  0.6117  0.2151 -0.0774
 7538SOL    HW134076   0.278   4.470  12.384  0.6087 -0.0340  0.7507
 7538SOL    HW234077   0.301   4.323  12.373 -2.6845  1.9239 -1.1269
 7539SOL     OW34078   2.087   1.065   6.442 -0.2287  0.0409  0.5973
 7539SOL    HW134079   2.065   1.113   6.362  0.6015 -1.9665 -0.8418
 7539SOL    HW234080   2.178   1.086   6.460 -0.2302 -0.3255  1.0394
 7540SOL     OW34081   2.136   3.961   5.594 -0.4405  0.1616 -0.7624
 7540SOL    HW134082   2.076   4.033   5.614 -1.7931 -1.7773  1.9986
 7540SOL    HW234083   2.155   3.924   5.680 -0.5092  1.0895 -0.3453
 7541SOL     OW34084   1.416   4.079   9.148  0.4849  0.1442  0.4170
 7541SOL    HW134085   1.468   4.159   9.153 -1.8047  1.7785 -2.1739
 7541SOL    HW234086   1.368   4.101   9.069  1.2580  1.7729  0.4095
 7542SOL     OW34087   0.841   0.718   2.873 -0.2353  0.0448 -0.3459
 7542SOL    HW134088   0.821   0.737   2.965  0.8956  2.0396 -0.5203
 7542SOL    HW234089   0.924   0.767   2.869  0.2934 -0.9429 -1.4979
 7543SOL     OW34090   4.585   2.113   4.652 -0.2064  0.8661 -0.4569
 7543SOL    HW134091   4.606   2.019   4.645  0.1296  1.0216 -1.6244
 7543SOL    HW234092   4.643   2.127   4.726  0.3409 -1.0350 -0.5180
 7544SOL     OW34093   3.850   4.030   4.309 -0.2425  0.1354  0.1591
 7544SOL    HW134094   3.801   4.078   4.376 -1.0599  0.6917 -0.8338
 7544SOL    HW234095   3.935   4.036   4.352 -0.7199  0.9092  1.0218
 7545SOL     OW34096   0.508   1.964   3.508  0.5514 -0.2313 -0.4831
 7545SOL    HW134097   0.569   1.891   3.512  0.1359 -0.5387  0.3255
 7545SOL    HW234098   0.539   2.019   3.580  2.9483 -2.3313  0.0943
 7546SOL     OW34099   2.013   4.182   0.339 -0.2536  0.4475  0.2740
 7546SOL    HW134100   2.056   4.116   0.285  2.7490 -0.0459  3.2764
 7546SOL    HW234101   2.015   4.254   0.276 -2.1239 -0.4402 -0.8135
 7547SOL     OW34102   4.047   1.144   2.257  0.5671  0.0657  0.9987
 7547SOL    HW134103   4.086   1.170   2.174 -4.1299  0.3514 -1.1427
 7547SOL    HW234104   3.982   1.086   2.217  0.5364  0.5789  0.3008
 7548SOL     OW34105   2.366   0.135  15.514  0.1262  0.4952  0.6155
 7548SOL    HW134106   2.292   0.194  15.532  0.6405  2.1695 -2.5791
 7548SOL    HW234107   2.327   0.049  15.503 -1.2045  1.0521  0.9205
 7549SOL     OW34108   1.767   1.748  12.941 -0.2603  0.3980  0.8474
 7549SOL    HW134109   1.774   1.816  13.008  3.1303  1.3368 -0.4406
 7549SOL    HW234110   1.732   1.675  12.992 -0.0460 -0.0572  0.3519
 7550SOL     OW34111   1.064   0.919   5.411  0.4442  0.6741  0.3747
 7550SOL    HW134112   0.989   0.968   5.443  0.1848  0.0263  0.7617
 7550SOL    HW234113   1.051   0.952   5.322 -2.2981 -1.6420 -0.0936
 7551SOL     OW34114   1.859   0.362  14.865 -0.3976  0.2692  0.4146
 7551SOL    HW134115   1.881   0.437  14.808  0.1559  0.5361  0.9806
 7551SOL    HW234116   1.876   0.288  14.807 -1.4941  0.8863 -0.7131
 7552SOL     OW34117   4.547   2.814   9.865  0.0772  0.3272 -0.0518
 7552SOL    HW134118   4.558   2.730   9.821 -0.2453 -0.0184  0.5284
 7552SOL    HW234119   4.453   2.824   9.851  0.3255  0.8857 -1.3727
 7553SOL     OW34120   2.617   0.240   5.337 -0.2008 -0.0165 -0.0472
 7553SOL    HW134121   2.580   0.327   5.323 -2.2240 -0.6610  1.3259
 7553SOL    HW234122   2.581   0.192   5.263 -0.3992  1.3258 -0.8341
 7554SOL     OW34123   0.184   0.481  16.822  0.3607 -0.1172 -0.2960
 7554SOL    HW134124   0.217   0.507  16.908 -0.3361  1.6587 -0.5610
 7554SOL    HW234125   0.094   0.511  16.813  0.3538 -0.0411  0.0321
 7555SOL     OW34126   2.354   4.627   7.368  0.1799 -0.7702  0.2661
 7555SOL    HW134127   2.440   4.653   7.402  0.6184  0.3133 -1.6742
 7555SOL    HW234128   2.384   4.588   7.286 -0.6973 -0.7066 -0.0837
 7556SOL     OW34129   4.646   0.904  11.374 -0.1501 -0.2430 -0.0817
 7556SOL    HW134130   4.658   0.993  11.341 -0.3533  0.7944  2.5865
 7556SOL    HW234131   4.722   0.893  11.432  0.2023  2.3159 -0.0297
 7557SOL     OW34132   3.012   4.558  11.343  1.0108  0.4515  0.3199
 7557SOL    HW134133   3.021   4.501  11.420  2.5757  0.6868  0.3075
 7557SOL    HW234134   2.978   4.642  11.376  1.3638  0.4027  0.8200
 7558SOL     OW34135   1.272   1.318  13.316 -0.6358 -0.5474  0.1061
 7558SOL    HW134136   1.256   1.335  13.408 -1.4278 -1.8229  0.1934
 7558SOL    HW234137   1.217   1.241  13.306  0.0273 -1.2316  1.7475
 7559SOL     OW34138   4.026   0.048   3.276  0.1291 -0.1844 -0.3476
 7559SOL    HW134139   4.037   0.077   3.185 -0.0899 -0.3691 -0.4347
 7559SOL    HW234140   4.116   0.048   3.307 -0.3692  1.7593  1.0548
 7560SOL     OW34141   3.943   3.712   6.461  0.1009  0.0830  0.0951
 7560SOL    HW134142   3.899   3.628   6.473  1.3374 -0.2162  2.3979
 7560SOL    HW234143   3.966   3.727   6.552 -1.0217 -1.3294  0.6250
 7561SOL     OW34144   3.884   3.046   3.718  0.4309  0.4820 -0.5822
 7561SOL    HW134145   3.883   2.999   3.801 -2.5436  0.7974 -0.4489
 7561SOL    HW234146   3.890   2.971   3.659 -0.8640  0.7160 -1.0035
 7562SOL     OW34147   1.489   1.058  13.543 -0.2371 -0.2651 -0.0750
 7562SOL    HW134148   1.515   0.999  13.471  0.4244 -2.1928  1.7258
 7562SOL    HW234149   1.545   1.133  13.525  3.0474 -2.5993  0.2312
 7563SOL     OW34150   3.661   0.228  14.335 -0.0806 -0.6581 -0.5296
 7563SOL    HW134151   3.588   0.201  14.280 -1.8018  0.4035  1.2399
 7563SOL    HW234152   3.605   0.255  14.408 -0.2367  0.3538 -1.0231
 7564SOL     OW34153   1.887   2.852   5.488  0.1693 -0.5479  0.0279
 7564SOL    HW134154   1.912   2.920   5.425 -0.2389 -0.1646  0.2735
 7564SOL    HW234155   1.856   2.912   5.556  1.3906  3.2826 -2.7429
 7565SOL     OW34156   2.502   0.170   5.082  0.1756 -0.3817 -0.5037
 7565SOL    HW134157   2.449   0.093   5.060  1.1745 -1.2981  0.3167
 7565SOL    HW234158   2.432   0.235   5.095  1.4287  0.3138  2.9293
 7566SOL     OW34159   1.968   4.253   6.358 -0.1736  0.0358  0.1862
 7566SOL    HW134160   2.033   4.205   6.308  0.5728 -0.0837  1.2828
 7566SOL    HW234161   1.998   4.232   6.446 -2.8459  1.2663  1.3864
 7567SOL     OW34162   4.380   1.857   3.516  0.3061  0.0546 -0.2846
 7567SOL    HW134163   4.459   1.877   3.465  1.1918  0.2237  1.1633
 7567SOL    HW234164   4.406   1.768   3.538 -1.2504 -0.6863 -1.4509
 7568SOL     OW34165   1.851   2.393   8.532 -0.1816 -0.5608  0.1511
 7568SOL    HW134166   1.840   2.463   8.467  0.4029  1.1786  1.9400
 7568SOL    HW234167   1.794   2.417   8.605 -0.3827  0.5521 -0.3793
 7569SOL     OW34168   0.563   1.758   2.259 -0.6533 -0.1482  0.1270
 7569SOL    HW134169   0.611   1.821   2.312  0.9629  1.3447 -3.1469
 7569SOL    HW234170   0.573   1.797   2.173 -0.5667 -2.1169 -0.7457
 7570SOL     OW34171   2.056   3.615   5.476  0.4571  0.6749 -0.4264
 7570SOL    HW134172   2.083   3.692   5.426  0.6458 -0.0981 -1.5186
 7570SOL    HW234173   2.136   3.587   5.519  0.4929  3.3844  1.2738
 7571SOL     OW34174   0.127   0.231   3.122 -0.6570  0.3585  0.0328
 7571SOL    HW134175   0.089   0.281   3.049 -1.0114  1.7893  1.1996
 7571SOL    HW234176   0.073   0.245   3.199  0.3149 -0.3960  0.8468
 7572SOL     OW34177   2.879   1.529   1.273 -0.0799 -0.2225 -0.3981
 7572SOL    HW134178   2.898   1.454   1.217  0.9190  1.1882 -1.9828
 7572SOL    HW234179   2.831   1.492   1.347 -0.6217  2.3641  0.5450
 7573SOL     OW34180   3.333   4.602   9.243  0.3986 -0.1081  0.4025
 7573SOL    HW134181   3.311   4.531   9.183 -0.3364 -0.0045  0.5541
 7573SOL    HW234182   3.320   4.567   9.331 -1.2656 -1.0747 -0.2213
 7574SOL     OW34183   3.008   2.487   0.495 -0.6397  0.4554 -0.0429
 7574SOL    HW134184   3.000   2.401   0.537  1.9280  0.5570  0.6694
 7574SOL    HW234185   2.950   2.533   0.556 -1.7951 -2.5959  1.1850
 7575SOL     OW34186   1.001   4.185   8.160  0.0236 -0.4361 -0.1592
 7575SOL    HW134187   0.940   4.128   8.206  0.9639 -1.4198 -0.1114
 7575SOL    HW234188   0.997   4.259   8.221 -1.1504 -0.5516 -0.0942
 7576SOL     OW34189   0.290   0.973   7.169 -0.2502  0.3733  0.2235
 7576SOL    HW134190   0.254   0.928   7.245 -1.2108  1.3443  0.3335
 7576SOL    HW234191   0.343   1.038   7.214 -1.1942 -0.4261  2.4981
 7577SOL     OW34192   2.905   0.434  10.440  0.1857  0.2826  0.3291
 7577SOL    HW134193   2.911   0.386  10.522 -2.1110 -0.9451 -0.2086
 7577SOL    HW234194   2.970   0.503  10.450 -1.0411  1.9625 -3.1180
 7578SOL     OW34195   2.883   0.447   7.329 -0.1673 -0.1838  0.3551
 7578SOL    HW134196   2.799   0.401   7.333 -0.4488  0.2809 -0.0950
 7578SOL    HW234197   2.847   0.536   7.320 -0.5618 -0.4513 -0.6980
 7579SOL     OW34198   1.390   0.574   3.349  0.2319 -0.4671 -0.6641
 7579SOL    HW134199   1.342   0.537   3.423  1.2321  2.5982  1.5335
 7579SOL    HW234200   1.446   0.641   3.390 -1.6471  1.3271 -1.0177
 7580SOL     OW34201   2.483   0.969   8.492 -0.4202 -0.0393  0.1750
 7580SOL    HW134202   2.392   0.998   8.502 -0.9012 -1.3739 -0.3712
 7580SOL    HW234203   2.466   0.875   8.488 -1.2875  0.1217 -0.0905
 7581SOL     OW34204   2.210   2.749   8.713 -0.1586 -0.7150  0.5503
 7581SOL    HW134205   2.301   2.775   8.697  0.1133 -1.1030  1.4257
 7581SOL    HW234206   2.227   2.658   8.739 -0.0615 -1.1346 -1.0189
 7582SOL     OW34207   4.309   0.861   9.989 -0.2951  0.5731  0.0240
 7582SOL    HW134208   4.374   0.820   9.932  0.1127 -0.7953  1.4787
 7582SOL    HW234209   4.315   0.803  10.065  0.1499  1.5547  0.7390
 7583SOL     OW34210   1.821   0.041  13.737 -0.1599  0.3530 -0.0726
 7583SOL    HW134211   1.781   4.682  13.762 -2.1451  0.9493 -1.2239
 7583SOL    HW234212   1.773   0.057  13.655 -0.4986 -1.4088 -0.2174
 7584SOL     OW34213   4.582   1.312   2.097  0.0865 -0.1922  0.2126
 7584SOL    HW134214   4.635   1.316   2.176 -0.5288  2.3964  0.5033
 7584SOL    HW234215   4.631   1.368   2.036  0.6528 -0.7406  0.1714
 7585SOL     OW34216   1.085   0.819  14.825 -0.8256 -0.2538 -0.2565
 7585SOL    HW134217   1.149   0.749  14.833  0.4012  0.8815 -0.2284
 7585SOL    HW234218   1.046   0.798  14.740 -1.0826 -1.3120  0.1208
 7586SOL     OW34219   0.917   1.691  11.404 -0.4761  0.2159 -1.0490
 7586SOL    HW134220   0.922   1.623  11.337  1.7546 -1.0510  0.3971
 7586SOL    HW234221   0.994   1.742  11.377 -0.6100  0.2633 -1.3388
 7587SOL     OW34222   2.935   2.382  14.298  0.4656  0.2758 -0.0127
 7587SOL    HW134223   2.860   2.322  14.300  0.7060 -0.0032  0.7101
 7587SOL    HW234224   2.894   2.461  14.334 -0.0919 -0.2108  0.4270
 7588SOL     OW34225   2.445   4.195   5.606  0.4329 -0.2365  0.1333
 7588SOL    HW134226   2.467   4.150   5.687  1.2259 -0.1814 -0.0571
 7588SOL    HW234227   2.528   4.238   5.585  1.6742 -1.2464  2.9636
 7589SOL     OW34228   4.292   0.216   5.336  0.4773 -0.1217  0.2949
 7589SOL    HW134229   4.365   0.261   5.295 -0.2577  0.4708 -0.3537
 7589SOL    HW234230   4.336   0.131   5.345  1.6860  0.5344  0.4851
 7590SOL     OW34231   4.662   2.839   1.420 -0.6838  0.3362 -0.3023
 7590SOL    HW134232   4.594   2.892   1.378 -1.5323 -0.8905 -0.4735
 7590SOL    HW234233   0.020   2.842   1.370 -0.6188  1.1593 -0.1492
 7591SOL     OW34234   2.038   2.394   0.589  0.1139 -0.0639  0.2765
 7591SOL    HW134235   2.037   2.488   0.573 -0.5637 -0.1364 -0.1240
 7591SOL    HW234236   1.987   2.387   0.670 -1.4400  0.0618 -0.6770
 7592SOL     OW34237   4.559   4.352  13.071  0.2720 -0.4385  0.2081
 7592SOL    HW134238   4.564   4.258  13.089  0.6905 -0.3765  0.4277
 7592SOL    HW234239   4.623   4.373  13.139  0.1109 -1.0953  0.5665
 7593SOL     OW34240   2.837   4.284  16.572  0.5220  0.0894  0.0460
 7593SOL    HW134241   2.753   4.247  16.599  0.7570  1.3071  2.4046
 7593SOL    HW234242   2.823   4.375  16.598 -1.7015 -0.1067 -0.4295
 7594SOL     OW34243   0.513   2.320   6.337  0.2028 -0.0177  0.2480
 7594SOL    HW134244   0.430   2.271   6.341 -0.0497  0.4535  0.9223
 7594SOL    HW234245   0.519   2.320   6.242  3.6495  0.0316  0.4807
 7595SOL     OW34246   4.719   4.105   7.435 -0.3833 -0.1625  0.2853
 7595SOL    HW134247   0.050   4.097   7.358 -1.0051  0.6176 -0.2407
 7595SOL    HW234248   4.634   4.113   7.392 -0.7808  0.6355  1.1995
 7596SOL     OW34249   4.377   2.376  15.905 -0.0303  0.2076  0.5014
 7596SOL    HW134250   4.329   2.313  15.851  1.7207 -0.9555  0.2870
 7596SOL    HW234251   4.304   2.422  15.947 -1.7548 -0.9669 -1.1914
 7597SOL     OW34252   1.438   1.335   4.319 -0.5854 -0.1853  0.5965
 7597SOL    HW134253   1.499   1.339   4.393  1.0661 -3.2148 -0.5810
 7597SOL    HW234254   1.392   1.253   4.336 -1.8534  0.3722 -0.2108
 7598SOL     OW34255   0.180   0.189   8.052 -0.4147 -0.1251  0.3673
 7598SOL    HW134256   0.265   0.181   8.097 -1.1519  0.1639  1.8334
 7598SOL    HW234257   0.130   0.130   8.109  1.8110 -0.3267  2.1317
 7599SOL     OW34258   4.567   1.644   9.189  0.3876 -0.3181  0.1474
 7599SOL    HW134259   4.476   1.673   9.185  1.0376  1.7191 -0.0193
 7599SOL    HW234260   4.597   1.699   9.261 -3.1110  1.6149  0.1147
 7600SOL     OW34261   2.964   2.577  13.288 -0.6964  0.1466 -0.1046
 7600SOL    HW134262   3.039   2.635  13.278  0.1554 -0.4295  2.7907
 7600SOL    HW234263   3.004   2.493  13.312  1.0574  0.3347 -2.4985
 7601SOL     OW34264   4.325   2.356   3.050  0.0691  0.2564 -0.0690
 7601SOL    HW134265   4.267   2.421   3.089 -1.4633 -2.2544  1.8387
 7601SOL    HW234266   4.347   2.401   2.968 -1.5851  0.5342 -0.3567
 7602SOL     OW34267   0.404   3.022   6.945 -0.2950  0.4299 -0.2060
 7602SOL    HW134268   0.376   3.080   7.015 -0.3550  0.2559 -0.0859
 7602SOL    HW234269   0.491   2.994   6.973  0.2314  0.2324 -2.0011
 7603SOL     OW34270   1.419   3.931   4.756 -0.6498  0.5705  0.3156
 7603SOL    HW134271   1.384   4.007   4.801  0.7193  1.2659  0.2145
 7603SOL    HW234272   1.450   3.879   4.831 -0.1396 -0.6699 -0.7501
 7604SOL     OW34273   2.896   0.519   8.991 -0.2440 -0.2595  0.4453
 7604SOL    HW134274   2.867   0.583   9.055 -1.2624  1.4412 -1.7165
 7604SOL    HW234275   2.900   0.438   9.042  3.8058  0.7344  1.7439
 7605SOL     OW34276   3.586   1.398  10.489  0.1485  0.4585  0.4939
 7605SOL    HW134277   3.600   1.396  10.583  0.1232 -0.2693  0.4864
 7605SOL    HW234278   3.635   1.476  10.464  1.5627 -0.4610  0.3911
 7606SOL     OW34279   2.064   3.078   5.147 -0.3443 -0.0615 -0.5244
 7606SOL    HW134280   2.070   2.983   5.134 -1.3591 -0.4007  1.5313
 7606SOL    HW234281   2.155   3.109   5.141 -0.3814  0.1524  0.0691
 7607SOL     OW34282   4.613   1.783   9.894 -0.2192  0.5675 -0.3585
 7607SOL    HW134283   4.519   1.778   9.910 -0.3103  0.8275 -0.8144
 7607SOL    HW234284   4.646   1.694   9.878 -1.1611 -0.1211  1.4882
 7608SOL     OW34285   3.055   0.505   0.894 -0.2539  0.3309 -0.0178
 7608SOL    HW134286   3.135   0.457   0.919  0.5831  0.4882 -2.3334
 7608SOL    HW234287   2.985   0.444   0.916  0.4161 -1.1893 -2.0541
 7609SOL     OW34288   0.993   1.969  10.751 -1.1879  0.0923 -0.3610
 7609SOL    HW134289   1.010   1.994  10.660 -0.2928 -1.8449 -0.7343
 7609SOL    HW234290   1.079   1.980  10.793 -0.9716  0.6157 -0.9463
 7610SOL     OW34291   2.827   3.350   3.678 -0.4660  0.1772  0.3840
 7610SOL    HW134292   2.895   3.407   3.713  0.3612  0.2790 -1.3731
 7610SOL    HW234293   2.751   3.398   3.711 -1.9613 -2.4782  0.8229
 7611SOL     OW34294   2.383   0.412   4.323  0.0294 -0.4965 -0.0889
 7611SOL    HW134295   2.310   0.363   4.285 -0.5849 -0.7275  1.3910
 7611SOL    HW234296   2.357   0.410   4.415 -2.2272  1.8065 -0.6890
 7612SOL     OW34297   0.743   3.461   4.328  0.6725 -0.3686  0.1043
 7612SOL    HW134298   0.705   3.385   4.285 -0.5997 -0.9875  2.3566
 7612SOL    HW234299   0.836   3.440   4.317  0.5865 -0.1334 -1.1196
 7613SOL     OW34300   1.339   2.027   2.968 -0.5822  0.2081 -0.3931
 7613SOL    HW134301   1.304   1.969   2.900 -0.2239  0.0278 -0.4230
 7613SOL    HW234302   1.398   2.078   2.914  1.5783  0.4309  2.1873
 7614SOL     OW34303   2.098   2.486   7.862 -0.7734 -0.5985  0.1389
 7614SOL    HW134304   2.079   2.393   7.855 -1.2401 -0.6066  1.5492
 7614SOL    HW234305   2.150   2.499   7.783 -0.2317 -0.5050  0.5134
 7615SOL     OW34306   0.684   0.258  12.510 -0.8971 -0.1158 -0.4927
 7615SOL    HW134307   0.741   0.303  12.447 -0.2628 -0.3960 -0.1162
 7615SOL    HW234308   0.693   0.322  12.581 -0.9217 -0.1881 -0.4246
 7616SOL     OW34309   4.704   0.136   2.371 -0.1564  0.3970 -0.5802
 7616SOL    HW134310   0.022   0.169   2.292  0.5307  1.7834  0.3569
 7616SOL    HW234311   4.614   0.120   2.341  0.5038 -2.0246 -1.2629
 7617SOL     OW34312   4.434   4.273  11.854 -0.1786  0.2648 -0.8070
 7617SOL    HW134313   4.492   4.347  11.835  1.0535 -0.8084 -1.2114
 7617SOL    HW234314   4.478   4.215  11.915 -1.6197  0.2292  0.1832
 7618SOL     OW34315   2.709   4.564   2.215 -0.0242  0.2415 -0.2345
 7618SOL    HW134316   2.704   4.511   2.135  2.4602 -1.1796  0.5638
 7618SOL    HW234317   2.783   4.619   2.189  1.9548 -2.8462 -1.1376
 7619SOL     OW34318   2.972   0.188   5.958 -0.6448 -0.0587 -0.4246
 7619SOL    HW134319   2.944   0.245   5.886  0.8485  0.9239 -0.2351
 7619SOL    HW234320   2.898   0.135   5.987 -0.8185 -1.6729 -3.7460
 7620SOL     OW34321   4.699   4.087  13.441 -0.0149 -0.2841  0.1318
 7620SOL    HW134322   4.718   3.999  13.474  1.5445 -0.0390 -0.0909
 7620SOL    HW234323   0.045   4.135  13.486 -1.4383  2.6437 -0.7411
 7621SOL     OW34324   0.256   0.056   4.736 -0.1437  0.4096 -0.0583
 7621SOL    HW134325   0.275   4.687   4.724 -1.8623  0.4279 -3.0131
 7621SOL    HW234326   0.288   0.082   4.650  1.7508 -1.7739 -0.0239
 7622SOL     OW34327   0.887   4.677   7.548 -0.0341  0.0511  0.4157
 7622SOL    HW134328   0.980   4.669   7.572  0.1050  0.3617 -0.0239
 7622SOL    HW234329   0.851   4.661   7.635 -0.3840 -0.9370  0.0840
 7623SOL     OW34330   1.548   1.211   5.270 -0.0343 -0.0779 -0.2956
 7623SOL    HW134331   1.573   1.132   5.223  2.7982  1.0062 -0.6423
 7623SOL    HW234332   1.620   1.216   5.332 -0.3875  0.6382  0.0535
 7624SOL     OW34333   0.620   0.098   4.940 -0.1691  0.4394  0.0403
 7624SOL    HW134334   0.698   0.127   4.987 -0.5806  0.8637  0.4751
 7624SOL    HW234335   0.565   0.174   4.959 -1.4745 -0.2763 -0.8855
 7625SOL     OW34336   4.025   0.435   5.515  0.5707 -0.3444 -0.6160
 7625SOL    HW134337   4.055   0.351   5.550 -1.0040 -0.5068  0.3817
 7625SOL    HW234338   4.002   0.417   5.424 -1.2571  0.2819 -0.2744
 7626SOL     OW34339   0.346   0.929   4.102  0.5938 -0.1944 -0.3623
 7626SOL    HW134340   0.274   0.867   4.103  0.0734  0.4125  0.5123
 7626SOL    HW234341   0.340   0.956   4.010 -0.2349 -0.3703 -0.3596
 7627SOL     OW34342   0.931   2.601   9.329  0.3084  0.6082 -0.0462
 7627SOL    HW134343   0.974   2.668   9.382  0.9217  1.4994 -1.6623
 7627SOL    HW234344   0.846   2.644   9.329  0.6147  1.2119 -0.4939
 7628SOL     OW34345   0.914   3.278   2.500  0.2503  0.3454  0.8558
 7628SOL    HW134346   0.942   3.188   2.517 -0.5997 -0.0922 -0.0640
 7628SOL    HW234347   0.995   3.314   2.462 -1.3034  2.5599 -0.3562
 7629SOL     OW34348   1.565   2.258   6.225 -0.3842 -0.2022  0.2376
 7629SOL    HW134349   1.536   2.334   6.275 -1.5465 -0.9266  0.6704
 7629SOL    HW234350   1.562   2.188   6.290 -2.0865  1.1363  1.5867
 7630SOL     OW34351   2.733   2.597   6.584  0.0009 -0.4298 -0.2052
 7630SOL    HW134352   2.650   2.549   6.574 -1.3552  1.2486  3.0631
 7630SOL    HW234353   2.772   2.546   6.655 -0.1077 -0.0469  0.1335
 7631SOL     OW34354   3.369   0.362   8.465 -0.2622 -0.2815 -0.1010
 7631SOL    HW134355   3.301   0.295   8.466  0.0124 -0.5712 -2.0087
 7631SOL    HW234356   3.405   0.348   8.553 -1.8001  0.0888  0.5915
 7632SOL     OW34357   4.162   2.412   4.589 -0.2911  0.4602  0.3877
 7632SOL    HW134358   4.121   2.330   4.616 -1.2314  0.9293  0.3822
 7632SOL    HW234359   4.245   2.424   4.636  0.0190 -0.5802  0.0943
 7633SOL     OW34360   0.724   1.774   3.575  0.3099  0.3025  0.3316
 7633SOL    HW134361   0.782   1.842   3.541 -2.9529  1.8662 -2.0592
 7633SOL    HW234362   0.766   1.695   3.542  1.4141  0.7521  0.6412
 7634SOL     OW34363   1.836   0.374   6.115  0.2308  0.4073 -0.5630
 7634SOL    HW134364   1.918   0.330   6.137 -1.1322 -1.6941  0.2998
 7634SOL    HW234365   1.823   0.410   6.203 -1.8993 -0.1749 -0.6346
 7635SOL     OW34366   3.035   3.295  10.789  0.8150 -0.0269 -0.2879
 7635SOL    HW134367   3.021   3.385  10.820  2.5365 -0.0083  0.4327
 7635SOL    HW234368   3.073   3.309  10.703 -0.7182 -4.3276 -1.6705
 7636SOL     OW34369   2.721   0.766  17.556 -0.0759 -0.2782 -0.2805
 7636SOL    HW134370   2.754   0.836  17.612  0.6458 -1.2172  0.4758
 7636SOL    HW234371   2.720   0.701  17.626 -1.1422 -1.1722 -1.1284
 7637SOL     OW34372   1.342   2.564   3.143 -0.3167 -0.0505 -0.3592
 7637SOL    HW134373   1.384   2.629   3.200  0.5762 -0.7260 -0.2303
 7637SOL    HW234374   1.414   2.510   3.109 -2.5998 -1.3699 -3.0359
 7638SOL     OW34375   2.353   4.619   5.032 -0.2272  0.0249  0.3348
 7638SOL    HW134376   2.356   4.547   5.096 -1.0104 -0.6410 -0.3685
 7638SOL    HW234377   2.368   4.571   4.950  1.3893 -0.7995  1.1133
 7639SOL     OW34378   1.952   2.451  11.221 -0.0226 -0.6943  0.5992
 7639SOL    HW134379   2.027   2.511  11.219 -1.7976  1.4453 -0.6115
 7639SOL    HW234380   1.967   2.423  11.312  0.7130  0.7979  0.9405
 7640SOL     OW34381   4.254   2.647   0.690  0.1599 -0.1743  0.0418
 7640SOL    HW134382   4.290   2.705   0.623  0.0145 -0.3290 -0.1722
 7640SOL    HW234383   4.167   2.685   0.686 -0.4191 -1.4398  0.6758
 7641SOL     OW34384   1.035   2.240   6.443  0.2635  0.1270 -0.0593
 7641SOL    HW134385   1.107   2.237   6.506  0.3709  1.0359 -0.1263
 7641SOL    HW234386   1.004   2.325   6.476  1.4817  0.3223  0.5519
 7642SOL     OW34387   0.465   1.022   4.805 -0.0113  0.2136 -0.3521
 7642SOL    HW134388   0.390   1.076   4.782 -0.8774 -1.2690 -0.9709
 7642SOL    HW234389   0.488   0.989   4.718  0.0750  1.4741 -0.8044
 7643SOL     OW34390   1.049   3.883  11.353  0.2087 -0.7515 -0.3685
 7643SOL    HW134391   1.079   3.893  11.443  0.2541  1.2571 -0.6019
 7643SOL    HW234392   1.107   3.814  11.319  0.3044 -1.3171  0.9487
 7644SOL     OW34393   2.922   0.960   6.929  0.1080 -0.2663  0.0940
 7644SOL    HW134394   2.872   0.964   7.011 -2.0660  1.8700 -1.3518
 7644SOL    HW234395   2.877   0.890   6.882  0.7756  0.2122 -1.2321
 7645SOL     OW34396   1.096   3.522   7.536 -0.2581 -0.0741  0.1574
 7645SOL    HW134397   1.034   3.572   7.590  0.5940  0.6595  0.4703
 7645SOL    HW234398   1.059   3.436   7.554  0.3412  0.0708  2.0733
 7646SOL     OW34399   2.148   1.049  14.608 -0.2009 -0.1683  0.2139
 7646SOL    HW134400   2.212   1.087  14.668 -1.0153  1.0819  0.2928
 7646SOL    HW234401   2.190   1.045  14.522  0.6563  0.1851  0.6158
 7647SOL     OW34402   0.178   1.257   6.931 -0.3893 -0.0795  0.5588
 7647SOL    HW134403   0.142   1.307   6.858 -0.3149 -0.3772  0.3213
 7647SOL    HW234404   0.268   1.237   6.907 -0.5463  0.0975 -0.1846
 7648SOL     OW34405   3.368   1.045   7.990  0.4797  0.3257 -0.1423
 7648SOL    HW134406   3.449   1.069   7.945  0.5000 -0.7062 -0.6412
 7648SOL    HW234407   3.305   1.071   7.923 -1.4520 -1.4146  0.9979
 7649SOL     OW34408   1.004   0.298   2.978 -0.1564  0.2881 -0.1053
 7649SOL    HW134409   0.968   0.364   2.919 -1.6256  0.5460  1.0943
 7649SOL    HW234410   1.041   0.351   3.049  0.9179 -1.1104  0.3852
 7650SOL     OW34411   4.277   2.482  17.615 -0.3401  1.2085 -0.0683
 7650SOL    HW134412   4.371   2.499  17.619 -0.3818  1.3208  0.4517
 7650SOL    HW234413   4.261   2.464   0.010  0.4046 -1.6400 -0.4799
 7651SOL     OW34414   0.698   0.748   5.330  0.4136 -0.6803 -0.1746
 7651SOL    HW134415   0.756   0.672   5.324 -0.0284 -1.0923  0.8088
 7651SOL    HW234416   0.752   0.811   5.282  0.4693  0.4802  1.4225
 7652SOL     OW34417   4.183   4.142   0.745  0.2751  0.0290  0.0691
 7652SOL    HW134418   4.205   4.052   0.770 -2.1851 -0.5687  0.0737
 7652SOL    HW234419   4.169   4.139   0.650 -0.3221  0.2464  0.1516
 7653SOL     OW34420   4.353   1.373   4.943  0.2853  0.5803 -0.5250
 7653SOL    HW134421   4.358   1.288   4.900  2.3943  0.7243 -0.5337
 7653SOL    HW234422   4.265   1.368   4.982  0.3831  0.5537 -0.3058
 7654SOL     OW34423   1.899   1.999   9.264  0.4852 -0.5166  0.0406
 7654SOL    HW134424   1.840   2.064   9.302 -0.2265 -1.8601  1.2262
 7654SOL    HW234425   1.834   1.968   9.200  0.3086 -1.2364  0.5683
 7655SOL     OW34426   3.361   1.020  13.339  0.4412  0.0739 -0.1310
 7655SOL    HW134427   3.312   0.957  13.391  0.2456 -0.5843 -1.1301
 7655SOL    HW234428   3.300   1.051  13.272  0.5817  2.2660  0.7474
 7656SOL     OW34429   1.023   2.598   4.617 -0.2903  0.3220 -0.9931
 7656SOL    HW134430   0.963   2.661   4.576 -1.1347 -0.7612 -1.4121
 7656SOL    HW234431   0.956   2.556   4.669  1.5940  0.6377  1.6823
 7657SOL     OW34432   1.655   3.855   3.473 -0.3358  0.0635  0.0357
 7657SOL    HW134433   1.707   3.923   3.429  0.2191  1.5609  2.9753
 7657SOL    HW234434   1.710   3.847   3.551  1.3844  0.7382 -1.0946
 7658SOL     OW34435   3.377   3.571   9.960  0.0872  0.3643  0.4264
 7658SOL    HW134436   3.399   3.490  10.006  0.8076 -0.3722 -1.2025
 7658SOL    HW234437   3.381   3.554   9.866 -0.5387  0.6503  0.3467
 7659SOL     OW34438   4.473   0.579   7.262 -0.3344  0.5031 -0.2990
 7659SOL    HW134439   4.442   0.621   7.342 -0.8967 -0.8660  0.1998
 7659SOL    HW234440   4.518   0.654   7.224 -0.1309  0.6505  0.2325
 7660SOL     OW34441   0.051   0.951   8.358  0.0444 -0.2444 -0.1187
 7660SOL    HW134442   0.121   0.887   8.342  0.8954  0.4091  0.9964
 7660SOL    HW234443   4.704   0.918   8.303  0.2515  1.0574 -1.1687
 7661SOL     OW34444   3.467   1.786   4.414 -0.5857  0.6902 -0.2119
 7661SOL    HW134445   3.545   1.790   4.468 -0.5037  0.5006 -0.3198
 7661SOL    HW234446   3.433   1.869   4.448 -0.7684  0.9234 -0.9623
 7662SOL     OW34447   4.697   0.813   5.935  0.0445  0.1041 -0.0982
 7662SOL    HW134448   4.660   0.901   5.942 -0.3902 -0.0551 -0.3970
 7662SOL    HW234449   4.680   0.784   6.025  1.5149 -0.6264 -0.0631
 7663SOL     OW34450   1.970   0.135   3.795  0.4534 -0.0233  0.4540
 7663SOL    HW134451   2.007   0.088   3.719  0.2698 -0.7390  0.8076
 7663SOL    HW234452   1.910   0.066   3.824 -0.6099  0.4911 -0.5301
 7664SOL     OW34453   0.649   2.964   4.464  0.0441 -0.3112 -0.2292
 7664SOL    HW134454   0.734   2.986   4.501 -0.6968  1.0589  0.6293
 7664SOL    HW234455   0.587   2.960   4.537  1.6860 -0.2089  1.1790
 7665SOL     OW34456   0.784   1.470   3.891  0.2905  0.3147  0.0540
 7665SOL    HW134457   0.709   1.442   3.840 -0.5464  2.8390 -0.0671
 7665SOL    HW234458   0.776   1.409   3.965 -0.1633  0.5204  0.1725
 7666SOL     OW34459   1.263   0.228   4.061  0.8974 -0.4257  0.1133
 7666SOL    HW134460   1.270   0.270   4.147 -0.3611 -0.7944  0.3834
 7666SOL    HW234461   1.177   0.186   4.064 -0.5720  2.5418 -0.2321
 7667SOL     OW34462   2.167   4.633   4.443 -0.3481  0.3661 -0.4178
 7667SOL    HW134463   2.187   4.702   4.506 -0.5882 -0.1104  0.1728
 7667SOL    HW234464   2.227   4.665   4.376  0.4025 -0.7772 -0.2873
 7668SOL     OW34465   0.112   4.428  10.040 -0.3964 -0.2403 -0.2067
 7668SOL    HW134466   0.045   4.380   9.991 -1.3016  2.0567 -1.2517
 7668SOL    HW234467   0.074   4.516  10.037  0.0692 -0.0436 -0.3539
 7669SOL     OW34468   2.054   3.827   3.619  0.1996  0.7405  0.3272
 7669SOL    HW134469   1.964   3.797   3.605  0.7226 -1.4083  1.5761
 7669SOL    HW234470   2.083   3.756   3.676  0.6679  1.2531  0.7188
 7670SOL     OW34471   4.117   4.179  16.732 -0.6309  0.5515 -0.0861
 7670SOL    HW134472   4.039   4.232  16.719  0.1549  2.0259  1.1477
 7670SOL    HW234473   4.141   4.219  16.816  1.8273 -2.2332  0.5506
 7671SOL     OW34474   0.099   2.312  15.779  0.0149 -0.1131  0.1718
 7671SOL    HW134475   0.060   2.391  15.818  2.2126  2.1366 -2.2792
 7671SOL    HW234476   0.190   2.340  15.771 -0.0460  0.0115 -0.0755
 7672SOL     OW34477   3.312   2.360   5.518  0.0680  0.8011 -0.4381
 7672SOL    HW134478   3.249   2.310   5.570 -1.3044  3.2643  0.2604
 7672SOL    HW234479   3.389   2.313   5.549 -1.4842 -0.6788  1.1565
 7673SOL     OW34480   4.642   4.062   7.033  0.1217  0.5432  0.2620
 7673SOL    HW134481   4.604   4.087   6.949  0.6116 -2.4692 -0.8662
 7673SOL    HW234482   4.596   3.978   7.044  1.9348 -0.6552 -1.2756
 7674SOL     OW34483   4.060   2.680   7.418  0.1605 -0.3638 -0.6766
 7674SOL    HW134484   4.134   2.643   7.370  0.3814  0.4749 -0.9750
 7674SOL    HW234485   3.993   2.682   7.349 -1.8137 -0.8884  1.2058
 7675SOL     OW34486   1.092   4.036   2.023  0.1315 -0.7350  0.1449
 7675SOL    HW134487   1.153   3.969   1.993  1.4974  1.7985 -2.7131
 7675SOL    HW234488   1.050   3.996   2.099 -1.0263 -0.7217 -0.4754
 7676SOL     OW34489   2.893   4.478   5.690 -0.1626 -0.4959 -0.2989
 7676SOL    HW134490   2.832   4.539   5.732 -1.1734 -1.0970 -0.8772
 7676SOL    HW234491   2.972   4.497   5.740 -0.3928  2.4077 -1.0412
 7677SOL     OW34492   0.165   4.670   2.449  0.4325  0.0100  0.0040
 7677SOL    HW134493   0.202   4.717   2.523 -0.7664  1.7509 -0.5020
 7677SOL    HW234494   0.094   0.007   2.427  0.2159 -0.6931 -1.2333
 7678SOL     OW34495   2.613   4.512   3.036 -0.2145  0.3081  0.0307
 7678SOL    HW134496   2.640   4.456   2.963 -3.1324  0.5410 -1.2472
 7678SOL    HW234497   2.702   4.532   3.064 -0.0434 -2.1291  1.2303
 7679SOL     OW34498   3.948   2.819   3.899  0.8996  0.0449 -0.2142
 7679SOL    HW134499   3.858   2.812   3.930  1.4656 -1.3739  1.1160
 7679SOL    HW234500   3.962   2.736   3.853  0.7606 -0.1591  0.1120
 7680SOL     OW34501   2.158   3.084   5.526  0.7058 -0.0858 -0.1589
 7680SOL    HW134502   2.115   3.063   5.443 -2.3146 -1.6660  1.8172
 7680SOL    HW234503   2.224   3.017   5.545 -0.7896 -1.9770 -1.7208
 7681SOL     OW34504   0.618   1.301   3.234  0.2073  0.7499  0.0412
 7681SOL    HW134505   0.571   1.243   3.174  0.2030  1.6632 -0.8429
 7681SOL    HW234506   0.656   1.229   3.285  0.6275  1.4486  0.7310
 7682SOL     OW34507   1.922   0.147   9.405  0.0001 -0.2260  0.0683
 7682SOL    HW134508   1.999   0.100   9.437 -0.4009 -0.8787  0.0772
 7682SOL    HW234509   1.936   0.227   9.455 -0.1981 -0.6738  0.8351
 7683SOL     OW34510   3.629   0.281   2.259 -0.1413  0.2483 -0.7697
 7683SOL    HW134511   3.667   0.193   2.260 -4.0365 -1.4117  1.3836
 7683SOL    HW234512   3.668   0.306   2.175 -0.3308  1.2288 -0.5673
 7684SOL     OW34513   2.519   3.822   8.551  0.1290 -0.3939 -0.3657
 7684SOL    HW134514   2.518   3.877   8.629  1.0561 -1.7001  0.5663
 7684SOL    HW234515   2.537   3.893   8.488  0.7340  0.7485  1.0973
 7685SOL     OW34516   3.427   0.368   9.120 -0.4391  0.4903  0.2616
 7685SOL    HW134517   3.357   0.431   9.108 -1.0301 -1.0129 -3.9890
 7685SOL    HW234518   3.401   0.322   9.200 -0.8457  2.1359  1.0708
 7686SOL     OW34519   3.316   2.019   5.616 -0.1045 -0.0581  0.0800
 7686SOL    HW134520   3.303   1.925   5.624  0.4665 -0.3530 -2.3045
 7686SOL    HW234521   3.376   2.030   5.690 -1.0440 -0.1222  0.8502
 7687SOL     OW34522   0.332   2.617   9.450 -0.3177  0.0263  0.4776
 7687SOL    HW134523   0.407   2.565   9.477  1.6173  1.5038 -2.0262
 7687SOL    HW234524   0.302   2.563   9.376 -1.7927  1.0033  0.3611
 7688SOL     OW34525   2.417   2.752   5.249  0.9086 -0.3331 -0.1259
 7688SOL    HW134526   2.410   2.660   5.276 -0.8675  0.0332  0.6522
 7688SOL    HW234527   2.506   2.774   5.276  0.6644  0.0253  0.4038
 7689SOL     OW34528   0.915   3.707  13.062  0.1164 -0.2314 -0.1114
 7689SOL    HW134529   0.987   3.695  12.999  0.9251 -0.6650  0.9011
 7689SOL    HW234530   0.844   3.694  12.999 -1.1982  2.6064  0.7840
 7690SOL     OW34531   2.213   0.259   2.977 -0.2480  0.0905  0.1637
 7690SOL    HW134532   2.257   0.246   2.893  1.2281  1.4059  0.7305
 7690SOL    HW234533   2.261   0.338   3.000  1.5556 -1.1117  0.5805
 7691SOL     OW34534   4.490   0.788   4.899  0.1192 -0.1158 -0.7072
 7691SOL    HW134535   4.531   0.861   4.945 -1.8781  0.1293  0.6976
 7691SOL    HW234536   4.563   0.757   4.846  0.8406  0.1602  0.1293
 7692SOL     OW34537   3.277   0.143   3.487 -0.5347 -0.1416  0.0380
 7692SOL    HW134538   3.331   0.131   3.409 -0.3294 -0.4415  0.2221
 7692SOL    HW234539   3.305   0.217   3.541 -0.1979  1.3213 -2.1766
 7693SOL     OW34540   1.953   1.399   6.043  0.8014 -0.2187  0.0012
 7693SOL    HW134541   2.046   1.423   6.047  0.9328 -0.6295 -0.7672
 7693SOL    HW234542   1.912   1.478   6.007  0.9007  1.0733  2.6820
 7694SOL     OW34543   3.474   3.041   7.176 -0.1958  0.6697  0.1402
 7694SOL    HW134544   3.449   3.017   7.086 -1.4141  0.7391  0.4558
 7694SOL    HW234545   3.561   3.076   7.156 -0.0395 -0.4444 -1.1218
 7695SOL     OW34546   2.401   4.298   6.686 -0.0609  0.0017  0.0648
 7695SOL    HW134547   2.470   4.253   6.639 -0.3005 -1.4133  1.0609
 7695SOL    HW234548   2.383   4.229   6.751 -0.7751 -0.0633 -0.2043
 7696SOL     OW34549   2.625   3.758   3.953  0.5030  0.0732 -0.2163
 7696SOL    HW134550   2.602   3.716   3.870 -1.3577  0.3708  0.1450
 7696SOL    HW234551   2.717   3.738   3.969  1.1549  3.0442 -0.1330
 7697SOL     OW34552   1.928   3.274  15.262 -0.0381 -0.2457 -0.3323
 7697SOL    HW134553   1.905   3.353  15.214 -2.3768 -1.4097 -1.1772
 7697SOL    HW234554   2.022   3.268  15.248  0.0943 -0.3358  0.5797
 7698SOL     OW34555   3.383   0.234   2.814  0.3091 -0.1509  0.6612
 7698SOL    HW134556   3.355   0.321   2.786  0.5767 -0.9768 -2.1957
 7698SOL    HW234557   3.440   0.211   2.741 -1.0562 -0.3462 -0.3367
 7699SOL     OW34558   0.184   4.347  16.192 -0.1767  0.1957  0.2755
 7699SOL    HW134559   0.105   4.384  16.229  0.0095 -0.0816  0.9430
 7699SOL    HW234560   0.147   4.289  16.125 -1.6840  1.2312  0.2190
 7700SOL     OW34561   1.421   4.039  11.592 -0.3005 -0.3411 -0.6406
 7700SOL    HW134562   1.458   4.123  11.619  0.0767 -1.1582  1.3612
 7700SOL    HW234563   1.354   4.018  11.657  2.0082  0.7794  2.0914
 7701SOL     OW34564   3.959   1.118   8.256  0.1982 -0.0820  0.3439
 7701SOL    HW134565   3.970   1.029   8.290  0.7186  0.0053  0.3969
 7701SOL    HW234566   4.044   1.149   8.285  0.7515  0.4883 -1.8603
 7702SOL     OW34567   1.910   2.704   3.492 -1.0146 -0.0782  0.7687
 7702SOL    HW134568   1.825   2.675   3.459  0.9048  0.5243 -4.5876
 7702SOL    HW234569   1.957   2.620   3.486  0.7264  1.1660 -2.8480
 7703SOL     OW34570   1.615   1.419   0.578 -0.2349  0.2035  0.0807
 7703SOL    HW134571   1.585   1.498   0.534 -0.9357 -0.1503 -0.0851
 7703SOL    HW234572   1.535   1.392   0.624  0.6331  0.8104  1.9203
 7704SOL     OW34573   0.239   3.356   4.107  0.0519 -0.0992  0.2016
 7704SOL    HW134574   0.154   3.390   4.132  0.0153 -1.6543  2.1320
 7704SOL    HW234575   0.287   3.427   4.151 -0.7176  1.2396 -1.1054
 7705SOL     OW34576   1.907   1.155   4.267  0.2815 -0.2849 -0.1050
 7705SOL    HW134577   1.965   1.230   4.255  1.0754 -0.8817  0.0265
 7705SOL    HW234578   1.868   1.158   4.354 -0.6684 -1.0883 -0.5047
 7706SOL     OW34579   1.929   1.280  12.788  0.0734 -0.5025 -0.1855
 7706SOL    HW134580   1.950   1.283  12.881 -0.9713  0.8039  0.0102
 7706SOL    HW234581   2.016   1.310  12.761  0.3540 -0.4218  0.8191
 7707SOL     OW34582   1.454   0.476   8.405  0.2618 -0.3023 -0.3018
 7707SOL    HW134583   1.494   0.563   8.407 -0.4330 -0.0205  0.9710
 7707SOL    HW234584   1.405   0.480   8.487 -2.3327  1.2666 -1.9307
 7708SOL     OW34585   2.806   0.250   7.121 -0.1841  0.4334 -0.1529
 7708SOL    HW134586   2.813   0.157   7.146 -2.1355  0.7820  1.6717
 7708SOL    HW234587   2.864   0.286   7.187 -2.7769  0.1418  2.2964
 7709SOL     OW34588   1.660   1.087   8.568 -0.8208 -0.3161 -0.3012
 7709SOL    HW134589   1.708   1.162   8.602 -0.7996 -1.1864  1.6277
 7709SOL    HW234590   1.605   1.126   8.500  3.0777  3.6406 -1.1562
 7710SOL     OW34591   0.005   1.511   6.266  0.4125 -0.2830  0.0498
 7710SOL    HW134592   4.642   1.511   6.305  1.2278 -1.2405  1.8946
 7710SOL    HW234593   0.056   1.464   6.333 -1.2254 -2.6719 -0.3891
 7711SOL     OW34594   1.581   4.640   6.742  0.5215  0.1029 -0.3927
 7711SOL    HW134595   1.526   4.717   6.726 -0.8211 -0.8424 -0.3982
 7711SOL    HW234596   1.566   4.612   6.832  1.9913 -0.8043 -0.4435
 7712SOL     OW34597   1.677   2.036   8.669  0.5366  0.0830  0.4833
 7712SOL    HW134598   1.641   2.085   8.596 -1.7057 -1.3405  0.6270
 7712SOL    HW234599   1.722   1.969   8.617 -0.3422 -0.4416  0.3797
 7713SOL     OW34600   3.169   4.721   0.237  0.0496  0.4476 -0.0958
 7713SOL    HW134601   3.220   4.648   0.201  1.8423  1.2035  0.8865
 7713SOL    HW234602   3.109   4.663   0.284  1.1550 -2.2141 -1.9656
 7714SOL     OW34603   3.318   1.294   3.984 -0.3701 -0.0260  0.1169
 7714SOL    HW134604   3.270   1.369   3.949 -1.1168 -0.5707 -0.0368
 7714SOL    HW234605   3.266   1.215   3.968 -0.3807  0.0190 -0.0737
 7715SOL     OW34606   4.023   0.443   3.237 -0.3712 -0.3302  0.4641
 7715SOL    HW134607   3.991   0.469   3.150 -1.0569  1.9921  1.4138
 7715SOL    HW234608   3.947   0.392   3.266 -0.8269 -0.0427 -0.2168
 7716SOL     OW34609   1.006   0.699  14.593 -0.2889 -0.0571  0.5220
 7716SOL    HW134610   0.913   0.696  14.569  0.1318  0.0983 -1.0690
 7716SOL    HW234611   1.044   0.642  14.526 -0.7294 -0.4252  0.5843
 7717SOL     OW34612   3.042   4.143  17.636 -0.2426 -0.0114 -0.1523
 7717SOL    HW134613   3.024   4.125   0.030  0.7995 -1.2005 -0.1881
 7717SOL    HW234614   3.099   4.220  17.644 -0.2986 -0.2371  2.3737
 7718SOL     OW34615   3.893   2.402  10.872 -0.2395 -0.3504  0.2719
 7718SOL    HW134616   3.953   2.462  10.917  0.3401 -0.2469 -0.6372
 7718SOL    HW234617   3.944   2.355  10.806  1.1885 -0.7203  1.6387
 7719SOL     OW34618   2.175   2.936  10.940  0.1465  0.0961  0.3982
 7719SOL    HW134619   2.265   2.906  10.948  0.2026  0.0913 -0.2668
 7719SOL    HW234620   2.164   2.939  10.845 -4.1573  1.7963  0.9408
 7720SOL     OW34621   0.227   1.300  16.120  0.1753  0.7996  0.4495
 7720SOL    HW134622   0.173   1.375  16.146 -1.6526 -0.6968  0.9933
 7720SOL    HW234623   0.256   1.345  16.041 -1.2975 -1.7962 -1.5870
 7721SOL     OW34624   3.435   3.798   6.747  0.0323  0.8522  0.0167
 7721SOL    HW134625   3.522   3.824   6.777  0.4252 -1.6228  1.0002
 7721SOL    HW234626   3.456   3.745   6.670 -0.2753 -0.3293  0.7413
 7722SOL     OW34627   0.864   4.544  16.481  0.9065 -0.1438 -0.3575
 7722SOL    HW134628   0.922   4.596  16.536  0.0129 -0.9691  1.3709
 7722SOL    HW234629   0.899   4.461  16.514 -0.1987 -0.4186  0.1413
 7723SOL     OW34630   1.518   1.177   7.774 -0.6713 -0.0273 -0.0939
 7723SOL    HW134631   1.540   1.215   7.859  0.8013 -0.8162 -0.1176
 7723SOL    HW234632   1.429   1.144   7.785 -1.0738  0.4512 -1.7837
 7724SOL     OW34633   3.698   3.367   5.118 -0.1447  0.0192  0.0029
 7724SOL    HW134634   3.655   3.317   5.187 -1.7506 -1.9925 -2.4570
 7724SOL    HW234635   3.774   3.391   5.172 -0.4831  2.6145 -0.6790
 7725SOL     OW34636   2.582   3.578   7.800  0.4450  0.5806  0.1725
 7725SOL    HW134637   2.610   3.661   7.761 -0.8249  0.8943 -0.0549
 7725SOL    HW234638   2.670   3.543   7.817  0.7440  1.2525  0.0406
 7726SOL     OW34639   2.695   4.148   5.307  0.2102  0.2995 -0.3548
 7726SOL    HW134640   2.648   4.157   5.225  2.7611 -0.6550 -1.9364
 7726SOL    HW234641   2.689   4.054   5.324  3.1977  0.7837  3.3532
 7727SOL     OW34642   3.073   0.121   6.252 -0.2562 -0.0887  0.2252
 7727SOL    HW134643   3.049   0.124   6.159 -0.8016 -2.4462  0.2788
 7727SOL    HW234644   3.153   0.173   6.254 -0.8007  0.6707  1.8188
 7728SOL     OW34645   3.874   1.809  12.000  0.5367  1.1010  0.5447
 7728SOL    HW134646   3.938   1.871  11.964  0.7766  0.0887 -0.7880
 7728SOL    HW234647   3.876   1.830  12.093 -3.7676 -2.7273  1.4810
 7729SOL     OW34648   2.346   3.880   5.195 -0.0392  0.3344  0.4388
 7729SOL    HW134649   2.373   3.907   5.282 -0.6429  1.3672  0.3034
 7729SOL    HW234650   2.340   3.785   5.208  0.7937 -0.0988 -2.3993
 7730SOL     OW34651   1.030   1.154  17.167  0.3518  0.3740 -0.2713
 7730SOL    HW134652   1.069   1.232  17.206  0.3352  1.0206 -1.5471
 7730SOL    HW234653   0.937   1.175  17.165  0.2693  0.1294  1.1914
 7731SOL     OW34654   1.591   2.493   6.383  0.1305  0.3918 -0.4316
 7731SOL    HW134655   1.625   2.452   6.463  1.2139  1.5029 -0.3234
 7731SOL    HW234656   1.505   2.513   6.420  0.5707  0.0257  0.8121
 7732SOL     OW34657   1.551   0.327   7.281  0.4118 -0.0716  0.8785
 7732SOL    HW134658   1.546   0.369   7.368  0.8403 -0.0099  0.8711
 7732SOL    HW234659   1.487   0.256   7.288  0.5198 -0.4092 -1.7505
 7733SOL     OW34660   0.344   3.075  17.497  0.0326 -0.2665  0.2100
 7733SOL    HW134661   0.284   3.071  17.571 -0.6430 -0.7763 -0.3650
 7733SOL    HW234662   0.372   3.166  17.497  0.4820 -0.3813 -2.5631
 7734SOL     OW34663   1.811   4.285   5.961 -0.2115  0.2802  0.1159
 7734SOL    HW134664   1.732   4.292   5.907 -0.9179 -0.1753  1.0938
 7734SOL    HW234665   1.779   4.235   6.036 -0.7772 -0.7792 -0.8245
 7735SOL     OW34666   0.106   0.815  13.462 -0.8242 -0.8087  0.2124
 7735SOL    HW134667   0.123   0.736  13.514 -0.0246  0.1694  1.4415
 7735SOL    HW234668   0.194   0.852  13.468 -1.0198 -0.2449 -0.4185
 7736SOL     OW34669   2.949   2.875  14.414  0.0955  0.0483 -0.3278
 7736SOL    HW134670   3.039   2.906  14.423  0.6490 -2.5057  2.6888
 7736SOL    HW234671   2.922   2.915  14.331  1.1458 -1.7997 -1.5529
 7737SOL     OW34672   4.006   2.410  17.669  0.5071 -0.3734 -0.2368
 7737SOL    HW134673   3.978   2.363  17.591  0.4749  0.0378 -0.4714
 7737SOL    HW234674   4.095   2.423  17.636  0.7639 -0.1401  0.5476
 7738SOL     OW34675   2.232   1.917  11.460 -0.5325  0.2573 -0.4866
 7738SOL    HW134676   2.242   1.976  11.385 -0.0928 -0.4876 -1.0152
 7738SOL    HW234677   2.161   1.963  11.504  0.0722  0.4726  0.2691
 7739SOL     OW34678   0.760   2.467   6.795 -0.2445  0.5867 -0.0427
 7739SOL    HW134679   0.726   2.556   6.796 -1.5753  0.0848  0.2479
 7739SOL    HW234680   0.774   2.449   6.702  0.2083 -0.7994  0.2887
 7740SOL     OW34681   4.365   2.197   2.618 -0.2189 -0.1087  0.2700
 7740SOL    HW134682   4.430   2.147   2.667 -0.6575 -1.0272 -0.0855
 7740SOL    HW234683   4.426   2.229   2.551 -0.0113 -1.1413 -0.0310
 7741SOL     OW34684   3.368   1.431  12.793 -0.4601  0.1293 -0.0504
 7741SOL    HW134685   3.362   1.431  12.697 -1.0995 -2.7829 -0.0050
 7741SOL    HW234686   3.325   1.350  12.819 -1.7400  0.3415 -1.5051
 7742SOL     OW34687   1.788   4.071   5.436  0.0548 -0.1562 -0.2202
 7742SOL    HW134688   1.800   4.141   5.500  0.9927 -0.7065  0.1994
 7742SOL    HW234689   1.705   4.040   5.471 -0.4154  0.0676 -1.1381
 7743SOL     OW34690   1.820   2.766   4.231  0.1476  0.3723  0.7876
 7743SOL    HW134691   1.729   2.740   4.240  0.1874  0.1311  0.4684
 7743SOL    HW234692   1.833   2.824   4.307 -0.3861  0.9806  0.4173
 7744SOL     OW34693   1.572   1.137   7.106  0.1497 -0.0721  0.3285
 7744SOL    HW134694   1.595   1.183   7.025  0.2028 -0.6858  0.0002
 7744SOL    HW234695   1.512   1.069   7.077  0.8202 -1.2357  1.7028
 7745SOL     OW34696   0.095   1.626   6.004 -0.1427 -0.0970  0.2130
 7745SOL    HW134697   0.062   1.574   6.078  0.5430 -0.3958  0.3103
 7745SOL    HW234698   0.093   1.557   5.937  1.1854  1.0021 -0.9509
 7746SOL     OW34699   3.480   0.337   1.374 -0.3100 -0.1414 -0.8318
 7746SOL    HW134700   3.550   0.281   1.340 -1.1435 -1.2534 -0.7278
 7746SOL    HW234701   3.415   0.310   1.310  0.4246 -0.7141 -1.3398
 7747SOL     OW34702   2.404   3.642   0.566  0.4032 -0.0972 -0.5127
 7747SOL    HW134703   2.331   3.637   0.504  0.0065 -1.0052  0.0301
 7747SOL    HW234704   2.351   3.612   0.639  0.2380  0.1436 -0.5313
 7748SOL     OW34705   3.625   2.975   1.844 -0.0624 -0.1833  0.0792
 7748SOL    HW134706   3.669   3.059   1.833 -2.1548  0.8955 -0.1075
 7748SOL    HW234707   3.589   2.983   1.932  0.9151 -0.3325  0.4942
 7749SOL     OW34708   4.111   2.752   7.922 -0.1334  0.2019 -0.0780
 7749SOL    HW134709   4.049   2.825   7.934 -0.1923  0.0238  0.6972
 7749SOL    HW234710   4.135   2.763   7.830  1.4916  1.6881  0.5356
 7750SOL     OW34711   2.492   2.108   1.992  0.1530 -0.1987 -0.1043
 7750SOL    HW134712   2.418   2.078   2.045  2.2240 -2.0794  1.7290
 7750SOL    HW234713   2.449   2.148   1.917 -0.8864 -1.7236 -0.3236
 7751SOL     OW34714   2.616   3.009   2.691 -0.0951  0.0945  0.2364
 7751SOL    HW134715   2.685   3.073   2.703  0.8087 -0.7841 -0.3153
 7751SOL    HW234716   2.587   2.991   2.781  1.7579 -3.3079  0.1468
 7752SOL     OW34717   0.789   2.240  11.133  0.0285  0.5882  0.3156
 7752SOL    HW134718   0.738   2.317  11.107 -0.2575  0.8673  1.6694
 7752SOL    HW234719   0.794   2.199  11.047  0.7856  0.7253  0.2921
 7753SOL     OW34720   1.119   0.192   9.613 -0.0599 -0.3763  0.5915
 7753SOL    HW134721   1.206   0.229   9.603 -1.0666  1.8870  0.2516
 7753SOL    HW234722   1.128   0.154   9.701  0.2684  1.5246  1.3678
 7754SOL     OW34723   2.272   3.834  10.746  0.2791  0.1298  0.1473
 7754SOL    HW134724   2.365   3.818  10.761  0.2356  1.0213  1.4010
 7754SOL    HW234725   2.261   3.907  10.808 -2.2219  1.6663 -2.0870
 7755SOL     OW34726   0.280   4.599   8.685 -0.6667  0.0735  0.2033
 7755SOL    HW134727   0.350   4.625   8.745  1.0091 -1.7115 -1.0030
 7755SOL    HW234728   0.216   4.571   8.750 -1.2344  1.5219  0.2875
 7756SOL     OW34729   1.657   1.375  10.750 -0.0795 -0.0061 -0.4688
 7756SOL    HW134730   1.590   1.441  10.731  0.5200  0.6792 -0.1711
 7756SOL    HW234731   1.716   1.447  10.773 -0.6027  0.2111  0.2012
 7757SOL     OW34732   2.287   2.016  17.332  0.2759  0.4836  0.0143
 7757SOL    HW134733   2.339   2.033  17.253 -0.8147 -0.1094 -0.8288
 7757SOL    HW234734   2.359   1.996  17.392 -0.3476 -0.7588  0.3347
 7758SOL     OW34735   1.832   3.670   7.426 -0.0400  0.7697  0.2558
 7758SOL    HW134736   1.910   3.650   7.478 -0.6786  0.4799  1.1018
 7758SOL    HW234737   1.863   3.630   7.345 -3.2999 -4.1790  1.4792
 7759SOL     OW34738   1.195   1.068  10.914 -0.1194  0.4615  0.0411
 7759SOL    HW134739   1.142   1.048  10.991  2.0522  1.5202  1.8121
 7759SOL    HW234740   1.198   0.987  10.864 -0.3241 -1.3617  2.9818
 7760SOL     OW34741   1.299   2.231  16.405 -0.1292  0.4256 -0.4283
 7760SOL    HW134742   1.326   2.321  16.387 -1.7169  0.7506 -1.1775
 7760SOL    HW234743   1.389   2.197  16.404 -0.3549 -0.2237  2.3083
 7761SOL     OW34744   4.173   1.801   3.901  0.4486  0.9117  0.0616
 7761SOL    HW134745   4.211   1.727   3.948  0.6810  2.2885  2.0354
 7761SOL    HW234746   4.109   1.827   3.968 -1.7294  0.9104 -2.0018
 7762SOL     OW34747   0.774   3.696   6.603 -0.4547 -0.2147 -0.5807
 7762SOL    HW134748   0.801   3.786   6.621 -0.6727 -0.0692 -0.9869
 7762SOL    HW234749   0.741   3.712   6.515 -1.7223  0.9617  0.1197
 7763SOL     OW34750   4.226   3.471   7.095  0.3944 -0.0205  0.5956
 7763SOL    HW134751   4.246   3.418   7.173  2.4731  0.8923  0.6781
 7763SOL    HW234752   4.160   3.532   7.128  0.6967  1.3208 -1.3070
 7764SOL     OW34753   3.092   0.693   0.009  0.0520 -0.2069  0.1593
 7764SOL    HW134754   3.064   0.607  17.674  1.4744  0.7557 -3.4579
 7764SOL    HW234755   3.031   0.704   0.082  1.6000 -5.1409  2.2133
 7765SOL     OW34756   2.941   3.663   8.126  0.3042  0.3396  0.8531
 7765SOL    HW134757   2.911   3.612   8.202  0.7718 -0.8183  0.2593
 7765SOL    HW234758   2.915   3.751   8.152 -1.7984 -0.2931  0.8903
 7766SOL     OW34759   2.928   1.263   5.703 -0.2372 -0.3626  0.1138
 7766SOL    HW134760   2.992   1.326   5.735 -1.8844  1.0076  0.7464
 7766SOL    HW234761   2.914   1.206   5.779 -3.6194 -0.3557 -0.5111
 7767SOL     OW34762   0.445   0.399  11.953  0.2998  0.3423  0.3429
 7767SOL    HW134763   0.424   0.391  11.860 -1.3390 -0.4118  0.7877
 7767SOL    HW234764   0.367   0.358  11.989  0.7115 -1.5734 -0.9229
 7768SOL     OW34765   0.014   0.108   4.911 -0.6711  0.0694  0.3813
 7768SOL    HW134766   4.665   0.119   4.850 -1.9487  1.0521  2.0967
 7768SOL    HW234767   0.078   0.093   4.841 -1.2605  2.0856 -0.5902
 7769SOL     OW34768   2.059   3.165  15.511  0.2312  0.0086 -0.0228
 7769SOL    HW134769   2.119   3.137  15.442  0.9067  0.6273  0.3163
 7769SOL    HW234770   2.018   3.243  15.475 -2.2942 -1.0354  0.6247
 7770SOL     OW34771   2.611   0.097  10.257 -0.0941  0.2418  0.3150
 7770SOL    HW134772   2.705   0.106  10.244 -0.3673  1.1355 -0.9465
 7770SOL    HW234773   2.593   0.112  10.350 -2.1295 -0.3580  0.0213
 7771SOL     OW34774   2.399   1.353   5.496  0.2638 -0.0387 -0.9052
 7771SOL    HW134775   2.378   1.274   5.446 -2.0509  1.0040 -1.5626
 7771SOL    HW234776   2.356   1.420   5.444 -0.5859 -1.0411 -1.4991
 7772SOL     OW34777   0.326   3.521   2.184  0.5518  0.4825 -0.0382
 7772SOL    HW134778   0.301   3.590   2.122  1.8394  3.0188  2.2918
 7772SOL    HW234779   0.340   3.578   2.259 -1.1722  1.3187 -0.3447
 7773SOL     OW34780   1.129   3.672  11.013  0.5595  0.2591  0.0161
 7773SOL    HW134781   1.153   3.758  11.048 -0.3208 -0.1076  1.5047
 7773SOL    HW234782   1.205   3.615  11.020  0.7099  0.8720  3.3874
 7774SOL     OW34783   2.418   1.182  10.490  0.5870 -0.0934 -0.0004
 7774SOL    HW134784   2.442   1.109  10.433 -0.8553 -1.2839  0.9096
 7774SOL    HW234785   2.481   1.246  10.456 -0.6202  0.7598 -0.6199
 7775SOL     OW34786   1.123   1.603   2.324  0.4361 -0.4399  0.0748
 7775SOL    HW134787   1.109   1.509   2.314  1.6589 -0.4393 -1.5564
 7775SOL    HW234788   1.047   1.632   2.274 -0.7959  0.4572  2.4303
 7776SOL     OW34789   3.350   0.565  16.737 -0.0322  0.0108 -0.2898
 7776SOL    HW134790   3.318   0.633  16.795 -0.0467  0.0668 -0.3637
 7776SOL    HW234791   3.306   0.489  16.774  2.4897 -1.1007  0.4704
 7777SOL     OW34792   0.588   1.181   5.273  0.6153  0.1272  0.3090
 7777SOL    HW134793   0.630   1.206   5.356  2.0214 -1.5867  0.1109
 7777SOL    HW234794   0.661   1.170   5.212 -0.6275 -1.9371 -0.7756
 7778SOL     OW34795   1.812   4.226   9.017  0.3230  0.0757 -0.4375
 7778SOL    HW134796   1.798   4.319   9.035 -0.2408 -0.3703  1.4291
 7778SOL    HW234797   1.768   4.188   9.093 -0.2367 -0.7243 -1.1643
 7779SOL     OW34798   1.769   2.103   6.461  0.4859  0.0327  0.0069
 7779SOL    HW134799   1.857   2.090   6.426  0.6797 -1.6173  1.0974
 7779SOL    HW234800   1.763   2.198   6.470  0.6469 -0.0001  0.5038
 7780SOL     OW34801   1.125   0.822   9.236  0.1486 -0.2451  0.3069
 7780SOL    HW134802   1.060   0.800   9.168 -0.0236  0.2119  0.3296
 7780SOL    HW234803   1.078   0.791   9.313 -3.1764  0.6941 -1.3327
 7781SOL     OW34804   2.017   2.303   9.813  0.0939  0.1456 -0.4752
 7781SOL    HW134805   2.010   2.322   9.907  1.4959  1.5440 -0.6676
 7781SOL    HW234806   2.068   2.222   9.817  2.3598  1.5978 -0.7027
 7782SOL     OW34807   2.284   3.070  10.130 -0.0058  0.4224 -0.2610
 7782SOL    HW134808   2.192   3.070  10.103  0.0117 -0.3714 -0.3098
 7782SOL    HW234809   2.314   3.030  10.048  0.1657 -0.4832  0.2492
 7783SOL     OW34810   0.016   3.249   7.949 -0.3638  0.6869  0.1869
 7783SOL    HW134811   4.694   3.172   7.980 -0.4623  0.4719 -0.4836
 7783SOL    HW234812   4.676   3.287   7.888 -1.5007 -0.8383  0.4486
 7784SOL     OW34813   1.265   2.869   5.043 -0.0194  0.5103 -0.0967
 7784SOL    HW134814   1.230   2.902   4.960 -0.5206 -2.0864 -0.9180
 7784SOL    HW234815   1.359   2.882   5.030 -0.0530 -1.6322 -2.4315
 7785SOL     OW34816   3.304   0.099   8.073 -0.2737 -0.1987 -0.4387
 7785SOL    HW134817   3.212   0.107   8.098  0.1870  0.0578  1.1617
 7785SOL    HW234818   3.317   0.188   8.042 -2.5259  0.9998  2.1251
 7786SOL     OW34819   0.624   2.474   0.044  0.0371 -0.0455 -0.0327
 7786SOL    HW134820   0.560   2.518   0.100  0.7795 -1.2128  1.7337
 7786SOL    HW234821   0.580   2.389   0.035 -0.1884  0.0975 -0.3041
 7787SOL     OW34822   4.441   3.323   7.442 -0.9609 -0.6738 -0.0779
 7787SOL    HW134823   4.495   3.266   7.496 -0.2540 -0.2888 -0.3805
 7787SOL    HW234824   4.354   3.305   7.478 -1.0660  0.3002  0.1652
 7788SOL     OW34825   3.804   0.852   5.171 -0.4542  0.2480  0.0761
 7788SOL    HW134826   3.768   0.923   5.118  0.9026  0.4904 -0.5344
 7788SOL    HW234827   3.732   0.788   5.173  1.4071 -1.8208  0.8869
 7789SOL     OW34828   0.682   0.345   3.960  0.4640  0.1433  0.1568
 7789SOL    HW134829   0.723   0.335   4.045 -0.4563 -0.7695  0.4965
 7789SOL    HW234830   0.593   0.380   3.973  0.5521  0.3089  0.3104
 7790SOL     OW34831   1.112   3.198   2.797  0.3760 -0.5521 -0.5153
 7790SOL    HW134832   1.198   3.212   2.758  1.0213 -0.7189  0.8368
 7790SOL    HW234833   1.064   3.273   2.761  1.0204  0.7924  1.3948
 7791SOL     OW34834   0.796   0.015   4.521 -0.5639 -0.0870  0.0005
 7791SOL    HW134835   0.723   4.712   4.466  0.0769 -0.9222 -0.4442
 7791SOL    HW234836   0.756   0.099   4.545 -2.6139 -0.6963 -1.2911
 7792SOL     OW34837   1.272   4.149   4.833  0.1394  0.2161 -0.2580
 7792SOL    HW134838   1.242   4.158   4.923 -0.1626  1.0275 -0.4382
 7792SOL    HW234839   1.339   4.217   4.824 -0.3393  0.7794  0.4324
 7793SOL     OW34840   0.053   2.975  14.783  0.3277 -0.3106 -0.2472
 7793SOL    HW134841   4.693   2.969  14.830  0.2835 -2.1745 -0.5446
 7793SOL    HW234842   0.086   2.897  14.829 -0.5757 -0.2251  0.5641
 7794SOL     OW34843   4.445   2.845   5.308 -0.3028 -0.4162 -0.0029
 7794SOL    HW134844   4.378   2.849   5.240 -0.0827 -2.2431 -0.3287
 7794SOL    HW234845   4.394   2.808   5.381 -0.4345 -2.2823 -1.0414
 7795SOL     OW34846   4.062   4.319  17.457 -0.0501 -0.1300 -0.1340
 7795SOL    HW134847   4.039   4.381  17.527 -1.9696  1.0375 -1.7983
 7795SOL    HW234848   4.110   4.250  17.503 -1.0940 -0.3371  0.6371
 7796SOL     OW34849   1.990   4.292   8.494  0.3266  0.1177  0.0811
 7796SOL    HW134850   1.982   4.232   8.420 -0.6602  0.9024 -0.4487
 7796SOL    HW234851   1.899   4.295   8.525  0.7904  2.2996  1.2287
 7797SOL     OW34852   1.113   1.450   8.437 -0.2484 -0.1805  0.7586
 7797SOL    HW134853   1.084   1.530   8.480 -0.3400  1.1306 -1.7343
 7797SOL    HW234854   1.045   1.390   8.467  0.7810 -1.7269  0.0063
 7798SOL     OW34855   3.284   3.043   4.270  0.1743  0.2128 -0.0418
 7798SOL    HW134856   3.224   3.106   4.310  2.5708  2.7634 -0.5104
 7798SOL    HW234857   3.211   2.992   4.235 -0.7251  0.7412  1.0390
 7799SOL     OW34858   0.109   2.080  11.776 -0.0743  0.1854  0.3807
 7799SOL    HW134859   0.169   2.054  11.706 -2.6414 -0.0829 -1.7333
 7799SOL    HW234860   0.088   1.995  11.814 -0.0679  0.0521  0.0858
 7800SOL     OW34861   3.867   0.531  17.612  0.1443 -0.0837  0.4560
 7800SOL    HW134862   3.835   0.554  17.525 -2.7109 -1.8729  1.0446
 7800SOL    HW234863   3.954   0.497  17.590 -0.0141 -1.1296  1.4466
 7801SOL     OW34864   2.768   4.379  12.717  0.3317  0.0483 -0.4957
 7801SOL    HW134865   2.775   4.415  12.628  0.5390 -0.7853 -0.8225
 7801SOL    HW234866   2.853   4.414  12.743 -0.9465  1.2859  1.9433
 7802SOL     OW34867   2.728   4.555   7.283 -0.5691  0.0603 -0.1357
 7802SOL    HW134868   2.656   4.576   7.224  0.0918  0.0445 -0.9419
 7802SOL    HW234869   2.790   4.625   7.261 -0.9809 -0.2166 -2.1634
 7803SOL     OW34870   3.854   0.053   3.729  0.1464 -0.3665 -0.6833
 7803SOL    HW134871   3.913   0.105   3.675 -0.2485 -1.0070 -1.7299
 7803SOL    HW234872   3.897   4.692   3.737  0.8488  0.3291  2.6951
 7804SOL     OW34873   3.864   0.094   5.192 -0.6927 -0.2413  0.0577
 7804SOL    HW134874   3.884   0.001   5.200  1.0201  0.0920 -0.2979
 7804SOL    HW234875   3.771   0.088   5.168 -0.6008 -3.5007  0.5173
 7805SOL     OW34876   0.169   4.519  17.691 -0.0709  0.1347  0.2476
 7805SOL    HW134877   0.168   4.512  17.595  0.4097 -1.9846  0.3969
 7805SOL    HW234878   0.207   4.607  17.689  2.2738 -0.8807 -1.0481
 7806SOL     OW34879   2.493   4.416   5.216  0.4672  0.2892  0.7815
 7806SOL    HW134880   2.583   4.443   5.194 -0.2443  0.8129 -1.4675
 7806SOL    HW234881   2.476   4.470   5.293  1.2713  2.9739 -0.8897
 7807SOL     OW34882   3.989   1.995   5.826 -0.1919  0.1544  0.2274
 7807SOL    HW134883   3.981   2.087   5.802 -1.5413 -0.5865 -2.1848
 7807SOL    HW234884   3.901   1.980   5.861  1.0680 -0.9067  2.8873
 7808SOL     OW34885   3.094   0.228  12.123 -0.0610  0.4449  0.2293
 7808SOL    HW134886   2.999   0.232  12.110 -0.1771  0.5284  1.1036
 7808SOL    HW234887   3.109   0.321  12.103 -0.3184  0.6231  0.8670
 7809SOL     OW34888   0.149   1.280   4.542  0.0550 -0.3104  0.3749
 7809SOL    HW134889   0.196   1.220   4.484 -0.4819  0.2631 -0.6553
 7809SOL    HW234890   0.172   1.247   4.629  1.7631  3.1978  1.2222
 7810SOL     OW34891   0.891   0.138  17.587 -0.5390 -0.5053 -0.2521
 7810SOL    HW134892   0.957   0.069  17.586 -0.3008 -0.3006  2.2822
 7810SOL    HW234893   0.863   0.151  17.678 -0.8199 -2.1878 -0.0940
 7811SOL     OW34894   1.290   0.149   8.901 -0.2645 -0.0514 -0.2956
 7811SOL    HW134895   1.296   0.128   8.994  0.2753  2.7506  0.2771
 7811SOL    HW234896   1.218   0.087   8.888  2.4835 -2.9828 -1.8023
 7812SOL     OW34897   1.933   0.841   5.038 -0.4066 -0.6853 -0.4300
 7812SOL    HW134898   1.976   0.922   5.010  0.8321 -0.3831  2.3349
 7812SOL    HW234899   1.865   0.878   5.095  0.0888 -0.4430  0.0026
 7813SOL     OW34900   2.810   4.148   6.366  0.2043 -0.1861 -0.0355
 7813SOL    HW134901   2.865   4.079   6.403 -0.1195 -0.9878 -1.0461
 7813SOL    HW234902   2.841   4.145   6.275  0.8457 -1.4434  0.2193
 7814SOL     OW34903   1.592   3.435   3.397  0.7350  0.3990 -0.0330
 7814SOL    HW134904   1.542   3.516   3.385  1.9310  0.8670 -1.8533
 7814SOL    HW234905   1.650   3.460   3.468  2.3000 -0.9520 -0.8373
 7815SOL     OW34906   0.911   3.586  11.330 -0.1550  0.4251 -0.2981
 7815SOL    HW134907   0.932   3.574  11.423  1.6807 -1.0812 -0.9206
 7815SOL    HW234908   0.969   3.529  11.281 -0.1447 -1.1659  1.5595
 7816SOL     OW34909   0.380   1.610   6.535  0.2986 -0.0074  0.0657
 7816SOL    HW134910   0.349   1.552   6.605 -2.3530  0.1898 -0.9737
 7816SOL    HW234911   0.472   1.629   6.556  0.2161 -1.4640  1.8040
 7817SOL     OW34912   1.301   0.976   6.267 -0.5551  0.1207  0.4316
 7817SOL    HW134913   1.313   0.926   6.186 -2.0735  0.5949 -0.1033
 7817SOL    HW234914   1.267   0.911   6.329  0.1148  0.2707  0.9569
 7818SOL     OW34915   2.049   1.640   1.599  0.2832  0.2728  0.5883
 7818SOL    HW134916   2.102   1.700   1.652  1.0371 -0.3178  0.5076
 7818SOL    HW234917   1.985   1.696   1.556  1.1067  0.7648 -0.0088
 7819SOL     OW34918   4.191   0.924   6.228  0.0333 -0.4826  0.2613
 7819SOL    HW134919   4.153   0.860   6.167  2.6056 -4.4757  2.8606
 7819SOL    HW234920   4.250   0.966   6.165 -2.2676 -2.7232 -3.4325
 7820SOL     OW34921   1.101   4.680   5.868 -0.3801  0.2789 -0.3624
 7820SOL    HW134922   1.045   4.617   5.822 -0.0608 -0.0387 -0.3135
 7820SOL    HW234923   1.153   4.720   5.799  2.0381 -0.2516  1.1667
 7821SOL     OW34924   0.780   0.988   4.771 -0.1028 -0.3320  0.6074
 7821SOL    HW134925   0.790   1.081   4.751  0.5357 -0.2919  1.1061
 7821SOL    HW234926   0.692   0.996   4.809 -0.1405  3.2764 -0.2223
 7822SOL     OW34927   4.677   2.424   2.893  0.1147 -0.2635 -0.6118
 7822SOL    HW134928   4.716   2.500   2.936  0.3803 -1.1729  0.7404
 7822SOL    HW234929   4.641   2.367   2.960  0.4317  0.9409  0.5831
 7823SOL     OW34930   1.423   0.208   5.157  0.4502  0.3190 -0.2478
 7823SOL    HW134931   1.402   0.135   5.216 -0.9007 -0.0393 -1.1528
 7823SOL    HW234932   1.417   0.152   5.080 -1.8085 -0.0645  0.2066
 7824SOL     OW34933   3.162   0.638   1.958  0.2522 -0.3186 -0.0927
 7824SOL    HW134934   3.238   0.582   1.943  1.0682  1.5506 -2.9065
 7824SOL    HW234935   3.174   0.677   2.044 -0.3699  2.7144 -1.3954
 7825SOL     OW34936   3.219   4.064   5.356  0.3087 -0.0262  0.7893
 7825SOL    HW134937   3.125   4.073   5.376 -0.4246  0.1633 -2.7597
 7825SOL    HW234938   3.258   4.106   5.433 -1.7449 -0.6051  2.1473
 7826SOL     OW34939   0.564   3.765   7.376  0.1965  0.7819  0.1762
 7826SOL    HW134940   0.587   3.679   7.341  2.5891  0.5249  2.3521
 7826SOL    HW234941   0.573   3.753   7.471 -0.0497  1.1346  0.2462
 7827SOL     OW34942   2.532   3.079   2.400 -0.3142 -0.2391  0.1490
 7827SOL    HW134943   2.620   3.089   2.363 -0.4441  0.7458  0.0853
 7827SOL    HW234944   2.546   3.035   2.484  1.9002  1.0438  0.4591
 7828SOL     OW34945   1.586   2.330   4.240 -0.1112 -0.2049 -0.3333
 7828SOL    HW134946   1.600   2.360   4.150 -0.6221 -1.1828 -0.7389
 7828SOL    HW234947   1.613   2.238   4.237  0.1360 -0.1441  0.0302
 7829SOL     OW34948   1.229   2.179   6.216  0.2885  0.4002 -0.1908
 7829SOL    HW134949   1.177   2.243   6.264 -2.3331 -0.3524 -2.0242
 7829SOL    HW234950   1.308   2.169   6.269 -0.2295  0.3161  0.5663
 7830SOL     OW34951   3.299   4.295   7.984  0.5422 -0.2321 -0.8473
 7830SOL    HW134952   3.275   4.388   7.979 -1.3084 -0.6646 -0.2980
 7830SOL    HW234953   3.393   4.301   7.999  0.3841  1.8620 -0.6935
 7831SOL     OW34954   2.135   2.623  12.469 -0.1112 -0.1301 -0.4989
 7831SOL    HW134955   2.160   2.576  12.389 -2.4499  0.7442 -1.7393
 7831SOL    HW234956   2.210   2.679  12.490  0.2906 -0.7300 -0.3071
 7832SOL     OW34957   2.070   3.550   1.844  0.1661  0.4351  0.8482
 7832SOL    HW134958   2.128   3.526   1.917 -0.5899 -2.2748  0.5475
 7832SOL    HW234959   2.023   3.468   1.831  0.9538  0.2078 -0.5881
 7833SOL     OW34960   4.304   0.762  13.722  0.5096  0.3823  0.4611
 7833SOL    HW134961   4.234   0.751  13.787  0.9650  0.3028  0.9443
 7833SOL    HW234962   4.354   0.828  13.770  0.2032  0.7480  0.2795
 7834SOL     OW34963   0.878   0.661   4.308  0.4623 -0.5403  0.1742
 7834SOL    HW134964   0.952   0.689   4.254  0.9803 -1.6225  0.3176
 7834SOL    HW234965   0.835   0.619   4.233  1.7822 -0.9855 -0.3323
 7835SOL     OW34966   3.153   0.280   2.020  0.2150  0.6284 -0.6457
 7835SOL    HW134967   3.177   0.188   2.034 -4.1849 -0.5515 -1.0087
 7835SOL    HW234968   3.242   0.313   2.009  0.2829  0.7999  0.3819
 7836SOL     OW34969   3.294   1.715  14.451 -0.1297  0.1739  0.2557
 7836SOL    HW134970   3.312   1.806  14.425 -1.6672  0.4319  0.0539
 7836SOL    HW234971   3.329   1.723  14.539 -2.4635 -0.7584  1.2630
 7837SOL     OW34972   1.391   0.404   7.813  0.3415 -0.1743 -0.3223
 7837SOL    HW134973   1.369   0.420   7.721 -0.6681  2.4542  0.3857
 7837SOL    HW234974   1.466   0.344   7.808  0.7764  0.3584 -0.2411
 7838SOL     OW34975   4.305   2.688   9.235  0.0067 -0.2106 -0.7520
 7838SOL    HW134976   4.391   2.702   9.195 -0.2637  0.6395 -1.0328
 7838SOL    HW234977   4.260   2.637   9.167 -0.0974 -0.9455 -0.1414
 7839SOL     OW34978   1.565   0.499   5.590 -0.4813 -1.2661 -0.6819
 7839SOL    HW134979   1.651   0.521   5.554  0.1141 -0.7009  1.1146
 7839SOL    HW234980   1.585   0.409   5.618 -0.7497 -1.6130 -1.5952
 7840SOL     OW34981   1.269   1.313   8.232 -0.3148  0.1993 -0.8346
 7840SOL    HW134982   1.212   1.349   8.299  0.5769  1.8842 -0.9722
 7840SOL    HW234983   1.219   1.340   8.155 -0.3238  1.5183 -0.3769
 7841SOL     OW34984   2.120   1.612   0.402  0.3187  0.8222  0.4619
 7841SOL    HW134985   2.103   1.633   0.494  1.6059  1.4326  0.5507
 7841SOL    HW234986   2.067   1.680   0.360 -0.9211 -0.6212 -0.2844
 7842SOL     OW34987   0.576   3.431   2.395  0.1931  0.3885  0.4517
 7842SOL    HW134988   0.525   3.499   2.440  0.1064  1.0554 -0.6684
 7842SOL    HW234989   0.595   3.467   2.309 -2.7827  0.4271 -0.1851
 7843SOL     OW34990   1.362   2.246   8.393  0.1104  0.0193  0.1349
 7843SOL    HW134991   1.329   2.317   8.338  0.7852 -1.1521 -1.8044
 7843SOL    HW234992   1.308   2.171   8.369 -0.8234  0.9033 -0.5315
 7844SOL     OW34993   1.144   2.283  15.655 -0.0911 -0.0590  0.1429
 7844SOL    HW134994   1.230   2.317  15.679 -1.3325  1.8620  1.7654
 7844SOL    HW234995   1.129   2.227  15.731  1.8790  0.3786  0.8562
 7845SOL     OW34996   0.990   1.357  17.396 -0.5316  1.1071 -0.5008
 7845SOL    HW134997   1.064   1.325  17.449 -0.2356  1.2186 -0.8473
 7845SOL    HW234998   0.956   1.433  17.442 -0.1485  0.0318  1.5911
 7846SOL     OW34999   3.485   3.351   2.606  0.0620 -0.3552  0.3206
 7846SOL    HW135000   3.545   3.320   2.674  1.2974  1.8681  0.2422
 7846SOL    HW235001   3.443   3.266   2.592 -1.2305  0.6579 -1.8855
 7847SOL     OW35002   0.497   2.250   3.415 -0.2474 -0.7907 -0.6628
 7847SOL    HW135003   0.504   2.341   3.443 -0.4454 -1.3066  1.0787
 7847SOL    HW235004   0.490   2.201   3.497 -2.2281 -0.8892 -0.8818
 7848SOL     OW35005   3.470   4.632  10.432  0.5899 -0.0874  0.6005
 7848SOL    HW135006   3.397   4.665  10.379 -0.9252 -0.6616  2.3312
 7848SOL    HW235007   3.413   4.568  10.475 -1.0956  0.5537 -0.6772
 7849SOL     OW35008   1.503   2.096   5.139  0.0656  0.3812  0.6070
 7849SOL    HW135009   1.431   2.070   5.196  1.7302  0.1952  2.6026
 7849SOL    HW235010   1.462   2.177   5.108  0.5587 -0.2488 -1.6813
 7850SOL     OW35011   0.808   3.658  14.187  0.0456 -0.0850  0.1463
 7850SOL    HW135012   0.839   3.572  14.160 -2.7880 -1.1374  0.2415
 7850SOL    HW235013   0.871   3.690  14.252 -0.9771 -2.1357  2.1503
 7851SOL     OW35014   0.998   1.899   2.343  0.1282 -0.3653 -0.3156
 7851SOL    HW135015   1.088   1.930   2.332  0.1447 -0.5819 -0.7779
 7851SOL    HW235016   1.023   1.839   2.413 -2.2158 -2.2327 -1.1182
 7852SOL     OW35017   0.164   3.731   7.658 -0.1071  0.4779 -0.4464
 7852SOL    HW135018   0.102   3.662   7.682  0.4629  0.4518  0.9984
 7852SOL    HW235019   0.100   3.788   7.616 -1.7378 -0.3834  0.8945
 7853SOL     OW35020   1.395   0.175   6.855  0.1793 -0.7314  0.3860
 7853SOL    HW135021   1.335   0.132   6.916  0.2645 -1.6985 -0.2163
 7853SOL    HW235022   1.431   0.247   6.907 -1.8327 -0.9671  2.1157
 7854SOL     OW35023   2.292   1.543   5.069  0.0148 -0.3835 -0.0366
 7854SOL    HW135024   2.262   1.615   5.014  0.4478  0.0496  0.2896
 7854SOL    HW235025   2.268   1.467   5.016 -0.1405 -1.5361  1.6862
 7855SOL     OW35026   4.663   1.291  15.070 -0.2638 -0.4806  0.0061
 7855SOL    HW135027   4.718   1.359  15.030  1.0294 -1.9468 -0.6961
 7855SOL    HW235028   4.655   1.234  14.994  2.0194  0.6667 -1.0903
 7856SOL     OW35029   3.612   0.317   2.622 -0.0505 -0.4598 -0.3214
 7856SOL    HW135030   3.588   0.370   2.547 -2.1892 -3.0904 -1.4811
 7856SOL    HW235031   3.642   0.234   2.585 -2.5267 -1.9411  0.9706
 7857SOL     OW35032   2.939   1.560  11.427  0.7011  0.0891 -0.5284
 7857SOL    HW135033   2.901   1.567  11.340  1.3286  0.0306 -0.8098
 7857SOL    HW235034   2.990   1.641  11.427  0.0698  0.4907 -1.6909
 7858SOL     OW35035   0.652   1.230   1.164 -0.4417 -0.5772  0.0591
 7858SOL    HW135036   0.645   1.230   1.068 -0.4938  2.5481  0.0774
 7858SOL    HW235037   0.563   1.259   1.182  0.8637  2.4100  1.7585
 7859SOL     OW35038   4.688   0.746   4.742 -0.0383  0.3111 -0.0110
 7859SOL    HW135039   0.014   0.824   4.717 -3.1709  2.1698 -0.4673
 7859SOL    HW235040   0.016   0.686   4.688  0.3931  0.5585  0.1282
 7860SOL     OW35041   0.038   1.991   6.025  0.1480  0.5774 -0.3727
 7860SOL    HW135042   0.014   1.969   6.115  2.0955 -0.5291 -0.1317
 7860SOL    HW235043   4.716   1.937   5.960 -0.3674 -2.0156  2.1490
 7861SOL     OW35044   2.074   2.733   8.400 -0.0113  0.2456  0.2131
 7861SOL    HW135045   2.053   2.639   8.402 -1.2034  0.5182  0.5856
 7861SOL    HW235046   2.022   2.747   8.321  0.6864  0.1619 -0.2582
 7862SOL     OW35047   3.401   2.357   8.264  0.7117 -1.0544 -0.8150
 7862SOL    HW135048   3.425   2.415   8.191  0.1293  0.5701  0.2882
 7862SOL    HW235049   3.442   2.276   8.234  3.6148  0.7027 -1.6040
 7863SOL     OW35050   4.686   1.448   5.439 -0.1801 -0.3946 -0.2593
 7863SOL    HW135051   4.714   1.371   5.488 -0.1250  0.2120  0.6558
 7863SOL    HW235052   4.601   1.413   5.414  0.4073 -1.3723 -0.8733
 7864SOL     OW35053   2.572   3.071   6.025  0.1061 -0.4184 -0.4057
 7864SOL    HW135054   2.620   3.044   5.947 -0.4438 -1.2375 -0.4546
 7864SOL    HW235055   2.603   3.007   6.089  0.9593 -0.8286 -1.2329
 7865SOL     OW35056   3.081   2.815   6.279  0.5284 -0.2960 -0.1819
 7865SOL    HW135057   3.030   2.735   6.286 -1.1893  0.7888 -0.1503
 7865SOL    HW235058   3.123   2.803   6.193  2.0402  0.7669  0.4041
 7866SOL     OW35059   1.834   4.466   9.409 -0.0980  0.3168  0.3486
 7866SOL    HW135060   1.894   4.470   9.483  1.2317 -0.3424 -0.6958
 7866SOL    HW235061   1.815   4.373   9.398  1.1470 -0.2471  3.1306
 7867SOL     OW35062   1.165   0.765  12.126 -0.0177  0.0997 -0.1468
 7867SOL    HW135063   1.254   0.788  12.151 -0.2599 -1.4886  2.2800
 7867SOL    HW235064   1.172   0.730  12.037  1.5145 -2.2876  0.9101
 7868SOL     OW35065   2.099   0.560  14.833 -0.0571  0.5813  0.8891
 7868SOL    HW135066   2.152   0.533  14.758 -1.7640  0.2924 -0.2006
 7868SOL    HW235067   2.106   0.656  14.831 -1.4042  0.6908  1.4639
 7869SOL     OW35068   4.105   2.617   6.929 -0.4083 -0.2065  0.7066
 7869SOL    HW135069   4.049   2.650   6.999  0.8049  0.3496  1.4160
 7869SOL    HW235070   4.142   2.698   6.894 -0.4382  0.0547  1.2787
 7870SOL     OW35071   3.072   0.818   8.198  0.4771  0.1005 -0.2552
 7870SOL    HW135072   3.075   0.867   8.116 -0.2055  1.2159  0.3832
 7870SOL    HW235073   3.052   0.889   8.259  0.3310 -0.1154 -0.0547
 7871SOL     OW35074   2.762   4.279   7.298 -0.6093  0.0174 -0.7691
 7871SOL    HW135075   2.739   4.372   7.295 -1.2559 -0.1455 -0.8047
 7871SOL    HW235076   2.699   4.255   7.367 -0.5309 -0.2235 -0.7825
 7872SOL     OW35077   3.657   3.292  15.447 -0.3380  0.0328  0.4078
 7872SOL    HW135078   3.623   3.205  15.469  0.1384 -0.3945 -0.5199
 7872SOL    HW235079   3.573   3.333  15.428  0.7607  2.5777  1.0110
 7873SOL     OW35080   0.748   4.173   2.222 -0.1602  0.1358  0.1440
 7873SOL    HW135081   0.789   4.086   2.216  1.4536  0.8676  0.4049
 7873SOL    HW235082   0.808   4.228   2.273  0.6777  1.4958 -2.3067
 7874SOL     OW35083   0.507   0.228   0.744  0.0395 -0.3510 -0.4335
 7874SOL    HW135084   0.515   0.162   0.813  2.5703  0.6786  0.2675
 7874SOL    HW235085   0.594   0.268   0.745  1.0627 -2.5641 -0.7164
 7875SOL     OW35086   0.552   2.296  14.339 -0.7498 -0.2937 -0.0650
 7875SOL    HW135087   0.604   2.235  14.391 -0.4752 -1.9574 -2.3129
 7875SOL    HW235088   0.524   2.360  14.405  0.9868 -1.4736  1.8114
 7876SOL     OW35089   1.697   1.665  15.116  0.2037  0.2050 -0.0170
 7876SOL    HW135090   1.709   1.623  15.031  0.9804 -0.5071  0.4458
 7876SOL    HW235091   1.784   1.649  15.151 -0.1391  2.1313  1.7691
 7877SOL     OW35092   2.406   3.391   7.150  0.6619  0.1082 -0.5274
 7877SOL    HW135093   2.455   3.314   7.179 -0.3916 -0.9109 -1.4680
 7877SOL    HW235094   2.457   3.458   7.196  0.9781 -0.0373 -0.6725
 7878SOL     OW35095   0.592   0.199   5.890 -0.0611 -0.1995 -0.2289
 7878SOL    HW135096   0.620   0.187   5.981  1.9095 -2.0306 -1.1029
 7878SOL    HW235097   0.500   0.225   5.903 -0.4026 -1.7286  0.3625
 7879SOL     OW35098   2.327   0.873   2.281 -0.5902 -0.3393  0.0461
 7879SOL    HW135099   2.309   0.955   2.236 -1.6698 -0.5581  0.0855
 7879SOL    HW235100   2.299   0.887   2.372  0.4152 -1.3113  0.5156
 7880SOL     OW35101   1.450   0.060   4.081 -0.3024 -0.0613  0.1467
 7880SOL    HW135102   1.389   4.713   4.098 -0.0202  0.2187  2.2613
 7880SOL    HW235103   1.391   0.134   4.068  0.5319  0.6295  0.3115
 7881SOL     OW35104   4.666   0.356   5.484 -0.0803  0.1684 -0.0402
 7881SOL    HW135105   4.572   0.362   5.496  0.0310  0.1001  0.8391
 7881SOL    HW235106   4.681   0.433   5.429 -1.0960 -0.8678 -1.7595
 7882SOL     OW35107   0.028   4.476  13.228  0.1122 -0.0851 -0.0137
 7882SOL    HW135108   0.020   4.441  13.317 -0.3149 -0.3564 -0.1621
 7882SOL    HW235109   0.061   4.565  13.245 -0.3806 -0.4215  2.7124
 7883SOL     OW35110   2.588   3.873   2.592  0.1203 -0.2522  0.3512
 7883SOL    HW135111   2.569   3.961   2.560 -0.0967  0.1953  1.6972
 7883SOL    HW235112   2.532   3.829   2.528  0.2121 -0.6950  0.5721
 7884SOL     OW35113   2.768   0.701  17.202  0.2593 -0.4663 -0.2587
 7884SOL    HW135114   2.737   0.707  17.111  1.4230 -0.2342 -0.6427
 7884SOL    HW235115   2.823   0.623  17.194 -2.7930 -2.5349 -0.8114
 7885SOL     OW35116   1.161   2.153  15.154 -0.0097  0.3711  0.1301
 7885SOL    HW135117   1.194   2.181  15.069  0.9384 -0.1663  0.3244
 7885SOL    HW235118   1.230   2.096  15.189  0.3680  0.0558 -1.1483
 7886SOL     OW35119   3.566   4.702   0.221  0.4115  0.3031 -0.6155
 7886SOL    HW135120   3.539   4.613   0.197  0.9677 -0.4406  1.5122
 7886SOL    HW235121   3.524   0.026   0.150  2.1986  1.2394 -1.0400
 7887SOL     OW35122   1.844   0.307   8.453 -0.3192 -0.0049 -0.3639
 7887SOL    HW135123   1.909   0.241   8.434  1.7515  1.8433  0.3119
 7887SOL    HW235124   1.839   0.339   8.363  1.1478 -1.2213 -0.8548
 7888SOL     OW35125   2.372   0.911  17.587 -0.4559  0.2352 -0.2332
 7888SOL    HW135126   2.374   0.994  17.540  1.2930 -1.1272 -2.5775
 7888SOL    HW235127   2.459   0.874  17.569 -0.9039 -1.8570  1.7534
 7889SOL     OW35128   0.881   4.190   6.316 -0.2177 -0.5017 -0.1354
 7889SOL    HW135129   0.869   4.189   6.221 -0.1969 -2.8827 -0.1283
 7889SOL    HW235130   0.976   4.188   6.326 -0.0601 -0.2064 -1.6889
 7890SOL     OW35131   2.510   1.923   0.571  0.4406 -0.1343  0.5646
 7890SOL    HW135132   2.546   1.909   0.483  0.1473 -1.6274  0.6833
 7890SOL    HW235133   2.417   1.927   0.547  0.0488 -0.2864  2.0782
 7891SOL     OW35134   0.039   3.220   4.461  0.3763  0.1699 -0.3626
 7891SOL    HW135135   4.723   3.249   4.543 -0.5450  0.4077 -0.8985
 7891SOL    HW235136   0.007   3.289   4.402  0.2465  2.3784  2.2905
 7892SOL     OW35137   2.768   3.059  12.511 -0.2594  0.0976 -0.7139
 7892SOL    HW135138   2.788   3.149  12.536 -0.4164  0.9528 -3.6799
 7892SOL    HW235139   2.742   3.027  12.598  1.4683 -2.6889 -1.2108
 7893SOL     OW35140   0.413   4.493   0.683 -0.0494 -0.1190  0.5398
 7893SOL    HW135141   0.451   4.553   0.619  0.0657  0.7856  1.4435
 7893SOL    HW235142   0.492   4.442   0.705  0.1596  0.3645  0.9084
 7894SOL     OW35143   2.665   1.346   4.690  0.7528  0.1634 -0.3203
 7894SOL    HW135144   2.756   1.378   4.692  0.1967  1.5937  2.4665
 7894SOL    HW235145   2.675   1.269   4.746  3.3479  1.7990  1.4971
 7895SOL     OW35146   0.552   2.771   4.854  0.3277 -0.4846 -0.3441
 7895SOL    HW135147   0.564   2.697   4.914 -0.5538  0.1463  0.6084
 7895SOL    HW235148   0.467   2.744   4.821  0.8095  0.6333 -2.5085
 7896SOL     OW35149   3.896   0.052   5.575  0.5311  0.1121  0.6133
 7896SOL    HW135150   3.870   4.703   5.519 -0.6435  1.1354 -0.1570
 7896SOL    HW235151   3.895   0.013   5.663  0.7106 -0.3647  0.4050
 7897SOL     OW35152   0.280   3.961  10.848  0.0750 -0.2091 -0.0962
 7897SOL    HW135153   0.255   4.033  10.791  0.1095 -0.6319 -0.6489
 7897SOL    HW235154   0.323   4.003  10.922  1.1336 -0.3480 -0.6367
 7898SOL     OW35155   1.628   0.703   5.014  0.4578 -0.1375 -0.3686
 7898SOL    HW135156   1.688   0.671   4.947  2.1691  1.9588  0.1587
 7898SOL    HW235157   1.669   0.666   5.093  0.2369 -0.2770 -0.3193
 7899SOL     OW35158   2.977   2.619   7.051 -0.0771  0.4948  0.4562
 7899SOL    HW135159   2.955   2.550   7.113 -0.1088  0.1403  0.0512
 7899SOL    HW235160   3.066   2.588   7.037 -0.8388 -1.0314 -1.0745
 7900SOL     OW35161   0.078   0.151   7.773  0.3589 -0.0329 -0.6423
 7900SOL    HW135162   0.034   0.149   7.858  0.2239 -0.0611 -0.7141
 7900SOL    HW235163   0.003   0.162   7.714  0.3605  1.2273 -0.4120
 7901SOL     OW35164   1.275   2.708  10.887 -0.0779 -0.0226  0.3276
 7901SOL    HW135165   1.352   2.650  10.889  0.4127  0.6667  1.5102
 7901SOL    HW235166   1.198   2.663  10.921 -0.6051  0.9066  0.3544
 7902SOL     OW35167   3.431   1.434   4.563 -0.1797  0.7727  0.1458
 7902SOL    HW135168   3.349   1.420   4.611  0.9483 -0.8191  1.6232
 7902SOL    HW235169   3.411   1.452   4.471  0.8455  0.8836 -0.0546
 7903SOL     OW35170   0.055   0.548   1.529  0.3549 -0.3371 -0.5366
 7903SOL    HW135171   0.140   0.523   1.494  1.5793  3.4961 -0.2923
 7903SOL    HW235172   0.033   0.621   1.471  0.7171  1.7529  1.9294
 7904SOL     OW35173   2.634   4.572   5.453 -1.0016  0.0283 -0.0149
 7904SOL    HW135174   2.718   4.608   5.425 -0.5039 -1.5618 -0.5937
 7904SOL    HW235175   2.586   4.644   5.494 -0.0976  1.4782 -1.5372
 7905SOL     OW35176   2.745   3.674   8.791  0.4626  0.1799  0.1895
 7905SOL    HW135177   2.737   3.729   8.713 -2.7567  1.4493  1.4112
 7905SOL    HW235178   2.775   3.735   8.858  1.4898  1.8021 -1.7292
 7906SOL     OW35179   1.248   3.602   2.198 -0.4286  0.5857 -0.5008
 7906SOL    HW135180   1.188   3.619   2.126 -3.5343  0.8744  2.1298
 7906SOL    HW235181   1.295   3.684   2.212  0.3322 -0.3460  2.3840
 7907SOL     OW35182   3.194   1.674   3.213 -0.9374  0.1533  0.5339
 7907SOL    HW135183   3.287   1.697   3.208 -1.2441  1.1796 -0.5401
 7907SOL    HW235184   3.208   1.601   3.274 -1.1603  0.0739  0.4896
 7908SOL     OW35185   3.858   4.252   7.938 -0.2525  0.2995  0.2925
 7908SOL    HW135186   3.764   4.240   7.948 -0.0259  0.9574  3.2001
 7908SOL    HW235187   3.884   4.294   8.021 -1.0984 -0.0169  0.7180
 7909SOL     OW35188   4.490   4.552   8.683 -0.0010  0.5487  0.3506
 7909SOL    HW135189   4.416   4.534   8.742 -0.0586 -1.0768 -0.2204
 7909SOL    HW235190   4.509   4.645   8.698  2.2309 -0.2199  2.3089
 7910SOL     OW35191   3.948   0.646   2.718 -0.4356  0.2480  0.0392
 7910SOL    HW135192   3.905   0.597   2.647 -0.5419 -2.0609  1.7024
 7910SOL    HW235193   4.033   0.606   2.703 -0.2844  0.4857  0.2767
 7911SOL     OW35194   0.064   4.009   3.217 -0.6856  0.3041 -0.0900
 7911SOL    HW135195   0.114   4.077   3.172 -0.5396  0.5361  0.4254
 7911SOL    HW235196   0.046   3.946   3.148 -0.5614  0.4750 -0.2791
 7912SOL     OW35197   1.049   0.929   5.776 -0.0401 -0.2706  0.4788
 7912SOL    HW135198   1.087   0.979   5.848 -1.7085  1.1497  0.3777
 7912SOL    HW235199   1.073   0.843   5.810  2.3026  1.5001  3.3117
 7913SOL     OW35200   1.150   1.201  13.862 -0.3220  0.5663  0.2551
 7913SOL    HW135201   1.191   1.244  13.786 -2.2555  2.2051  0.1439
 7913SOL    HW235202   1.144   1.114  13.823  1.3674  0.4921  0.1436
 7914SOL     OW35203   1.051   1.168   6.495 -0.2004 -0.8147 -0.3525
 7914SOL    HW135204   1.033   1.119   6.415  1.7075 -1.4203 -0.3977
 7914SOL    HW235205   1.043   1.098   6.561 -0.1297  0.4317  0.9724
 7915SOL     OW35206   2.742   3.679   1.426  0.2242 -0.2265 -0.7567
 7915SOL    HW135207   2.724   3.614   1.359  0.1032 -1.2405  0.2664
 7915SOL    HW235208   2.815   3.638   1.473  0.4190 -1.7310 -2.3789
 7916SOL     OW35209   2.758   2.101  17.625  0.0460 -0.0399  0.5327
 7916SOL    HW135210   2.789   2.017  17.659 -0.3740 -1.1744 -1.8862
 7916SOL    HW235211   2.787   2.163  17.692  1.0963  3.1455 -2.8233
 7917SOL     OW35212   2.455   3.391   4.961 -0.1846 -0.5302  0.7615
 7917SOL    HW135213   2.401   3.461   4.924 -0.6194 -0.4458  1.5490
 7917SOL    HW235214   2.501   3.370   4.880 -1.1582  2.1061 -0.5010
 7918SOL     OW35215   1.073   4.593   3.747  0.4813  0.2635  0.9853
 7918SOL    HW135216   0.994   4.617   3.795 -0.1933 -1.4429  0.7308
 7918SOL    HW235217   1.077   4.498   3.743 -0.4033  0.3127 -0.9342
 7919SOL     OW35218   0.001   3.177  14.617  0.0699 -0.4710  0.4350
 7919SOL    HW135219   0.041   3.145  14.536  0.2850 -1.3417  0.8757
 7919SOL    HW235220   4.722   3.095  14.666  0.8612 -0.2268  0.8893
 7920SOL     OW35221   0.883   0.068   3.045 -0.4013 -0.1537 -0.2763
 7920SOL    HW135222   0.931   0.149   3.028  0.1670 -0.5902 -0.7062
 7920SOL    HW235223   0.828   0.073   2.967 -0.9209  0.9211  0.1608
 7921SOL     OW35224   2.756   3.607   3.508 -0.6440  0.2054 -0.4095
 7921SOL    HW135225   2.672   3.617   3.553 -0.1442  3.0360 -0.1574
 7921SOL    HW235226   2.716   3.606   3.421  2.0893 -1.3511 -1.6654
 7922SOL     OW35227   0.197   3.617   8.523  0.2421  0.0980 -0.3386
 7922SOL    HW135228   0.147   3.698   8.529 -0.6031 -0.3112 -1.9047
 7922SOL    HW235229   0.132   3.575   8.467 -2.3821  2.6939  0.7406
 7923SOL     OW35230   3.899   3.237   6.458  0.2488 -0.3630  0.3527
 7923SOL    HW135231   3.948   3.218   6.378  0.0339 -1.9545  0.5929
 7923SOL    HW235232   3.866   3.148   6.471  0.0448 -0.3468 -0.0645
 7924SOL     OW35233   0.167   1.733   3.366  0.5748  0.2805 -0.0124
 7924SOL    HW135234   0.165   1.652   3.314 -0.1054  1.0644 -1.1854
 7924SOL    HW235235   0.246   1.717   3.419 -0.7611 -0.8313  1.6603
 7925SOL     OW35236   2.328   0.746   7.496  0.1422 -0.0089 -0.8851
 7925SOL    HW135237   2.234   0.729   7.487  0.1488  0.8241 -2.5477
 7925SOL    HW235238   2.339   0.756   7.590 -1.8033  2.2426 -0.8795
 7926SOL     OW35239   4.484   1.465   6.407 -0.0199  0.4093  0.0475
 7926SOL    HW135240   4.479   1.417   6.489  1.2786 -1.2402 -0.8441
 7926SOL    HW235241   4.421   1.536   6.422  1.3439  1.1221  2.3671
 7927SOL     OW35242   3.143   4.457   2.805 -0.0898  0.0707 -0.6079
 7927SOL    HW135243   3.111   4.472   2.716  2.6398 -0.3534 -1.6574
 7927SOL    HW235244   3.229   4.415   2.799  0.7367  1.6839 -0.0281
 7928SOL     OW35245   2.509   4.513  12.044 -0.0672  0.5895  0.6157
 7928SOL    HW135246   2.476   4.513  12.134 -2.6645  0.2710 -0.3094
 7928SOL    HW235247   2.481   4.595  12.003 -0.2875  0.0948 -0.2362
 7929SOL     OW35248   0.208   4.356   5.950 -0.0440  0.2031  0.1799
 7929SOL    HW135249   0.126   4.367   5.903 -0.5522 -1.3243  0.6942
 7929SOL    HW235250   0.181   4.289   6.013  2.1219  1.4866  2.4739
 7930SOL     OW35251   1.148   0.614   7.804  0.2247  0.0506  0.1986
 7930SOL    HW135252   1.073   0.573   7.762 -0.9594  1.5259  0.8792
 7930SOL    HW235253   1.210   0.648   7.739 -0.9486  2.1383  0.1611
 7931SOL     OW35254   3.987   3.710   4.703 -0.2999  0.1839 -0.2419
 7931SOL    HW135255   4.013   3.618   4.710 -0.5628  0.0655 -0.9162
 7931SOL    HW235256   3.895   3.702   4.679 -0.4121  0.7466 -0.0111
 7932SOL     OW35257   2.871   4.719   4.341 -0.5366  0.1568  0.4296
 7932SOL    HW135258   2.925   0.020   4.416 -1.5176 -0.3200  1.2940
 7932SOL    HW235259   2.796   0.052   4.361 -0.4896  0.9943 -1.7577
 7933SOL     OW35260   1.920   2.291   9.184  0.0130 -0.2134 -0.0238
 7933SOL    HW135261   2.000   2.241   9.168  0.4330  0.3337  0.3584
 7933SOL    HW235262   1.963   2.367   9.223  1.3086 -1.0851  0.2166
 7934SOL     OW35263   3.501   0.958   3.309  0.0327  0.1260  0.2853
 7934SOL    HW135264   3.582   0.918   3.277  0.7042 -0.6760  2.9762
 7934SOL    HW235265   3.524   1.045   3.340  0.7731  0.1679 -0.3821
 7935SOL     OW35266   1.727   2.081   2.170 -0.4237 -0.6751 -0.1185
 7935SOL    HW135267   1.809   2.062   2.216  0.4016 -0.2100 -1.3815
 7935SOL    HW235268   1.674   2.060   2.247  1.8790 -1.7200  1.1970
 7936SOL     OW35269   4.345   3.277   3.833  0.4945 -0.8244  0.1605
 7936SOL    HW135270   4.420   3.269   3.891  2.2428 -0.1142 -2.0290
 7936SOL    HW235271   4.287   3.338   3.879  3.0573  0.5062  1.5716
 7937SOL     OW35272   0.359   0.142   2.964  0.2404 -0.1831  0.0835
 7937SOL    HW135273   0.407   0.192   2.898 -0.0796  1.0315  0.7709
 7937SOL    HW235274   0.267   0.156   2.941  0.6747 -0.4819 -1.8301
 7938SOL     OW35275   2.320   2.230  17.551 -0.6701  0.4943  0.0005
 7938SOL    HW135276   2.257   2.301  17.564 -1.1219 -0.1601  1.4333
 7938SOL    HW235277   2.271   2.164  17.502  1.1362 -0.6503 -0.2826
 7939SOL     OW35278   4.722   2.394   0.391  0.4499  0.5231  0.2349
 7939SOL    HW135279   0.053   2.349   0.455  0.8682 -0.1775 -0.6167
 7939SOL    HW235280   4.631   2.372   0.413  1.1163 -2.6674 -0.2343
 7940SOL     OW35281   1.301   4.125   4.119 -0.3060  0.1362  0.0547
 7940SOL    HW135282   1.301   4.165   4.206 -1.7259  0.4475 -0.0932
 7940SOL    HW235283   1.329   4.194   4.059  1.4689  0.3880  1.1842
 7941SOL     OW35284   0.735   0.576  14.601  0.3879  0.5924  0.1952
 7941SOL    HW135285   0.716   0.482  14.604  0.2808  0.5647 -1.8075
 7941SOL    HW235286   0.707   0.598  14.513 -2.6007 -1.8134  0.5280
 7942SOL     OW35287   1.188   1.695   6.161 -0.0940  0.1222 -0.0443
 7942SOL    HW135288   1.121   1.671   6.097 -0.8327  0.5388  0.5811
 7942SOL    HW235289   1.234   1.614   6.184 -0.6939 -0.6659 -1.6243
 7943SOL     OW35290   3.160   3.336   6.951 -0.3903 -0.2934 -0.5118
 7943SOL    HW135291   3.193   3.260   6.998 -1.0400  0.6191  1.4430
 7943SOL    HW235292   3.236   3.395   6.960  0.6894 -1.9636  1.1719
 7944SOL     OW35293   0.771   4.483   7.773  0.2546 -0.2904  0.0105
 7944SOL    HW135294   0.679   4.482   7.746 -0.2418 -2.0775  1.7959
 7944SOL    HW235295   0.763   4.482   7.869 -0.3028 -0.2396 -0.0323
 7945SOL     OW35296   4.508   0.297   5.179 -0.1552 -0.7085 -0.3237
 7945SOL    HW135297   4.599   0.319   5.199  0.2906 -1.2420 -1.8081
 7945SOL    HW235298   4.491   0.355   5.105  1.5303  2.0251  1.4322
 7946SOL     OW35299   4.648   1.840   8.801 -0.3032  0.6692  0.8079
 7946SOL    HW135300   4.699   1.816   8.878  1.2098 -0.3924 -0.5218
 7946SOL    HW235301   4.556   1.814   8.813  0.2608 -1.5222  0.3304
 7947SOL     OW35302   3.424   4.071  14.001 -0.1930 -0.2517 -0.1041
 7947SOL    HW135303   3.364   4.104  14.067  0.8064  1.8965 -0.2946
 7947SOL    HW235304   3.474   4.014  14.059 -1.9311 -0.6957  0.9623
 7948SOL     OW35305   1.845   2.079  11.788 -0.9349 -0.1335  1.0000
 7948SOL    HW135306   1.902   2.004  11.772  0.8715  1.0217  1.9876
 7948SOL    HW235307   1.881   2.100  11.874 -0.9063  2.5191  0.3378
 7949SOL     OW35308   4.210   1.797   8.247 -0.4245 -0.4756  0.1129
 7949SOL    HW135309   4.255   1.805   8.163 -1.5979  0.9463 -0.3963
 7949SOL    HW235310   4.272   1.835   8.309 -0.2301  0.6570 -0.7710
 7950SOL     OW35311   3.807   1.363  11.328  0.4753  0.0116 -0.1462
 7950SOL    HW135312   3.844   1.313  11.255  0.3113  0.3016 -0.4306
 7950SOL    HW235313   3.841   1.450  11.307 -1.7741  0.8706 -0.2607
 7951SOL     OW35314   2.564   3.440   3.769 -0.0893  0.2677 -0.3290
 7951SOL    HW135315   2.541   3.528   3.739 -0.3608  0.3510  0.1243
 7951SOL    HW235316   2.492   3.388   3.733  0.9265 -1.5676  0.3152
 7952SOL     OW35317   4.101   1.183  13.928  0.0107 -0.4994 -0.9137
 7952SOL    HW135318   4.010   1.174  13.901 -0.3625  3.1877 -0.8805
 7952SOL    HW235319   4.108   1.274  13.956 -0.6537  0.0964 -2.6954
 7953SOL     OW35320   2.782   3.253   6.789  0.1764  0.5224  0.2236
 7953SOL    HW135321   2.855   3.295   6.834  1.3447 -1.7799  0.4988
 7953SOL    HW235322   2.702   3.292   6.823 -0.8631 -1.0325 -0.4186
 7954SOL     OW35323   0.893   0.111   9.973 -0.4975  0.2756  0.1719
 7954SOL    HW135324   0.926   0.116  10.063 -1.6229 -0.5031  0.6307
 7954SOL    HW235325   0.976   0.088   9.933  0.1977  0.3237  1.6150
 7955SOL     OW35326   1.834   4.640   4.120 -0.0167 -0.3029  1.3434
 7955SOL    HW135327   1.787   4.689   4.188 -2.3200 -0.9591  0.2322
 7955SOL    HW235328   1.772   4.643   4.047 -0.2963 -0.5667  1.5708
 7956SOL     OW35329   1.613   3.988  11.174  0.1019 -0.0444 -0.3643
 7956SOL    HW135330   1.662   4.047  11.232 -0.9079  0.3736  0.0601
 7956SOL    HW235331   1.688   3.969  11.117 -0.1515  0.2015 -0.7790
 7957SOL     OW35332   3.113   2.416   6.794 -0.7897  0.3081  0.4625
 7957SOL    HW135333   3.091   2.327   6.765 -0.1246 -0.0728  1.1185
 7957SOL    HW235334   3.209   2.409   6.790 -0.7895  1.6890 -1.7355
 7958SOL     OW35335   3.017   2.655   8.550 -0.3316  0.2310 -0.2329
 7958SOL    HW135336   3.070   2.728   8.582  1.3156 -0.9053 -0.3808
 7958SOL    HW235337   3.064   2.584   8.594 -1.3259 -1.0462 -1.2471
 7959SOL     OW35338   4.017   4.580   7.614 -0.3360  0.0650 -0.0753
 7959SOL    HW135339   4.048   4.597   7.524 -1.0782 -0.9745 -0.5252
 7959SOL    HW235340   4.021   4.485   7.623 -0.7809 -0.1603 -2.1950
 7960SOL     OW35341   3.977   0.487   8.334  0.7109  0.0661 -1.3640
 7960SOL    HW135342   4.037   0.459   8.264 -0.4211 -2.7907 -1.1731
 7960SOL    HW235343   3.939   0.414   8.382 -1.8300  0.3384 -2.9384
 7961SOL     OW35344   3.332   0.106   7.575  0.0185 -0.0401  0.1146
 7961SOL    HW135345   3.250   0.151   7.555  0.3915 -1.1023 -3.7795
 7961SOL    HW235346   3.374   0.169   7.634 -0.1130  1.1371 -1.0583
 7962SOL     OW35347   1.777   0.840  12.007 -0.4358 -0.4572 -0.3215
 7962SOL    HW135348   1.742   0.876  11.925 -1.7492 -1.4948 -0.2246
 7962SOL    HW235349   1.752   0.912  12.066 -2.1952  0.0090 -1.6175
 7963SOL     OW35350   0.357   4.230   6.824  0.2549  0.6264 -0.3913
 7963SOL    HW135351   0.440   4.211   6.780  0.0220 -0.8351 -0.2175
 7963SOL    HW235352   0.391   4.268   6.905 -0.5060  3.4253 -1.3993
 7964SOL     OW35353   1.586   3.416   2.710  0.0250  0.2799 -0.0689
 7964SOL    HW135354   1.547   3.461   2.784  0.5454  1.1303 -0.3179
 7964SOL    HW235355   1.658   3.364   2.747  0.8084 -0.1274 -2.1342
 7965SOL     OW35356   0.639   2.593   0.984 -0.2460 -0.0970 -0.1622
 7965SOL    HW135357   0.660   2.660   1.049 -0.1311 -1.7679  1.5267
 7965SOL    HW235358   0.555   2.563   1.017  1.1569 -0.7245  2.8893
 7966SOL     OW35359   0.593   0.695  17.617 -0.7912  0.4631 -0.2473
 7966SOL    HW135360   0.567   0.787  17.609 -1.2950  0.4831  1.7365
 7966SOL    HW235361   0.551   0.663  17.697  2.1595 -0.8616  0.7769
 7967SOL     OW35362   3.345   1.991  14.781 -0.3618 -0.0018  0.3825
 7967SOL    HW135363   3.380   1.910  14.744  1.2176  1.8134 -2.1056
 7967SOL    HW235364   3.267   2.001  14.726  0.8437  3.8168 -0.5705
 7968SOL     OW35365   4.160   0.809   5.951  0.7563 -0.3626 -0.3969
 7968SOL    HW135366   4.078   0.777   5.914 -0.3468  0.4697  1.3380
 7968SOL    HW235367   4.144   0.903   5.953 -1.6987 -0.7530 -1.9241
 7969SOL     OW35368   3.002   4.472   4.278 -0.0668 -0.2524 -0.0908
 7969SOL    HW135369   3.079   4.439   4.325  1.3798  0.3768 -1.9857
 7969SOL    HW235370   2.977   4.554   4.320  0.5882  0.0359 -0.2603
 7970SOL     OW35371   3.912   1.368   2.458 -0.3914 -0.6928  0.4610
 7970SOL    HW135372   3.821   1.379   2.432  0.1355  1.9102 -0.3296
 7970SOL    HW235373   3.956   1.329   2.383 -1.0046  1.1887 -0.8815
 7971SOL     OW35374   2.652   3.178   5.329 -0.2644  0.2727 -0.1551
 7971SOL    HW135375   2.667   3.262   5.371 -0.8637  0.0735  0.4511
 7971SOL    HW235376   2.659   3.125   5.408  0.1097  1.1907  0.4216
 7972SOL     OW35377   4.291   4.389   7.708  0.3989 -0.3722 -0.9179
 7972SOL    HW135378   4.279   4.468   7.655 -1.3473 -0.2184 -0.3011
 7972SOL    HW235379   4.371   4.349   7.676  0.8729 -0.0870 -0.0876
 7973SOL     OW35380   1.173   2.960   5.298 -0.1303  0.1437 -0.2098
 7973SOL    HW135381   1.210   3.048   5.296 -0.5203  0.3367  0.9680
 7973SOL    HW235382   1.201   2.923   5.215 -3.7351 -2.7028 -0.1657
 7974SOL     OW35383   2.834   2.761  11.893  0.5169 -0.6575 -0.4650
 7974SOL    HW135384   2.894   2.696  11.929 -0.0763 -2.6715 -3.1108
 7974SOL    HW235385   2.825   2.733  11.802  0.9754 -1.3947 -0.2800
 7975SOL     OW35386   4.463   2.087  12.139  0.2306 -0.0110  0.3389
 7975SOL    HW135387   4.525   2.036  12.192  0.0620  0.6100  1.1375
 7975SOL    HW235388   4.510   2.170  12.136  1.9117 -1.0791 -3.1754
 7976SOL     OW35389   1.395   3.427  10.034 -0.2316  1.0997  0.2212
 7976SOL    HW135390   1.484   3.392  10.035 -0.6421  0.0677  0.8074
 7976SOL    HW235391   1.387   3.462  10.123  1.5446  1.7611  0.1144
 7977SOL     OW35392   3.077   0.896   5.601  0.1255 -0.0395  0.7597
 7977SOL    HW135393   3.166   0.862   5.611  0.5730  1.4287  1.7619
 7977SOL    HW235394   3.082   0.980   5.555  3.0895 -0.2057  0.7500
 7978SOL     OW35395   0.389   1.370   7.637  0.1702 -0.0125  0.1501
 7978SOL    HW135396   0.371   1.350   7.545 -2.2648 -2.5113  1.1774
 7978SOL    HW235397   0.370   1.463   7.651 -0.3415  0.0740 -1.0847
 7979SOL     OW35398   3.461   2.340   5.279  0.6907  0.4794 -0.7224
 7979SOL    HW135399   3.444   2.248   5.300 -0.1944  0.7128 -0.4201
 7979SOL    HW235400   3.411   2.387   5.346 -0.5747 -0.3315 -1.0930
 7980SOL     OW35401   1.110   0.042   9.853  0.4932 -0.1231 -0.0680
 7980SOL    HW135402   1.108   4.671   9.845 -2.5909  0.2000 -2.6955
 7980SOL    HW235403   1.202   0.063   9.873  1.0101 -1.1661 -1.3828
 7981SOL     OW35404   0.588   0.572   2.457 -0.0430 -0.1007  0.4320
 7981SOL    HW135405   0.521   0.635   2.428 -1.4793 -0.8166  2.1956
 7981SOL    HW235406   0.664   0.612   2.414 -0.1485 -0.2907  0.0738
 7982SOL     OW35407   2.963   3.744   4.830  0.6817 -0.4345  0.4052
 7982SOL    HW135408   2.906   3.812   4.795  1.8170  0.3725  0.1357
 7982SOL    HW235409   3.045   3.782   4.799 -0.1897  3.7840  3.2329
 7983SOL     OW35410   0.416   0.416  14.398 -0.4171  0.0772  0.0788
 7983SOL    HW135411   0.371   0.466  14.329  0.4443  1.3237  0.4188
 7983SOL    HW235412   0.354   0.347  14.423 -0.1081  0.2513  1.3083
 7984SOL     OW35413   2.299   3.590   5.238  0.3542  0.0700 -0.2048
 7984SOL    HW135414   2.270   3.527   5.304 -2.2646  1.2714 -0.2029
 7984SOL    HW235415   2.262   3.549   5.160  0.2196  1.6107 -0.9520
 7985SOL     OW35416   2.933   0.568   4.899  0.1723 -0.4762 -0.3641
 7985SOL    HW135417   2.951   0.558   4.992 -0.9648 -0.7654 -0.1722
 7985SOL    HW235418   2.895   0.656   4.911  0.8891  0.0754 -2.1848
 7986SOL     OW35419   2.904   4.321   8.108  0.3885  0.1100  0.3042
 7986SOL    HW135420   2.827   4.370   8.081  0.5423  0.7082  0.9569
 7986SOL    HW235421   2.907   4.264   8.031  0.4897 -0.3462  0.6452
 7987SOL     OW35422   0.759   3.037  10.339  0.2132 -0.2878  0.1016
 7987SOL    HW135423   0.707   2.958  10.351 -0.4158  0.0265 -0.5224
 7987SOL    HW235424   0.843   3.009  10.376  0.4567  0.4852  0.1358
 7988SOL     OW35425   3.500   3.297  11.241 -0.1182 -0.8666 -0.2134
 7988SOL    HW135426   3.472   3.320  11.153 -1.4872 -1.4947  0.0495
 7988SOL    HW235427   3.508   3.201  11.241 -1.4555 -0.9884 -1.1566
 7989SOL     OW35428   0.758   3.478   2.619 -0.0045 -0.3793  0.2329
 7989SOL    HW135429   0.684   3.456   2.563 -0.4536 -1.6108  1.3082
 7989SOL    HW235430   0.812   3.400   2.632  1.5328  0.4437 -1.2475
 7990SOL     OW35431   0.601   3.629   4.604 -0.1225 -0.2769  0.0544
 7990SOL    HW135432   0.650   3.599   4.527  2.9439 -0.5141  2.1268
 7990SOL    HW235433   0.543   3.555   4.621 -1.2707  0.1873 -1.8639
 7991SOL     OW35434   3.118   1.496   7.823 -0.2210  0.0154  0.0897
 7991SOL    HW135435   3.117   1.481   7.729  0.1404  1.8479 -0.2059
 7991SOL    HW235436   3.038   1.542   7.845 -1.7423 -3.5359  1.9976
 7992SOL     OW35437   3.399   3.469  13.994  0.2987 -0.3319  0.0830
 7992SOL    HW135438   3.347   3.414  13.936 -1.7728 -1.6673  3.1880
 7992SOL    HW235439   3.361   3.554  13.972  1.5356 -0.3174 -2.0188
 7993SOL     OW35440   4.566   3.957  10.170  0.5682 -0.4235 -0.1526
 7993SOL    HW135441   4.619   4.021  10.122  0.0331 -0.1528 -0.3797
 7993SOL    HW235442   4.627   3.907  10.224 -2.2870 -0.6231  2.8994
 7994SOL     OW35443   1.834   4.105  15.007 -0.2198  0.2193  0.1848
 7994SOL    HW135444   1.894   4.118  14.933 -0.9056 -0.4906 -0.4934
 7994SOL    HW235445   1.788   4.023  14.994  1.3982 -0.2910 -2.2747
 7995SOL     OW35446   2.274   4.124   1.200  0.1869  0.1243 -0.8950
 7995SOL    HW135447   2.238   4.203   1.240 -1.5544 -0.8270 -0.5460
 7995SOL    HW235448   2.194   4.071   1.191  0.4905 -0.5491  0.3267
 7996SOL     OW35449   2.286   3.266   2.723 -0.0537  0.5887 -0.1865
 7996SOL    HW135450   2.319   3.349   2.758  2.3334  0.0276 -1.1346
 7996SOL    HW235451   2.284   3.286   2.629  0.2388 -0.1276 -0.3454
 7997SOL     OW35452   3.344   1.841  10.544 -0.4794 -0.1169  0.7311
 7997SOL    HW135453   3.249   1.849  10.530 -0.4024  1.6317  1.2233
 7997SOL    HW235454   3.382   1.926  10.519 -2.3017  0.9470  1.5372
 7998SOL     OW35455   0.857   1.489   7.348  0.1835  0.2485 -0.1063
 7998SOL    HW135456   0.818   1.574   7.369  1.2601  0.7129 -0.0184
 7998SOL    HW235457   0.887   1.475   7.438  1.4724  0.0128 -0.5717
 7999SOL     OW35458   1.393   0.819   3.760 -0.3799  0.7613 -0.2352
 7999SOL    HW135459   1.298   0.820   3.765 -0.4180 -1.1702 -0.4938
 7999SOL    HW235460   1.406   0.870   3.680 -1.0071 -0.1371 -0.9154
 8000SOL     OW35461   3.362   0.448   9.836 -0.2514 -0.0759  0.3008
 8000SOL    HW135462   3.355   0.369   9.782  0.2160  0.8178 -1.0828
 8000SOL    HW235463   3.269   0.470   9.840 -1.0128 -2.9334 -1.5027
 8001SOL     OW35464   2.488   4.062   1.364 -0.2035 -0.4162  0.1526
 8001SOL    HW135465   2.450   3.978   1.389 -0.2429 -0.4859 -0.1389
 8001SOL    HW235466   2.419   4.093   1.305  0.1565 -0.8335 -0.4814
 8002SOL     OW35467   1.999   4.382  10.314  0.5694  0.5057 -0.1520
 8002SOL    HW135468   1.949   4.443  10.368 -1.0842 -0.9042 -0.0753
 8002SOL    HW235469   1.978   4.408  10.225 -0.9510  1.2350  0.4126
 8003SOL     OW35470   3.723   2.698  15.360  0.4088 -0.3760  0.1202
 8003SOL    HW135471   3.729   2.758  15.434  1.1525 -0.0429 -0.2047
 8003SOL    HW235472   3.639   2.653  15.366  1.4353 -2.6477 -2.3357
 8004SOL     OW35473   0.444   2.897   6.528  0.4459  0.1353  0.3841
 8004SOL    HW135474   0.502   2.891   6.452 -1.6525 -0.4496 -1.1642
 8004SOL    HW235475   0.497   2.903   6.607  1.5801  0.4701 -0.4133
 8005SOL     OW35476   2.063   2.680   0.204 -0.5000  0.3947  0.1117
 8005SOL    HW135477   2.060   2.729   0.122  1.8920 -0.7932 -0.6809
 8005SOL    HW235478   2.080   2.591   0.173  1.2286  0.6702  0.2227
 8006SOL     OW35479   3.944   2.494   8.267 -0.5464  0.4318 -0.1054
 8006SOL    HW135480   4.006   2.557   8.303 -0.6270 -0.3636  1.4176
 8006SOL    HW235481   3.946   2.413   8.318 -2.2385  0.4120 -0.0761
 8007SOL     OW35482   0.626   2.884   0.586 -0.1548  0.0301  0.5989
 8007SOL    HW135483   0.571   2.880   0.665 -1.4056  1.0341 -0.2236
 8007SOL    HW235484   0.596   2.967   0.549 -1.3063 -0.3359  0.7048
 8008SOL     OW35485   3.473   1.602   7.665 -1.0245  0.4133  0.0021
 8008SOL    HW135486   3.432   1.663   7.726 -2.4799  0.9349 -1.4759
 8008SOL    HW235487   3.517   1.658   7.600  0.9608 -0.9897  0.1296
 8009SOL     OW35488   3.112   0.665  10.292 -0.5553 -0.0561 -0.8444
 8009SOL    HW135489   3.157   0.581  10.277 -0.9585 -0.5063  0.4045
 8009SOL    HW235490   3.084   0.668  10.383  1.2138  0.2121 -0.2981
 8010SOL     OW35491   3.910   3.019   5.711  0.3337  0.5699  0.1381
 8010SOL    HW135492   3.967   2.976   5.775 -1.4658 -0.4197  1.0811
 8010SOL    HW235493   3.916   3.105   5.754 -0.9231  1.2710 -1.0763
 8011SOL     OW35494   3.363   2.189  11.784 -0.1458 -0.5113 -0.2987
 8011SOL    HW135495   3.272   2.215  11.772 -0.4848 -1.5395  0.0142
 8011SOL    HW235496   3.369   2.166  11.877 -0.0571  0.5441 -0.0474
 8012SOL     OW35497   2.516   1.943   9.110  0.6743 -0.0415  0.5749
 8012SOL    HW135498   2.564   1.942   9.027  2.1072  0.0133  1.3980
 8012SOL    HW235499   2.593   1.952   9.167  1.1655  0.3087 -0.1473
 8013SOL     OW35500   2.632   2.610  11.170  0.1335  0.0894 -0.3413
 8013SOL    HW135501   2.677   2.663  11.104 -0.1287  1.4293  0.5523
 8013SOL    HW235502   2.540   2.611  11.142  1.0197 -1.3078 -3.2495
 8014SOL     OW35503   2.053   1.491  14.489 -0.1395  0.2192 -0.1915
 8014SOL    HW135504   2.046   1.583  14.518 -3.6531  0.6803 -2.4831
 8014SOL    HW235505   2.074   1.451  14.573 -0.3718  0.0967 -0.1927
 8015SOL     OW35506   1.021   4.417   2.126 -0.1408  0.0508  0.6751
 8015SOL    HW135507   1.084   4.378   2.066 -1.0177  1.5812 -1.2433
 8015SOL    HW235508   0.950   4.420   2.062  1.0203  0.0945 -0.5998
 8016SOL     OW35509   0.347   1.081  14.770 -0.1115  0.4695 -0.6648
 8016SOL    HW135510   0.291   1.159  14.773  0.0814  0.5112  1.3663
 8016SOL    HW235511   0.308   1.021  14.706 -1.4251  0.5254  0.0980
 8017SOL     OW35512   0.791   0.369   5.763 -1.1283  0.4678  0.2037
 8017SOL    HW135513   0.698   0.352   5.779 -1.1661 -0.8320 -1.4012
 8017SOL    HW235514   0.823   0.335   5.846  0.2925  2.2816  0.3958
 8018SOL     OW35515   1.645   2.059   4.225  0.0479  0.1993 -0.1471
 8018SOL    HW135516   1.660   1.965   4.216  1.0544  0.4546 -1.1910
 8018SOL    HW235517   1.723   2.092   4.180  0.7525 -0.8221  0.3319
 8019SOL     OW35518   1.245   1.938   6.024 -0.1188 -0.6228  0.3715
 8019SOL    HW135519   1.212   2.011   6.075 -0.2866  0.6747 -1.5891
 8019SOL    HW235520   1.245   1.872   6.094  3.5543  0.5746  1.4881
 8020SOL     OW35521   3.094   1.902   3.116  0.0438  0.1833 -0.8567
 8020SOL    HW135522   3.138   1.952   3.047  2.2883  1.7923  1.7338
 8020SOL    HW235523   3.139   1.817   3.110  1.9303  1.0038  1.6194
 8021SOL     OW35524   2.103   3.350   3.766  0.3555  0.8035 -0.4431
 8021SOL    HW135525   2.078   3.309   3.683 -0.7958 -0.7749  0.6750
 8021SOL    HW235526   2.025   3.388   3.808  1.8781  1.6040  1.6385
 8022SOL     OW35527   2.000   4.143   5.826  0.3551 -0.3456 -0.2997
 8022SOL    HW135528   1.942   4.175   5.896 -0.4569  0.8312 -1.5219
 8022SOL    HW235529   1.957   4.064   5.795  1.0737  0.2720 -2.8248
 8023SOL     OW35530   3.414   0.269   7.232  0.2526 -0.4591 -0.3704
 8023SOL    HW135531   3.481   0.205   7.208 -0.7468 -1.4866 -0.4152
 8023SOL    HW235532   3.446   0.338   7.173 -1.8229  1.4922  0.7737
 8024SOL     OW35533   2.545   2.551   1.478  0.4530  0.3637 -0.2986
 8024SOL    HW135534   2.536   2.617   1.409  0.9371  0.4026 -0.3228
 8024SOL    HW235535   2.623   2.500   1.457 -1.4129 -1.2280 -3.3729
 8025SOL     OW35536   2.034   2.798  10.314  0.4723  0.4679 -0.3722
 8025SOL    HW135537   2.020   2.888  10.344 -0.8232  0.0517  0.2728
 8025SOL    HW235538   2.118   2.782  10.358 -0.4138 -1.1948  0.6981
 8026SOL     OW35539   3.016   2.293   5.229  0.1411 -0.2126  0.3303
 8026SOL    HW135540   2.961   2.332   5.297  1.2774  1.6988  0.1412
 8026SOL    HW235541   2.970   2.210   5.216  1.9783 -1.4063  1.3214
 8027SOL     OW35542   3.276   0.721  17.496  0.9607  0.3977  0.2397
 8027SOL    HW135543   3.223   0.715  17.576  0.1571  2.6552 -0.1340
 8027SOL    HW235544   3.350   0.774  17.525  0.1202  2.2370 -0.9756
 8028SOL     OW35545   2.031   3.854   6.431  0.5063 -0.0107  0.0791
 8028SOL    HW135546   2.070   3.938   6.408  2.5345 -1.0621 -0.3347
 8028SOL    HW235547   2.075   3.828   6.513 -0.5503 -0.7571  0.4044
 8029SOL     OW35548   2.583   0.680   8.429  0.0278  0.2838 -0.2338
 8029SOL    HW135549   2.594   0.709   8.338 -2.3216 -0.4550 -0.7534
 8029SOL    HW235550   2.676   0.667   8.450  0.2609 -0.6539 -1.8116
 8030SOL     OW35551   1.455   3.576  10.269  0.4345  0.1174  0.0822
 8030SOL    HW135552   1.523   3.625  10.314  0.1533  0.4621  0.1328
 8030SOL    HW235553   1.456   3.484  10.296  1.1099 -0.6323 -2.4394
 8031SOL     OW35554   0.937   2.539   7.161  0.0362  0.1408 -0.2617
 8031SOL    HW135555   0.848   2.504   7.163 -0.1051  0.4581 -1.1157
 8031SOL    HW235556   0.937   2.594   7.083 -1.5243 -2.0806 -1.8023
 8032SOL     OW35557   4.366   4.279   6.609 -0.3679  0.2441 -0.2229
 8032SOL    HW135558   4.386   4.303   6.519 -0.7946  1.1222 -0.0750
 8032SOL    HW235559   4.435   4.317   6.663 -1.9856  2.4286  0.3061
 8033SOL     OW35560   1.559   1.416   8.483  0.3153 -0.0525 -0.1004
 8033SOL    HW135561   1.494   1.478   8.515 -0.9355 -0.8087 -1.2018
 8033SOL    HW235562   1.601   1.400   8.568 -1.0045 -2.9592 -0.0311
 8034SOL     OW35563   2.738   0.998   7.194 -0.4180 -0.3332 -0.2469
 8034SOL    HW135564   2.677   0.983   7.266 -0.6446  2.1149  0.0571
 8034SOL    HW235565   2.816   1.033   7.238 -0.2727 -1.8111  0.7077
 8035SOL     OW35566   2.907   3.135  11.102  0.7471 -0.0827  0.1156
 8035SOL    HW135567   2.868   3.048  11.115 -2.7580  1.2481 -1.4866
 8035SOL    HW235568   2.907   3.142  11.006 -0.9859  1.9490  0.2636
 8036SOL     OW35569   3.213   4.113   8.189 -1.1569  0.1620 -0.4285
 8036SOL    HW135570   3.218   4.191   8.134  1.7833 -0.4727 -1.0618
 8036SOL    HW235571   3.176   4.050   8.127 -1.6948  0.2935 -0.2453
 8037SOL     OW35572   1.546   3.880  16.436  0.6041 -0.2740 -0.2103
 8037SOL    HW135573   1.469   3.927  16.470  0.7006  0.8652 -1.5622
 8037SOL    HW235574   1.522   3.787  16.437  2.0007 -0.6298 -0.4633
 8038SOL     OW35575   1.235   1.434  12.750  0.4753  0.3602  0.1345
 8038SOL    HW135576   1.161   1.470  12.799 -0.4262 -1.6618  0.2589
 8038SOL    HW235577   1.218   1.463  12.661  1.6289  0.2941 -0.1045
 8039SOL     OW35578   3.096   4.244   6.647 -0.3086 -0.4186  0.5985
 8039SOL    HW135579   3.110   4.248   6.742  3.4143  0.8330 -0.0104
 8039SOL    HW235580   3.125   4.155   6.628 -2.0183 -0.7319 -0.6226
 8040SOL     OW35581   1.051   2.633   2.655 -0.3709  0.0326  0.2246
 8040SOL    HW135582   1.031   2.542   2.632 -0.2303  0.4957 -1.7639
 8040SOL    HW235583   1.141   2.628   2.688  0.0756  0.2466 -0.9286
 8041SOL     OW35584   0.838   1.556   8.000 -0.0638 -0.2534 -0.2746
 8041SOL    HW135585   0.798   1.634   8.039 -1.3742 -0.9255 -0.2847
 8041SOL    HW235586   0.851   1.591   7.912  2.7128  0.7065  0.5015
 8042SOL     OW35587   1.919   0.641  11.211  0.5755 -0.2864 -0.0270
 8042SOL    HW135588   1.948   0.552  11.229  0.2787 -0.3158  0.2993
 8042SOL    HW235589   1.940   0.639  11.117  1.0704 -3.5333  0.1729
 8043SOL     OW35590   3.560   3.986  16.305 -0.4598  0.0043 -0.0332
 8043SOL    HW135591   3.488   4.011  16.247 -1.1584 -0.8696  0.4443
 8043SOL    HW235592   3.606   3.918  16.257  1.2950  1.1981 -0.0613
 8044SOL     OW35593   2.399   2.038   7.005  0.1044  0.1761 -0.0689
 8044SOL    HW135594   2.438   1.953   7.026  2.8278  1.3882 -0.2175
 8044SOL    HW235595   2.370   2.069   7.091 -1.6331  0.4474 -0.7611
 8045SOL     OW35596   4.598   2.109   6.772 -0.0557  0.4827  0.0663
 8045SOL    HW135597   4.513   2.152   6.778 -0.6180 -0.3156 -2.1262
 8045SOL    HW235598   4.624   2.103   6.864  0.0670  0.4044  0.0264
 8046SOL     OW35599   2.652   2.142   6.241 -0.1550  0.0202 -0.2761
 8046SOL    HW135600   2.655   2.233   6.211  0.8725 -0.4492 -1.6038
 8046SOL    HW235601   2.746   2.130   6.253  0.0724  0.4312 -1.5719
 8047SOL     OW35602   3.479   2.994   2.082 -0.7353 -0.1547  0.3783
 8047SOL    HW135603   3.384   2.986   2.080 -0.9802  2.6206  1.0124
 8047SOL    HW235604   3.486   3.087   2.103  1.9771 -0.4951  1.0502
 8048SOL     OW35605   3.788   1.430   4.054 -0.1628  0.0765  0.1665
 8048SOL    HW135606   3.711   1.393   4.012  0.0071 -0.1486  0.0500
 8048SOL    HW235607   3.803   1.496   3.987 -2.0820  0.0801 -0.2310
 8049SOL     OW35608   2.019   0.363   1.756  0.3962 -0.0043 -0.2122
 8049SOL    HW135609   2.046   0.318   1.836  1.3039  0.7889 -0.0656
 8049SOL    HW235610   1.986   0.285   1.711 -2.3370  0.4650  1.0167
 8050SOL     OW35611   1.251   4.522   2.262 -0.1325  0.5385 -0.0916
 8050SOL    HW135612   1.183   4.455   2.250 -0.1417  0.2665  1.5184
 8050SOL    HW235613   1.225   4.588   2.198  0.3403  0.0982 -0.7466
 8051SOL     OW35614   2.158   1.078   7.108 -0.5165  0.0860 -0.0217
 8051SOL    HW135615   2.125   1.103   7.195 -0.1381 -1.5546  0.5913
 8051SOL    HW235616   2.079   1.092   7.056 -0.1430 -2.5871 -1.2960
 8052SOL     OW35617   2.173   3.160   9.439 -0.0220  0.1674  0.5868
 8052SOL    HW135618   2.263   3.147   9.408 -0.0495 -0.5155  0.8057
 8052SOL    HW235619   2.118   3.094   9.398  0.6764 -0.7288  1.0961
 8053SOL     OW35620   4.483   3.707   4.881 -0.1803 -0.3297  0.1203
 8053SOL    HW135621   4.573   3.728   4.904  0.6819 -0.0949 -3.3923
 8053SOL    HW235622   4.464   3.657   4.961 -1.6555 -1.2658 -0.8127
 8054SOL     OW35623   4.508   0.492   7.717 -0.3680  0.1938 -0.1894
 8054SOL    HW135624   4.523   0.513   7.625 -0.2728  1.9288  0.2248
 8054SOL    HW235625   4.421   0.530   7.733 -1.6661 -1.9886 -2.1042
 8055SOL     OW35626   2.251   0.881   6.925 -0.2430 -0.4434 -0.1384
 8055SOL    HW135627   2.220   0.810   6.982 -0.6572 -1.1035 -1.1817
 8055SOL    HW235628   2.215   0.963   6.958  1.0051  1.1201 -2.6840
 8056SOL     OW35629   3.541   0.364  15.180  0.2333 -0.2604 -0.0972
 8056SOL    HW135630   3.521   0.271  15.191 -1.6941  0.3364  1.4018
 8056SOL    HW235631   3.485   0.391  15.107 -1.0694  0.8931  1.3233
 8057SOL     OW35632   3.490   2.297   4.273  0.1880  0.1474  0.0646
 8057SOL    HW135633   3.540   2.315   4.194  0.4713 -2.0213 -0.2380
 8057SOL    HW235634   3.552   2.327   4.340 -1.3469 -1.2403  2.1321
 8058SOL     OW35635   1.840   4.296   3.251 -0.4036  0.4331 -0.1718
 8058SOL    HW135636   1.832   4.201   3.259  0.8031  0.0647 -3.3796
 8058SOL    HW235637   1.822   4.320   3.159  3.0750  1.0337 -0.6794
 8059SOL     OW35638   3.126   2.256   8.966  0.5518  0.2235 -0.4913
 8059SOL    HW135639   3.201   2.271   8.908  0.6973  1.4133  0.0196
 8059SOL    HW235640   3.106   2.164   8.950 -0.7590  0.7681 -2.0069
 8060SOL     OW35641   0.626   3.214  14.804 -0.4146 -0.3322 -0.2938
 8060SOL    HW135642   0.697   3.226  14.868  0.0789  1.4170 -1.1665
 8060SOL    HW235643   0.560   3.169  14.857  0.3011 -1.2837 -0.2055
 8061SOL     OW35644   0.056   4.662  16.955  0.3931  0.2057  0.2257
 8061SOL    HW135645   0.135   4.647  17.007 -0.2551  1.2035  1.4873
 8061SOL    HW235646   0.085   4.630  16.870  1.4881 -1.1301  1.0997
 8062SOL     OW35647   0.160   0.574   7.314 -0.4976  0.7491 -0.1619
 8062SOL    HW135648   0.233   0.525   7.353  0.2439  1.2706 -0.9009
 8062SOL    HW235649   0.195   0.658   7.284  1.4090  0.4906  1.3579
 8063SOL     OW35650   2.818   0.692   9.181 -0.6042  0.1011 -0.3929
 8063SOL    HW135651   2.863   0.776   9.191 -0.1542 -0.0925 -0.7935
 8063SOL    HW235652   2.729   0.727   9.182 -1.2588 -1.5328 -1.2250
 8064SOL     OW35653   1.194   4.542  10.829 -0.0946  0.6340 -0.0991
 8064SOL    HW135654   1.140   4.611  10.869  0.2609  0.5747  0.4851
 8064SOL    HW235655   1.255   4.515  10.898 -0.0773 -0.7302 -0.6490
 8065SOL     OW35656   1.557   0.139   0.574 -0.1657  0.5347 -0.5990
 8065SOL    HW135657   1.607   0.060   0.595  1.7673  1.8167 -0.4428
 8065SOL    HW235658   1.561   0.189   0.656  0.9307 -1.7760  0.7651
 8066SOL     OW35659   2.178   2.090   9.900  0.1709 -0.2242  0.3277
 8066SOL    HW135660   2.203   2.101   9.992  2.9316  0.2472 -0.4813
 8066SOL    HW235661   2.209   2.000   9.885 -0.5976 -0.5241  0.5272
 8067SOL     OW35662   1.756   3.677   5.302  0.6713  0.0598  0.8790
 8067SOL    HW135663   1.746   3.758   5.251 -1.1919  0.1241  1.3377
 8067SOL    HW235664   1.849   3.688   5.320  0.8907 -1.8362  0.9160
 8068SOL     OW35665   3.324   4.445   6.896 -0.3343 -0.0570 -0.0282
 8068SOL    HW135666   3.399   4.476   6.846 -2.4963  0.6314 -2.8119
 8068SOL    HW235667   3.304   4.507   6.965  0.5163  1.6476 -1.3159
 8069SOL     OW35668   1.030   1.719   5.889  0.1239 -0.6134  0.2136
 8069SOL    HW135669   1.108   1.696   5.839 -0.5698  0.7455 -1.4779
 8069SOL    HW235670   0.955   1.705   5.833  0.8554  0.2634 -0.9736
 8070SOL     OW35671   1.390   2.157   6.716  0.0469  0.6536  0.3977
 8070SOL    HW135672   1.341   2.084   6.755  0.2021 -0.2819 -1.1657
 8070SOL    HW235673   1.316   2.214   6.695  0.3947  0.5698 -1.0698
 8071SOL     OW35674   0.390   0.007  12.858  1.0798  0.4898  0.1456
 8071SOL    HW135675   0.427   4.669  12.796 -0.0814  2.5220 -2.6166
 8071SOL    HW235676   0.299   4.706  12.874  0.9741  0.4577 -0.5043
 8072SOL     OW35677   4.197   0.564  14.039 -0.2766  0.8289  0.1182
 8072SOL    HW135678   4.245   0.627  14.092 -0.2854  1.0551 -0.1449
 8072SOL    HW235679   4.254   0.487  14.041  0.7066  1.5540 -0.1945
 8073SOL     OW35680   1.280   0.296   2.718 -0.1813 -0.0507 -0.3225
 8073SOL    HW135681   1.250   0.264   2.803  2.5459 -0.5069  0.4732
 8073SOL    HW235682   1.372   0.306   2.744  0.0366 -0.0641 -1.0767
 8074SOL     OW35683   2.829   3.379   7.468  0.5219 -0.7314 -0.3635
 8074SOL    HW135684   2.857   3.298   7.511 -0.4230 -1.2215 -0.6840
 8074SOL    HW235685   2.869   3.365   7.383  1.2232  1.7334 -0.4441
 8075SOL     OW35686   2.693   0.520  12.482 -0.5195 -0.0826 -0.0734
 8075SOL    HW135687   2.757   0.563  12.426  0.0222  0.2393  0.7875
 8075SOL    HW235688   2.726   0.535  12.571 -1.0154  1.6999 -0.1932
 8076SOL     OW35689   0.282   1.756   8.665  0.1925 -0.1246  0.6055
 8076SOL    HW135690   0.257   1.819   8.597 -0.4839  0.3495  1.2895
 8076SOL    HW235691   0.318   1.813   8.733 -1.8795  0.6259  1.0825
 8077SOL     OW35692   4.572   1.244   6.949  0.1738  0.3046 -0.1330
 8077SOL    HW135693   4.483   1.215   6.926  0.5595 -0.9084 -0.1299
 8077SOL    HW235694   4.578   1.210   7.038  0.5385 -2.2092 -1.1174
 8078SOL     OW35695   2.458   0.416   9.739 -0.1897  0.7536 -0.2197
 8078SOL    HW135696   2.503   0.452   9.815  0.2381 -1.1218  0.4078
 8078SOL    HW235697   2.476   0.323   9.754  0.4013  1.4458  3.2978
 8079SOL     OW35698   0.995   3.538   6.342  0.3097  0.0314 -0.5766
 8079SOL    HW135699   0.976   3.487   6.421 -2.5284  0.5107 -0.9674
 8079SOL    HW235700   1.044   3.606   6.390 -2.9880  1.4306  0.8181
 8080SOL     OW35701   0.517   1.240   7.850  0.2937 -0.3129  0.3754
 8080SOL    HW135702   0.477   1.265   7.767  1.0440 -1.1696 -0.2483
 8080SOL    HW235703   0.462   1.298   7.903  0.7338  1.9189 -1.5946
 8081SOL     OW35704   3.115   1.437   7.189 -0.1337 -0.4923  0.4967
 8081SOL    HW135705   3.135   1.387   7.268 -0.2877 -1.5783 -0.1508
 8081SOL    HW235706   3.105   1.371   7.120 -1.2186  1.0660 -0.8290
 8082SOL     OW35707   4.032   1.496   2.860  0.2658 -0.9409 -0.4347
 8082SOL    HW135708   4.076   1.431   2.914  0.7032  1.2933  1.8787
 8082SOL    HW235709   4.077   1.488   2.776 -0.2427 -0.3954 -0.7556
 8083SOL     OW35710   2.712   0.504   7.825 -0.6233  0.1487  0.0591
 8083SOL    HW135711   2.721   0.422   7.874 -0.7245 -1.1975 -2.1545
 8083SOL    HW235712   2.662   0.466   7.753 -0.9391  1.7509 -0.5559
 8084SOL     OW35713   2.234   0.607   3.305 -0.2367 -0.3030  0.4469
 8084SOL    HW135714   2.157   0.550   3.313 -0.0111 -0.4111  1.7339
 8084SOL    HW235715   2.295   0.534   3.316  0.5298  0.2507 -0.1488
 8085SOL     OW35716   0.325   0.582   6.829  0.2477 -0.0686  0.4614
 8085SOL    HW135717   0.285   0.664   6.858  0.3622  0.9273 -2.1907
 8085SOL    HW235718   0.331   0.526   6.906  1.7606 -0.5832 -0.0288
 8086SOL     OW35719   0.203   0.798   8.171  0.4989 -0.6097 -0.1410
 8086SOL    HW135720   0.222   0.876   8.119 -2.1236  0.9322  1.2461
 8086SOL    HW235721   0.269   0.737   8.139  2.1829  0.9472  0.3575
 8087SOL     OW35722   4.645   0.930   9.315  0.0186 -0.2215 -0.1688
 8087SOL    HW135723   4.680   1.010   9.354  3.0948 -0.8270 -1.7046
 8087SOL    HW235724   4.643   0.944   9.220 -1.4112 -0.4751 -0.1837
 8088SOL     OW35725   3.414   2.993  14.211  0.0740 -0.0927 -0.6824
 8088SOL    HW135726   3.409   2.899  14.195 -3.5804  0.1531 -0.9199
 8088SOL    HW235727   3.409   2.985  14.306 -1.6107  0.5058 -0.7136
 8089SOL     OW35728   3.121   1.796   0.244  0.1413  0.5444  0.5049
 8089SOL    HW135729   3.075   1.837   0.317 -0.2749  2.2744 -0.7210
 8089SOL    HW235730   3.122   1.855   0.168  0.4770 -1.0610 -0.7549
 8090SOL     OW35731   1.514   3.133   4.919 -0.3468  0.0636 -0.1548
 8090SOL    HW135732   1.487   3.153   5.009 -2.5329  3.4981 -1.5393
 8090SOL    HW235733   1.431   3.150   4.874 -0.6169 -1.0995 -0.0887
 8091SOL     OW35734   0.061   1.380   3.199 -0.3290  0.1512  0.2740
 8091SOL    HW135735   4.695   1.346   3.192 -0.8862  1.2069  2.3945
 8091SOL    HW235736   0.059   1.472   3.172 -0.7356  0.7601  2.3605
 8092SOL     OW35737   2.166   0.277   6.841 -0.4354  0.1798 -0.1512
 8092SOL    HW135738   2.237   0.305   6.784 -0.6069  0.5549 -0.1789
 8092SOL    HW235739   2.113   0.231   6.777  1.4460 -2.2179  0.0019
 8093SOL     OW35740   3.962   2.054  14.712  0.0196  0.4497  0.8434
 8093SOL    HW135741   3.969   2.016  14.799  1.3554  1.2214  1.0776
 8093SOL    HW235742   4.009   1.982  14.669 -1.9021 -0.2461 -0.0557
 8094SOL     OW35743   2.053   4.577   8.381 -0.3578 -0.0946 -0.7152
 8094SOL    HW135744   2.147   4.567   8.391 -0.5535 -0.9921  0.2317
 8094SOL    HW235745   2.026   4.487   8.396 -1.8386 -0.0943 -3.3447
 8095SOL     OW35746   3.429   4.386   3.592 -0.1563  1.0322 -0.7702
 8095SOL    HW135747   3.370   4.374   3.666  0.4416 -2.1083 -0.7944
 8095SOL    HW235748   3.432   4.480   3.573 -0.5965  0.8826 -1.6021
 8096SOL     OW35749   2.069   1.478   7.801 -0.3076 -0.6540  0.0345
 8096SOL    HW135750   2.153   1.435   7.817  0.4332  1.6735  2.4275
 8096SOL    HW235751   2.104   1.552   7.752 -1.5886  1.3446  2.1692
 8097SOL     OW35752   4.055   4.116  10.919 -1.9066 -1.1003 -0.5319
 8097SOL    HW135753   4.051   4.059  10.995 -1.5418  0.1519  0.4144
 8097SOL    HW235754   4.004   4.063  10.858 -2.9912  1.1492 -1.5771
 8098SOL     OW35755   1.889   1.527   3.439 -0.0020 -0.5927  0.1981
 8098SOL    HW135756   1.815   1.565   3.486 -0.6075 -2.2557  0.6043
 8098SOL    HW235757   1.962   1.581   3.470  0.6612 -1.1290 -0.4401
 8099SOL     OW35758   2.915   3.033   3.265 -0.3759 -0.3720 -0.0993
 8099SOL    HW135759   2.916   2.964   3.332  2.3956 -1.1433 -0.9385
 8099SOL    HW235760   2.888   3.109   3.317 -0.6518  1.9040 -3.6185
 8100SOL     OW35761   2.496   1.077  17.221 -0.3279 -0.0156  0.0315
 8100SOL    HW135762   2.433   1.099  17.290 -0.3818  2.5972 -0.8749
 8100SOL    HW235763   2.546   1.003  17.257 -0.2661 -1.3185 -2.7082
 8101SOL     OW35764   1.782   2.386   0.682  0.0960 -0.2759  0.0535
 8101SOL    HW135765   1.779   2.478   0.708  1.4434 -0.2112  0.0022
 8101SOL    HW235766   1.726   2.385   0.605 -0.7307  0.6606  0.6524
 8102SOL     OW35767   3.708   3.403   8.726  0.4350  0.2016  0.0905
 8102SOL    HW135768   3.680   3.483   8.681  0.3639  0.3084  0.3205
 8102SOL    HW235769   3.796   3.387   8.692  1.1487  0.9842  1.5714
 8103SOL     OW35770   0.451   2.536  11.326 -0.5655 -0.4335 -0.2335
 8103SOL    HW135771   0.371   2.509  11.370 -1.7568  2.7583 -0.3979
 8103SOL    HW235772   0.449   2.630  11.346  0.4951 -0.4848  0.0904
 8104SOL     OW35773   0.290   1.721   5.431 -0.2387 -0.0043 -0.3267
 8104SOL    HW135774   0.350   1.794   5.447 -0.9592  0.7607 -1.0848
 8104SOL    HW235775   0.316   1.690   5.345 -0.7722 -0.4766 -0.3138
 8105SOL     OW35776   4.425   4.413  14.529 -0.1464  0.4590  0.3590
 8105SOL    HW135777   4.419   4.318  14.527  0.6566  0.4214 -0.5142
 8105SOL    HW235778   4.472   4.423  14.446  2.8587 -1.3057  1.8603
 8106SOL     OW35779   3.986   3.022  10.120  0.1008 -0.6980 -0.1161
 8106SOL    HW135780   4.047   3.096  10.121 -1.2959  0.4410 -0.1154
 8106SOL    HW235781   3.961   3.002  10.030 -3.3864 -1.8906  1.1380
 8107SOL     OW35782   1.987   0.524   7.798 -0.2282 -0.6942  0.2717
 8107SOL    HW135783   2.078   0.516   7.772  0.3443  1.0884  1.7192
 8107SOL    HW235784   1.938   0.531   7.716  1.5891 -1.7955 -0.9041
 8108SOL     OW35785   3.683   3.250  13.856  0.2196 -0.6367  0.2977
 8108SOL    HW135786   3.666   3.200  13.935 -0.1100 -1.3193 -0.2032
 8108SOL    HW235787   3.672   3.175  13.798  1.7334 -0.7906  0.2011
 8109SOL     OW35788   3.381   1.887   7.706  0.4467  0.2670 -0.3403
 8109SOL    HW135789   3.404   1.973   7.671  1.8884  0.2455  0.5282
 8109SOL    HW235790   3.286   1.899   7.706  0.5218  0.8857  0.2439
 8110SOL     OW35791   0.947   3.576   6.965 -0.2960 -0.1812 -0.3987
 8110SOL    HW135792   0.937   3.610   7.054  1.7878 -3.0388  0.9572
 8110SOL    HW235793   0.885   3.630   6.917 -0.0432  1.6288  1.3254
 8111SOL     OW35794   2.507   3.935  17.617 -0.2008 -0.4602  0.4328
 8111SOL    HW135795   2.427   3.971  17.655 -1.3217 -1.7345 -0.6963
 8111SOL    HW235796   2.545   3.870  17.676  0.1646  0.0544  0.7602
 8112SOL     OW35797   2.457   1.168   7.954  0.2205  0.1734 -0.0547
 8112SOL    HW135798   2.421   1.140   8.038 -0.6040 -0.4384 -0.6164
 8112SOL    HW235799   2.543   1.204   7.978  0.0150  1.0614 -0.6402
 8113SOL     OW35800   3.634   3.524   8.080  0.1682 -0.5509  0.7463
 8113SOL    HW135801   3.546   3.492   8.058 -0.2905  3.1179 -2.9077
 8113SOL    HW235802   3.616   3.602   8.133 -2.7474 -0.9083  0.3030
 8114SOL     OW35803   0.879   2.778  13.485 -0.1505 -0.6812 -0.4803
 8114SOL    HW135804   0.826   2.760  13.407  1.7236 -2.2915 -1.3884
 8114SOL    HW235805   0.883   2.873  13.490  1.9898 -0.9041  2.0099
 8115SOL     OW35806   3.844   1.541   3.265 -0.1107  0.6017  0.1261
 8115SOL    HW135807   3.915   1.605   3.258  2.6349 -2.3798  0.8697
 8115SOL    HW235808   3.783   1.586   3.207 -1.4419  2.0092  2.6369
 8116SOL     OW35809   3.079   0.294   1.742 -0.3241 -0.2276 -0.0803
 8116SOL    HW135810   3.143   0.275   1.811 -0.1315  0.4755 -0.0700
 8116SOL    HW235811   3.128   0.250   1.673 -0.1667 -1.2176  0.6502
 8117SOL     OW35812   3.489   3.344   0.464 -0.1502  0.0119  0.1112
 8117SOL    HW135813   3.426   3.342   0.392 -1.3100 -1.2400  1.1811
 8117SOL    HW235814   3.457   3.422   0.510  0.2508  0.0878  0.2638
 8118SOL     OW35815   2.696   1.585   5.299  0.0065  0.8194  0.2544
 8118SOL    HW135816   2.624   1.633   5.340 -2.2706 -0.8627 -1.8143
 8118SOL    HW235817   2.706   1.505   5.352 -0.5216 -0.9809 -2.4000
 8119SOL     OW35818   3.443   0.099   5.416 -0.1015  0.2330  0.3293
 8119SOL    HW135819   3.480   0.015   5.442 -0.1501 -0.3203 -1.3241
 8119SOL    HW235820   3.490   0.153   5.479  0.1533 -2.7187  2.6723
 8120SOL     OW35821   3.888   1.793   0.720 -0.0648 -0.1389  0.2912
 8120SOL    HW135822   3.914   1.714   0.768 -0.5594  1.9232  3.9716
 8120SOL    HW235823   3.969   1.818   0.675 -0.7182  1.7588  0.1745
 8121SOL     OW35824   3.457   0.936  15.375 -0.6811 -0.3591  0.6884
 8121SOL    HW135825   3.376   0.927  15.424 -2.0583  1.4087 -1.2480
 8121SOL    HW235826   3.498   1.019  15.401  0.5460 -0.6974 -0.1288
 8122SOL     OW35827   1.017   3.352   6.002 -0.0905  0.0167  0.0544
 8122SOL    HW135828   1.059   3.326   5.920  1.2814 -1.1594  1.1275
 8122SOL    HW235829   1.064   3.436   6.008 -0.7199  0.4185 -0.5956
 8123SOL     OW35830   2.073   4.648   7.474  0.2942 -0.2712  0.0138
 8123SOL    HW135831   2.053   0.009   7.513 -0.2371  1.1254 -3.2846
 8123SOL    HW235832   1.998   4.598   7.507 -2.0318  3.2034  0.0257
 8124SOL     OW35833   4.193   3.265  14.346  0.6105 -0.1069 -0.4126
 8124SOL    HW135834   4.188   3.360  14.360 -2.8542 -0.6035  1.9256
 8124SOL    HW235835   4.207   3.237  14.436 -0.0226 -1.9602 -0.8989
 8125SOL     OW35836   3.753   1.909   7.651  0.0662  0.0807 -0.7923
 8125SOL    HW135837   3.804   1.849   7.707  0.2604  0.2860 -0.7509
 8125SOL    HW235838   3.725   1.982   7.706  1.0759 -1.8950  2.3790
 8126SOL     OW35839   4.524   4.360   4.600 -0.1319  0.1488 -0.0896
 8126SOL    HW135840   4.474   4.283   4.573  0.9736 -0.5028 -0.3174
 8126SOL    HW235841   4.511   4.425   4.531 -0.2879  1.3739  1.0820
 8127SOL     OW35842   3.118   4.195   7.793  0.7879  0.9564 -0.0688
 8127SOL    HW135843   3.172   4.223   7.867 -0.2153 -0.9927  1.3975
 8127SOL    HW235844   3.120   4.101   7.812 -2.0756  0.9871  0.4853
 8128SOL     OW35845   3.482   3.669   5.033  0.0748  0.2620 -0.0620
 8128SOL    HW135846   3.433   3.589   5.011  2.1064 -0.7647 -0.7833
 8128SOL    HW235847   3.417   3.737   5.016 -1.5946 -1.3858 -0.2786
 8129SOL     OW35848   0.935   1.495   2.870 -0.0958 -0.1307  0.9591
 8129SOL    HW135849   0.889   1.521   2.791  2.9822  0.6732 -0.5646
 8129SOL    HW235850   0.931   1.401   2.886  0.1554 -0.4471 -0.9222
 8130SOL     OW35851   0.606   4.178   9.058 -0.4991 -0.1502 -0.4167
 8130SOL    HW135852   0.519   4.137   9.054  0.1511 -1.6467  0.8513
 8130SOL    HW235853   0.646   4.114   9.000  1.3313 -0.2573  0.9845
 8131SOL     OW35854   3.185   2.277  14.300 -0.1603 -0.2360 -0.3033
 8131SOL    HW135855   3.235   2.324  14.367  0.8961 -1.3840 -0.2912
 8131SOL    HW235856   3.104   2.324  14.319 -0.3716 -0.8924  0.4260
 8132SOL     OW35857   1.416   4.473   3.079  0.1656 -0.4263 -0.1671
 8132SOL    HW135858   1.496   4.459   3.129 -0.3009  0.1987  0.7546
 8132SOL    HW235859   1.406   4.389   3.035  0.1028  0.0624 -1.0882
 8133SOL     OW35860   2.017   0.163   4.056 -0.0995  0.4563  0.0347
 8133SOL    HW135861   1.988   0.156   3.965 -0.7872 -0.6235  0.3354
 8133SOL    HW235862   1.933   0.160   4.101 -0.9566 -2.0938 -1.7646
 8134SOL     OW35863   3.211   0.893   4.691  0.4551  0.2492 -0.2120
 8134SOL    HW135864   3.190   0.968   4.635 -0.5704  0.1814  0.0757
 8134SOL    HW235865   3.303   0.878   4.669  0.1125  0.2468 -1.5872
 8135SOL     OW35866   3.787   3.771  10.579  0.0659 -0.0264  0.5116
 8135SOL    HW135867   3.741   3.844  10.536  0.9459  0.9582  1.2508
 8135SOL    HW235868   3.710   3.728  10.617 -0.0906  1.0884  1.4872
 8136SOL     OW35869   1.206   1.972   5.009 -0.3088  0.4423 -0.0408
 8136SOL    HW135870   1.199   2.020   4.927  1.3871 -1.0893 -1.0820
 8136SOL    HW235871   1.195   2.042   5.073 -3.1856  0.1088 -0.1736
 8137SOL     OW35872   0.723   0.134   8.930 -0.0111  0.5466 -0.6436
 8137SOL    HW135873   0.643   0.166   8.889  0.4009  2.6012  0.1564
 8137SOL    HW235874   0.697   0.049   8.966  1.2762 -0.5788 -2.3487
 8138SOL     OW35875   1.450   2.977   0.677  0.0078  0.6528  0.0514
 8138SOL    HW135876   1.470   2.887   0.654  0.4720  0.9932 -0.8936
 8138SOL    HW235877   1.359   2.961   0.699  0.2865 -1.5651 -0.4386
 8139SOL     OW35878   4.513   3.374   5.618  0.1376 -0.1604  0.1207
 8139SOL    HW135879   4.421   3.388   5.596 -0.2706 -0.9809  1.3155
 8139SOL    HW235880   4.536   3.465   5.638  0.4487 -0.2538  0.1878
 8140SOL     OW35881   0.900   4.454   3.195 -0.8873  0.2447 -0.5228
 8140SOL    HW135882   0.823   4.397   3.194 -0.3290 -0.5711  2.1148
 8140SOL    HW235883   0.957   4.403   3.137 -0.0328 -0.4141  0.8741
 8141SOL     OW35884   0.103   1.787  16.739 -0.3123 -0.3195 -0.4550
 8141SOL    HW135885   0.143   1.836  16.811 -0.0860  0.4933 -1.1332
 8141SOL    HW235886   0.175   1.742  16.694  1.7223  2.7046 -0.2280
 8142SOL     OW35887   0.947   3.284   7.519  0.2842 -0.5587 -0.3338
 8142SOL    HW135888   0.926   3.263   7.429 -0.1053 -0.0251 -0.3627
 8142SOL    HW235889   0.909   3.215   7.573  0.6734 -1.8433 -1.7048
 8143SOL     OW35890   3.226   2.546   7.068 -0.8658 -1.1843 -0.0077
 8143SOL    HW135891   3.299   2.504   7.024 -0.5101  1.3416 -1.7976
 8143SOL    HW235892   3.269   2.579   7.148  0.5597  0.6480 -1.5377
 8144SOL     OW35893   0.226   0.561   3.507  0.1028  1.0090  0.0277
 8144SOL    HW135894   0.172   0.535   3.433  0.6748 -0.8112  0.2628
 8144SOL    HW235895   0.171   0.635   3.534 -2.2298 -0.5500 -0.4356
 8145SOL     OW35896   1.053   2.568   5.972  0.2716  0.4892 -0.2615
 8145SOL    HW135897   1.018   2.480   5.982  1.4256 -0.3446 -3.5074
 8145SOL    HW235898   1.106   2.555   5.893 -1.1106  0.7293 -1.2423
 8146SOL     OW35899   2.036   4.471   7.285 -0.4116  0.5004  0.3775
 8146SOL    HW135900   2.058   4.534   7.353 -0.6888 -0.4594  1.3579
 8146SOL    HW235901   2.034   4.528   7.208  1.1581  1.3578  0.9754
 8147SOL     OW35902   1.472   1.116   9.730  0.1112 -0.6214  0.3378
 8147SOL    HW135903   1.540   1.182   9.717 -1.5749  0.9313 -0.5713
 8147SOL    HW235904   1.525   1.037   9.726  2.7058  1.1022  1.0369
 8148SOL     OW35905   4.387   1.701   4.331 -0.2880 -0.3892  0.1848
 8148SOL    HW135906   4.304   1.742   4.358 -0.6137 -1.1075  0.2792
 8148SOL    HW235907   4.363   1.614   4.365 -1.9769  0.2818  0.7220
 8149SOL     OW35908   0.226   3.022   5.966 -0.3118  0.4076 -0.0721
 8149SOL    HW135909   0.178   3.101   5.941  0.4066  0.8264 -0.1375
 8149SOL    HW235910   0.257   3.010   5.877  4.0921 -1.4363  1.7084
 8150SOL     OW35911   1.750   1.321   7.716 -0.3552  0.1358  0.2893
 8150SOL    HW135912   1.682   1.267   7.756 -1.4581  1.0492 -0.3749
 8150SOL    HW235913   1.828   1.290   7.763  0.6029  2.3806  0.1528
 8151SOL     OW35914   1.642   0.591   8.796  0.6386 -0.0299  0.1327
 8151SOL    HW135915   1.583   0.547   8.857 -0.7929 -1.0151 -1.9713
 8151SOL    HW235916   1.590   0.670   8.782 -1.5314 -1.7150 -1.3766
 8152SOL     OW35917   0.351   4.530  16.320 -0.2493  0.2629  0.5127
 8152SOL    HW135918   0.286   4.468  16.286 -0.2283 -0.8293  2.4692
 8152SOL    HW235919   0.320   4.535  16.411 -0.8790  1.5978  0.2205
 8153SOL     OW35920   2.241   2.640   6.509  0.1282  0.0038  0.4316
 8153SOL    HW135921   2.294   2.652   6.587 -0.9600 -1.4233  1.3908
 8153SOL    HW235922   2.167   2.698   6.527  0.7198  0.8306  0.1769
 8154SOL     OW35923   3.206   4.545  11.792 -0.3153 -0.2753  0.9250
 8154SOL    HW135924   3.267   4.551  11.718 -0.5632  3.4070  1.0308
 8154SOL    HW235925   3.223   4.627  11.839 -0.2810  0.1702  0.1390
 8155SOL     OW35926   3.142   2.511  11.611  0.2738  1.1452  0.0832
 8155SOL    HW135927   3.225   2.464  11.595 -0.2162 -0.3283  1.8544
 8155SOL    HW235928   3.177   2.572  11.676 -0.6621  0.8709  0.8310
 8156SOL     OW35929   3.917   1.237  14.754  0.5725  0.5866  0.3512
 8156SOL    HW135930   3.925   1.244  14.849  0.1408  0.6388  0.3807
 8156SOL    HW235931   3.884   1.150  14.733 -3.2374  2.1097  0.0458
 8157SOL     OW35932   2.252   4.637   5.407  0.2199  0.1888 -0.2432
 8157SOL    HW135933   2.338   4.670   5.434 -0.8925  3.3289 -0.5280
 8157SOL    HW235934   2.220   4.694   5.336  1.3398  1.7108  0.4788
 8158SOL     OW35935   4.120   3.594   1.022 -0.0826 -0.1440 -0.3665
 8158SOL    HW135936   4.126   3.552   1.108 -0.2580  0.3221 -0.1257
 8158SOL    HW235937   4.057   3.665   1.033  1.0467  0.9341 -0.8501
 8159SOL     OW35938   1.620   1.624   6.700  0.1367 -0.3534 -0.4121
 8159SOL    HW135939   1.641   1.681   6.626 -0.3701 -0.8390 -0.9328
 8159SOL    HW235940   1.527   1.611   6.681  0.1414 -2.0807  0.7623
 8160SOL     OW35941   1.192   4.664   0.715  0.1815 -0.3327  0.0591
 8160SOL    HW135942   1.170   4.665   0.808 -4.4565 -2.6588 -0.9931
 8160SOL    HW235943   1.197   0.035   0.704 -0.1453 -0.4133 -0.7895
 8161SOL     OW35944   1.378   3.798   3.649 -0.0951 -0.0410 -0.1199
 8161SOL    HW135945   1.357   3.705   3.658 -1.4486  0.4826  2.1524
 8161SOL    HW235946   1.398   3.809   3.556 -0.0518  2.6387  0.1994
 8162SOL     OW35947   4.329   1.088   7.688 -0.3661  0.0263 -0.1380
 8162SOL    HW135948   4.241   1.127   7.690 -0.4120 -0.1410  1.4315
 8162SOL    HW235949   4.371   1.166   7.725 -0.2734 -1.0802  2.1240
 8163SOL     OW35950   2.026   2.860   2.246  0.5899  0.3813  0.3459
 8163SOL    HW135951   2.084   2.815   2.185 -2.1157 -2.8280  0.1430
 8163SOL    HW235952   2.087   2.871   2.319  1.0190 -0.6364  0.1431
 8164SOL     OW35953   0.863   1.172   2.316 -1.0922 -0.2119 -0.1345
 8164SOL    HW135954   0.922   1.244   2.338  0.7623 -2.1811  1.2434
 8164SOL    HW235955   0.843   1.188   2.224  3.1050  1.8820 -0.6586
 8165SOL     OW35956   3.476   3.587   6.553 -0.3476  0.0894  0.0778
 8165SOL    HW135957   3.425   3.523   6.503 -2.4690  1.3780  0.6136
 8165SOL    HW235958   3.529   3.536   6.614 -0.1595 -0.7957 -0.8262
 8166SOL     OW35959   0.048   3.283  11.374  0.5406  0.0953 -0.1307
 8166SOL    HW135960   0.131   3.312  11.335  2.1336 -0.6725  2.6932
 8166SOL    HW235961   0.076   3.239  11.454 -0.3574 -2.1948 -1.0717
 8167SOL     OW35962   2.459   1.967   5.694  0.0666  0.0851 -0.1445
 8167SOL    HW135963   2.449   1.883   5.738  0.8467  1.2858  2.3463
 8167SOL    HW235964   2.482   1.939   5.605  0.7772  2.2331 -0.6403
 8168SOL     OW35965   0.632   3.863  15.147 -0.2318 -0.2273 -0.3927
 8168SOL    HW135966   0.670   3.852  15.060  1.6268  0.9162  0.2883
 8168SOL    HW235967   0.570   3.791  15.157 -0.0073 -0.4094 -0.3250
 8169SOL     OW35968   2.542   3.628  10.408 -0.0899  0.3471 -0.8160
 8169SOL    HW135969   2.552   3.595  10.497 -0.0751 -0.2988 -1.0598
 8169SOL    HW235970   2.449   3.614  10.394  0.5140 -2.3030 -2.0906
 8170SOL     OW35971   0.757   1.904   5.671 -0.3871 -0.0762 -0.2588
 8170SOL    HW135972   0.801   1.820   5.684  1.2217  0.3917 -2.6938
 8170SOL    HW235973   0.685   1.890   5.732 -0.4373  0.4936 -0.1925
 8171SOL     OW35974   2.428   3.542   1.662 -0.1198 -0.5826 -0.1128
 8171SOL    HW135975   2.349   3.590   1.685  1.0771  0.5098  1.7800
 8171SOL    HW235976   2.405   3.547   1.569  2.9961 -2.1454 -0.9871
 8172SOL     OW35977   4.515   1.776  16.944  0.2909  0.1325  0.3218
 8172SOL    HW135978   4.537   1.809  16.857 -2.0262 -0.3276 -0.4287
 8172SOL    HW235979   4.554   1.843  17.001 -0.3064  0.3488  0.4855
 8173SOL     OW35980   1.128   4.385   0.701  0.0744 -0.2456  0.0314
 8173SOL    HW135981   1.130   4.480   0.696 -2.2466 -0.2169 -0.0068
 8173SOL    HW235982   1.192   4.369   0.632  0.8875  1.4537  0.3863
 8174SOL     OW35983   2.864   3.602   2.114 -0.1090  0.1382  0.2075
 8174SOL    HW135984   2.889   3.604   2.206  1.0310  3.4526 -0.1848
 8174SOL    HW235985   2.938   3.641   2.067  1.2214 -1.2808  1.1393
 8175SOL     OW35986   3.552   3.476   7.282 -0.1209  0.4358  0.4776
 8175SOL    HW135987   3.570   3.561   7.320  3.4565  0.2511 -0.8213
 8175SOL    HW235988   3.514   3.509   7.200  3.3395  4.1191  0.3849
 8176SOL     OW35989   2.332   4.006  10.963  0.2404  0.1338 -0.3882
 8176SOL    HW135990   2.350   3.925  11.010 -0.5192  0.0402 -0.2495
 8176SOL    HW235991   2.260   4.044  11.013  0.3735  0.3808 -0.3899
 8177SOL     OW35992   2.918   2.061   7.372 -0.7186  0.0230  0.0967
 8177SOL    HW135993   2.961   1.977   7.358  0.8944  1.1609 -1.7870
 8177SOL    HW235994   2.962   2.102   7.447  1.2079 -1.1917 -0.3726
 8178SOL     OW35995   2.091   3.322  11.977  0.4132 -0.1268  0.5769
 8178SOL    HW135996   2.174   3.369  11.984  0.6019 -0.3053 -0.4859
 8178SOL    HW235997   2.085   3.329  11.882 -1.0118  1.3303  0.7912
 8179SOL     OW35998   2.913   1.079   4.243 -0.2209  0.0063 -0.2842
 8179SOL    HW135999   2.823   1.056   4.220 -0.4301  2.3396 -1.7975
 8179SOL    HW236000   2.906   1.152   4.305 -0.1672 -0.0656 -0.1921
 8180SOL     OW36001   2.358   1.766   8.351 -0.3799 -0.2688 -0.2700
 8180SOL    HW136002   2.296   1.795   8.417 -0.9955  0.1903 -1.0523
 8180SOL    HW236003   2.425   1.756   8.419  0.2882 -0.5413 -0.9585
 8181SOL     OW36004   3.847   0.775  13.217 -0.8395  0.9973 -0.0377
 8181SOL    HW136005   3.878   0.849  13.165  4.3443 -0.7071  0.5136
 8181SOL    HW236006   3.755   0.796  13.226 -0.1798  2.4875  3.0579
 8182SOL     OW36007   1.266   2.473  15.976  0.3832 -0.0181 -0.4716
 8182SOL    HW136008   1.241   2.513  15.893  2.4453  1.8843 -0.1698
 8182SOL    HW236009   1.361   2.484  15.979  0.4170 -0.1271 -1.1636
 8183SOL     OW36010   3.428   4.492  15.713 -0.3634 -0.2498 -0.5043
 8183SOL    HW136011   3.449   4.539  15.794 -1.0614 -0.0981 -0.4179
 8183SOL    HW236012   3.333   4.483  15.721 -0.5053  1.9343  0.1040
 8184SOL     OW36013   1.036   1.357   2.382  0.6482  0.7196  0.5073
 8184SOL    HW136014   1.084   1.303   2.320  0.9726 -0.0382  1.4247
 8184SOL    HW236015   1.062   1.321   2.467  1.0770  0.0217  0.0741
 8185SOL     OW36016   1.016   4.536   8.575  0.3840  0.1609  0.3062
 8185SOL    HW136017   0.926   4.532   8.608 -0.8429 -0.7284 -3.2401
 8185SOL    HW236018   1.063   4.484   8.641 -1.7287 -0.8523  1.0405
 8186SOL     OW36019   3.787   4.457   5.089  0.0160 -0.3881 -0.0687
 8186SOL    HW136020   3.751   4.381   5.134  1.3525  0.9101  3.1787
 8186SOL    HW236021   3.706   4.486   5.047  0.6255  0.1362 -0.8934
 8187SOL     OW36022   2.697   3.702   6.257 -0.2607 -0.5274  0.5047
 8187SOL    HW136023   2.768   3.767   6.251 -0.6705 -0.0683  0.6459
 8187SOL    HW236024   2.720   3.649   6.333  2.5196 -0.4332 -0.2547
 8188SOL     OW36025   3.129   1.761   8.579 -0.2456  0.2169 -0.2966
 8188SOL    HW136026   3.061   1.739   8.642  0.4074 -1.5514 -0.2093
 8188SOL    HW236027   3.157   1.843   8.620 -0.6537  0.5245 -0.6336
 8189SOL     OW36028   0.496   4.406  14.437 -0.2696 -0.4837 -0.1738
 8189SOL    HW136029   0.567   4.360  14.482 -0.2211 -1.7051 -1.5025
 8189SOL    HW236030   0.541   4.425  14.356 -0.5960  2.2665  0.3097
 8190SOL     OW36031   1.778   0.682   9.359  0.3210  0.5871  0.2090
 8190SOL    HW136032   1.712   0.751   9.346 -0.0543 -0.2977 -2.4450
 8190SOL    HW236033   1.854   0.727   9.322  2.2391 -0.9743  2.2206
 8191SOL     OW36034   1.508   3.396   8.408 -0.6936 -0.1100  0.4470
 8191SOL    HW136035   1.480   3.482   8.440  2.9283  1.4515 -0.5411
 8191SOL    HW236036   1.561   3.374   8.485 -0.5705 -1.3529  0.0101
 8192SOL     OW36037   4.416   3.518  11.010  0.6344  0.0007 -0.6587
 8192SOL    HW136038   4.425   3.467  10.929 -0.4443 -0.2681 -0.6040
 8192SOL    HW236039   4.509   3.530  11.032  0.5614  0.9755 -0.9058
 8193SOL     OW36040   4.650   3.967  12.254  0.0590  0.2562 -0.3468
 8193SOL    HW136041   4.559   3.956  12.282 -0.8957  2.3053 -2.6703
 8193SOL    HW236042   4.689   3.949  12.339  1.1291 -1.1799 -1.1344
 8194SOL     OW36043   0.789   1.587   3.107 -0.4676  1.0169 -0.4387
 8194SOL    HW136044   0.872   1.598   3.061  0.2201 -1.0323  0.2925
 8194SOL    HW236045   0.791   1.493   3.126  0.9684  1.3222  0.8815
 8195SOL     OW36046   0.554   1.019   3.329 -0.1403  0.3214 -0.6654
 8195SOL    HW136047   0.603   0.976   3.399 -0.4553  2.1632  0.6820
 8195SOL    HW236048   0.479   1.044   3.382 -0.6510  1.7195 -2.0329
 8196SOL     OW36049   3.553   3.732   3.219  0.3366 -0.1282 -0.3648
 8196SOL    HW136050   3.525   3.762   3.133 -2.3845  0.6629  0.7750
 8196SOL    HW236051   3.643   3.712   3.194  0.3878  0.7735 -0.9019
 8197SOL     OW36052   2.690   3.605   2.501 -0.0410  0.0742 -0.0712
 8197SOL    HW136053   2.625   3.550   2.458 -2.6902  4.6128 -1.8854
 8197SOL    HW236054   2.628   3.663   2.544  0.4592  0.5474  0.0203
 8198SOL     OW36055   2.939   1.656  15.677 -0.4591 -0.3523 -0.2324
 8198SOL    HW136056   3.017   1.687  15.721 -0.9485  0.1818  0.2509
 8198SOL    HW236057   2.887   1.736  15.673  0.1217  0.0501  0.5146
 8199SOL     OW36058   2.434   2.233   4.846  0.4043  0.3101 -0.0105
 8199SOL    HW136059   2.420   2.311   4.792 -1.1751 -1.0444 -1.5583
 8199SOL    HW236060   2.406   2.172   4.778 -1.9924  3.5398 -1.9568
 8200SOL     OW36061   0.962   2.429  13.425 -0.2821  0.3347  0.3393
 8200SOL    HW136062   0.876   2.418  13.386 -0.1298 -3.6323  1.1224
 8200SOL    HW236063   1.017   2.356  13.395  0.8413  1.6286 -0.7308
 8201SOL     OW36064   2.469   0.387   8.896 -0.1745 -0.0959  0.1459
 8201SOL    HW136065   2.533   0.420   8.833  0.0173 -3.4413 -1.4355
 8201SOL    HW236066   2.409   0.331   8.846  0.4946  1.6661 -2.6019
 8202SOL     OW36067   3.754   3.681  13.647  0.2581  0.1432 -0.0934
 8202SOL    HW136068   3.749   3.760  13.702 -0.6852  1.9670 -2.8287
 8202SOL    HW236069   3.708   3.620  13.705  1.4790 -1.4989 -0.8402
 8203SOL     OW36070   4.399   2.169   4.083  0.0015 -0.2416  0.1240
 8203SOL    HW136071   4.307   2.165   4.058  0.4404 -1.4360 -1.3073
 8203SOL    HW236072   4.407   2.074   4.096  0.0734 -0.4071 -1.0806
 8204SOL     OW36073   0.637   4.547   3.331  0.3380  0.2185 -0.2867
 8204SOL    HW136074   0.670   4.634   3.355  0.1896  0.3040 -0.3951
 8204SOL    HW236075   0.686   4.540   3.249 -0.5012  1.9038 -0.9276
 8205SOL     OW36076   3.646   1.074   6.407  0.3333  0.4739  0.0628
 8205SOL    HW136077   3.678   1.155   6.367 -1.4260  0.4418 -1.4400
 8205SOL    HW236078   3.568   1.106   6.453  0.0309 -2.5735  1.6429
 8206SOL     OW36079   1.520   1.849   7.248 -0.6669 -0.3480 -0.3261
 8206SOL    HW136080   1.435   1.844   7.206  0.3101  0.5193 -2.4237
 8206SOL    HW236081   1.547   1.760   7.227  0.9890  0.0468  0.0606
 8207SOL     OW36082   2.844   1.454   6.974 -0.1580 -0.6968  0.2145
 8207SOL    HW136083   2.793   1.516   7.025  1.4551 -1.5123  2.7885
 8207SOL    HW236084   2.779   1.433   6.906  0.5029  0.9691 -0.9238
 8208SOL     OW36085   4.379   1.149   3.166  0.7485  0.2633 -0.4256
 8208SOL    HW136086   4.369   1.242   3.187 -0.7723  0.3410 -1.4990
 8208SOL    HW236087   4.372   1.145   3.071 -0.5729 -0.5135 -0.2965
 8209SOL     OW36088   3.374   0.909   2.709 -0.3575 -0.1857  0.4653
 8209SOL    HW136089   3.352   0.824   2.672  2.7096 -0.3166 -1.0672
 8209SOL    HW236090   3.469   0.912   2.697 -0.4799  0.9870 -0.1464
 8210SOL     OW36091   1.127   0.432   9.079 -0.6518  0.5399 -0.2436
 8210SOL    HW136092   1.163   0.512   9.119  0.4517  0.3074 -0.7743
 8210SOL    HW236093   1.183   0.366   9.120 -1.5382  0.6902  1.1929
 8211SOL     OW36094   3.972   1.832   7.043  0.0861  0.0724  0.0838
 8211SOL    HW136095   3.928   1.839   6.958 -2.9792 -0.8934  1.6237
 8211SOL    HW236096   3.955   1.739   7.059 -1.4590  0.2153 -0.7350
 8212SOL     OW36097   0.916   3.505  11.917  0.3177  0.1757 -0.1734
 8212SOL    HW136098   0.862   3.578  11.949  0.8341  0.9072 -0.9604
 8212SOL    HW236099   1.001   3.541  11.940 -0.3186  1.4129  0.2910
 8213SOL     OW36100   0.700   1.999   9.512 -0.1015 -0.3145 -1.0020
 8213SOL    HW136101   0.780   2.047   9.534 -1.4815  1.8422 -0.6402
 8213SOL    HW236102   0.702   1.915   9.558  2.7400  0.5798  0.4568
 8214SOL     OW36103   0.057   0.416   6.620 -0.2175 -0.3713  0.3490
 8214SOL    HW136104   4.688   0.426   6.600  0.3144  0.2816 -1.8236
 8214SOL    HW236105   0.057   0.443   6.711  0.2878  1.2293 -0.1317
 8215SOL     OW36106   1.418   2.301   8.769 -0.1474 -0.2271 -0.1043
 8215SOL    HW136107   1.406   2.330   8.859  0.1636 -3.4342  0.9432
 8215SOL    HW236108   1.343   2.342   8.724 -0.3605  0.6965  1.1120
 8216SOL     OW36109   4.185   2.252   3.735 -0.2340  0.0834  0.6647
 8216SOL    HW136110   4.213   2.161   3.725  0.0873  0.0141  2.2091
 8216SOL    HW236111   4.146   2.265   3.649 -1.6299  3.0583  1.7638
 8217SOL     OW36112   1.723   4.688  12.530 -0.1549  0.4120  0.0915
 8217SOL    HW136113   1.801   4.633  12.536 -1.0160 -0.7098  1.0541
 8217SOL    HW236114   1.732   0.012  12.447 -0.6721  0.8372  0.2817
 8218SOL     OW36115   0.309   2.565   0.907  0.1544 -0.4148 -0.3148
 8218SOL    HW136116   0.220   2.531   0.913 -1.0671  3.2254  2.2805
 8218SOL    HW236117   0.329   2.585   0.998  0.9076 -0.9761 -0.3649
 8219SOL     OW36118   0.935   3.499   6.641 -0.7367  0.1201  0.7018
 8219SOL    HW136119   0.984   3.512   6.723 -1.1614 -0.7316  1.0939
 8219SOL    HW236120   0.895   3.585   6.633  1.5928  1.2868  1.7210
 8220SOL     OW36121   1.392   1.501   2.300  0.4748  0.8415  0.1468
 8220SOL    HW136122   1.313   1.552   2.283 -0.7450 -0.7669  1.0243
 8220SOL    HW236123   1.403   1.520   2.393 -0.7167  0.4565  0.3687
 8221SOL     OW36124   2.637   1.580   4.365  0.4285 -0.0046 -0.0494
 8221SOL    HW136125   2.603   1.669   4.358 -0.2904 -0.3522 -0.8526
 8221SOL    HW236126   2.681   1.568   4.281 -1.6401 -1.4485 -0.9065
 8222SOL     OW36127   1.794   1.503   7.933  0.2005  0.4629 -0.5444
 8222SOL    HW136128   1.877   1.508   7.885  0.4989  0.6945 -0.0145
 8222SOL    HW236129   1.776   1.410   7.918 -1.4087  0.8156 -0.8077
 8223SOL     OW36130   1.330   2.596   5.346  0.0991 -0.0758  0.2370
 8223SOL    HW136131   1.407   2.651   5.359 -0.2957  0.6334 -0.4334
 8223SOL    HW236132   1.332   2.578   5.253 -0.2526 -0.4897  0.3130
 8224SOL     OW36133   2.781   2.122   1.839  0.1204  0.0510 -0.3645
 8224SOL    HW136134   2.869   2.083   1.841 -0.4022 -1.1831 -1.5147
 8224SOL    HW236135   2.807   2.205   1.798  1.5750 -0.8448 -1.2802
 8225SOL     OW36136   3.680   2.413   4.456  0.6005  0.0815  0.0466
 8225SOL    HW136137   3.754   2.472   4.468  0.9337 -0.3844  0.3002
 8225SOL    HW236138   3.619   2.461   4.513  0.2710  1.4573 -1.4671
 8226SOL     OW36139   2.546   4.284   7.700 -0.5695  0.2259 -0.4107
 8226SOL    HW136140   2.499   4.296   7.782  0.9805  0.7685  0.3978
 8226SOL    HW236141   2.632   4.317   7.723  0.7304 -3.5724  0.2201
 8227SOL     OW36142   0.733   2.101   7.164  0.2885  0.1352  0.2271
 8227SOL    HW136143   0.744   2.033   7.098 -0.7997 -1.1677  1.3942
 8227SOL    HW236144   0.731   2.181   7.111  1.2050  0.2955  0.4393
 8228SOL     OW36145   1.946   3.402  10.826 -0.2241 -0.0428 -0.0275
 8228SOL    HW136146   1.966   3.496  10.835 -1.0923  0.0950  0.4402
 8228SOL    HW236147   1.852   3.406  10.843  0.0617  0.5656  1.3722
 8229SOL     OW36148   4.420   4.189  16.727  1.4138  0.3199  0.1777
 8229SOL    HW136149   4.413   4.193  16.822  0.5302 -2.0138  0.2202
 8229SOL    HW236150   4.342   4.143  16.696  0.7172  1.8055 -0.2835
 8230SOL     OW36151   1.772   2.610   8.391 -0.2218 -0.2835 -0.2892
 8230SOL    HW136152   1.781   2.704   8.409  0.1397 -0.5229  0.7440
 8230SOL    HW236153   1.707   2.614   8.321 -1.7983  2.6345  1.3070
 8231SOL     OW36154   0.150   0.251   6.908  0.6557  0.0146  0.2684
 8231SOL    HW136155   0.089   0.184   6.876 -0.0616  0.2801  1.0705
 8231SOL    HW236156   0.108   0.336   6.903  1.6269  0.5147  0.6985
 8232SOL     OW36157   1.344   4.129   6.372 -0.0999 -0.5320 -0.1429
 8232SOL    HW136158   1.413   4.186   6.405 -0.8859  0.2381  0.1979
 8232SOL    HW236159   1.274   4.161   6.430 -0.1953 -2.3230  0.7374
 8233SOL     OW36160   4.471   0.090   3.739  0.7132 -0.3871  0.2261
 8233SOL    HW136161   4.386   0.112   3.701  0.1280 -0.3685  1.5383
 8233SOL    HW236162   4.490   0.007   3.695  0.6681 -0.6790  0.7519
 8234SOL     OW36163   3.592   4.051   1.330 -0.1695  0.2539  0.3016
 8234SOL    HW136164   3.655   3.983   1.305 -1.4217 -2.0835  3.5557
 8234SOL    HW236165   3.649   4.127   1.316 -3.6264  3.0328  1.4207
 8235SOL     OW36166   4.684   2.389   3.778  0.4298 -0.3150 -0.0771
 8235SOL    HW136167   4.721   2.472   3.748  0.4118 -0.5709 -0.7964
 8235SOL    HW236168   0.002   2.334   3.713 -0.4224 -0.8149 -0.2089
 8236SOL     OW36169   0.429   2.539   7.772  0.2756 -0.4915  0.1425
 8236SOL    HW136170   0.524   2.533   7.763  0.0309  0.3446 -2.9323
 8236SOL    HW236171   0.424   2.611   7.834 -1.7645 -0.8816  0.4522
 8237SOL     OW36172   0.921   0.617   5.312  0.0230  0.2433 -0.2439
 8237SOL    HW136173   0.935   0.612   5.406  0.6998  0.0495 -0.3487
 8237SOL    HW236174   0.980   0.686   5.280 -1.2557  0.6458 -1.7236
 8238SOL     OW36175   1.709   3.255   8.032 -0.8085 -0.2260  0.2283
 8238SOL    HW136176   1.752   3.171   8.047  0.1968  0.1111 -0.7991
 8238SOL    HW236177   1.619   3.237   8.060 -0.5391 -0.2056  1.1166
 8239SOL     OW36178   3.858   2.374   7.134  0.1668  0.4332 -0.0201
 8239SOL    HW136179   3.923   2.307   7.155 -0.6414 -0.9114 -1.8545
 8239SOL    HW236180   3.786   2.346   7.190  0.3769  0.6206  0.3433
 8240SOL     OW36181   4.570   3.370  12.677 -0.5565 -0.2879  0.2173
 8240SOL    HW136182   4.517   3.291  12.686  1.4644 -1.7512 -0.8593
 8240SOL    HW236183   4.651   3.352  12.724 -1.7598 -0.3471  2.2899
 8241SOL     OW36184   0.892   0.973  11.415  0.0064 -0.3355  0.4086
 8241SOL    HW136185   0.813   1.028  11.414  0.6931  0.6182 -2.2566
 8241SOL    HW236186   0.859   0.892  11.453 -0.4446  0.0625  0.8678
 8242SOL     OW36187   3.927   0.265   8.524 -0.8220  0.3066  0.6928
 8242SOL    HW136188   3.860   0.219   8.574 -0.7857  1.0932  1.4454
 8242SOL    HW236189   3.942   0.344   8.575  3.6924  0.4895 -0.8388
 8243SOL     OW36190   4.433   0.482   2.229 -0.2587  0.5388  0.1736
 8243SOL    HW136191   4.373   0.416   2.196  1.0940 -0.6870  0.1895
 8243SOL    HW236192   4.518   0.471   2.187  0.3681  0.8638  1.3358
 8244SOL     OW36193   3.242   2.798   0.938  0.2058  0.0353  0.0348
 8244SOL    HW136194   3.186   2.783   1.014 -0.2193  0.6834 -0.1536
 8244SOL    HW236195   3.209   2.722   0.890  0.2872  2.0858 -3.2464
 8245SOL     OW36196   3.060   0.040  17.270  0.6118  1.0628 -0.3149
 8245SOL    HW136197   3.118   4.692  17.247 -0.5184 -0.3797  1.4142
 8245SOL    HW236198   3.098   0.078  17.350  0.6310 -1.1650  0.7216
 8246SOL     OW36199   0.899   1.214   2.893 -0.1558 -0.7842  0.1152
 8246SOL    HW136200   0.837   1.165   2.947 -2.1225 -0.4701 -1.8903
 8246SOL    HW236201   0.975   1.200   2.950  0.5344  1.6357 -0.1966
 8247SOL     OW36202   3.820   2.407   6.387 -0.1779  0.1068 -0.5575
 8247SOL    HW136203   3.905   2.387   6.348  0.7203 -0.8560  1.9314
 8247SOL    HW236204   3.784   2.475   6.330 -1.7745  0.1236  0.4593
 8248SOL     OW36205   0.584   0.262   9.257 -0.6558 -0.2642  0.6148
 8248SOL    HW136206   0.584   0.295   9.347 -2.5933  1.5968 -0.0726
 8248SOL    HW236207   0.671   0.222   9.259 -0.1631  0.7268 -1.5473
 8249SOL     OW36208   3.179   4.134   8.471  0.6176 -0.0531 -0.6010
 8249SOL    HW136209   3.181   4.134   8.375 -2.2804 -1.5117 -0.6504
 8249SOL    HW236210   3.271   4.156   8.483  0.2046  0.3069  1.7797
 8250SOL     OW36211   3.185   2.789   1.895 -1.1079 -0.1886 -0.0681
 8250SOL    HW136212   3.198   2.860   1.958  0.3790 -0.4739 -0.0541
 8250SOL    HW236213   3.234   2.722   1.943 -1.4891 -0.6261 -0.3002
 8251SOL     OW36214   3.997   4.192   1.892  0.0095 -0.1227  0.1694
 8251SOL    HW136215   3.938   4.164   1.823  2.9784 -1.1675 -1.9563
 8251SOL    HW236216   4.081   4.162   1.858 -1.3625 -1.1120 -2.2919
 8252SOL     OW36217   1.787   2.648   5.938  0.5627 -0.0831  0.1763
 8252SOL    HW136218   1.755   2.658   6.028 -0.4144 -0.5774 -0.1216
 8252SOL    HW236219   1.717   2.595   5.900  1.5607 -1.8809  0.8515
 8253SOL     OW36220   2.260   0.531   7.709  0.1691  0.0491  0.1587
 8253SOL    HW136221   2.281   0.518   7.616 -1.5501 -1.2584 -0.0477
 8253SOL    HW236222   2.325   0.599   7.726 -1.1680  1.4209 -0.1455
 8254SOL     OW36223   0.080   3.897  16.004  0.4143  0.8705  0.0560
 8254SOL    HW136224   0.025   3.957  15.954 -0.1797  0.5554  0.3262
 8254SOL    HW236225   0.009   3.848  16.045  1.1183 -1.2759 -1.2628
 8255SOL     OW36226   2.960   2.345  11.458 -0.4900 -0.2952 -0.4459
 8255SOL    HW136227   3.020   2.310  11.393  0.4695  0.7158 -0.1156
 8255SOL    HW236228   2.916   2.267  11.490  1.3341 -1.2592 -0.2685
 8256SOL     OW36229   3.269   1.509   8.054  0.1957  0.3973 -0.2031
 8256SOL    HW136230   3.221   1.500   7.972 -0.5253 -0.4128  0.3168
 8256SOL    HW236231   3.326   1.584   8.037 -0.2318  0.7993  0.1324
 8257SOL     OW36232   2.045   2.280   0.336 -0.2752 -0.2407 -0.3183
 8257SOL    HW136233   2.077   2.299   0.424 -3.0886 -1.4110  0.9417
 8257SOL    HW236234   2.031   2.185   0.338  1.0997 -0.3967  2.0123
 8258SOL     OW36235   1.160   4.162   4.585  0.1445 -0.2103  0.6836
 8258SOL    HW136236   1.065   4.152   4.580  0.1702  0.2357 -0.7677
 8258SOL    HW236237   1.180   4.150   4.678 -1.0578 -2.2106  0.6948
 8259SOL     OW36238   0.541   0.305   2.500 -0.2953 -0.1646  0.1168
 8259SOL    HW136239   0.579   0.392   2.487  1.5242 -1.3630 -2.6952
 8259SOL    HW236240   0.456   0.319   2.458  0.7648 -1.2701 -2.4024
 8260SOL     OW36241   1.053   4.493   6.237 -0.3280  0.0881  0.3032
 8260SOL    HW136242   1.144   4.502   6.262 -0.5510 -1.0941  1.5554
 8260SOL    HW236243   1.016   4.527   6.319  0.5929  0.1750  0.6781
 8261SOL     OW36244   2.533   2.428   3.175 -0.0850  0.5417  0.1825
 8261SOL    HW136245   2.546   2.519   3.147 -1.8474  0.7211 -0.0290
 8261SOL    HW236246   2.597   2.431   3.246  1.8729 -3.1239 -1.4310
 8262SOL     OW36247   2.053   4.224   5.068  0.0465  0.4890 -0.5571
 8262SOL    HW136248   2.038   4.265   4.983  0.8921 -1.2876 -1.5454
 8262SOL    HW236249   2.148   4.222   5.071 -0.0292 -0.5175  1.5671
 8263SOL     OW36250   1.831   3.324  16.052  0.5065  0.0718  0.2978
 8263SOL    HW136251   1.866   3.391  15.994 -0.2183  0.4364  0.2868
 8263SOL    HW236252   1.737   3.316  16.036  0.4565  1.7879 -0.3207
 8264SOL     OW36253   1.449   1.215   6.277 -1.0320 -0.5358  0.4265
 8264SOL    HW136254   1.514   1.192   6.210 -1.5443 -1.7519  0.3545
 8264SOL    HW236255   1.386   1.144   6.265 -0.8623 -1.1658  3.2301
 8265SOL     OW36256   0.997   2.735   2.907 -0.1786  1.0263 -0.1699
 8265SOL    HW136257   0.996   2.769   2.817 -0.5731  0.1589 -0.4880
 8265SOL    HW236258   1.037   2.653   2.880 -0.9981  0.3862  0.5919
 8266SOL     OW36259   0.941   4.318   2.389 -0.5988  0.5984  0.2548
 8266SOL    HW136260   0.910   4.404   2.416 -1.0621 -0.1086  1.9731
 8266SOL    HW236261   0.983   4.355   2.311  2.0535 -1.0961  0.8852
 8267SOL     OW36262   2.031   2.343   7.408  0.2515  0.3777  0.3114
 8267SOL    HW136263   2.037   2.291   7.488 -0.7827  0.3221  0.3540
 8267SOL    HW236264   2.109   2.396   7.422  0.2879  0.4419 -0.1253
 8268SOL     OW36265   4.259   1.794  16.940  0.4145 -0.6230  0.5044
 8268SOL    HW136266   4.208   1.744  17.003  0.3203 -1.5691 -0.3361
 8268SOL    HW236267   4.346   1.781  16.978  1.3801  0.1723 -1.4574
 8269SOL     OW36268   2.913   0.374   6.899  0.1343 -1.0171  0.2335
 8269SOL    HW136269   2.970   0.301   6.877  0.2304 -0.1218 -2.5106
 8269SOL    HW236270   2.860   0.334   6.967  0.2136  1.7945  1.9658
 8270SOL     OW36271   0.427   2.773   8.206  0.4291  0.0176  0.2131
 8270SOL    HW136272   0.364   2.716   8.250  0.3404 -0.9756 -1.2045
 8270SOL    HW236273   0.398   2.861   8.228  0.2355  0.1802 -0.7026
 8271SOL     OW36274   1.781   3.342   4.013 -0.5416 -1.1177  0.0819
 8271SOL    HW136275   1.853   3.281   3.996  1.4693  0.3376  3.3704
 8271SOL    HW236276   1.840   3.417   4.008 -2.0260  0.0011 -0.6067
 8272SOL     OW36277   2.266   0.512   7.972  0.1638  0.1428  0.2029
 8272SOL    HW136278   2.359   0.528   7.989  0.4576  0.1442 -1.3620
 8272SOL    HW236279   2.272   0.489   7.879  1.5878 -2.0996  0.8522
 8273SOL     OW36280   4.174   0.186   5.855  0.5601  0.2127 -1.0034
 8273SOL    HW136281   4.109   0.247   5.891  1.9679  1.4327 -0.5360
 8273SOL    HW236282   4.154   0.177   5.762 -0.4722 -0.4752 -0.7084
 8274SOL     OW36283   3.193   4.070   0.866 -0.1722 -0.2436 -0.2099
 8274SOL    HW136284   3.258   4.061   0.936 -0.5060 -0.3291  0.0909
 8274SOL    HW236285   3.148   4.150   0.894  0.3132  0.1200 -0.4498
 8275SOL     OW36286   2.642   0.338   7.387 -0.0345 -0.2663  0.1379
 8275SOL    HW136287   2.600   0.375   7.309  2.0260  0.0146 -0.8493
 8275SOL    HW236288   2.600   0.375   7.465 -0.2298  2.0872 -1.0748
 8276SOL     OW36289   0.800   1.306   2.069 -0.1228  0.3156 -0.3944
 8276SOL    HW136290   0.763   1.385   2.108 -2.1865 -0.2700 -1.1740
 8276SOL    HW236291   0.834   1.329   1.983 -0.0858  1.2332 -0.1323
 8277SOL     OW36292   1.851   2.454   2.121 -0.3107 -0.5099 -0.0876
 8277SOL    HW136293   1.833   2.362   2.140 -1.3429 -0.5043 -1.0156
 8277SOL    HW236294   1.778   2.482   2.064  0.1540 -0.6715 -0.7638
 8278SOL     OW36295   4.163   2.593  16.203  0.1452 -0.1734  0.2554
 8278SOL    HW136296   4.184   2.500  16.206 -1.9846 -0.6928 -0.8246
 8278SOL    HW236297   4.213   2.628  16.276 -0.2105 -0.2426  0.5378
 8279SOL     OW36298   1.746   4.100   3.608 -0.0413 -0.0354  0.0093
 8279SOL    HW136299   1.693   4.177   3.590 -1.4418 -0.9355  0.3082
 8279SOL    HW236300   1.687   4.050   3.664  2.9066 -1.3233  1.9986
 8280SOL     OW36301   2.280   0.687  11.711 -0.0927  0.1365 -0.2446
 8280SOL    HW136302   2.247   0.769  11.674 -0.0716  1.5559  2.8897
 8280SOL    HW236303   2.220   0.668  11.783 -0.1330  2.0980  0.2438
 8281SOL     OW36304   3.568   3.059  13.640 -0.1877 -0.0643 -0.3269
 8281SOL    HW136305   3.562   3.111  13.560 -0.0645  1.7548  0.8387
 8281SOL    HW236306   3.607   2.981  13.602 -1.1993 -0.5188 -0.4290
 8282SOL     OW36307   2.266   2.395   8.196  0.2057 -0.0716 -0.7126
 8282SOL    HW136308   2.358   2.409   8.218  0.0554 -0.4884  0.1928
 8282SOL    HW236309   2.263   2.299   8.198 -0.6741 -0.1058 -3.4796
 8283SOL     OW36310   3.557   1.700   3.577  0.2868  0.0067  0.2272
 8283SOL    HW136311   3.480   1.751   3.550  1.4465  1.6892  0.0669
 8283SOL    HW236312   3.618   1.771   3.597 -2.3078  2.1081  0.7136
 8284SOL     OW36313   4.605   4.266   7.667 -0.4019 -0.2361  0.0116
 8284SOL    HW136314   4.547   4.191   7.678  0.8199 -1.3875 -1.3537
 8284SOL    HW236315   4.665   4.233   7.601  0.4379  2.4004 -0.5609
 8285SOL     OW36316   0.930   1.906   3.141  0.5277  0.8171  0.4202
 8285SOL    HW136317   0.940   1.900   3.046  0.7309  1.0259  0.4295
 8285SOL    HW236318   0.999   1.844   3.166  1.4665  1.1384 -1.3138
 8286SOL     OW36319   3.396   4.609   4.885  0.3769 -0.3473  0.5871
 8286SOL    HW136320   3.352   4.662   4.952  1.5592  0.4146  0.7495
 8286SOL    HW236321   3.390   4.655   4.801 -0.5085 -0.1945  0.7236
 8287SOL     OW36322   1.412   2.106   6.413 -0.1683 -0.0276 -0.1398
 8287SOL    HW136323   1.423   2.139   6.502  0.6789 -1.7177  0.3856
 8287SOL    HW236324   1.363   2.025   6.427  2.8753 -1.4869  2.2180
 8288SOL     OW36325   3.501   3.897   2.953  0.0872  0.4812  0.0314
 8288SOL    HW136326   3.460   3.975   2.915 -0.1159  0.4545  0.1942
 8288SOL    HW236327   3.594   3.919   2.943  0.5103 -1.8385 -1.1665
 8289SOL     OW36328   4.064   2.938   6.132 -0.1075  0.2176  0.0796
 8289SOL    HW136329   4.086   2.956   6.224 -1.5382  1.8882  0.0781
 8289SOL    HW236330   3.970   2.954   6.124 -0.1694  0.5601  1.4262
 8290SOL     OW36331   0.806   2.417   3.366 -0.4080 -0.5586  0.1942
 8290SOL    HW136332   0.899   2.410   3.388 -0.2150 -2.0826 -1.1477
 8290SOL    HW236333   0.796   2.336   3.317 -0.2640 -0.3047 -0.2562
 8291SOL     OW36334   4.040   1.856  13.996 -0.6985  0.2679  0.1173
 8291SOL    HW136335   4.089   1.917  13.941 -0.1104 -2.6754 -2.6390
 8291SOL    HW236336   3.973   1.917  14.027 -0.5310  0.8491 -0.6405
 8292SOL     OW36337   3.936   3.375   5.981  0.2837 -0.0992  0.5858
 8292SOL    HW136338   3.902   3.451   6.027  1.0449 -0.2381  1.3822
 8292SOL    HW236339   3.919   3.300   6.038 -0.9987 -0.2835 -0.0443
 8293SOL     OW36340   4.076   4.544   0.711  0.3341  0.4932  0.3221
 8293SOL    HW136341   4.012   4.565   0.779 -1.9120 -0.2825 -1.5729
 8293SOL    HW236342   4.111   4.626   0.674  0.6967 -0.8923 -2.4438
 8294SOL     OW36343   2.905   0.249   3.142 -0.3383  0.1925  0.2158
 8294SOL    HW136344   2.996   0.233   3.119 -1.0353 -1.9824 -1.0204
 8294SOL    HW236345   2.883   0.156   3.137 -0.2818  0.1752  0.2805
 8295SOL     OW36346   0.014   3.365  13.497 -0.0568  0.4940  0.5777
 8295SOL    HW136347   0.031   3.424  13.423 -0.6217 -0.4162 -0.2794
 8295SOL    HW236348   0.024   3.419  13.575 -1.3228 -0.8893  1.6855
 8296SOL     OW36349   2.781   2.426   1.430  0.3364 -0.2407  0.0498
 8296SOL    HW136350   2.812   2.354   1.375 -1.2408 -2.2735  1.8237
 8296SOL    HW236351   2.783   2.387   1.518 -0.3515  0.7707  0.5141
 8297SOL     OW36352   1.346   3.487  14.051  0.0604  0.2538 -0.1701
 8297SOL    HW136353   1.402   3.540  13.994  2.8101 -1.4601  0.9115
 8297SOL    HW236354   1.323   3.407  14.003 -2.8222  2.3321 -2.2151
 8298SOL     OW36355   2.041   2.229   8.583 -0.2547 -1.1763 -0.1770
 8298SOL    HW136356   2.004   2.158   8.531  0.3500 -1.6687  0.0750
 8298SOL    HW236357   1.968   2.291   8.575  0.0107 -0.9788 -1.0872
 8299SOL     OW36358   4.629   1.392   9.184  0.1643  0.4657  0.2098
 8299SOL    HW136359   4.618   1.486   9.173  0.0917 -0.0044 -3.7092
 8299SOL    HW236360   4.694   1.377   9.115  1.4051 -1.2277  1.7418
 8300SOL     OW36361   4.383   4.635   3.030 -0.0076 -0.7343  0.2448
 8300SOL    HW136362   4.459   4.639   3.088 -0.9718 -0.3905  1.4853
 8300SOL    HW236363   4.432   4.681   2.962  0.7018 -0.9962  0.5817
 8301SOL     OW36364   4.476   3.163   4.929  0.5324  0.0070  0.1265
 8301SOL    HW136365   4.543   3.157   4.997 -0.4742  0.3585  1.1509
 8301SOL    HW236366   4.487   3.077   4.887 -1.9377  1.1125 -2.8600
 8302SOL     OW36367   0.940   3.194   0.186  0.6146  0.6110  0.2450
 8302SOL    HW136368   0.845   3.192   0.178  0.5315  0.3562  1.2652
 8302SOL    HW236369   0.955   3.175   0.278  1.2963  1.0593  0.2357
 8303SOL     OW36370   3.738   0.526   6.643 -0.3230  0.5015  0.0503
 8303SOL    HW136371   3.753   0.602   6.700  0.8340  1.2322 -1.2342
 8303SOL    HW236372   3.651   0.502   6.675  1.1127  1.1203  4.4172
 8304SOL     OW36373   0.449   2.624   5.102  0.0419 -0.2547 -0.2282
 8304SOL    HW136374   0.518   2.569   5.063 -1.3644 -2.1286 -0.0923
 8304SOL    HW236375   0.393   2.556   5.141  0.9215 -0.5101  0.5907
 8305SOL     OW36376   0.603   4.701   0.876 -0.2041  0.1478  0.1200
 8305SOL    HW136377   0.532   4.663   0.825 -0.6441  0.3652  0.5643
 8305SOL    HW236378   0.673   4.695   0.811 -0.2587 -0.2127  0.0932
 8306SOL     OW36379   0.611   3.536   7.227 -0.3773 -0.1038  0.3978
 8306SOL    HW136380   0.590   3.484   7.150 -2.0955  0.8689  0.2165
 8306SOL    HW236381   0.584   3.473   7.294 -0.6250 -0.4271 -0.0042
 8307SOL     OW36382   3.514   2.537  15.383  0.0903 -0.1435  0.3094
 8307SOL    HW136383   3.470   2.473  15.327  0.3784 -0.9370  0.9888
 8307SOL    HW236384   3.441   2.542  15.445  0.9621 -2.1416  1.4772
 8308SOL     OW36385   2.975   4.564   0.380  0.3525  0.1604 -0.3334
 8308SOL    HW136386   2.977   4.543   0.474 -0.1580  1.7821  0.0272
 8308SOL    HW236387   3.032   4.503   0.334  2.3590  1.2853  0.6810
 8309SOL     OW36388   3.700   0.627   4.904 -0.0213 -0.0135  0.4494
 8309SOL    HW136389   3.768   0.680   4.862 -0.9138  1.0055  0.2896
 8309SOL    HW236390   3.623   0.676   4.874  2.6314  4.0726  0.2338
 8310SOL     OW36391   1.485   1.831   8.039  0.1381 -0.5023  0.3427
 8310SOL    HW136392   1.454   1.858   7.952  1.4325  0.1048  0.0693
 8310SOL    HW236393   1.401   1.804   8.075 -0.0528 -1.4496 -0.8049
 8311SOL     OW36394   2.484   0.006  11.854 -0.6220  0.2488 -0.0016
 8311SOL    HW136395   2.404   0.054  11.874  0.3527  1.2892  1.4063
 8311SOL    HW236396   2.540   0.082  11.841 -0.6602  0.1907 -0.4897
 8312SOL     OW36397   0.776   0.888   5.707  0.3750  0.3987 -0.2898
 8312SOL    HW136398   0.868   0.908   5.722  0.6410 -0.5538 -0.6613
 8312SOL    HW236399   0.766   0.813   5.765 -0.7341  0.1920 -0.7312
 8313SOL     OW36400   2.499   3.568   8.801 -0.1609 -0.0541  0.0496
 8313SOL    HW136401   2.586   3.605   8.786 -1.5004  2.6097 -1.2610
 8313SOL    HW236402   2.494   3.563   8.897  2.2039 -1.5015  0.0717
 8314SOL     OW36403   2.033   2.406   8.851 -0.5145 -0.5624 -0.3556
 8314SOL    HW136404   2.006   2.337   8.790 -1.0813 -0.1594 -0.5699
 8314SOL    HW236405   2.113   2.440   8.811 -0.3743 -0.1882  0.2465
 8315SOL     OW36406   0.486   2.741   8.823 -0.7046  0.0009  0.2173
 8315SOL    HW136407   0.398   2.720   8.792  0.1021 -1.3879 -1.0924
 8315SOL    HW236408   0.478   2.836   8.819  2.7331  0.3245  0.7341
 8316SOL     OW36409   1.713   4.715   9.354 -0.7114  0.2565  0.2878
 8316SOL    HW136410   1.764   0.069   9.375 -0.2643  0.6634 -2.2586
 8316SOL    HW236411   1.769   4.649   9.394 -1.6039 -0.6439  0.0566
 8317SOL     OW36412   4.102   3.781   4.184 -0.6503  0.4448  0.2369
 8317SOL    HW136413   4.121   3.777   4.278  0.0527  0.2971  0.0845
 8317SOL    HW236414   4.172   3.841   4.159 -0.5541  0.4588  0.5471
 8318SOL     OW36415   1.549   2.974  16.854  0.0586 -0.1027  0.0061
 8318SOL    HW136416   1.470   3.011  16.892 -0.0639  0.4691 -0.8236
 8318SOL    HW236417   1.617   3.034  16.885 -0.1546  0.9811 -1.6409
 8319SOL     OW36418   2.666   0.355   8.361 -0.2244 -0.0873 -0.4066
 8319SOL    HW136419   2.717   0.418   8.412  0.6786  0.6213 -2.1919
 8319SOL    HW236420   2.641   0.297   8.433 -0.7590  0.9931  0.2759
 8320SOL     OW36421   3.237   3.059   4.613 -0.5948 -0.0377 -1.0145
 8320SOL    HW136422   3.168   3.028   4.554 -1.7656  2.1670 -0.7954
 8320SOL    HW236423   3.277   2.978   4.646  0.0875 -0.2985 -2.4852
 8321SOL     OW36424   3.616   0.632  16.870  0.1508  0.1766 -0.7525
 8321SOL    HW136425   3.558   0.692  16.824 -0.8397  1.9467  2.8427
 8321SOL    HW236426   3.609   0.557  16.812 -1.6505 -2.1290  2.4438
 8322SOL     OW36427   3.112   3.115  11.588 -0.4190  0.2697  0.1966
 8322SOL    HW136428   3.151   3.203  11.587 -2.2390  1.0780  0.5973
 8322SOL    HW236429   3.107   3.104  11.493  0.2168 -1.8120  0.4215
 8323SOL     OW36430   1.749   1.474  14.410 -0.0833  0.7455  0.1898
 8323SOL    HW136431   1.769   1.384  14.432 -0.8304 -0.0573 -2.3765
 8323SOL    HW236432   1.827   1.499  14.360 -1.9584  2.0289 -2.1163
 8324SOL     OW36433   3.425   3.469   3.414 -0.2441  0.1912 -0.3288
 8324SOL    HW136434   3.438   3.378   3.388 -3.3317 -0.9739  2.1950
 8324SOL    HW236435   3.510   3.485   3.455 -0.5624 -2.5421  1.4090
 8325SOL     OW36436   0.544   3.701   1.799  0.3004 -0.0894  0.1526
 8325SOL    HW136437   0.511   3.790   1.812  1.8045  0.7493 -1.8894
 8325SOL    HW236438   0.613   3.690   1.865  0.4788 -1.1417 -0.2099
 8326SOL     OW36439   1.131   4.723   7.648 -0.1390 -1.1412  0.0639
 8326SOL    HW136440   1.122   0.091   7.672  0.6220 -0.7627 -1.0750
 8326SOL    HW236441   1.181   4.687   7.721 -0.3335 -3.0777 -0.7686
 8327SOL     OW36442   0.572   2.520   9.237  0.0129  0.7373 -0.1640
 8327SOL    HW136443   0.484   2.485   9.220 -0.9045  2.6088  0.6853
 8327SOL    HW236444   0.613   2.456   9.295 -1.1342  2.6432  2.7511
 8328SOL     OW36445   2.813   2.019  17.340  0.0623 -0.2090 -0.9191
 8328SOL    HW136446   2.829   2.046  17.250 -0.4435  0.8732 -0.6877
 8328SOL    HW236447   2.785   2.102  17.380 -0.3363 -0.9326  0.2938
 8329SOL     OW36448   0.807   1.492   2.464  0.2690 -0.2942  0.6356
 8329SOL    HW136449   0.885   1.448   2.431 -0.0809 -0.7170  0.3709
 8329SOL    HW236450   0.743   1.469   2.397  0.7916  1.8279 -0.5598
 8330SOL     OW36451   4.235   2.780   3.029  0.3885 -0.0555 -0.0951
 8330SOL    HW136452   4.178   2.856   3.040  2.1425  0.7641  3.2258
 8330SOL    HW236453   4.192   2.711   3.079 -0.2109  0.5601  0.2402
 8331SOL     OW36454   0.882   1.364   6.601  0.2470  0.0274  0.0726
 8331SOL    HW136455   0.913   1.446   6.564 -0.5174 -0.1756 -1.0217
 8331SOL    HW236456   0.937   1.302   6.553 -3.0815 -2.6260 -0.3251
 8332SOL     OW36457   2.561   2.933   1.590 -0.3398  0.0516 -0.3660
 8332SOL    HW136458   2.645   2.977   1.607 -0.8670  0.5957  0.7843
 8332SOL    HW236459   2.506   2.991   1.643  1.1398  0.9898  0.1438
 8333SOL     OW36460   4.335   0.005   4.326 -0.2187  0.0475 -0.3807
 8333SOL    HW136461   4.257   0.030   4.277 -1.1331 -0.9833  0.5597
 8333SOL    HW236462   4.391   0.080   4.305  0.4803 -0.4938 -0.4334
 8334SOL     OW36463   4.720   2.820   5.286 -0.4397 -0.1222  0.3297
 8334SOL    HW136464   4.628   2.845   5.296 -0.7469  0.0773 -3.0577
 8334SOL    HW236465   0.023   2.781   5.369  1.0903  0.4125  0.0874
 8335SOL     OW36466   0.867   2.186   3.032 -0.4087  0.4814 -0.4026
 8335SOL    HW136467   0.778   2.193   3.067 -0.2904 -2.6622  0.5052
 8335SOL    HW236468   0.866   2.092   3.010 -0.7617 -0.3464  3.1067
 8336SOL     OW36469   3.464   0.998  11.456  0.4371  0.0408  0.0672
 8336SOL    HW136470   3.393   1.037  11.506 -0.7556 -3.0018  0.7458
 8336SOL    HW236471   3.500   1.071  11.406  0.2021  0.1246  0.0222
 8337SOL     OW36472   1.443   4.393   8.828  0.1807  0.1443  0.6250
 8337SOL    HW136473   1.488   4.311   8.810  0.6057  0.5254 -0.0460
 8337SOL    HW236474   1.509   4.456   8.799  0.4675  0.2455  1.5017
 8338SOL     OW36475   2.680   2.066   5.828  0.8805 -0.1916  0.3180
 8338SOL    HW136476   2.618   2.039   5.760  1.0514 -1.6719  0.7542
 8338SOL    HW236477   2.630   2.138   5.868 -3.2682 -2.1122 -1.3929
 8339SOL     OW36478   0.003   2.365   0.117  0.5764  0.3663 -0.0495
 8339SOL    HW136479   0.036   2.359   0.206  0.7260  0.6437 -0.0887
 8339SOL    HW236480   4.643   2.404   0.141  0.8273  1.1481 -0.4495
 8340SOL     OW36481   1.360   1.291  10.673 -0.1891 -0.1101 -0.0270
 8340SOL    HW136482   1.325   1.315  10.587  0.2088  1.5655  0.2882
 8340SOL    HW236483   1.389   1.377  10.703  1.2596 -0.8837  0.7820
 8341SOL     OW36484   2.966   3.871   1.676  0.0163  0.0824 -0.6339
 8341SOL    HW136485   2.986   3.891   1.767  2.5794  1.0725 -1.4230
 8341SOL    HW236486   2.916   3.790   1.686  0.1260  0.0570 -0.3040
 8342SOL     OW36487   1.676   2.066  12.880  0.0544  0.0131  0.2513
 8342SOL    HW136488   1.760   2.025  12.860 -1.6033 -3.7312  0.8402
 8342SOL    HW236489   1.621   2.007  12.827 -0.6167  1.7670 -0.9933
 8343SOL     OW36490   0.762   3.604   9.197 -0.4977 -0.1987  0.0913
 8343SOL    HW136491   0.758   3.508   9.190  0.6179 -0.4359  2.6951
 8343SOL    HW236492   0.728   3.622   9.109 -0.2326 -2.1321 -0.4167
 8344SOL     OW36493   1.944   3.802   0.058 -0.5847 -0.0460  0.1948
 8344SOL    HW136494   2.036   3.779   0.047 -0.4385 -0.9136  3.3910
 8344SOL    HW236495   1.925   3.827  17.666  1.2661  1.8170  0.3291
 8345SOL     OW36496   0.159   4.541   5.663  0.2715 -0.4487  0.1247
 8345SOL    HW136497   0.074   4.543   5.618 -0.9510  1.9987  2.5314
 8345SOL    HW236498   0.140   4.582   5.747 -0.6899 -2.1210  0.7102
 8346SOL     OW36499   2.366   3.178  10.520  0.0891  0.8833  0.0916
 8346SOL    HW136500   2.350   3.251  10.459 -2.4555  0.5650  0.4089
 8346SOL    HW236501   2.461   3.167  10.518 -0.1635 -0.9421 -2.1455
 8347SOL     OW36502   0.214   2.255   4.028 -0.4838 -0.0827  0.4667
 8347SOL    HW136503   0.129   2.228   4.063 -0.3203  0.7168  1.5179
 8347SOL    HW236504   0.269   2.262   4.106  0.6566 -2.0333 -0.1786
 8348SOL     OW36505   0.616   1.196   0.900 -0.5002 -0.7576  0.0417
 8348SOL    HW136506   0.623   1.103   0.920 -2.0753 -0.4719  1.9326
 8348SOL    HW236507   0.526   1.197   0.869 -1.1493 -1.0266  1.8930
 8349SOL     OW36508   0.919   1.542   7.066  0.3966  0.4056  0.4312
 8349SOL    HW136509   0.845   1.488   7.039  0.0053  0.8974  0.5267
 8349SOL    HW236510   0.921   1.512   7.157  2.0536  1.7717  0.8601
 8350SOL     OW36511   2.335   4.372   8.282 -0.0933 -0.2642  0.2305
 8350SOL    HW136512   2.317   4.446   8.224  1.3001 -0.8022 -0.8659
 8350SOL    HW236513   2.338   4.414   8.368  0.9447  1.2599 -0.5580
 8351SOL     OW36514   1.722   2.815  16.620  0.3359 -0.2051 -0.0136
 8351SOL    HW136515   1.751   2.898  16.581  2.1951  0.2460  2.3417
 8351SOL    HW236516   1.664   2.838  16.692 -0.5927 -1.0085 -0.5057
 8352SOL     OW36517   3.905   1.324   4.714 -0.5759  0.4532  0.5823
 8352SOL    HW136518   3.966   1.321   4.641 -1.8732  2.0594 -0.5596
 8352SOL    HW236519   3.821   1.314   4.669 -1.1355 -0.8391  1.9298
 8353SOL     OW36520   0.909   0.121   7.335 -0.0943 -0.5994 -0.5071
 8353SOL    HW136521   0.912   0.050   7.399 -0.9863 -1.0841 -1.0055
 8353SOL    HW236522   0.912   0.073   7.253  0.8269 -0.1740 -0.7218
 8354SOL     OW36523   4.524   4.543   4.385  0.0941 -1.0140 -0.6038
 8354SOL    HW136524   4.455   4.609   4.373 -0.4117 -1.2435  1.0297
 8354SOL    HW236525   4.530   4.510   4.296  0.6882 -2.8940  0.1370
 8355SOL     OW36526   1.827   1.380   9.902 -0.2240 -0.0855  0.0110
 8355SOL    HW136527   1.908   1.351   9.944  0.6094 -0.3957 -1.8052
 8355SOL    HW236528   1.762   1.379   9.973  2.6597  0.8003  2.6619
 8356SOL     OW36529   0.507   1.492   3.797 -0.4243  0.2283 -0.0864
 8356SOL    HW136530   0.506   1.586   3.777 -0.8313  0.2055 -0.1623
 8356SOL    HW236531   0.425   1.478   3.750 -1.2391  0.1886  1.3867
 8357SOL     OW36532   2.918   0.006   2.113 -0.1680 -0.3751 -0.9003
 8357SOL    HW136533   2.899   0.079   2.054  0.1957  0.5764  0.1651
 8357SOL    HW236534   2.943   0.052   2.193  1.7714 -1.9291 -0.6172
 8358SOL     OW36535   3.675   0.046   9.333  0.0499 -0.0663  0.1204
 8358SOL    HW136536   3.734   0.121   9.326  1.4528 -1.4202 -2.4760
 8358SOL    HW236537   3.737   4.700   9.312  1.6428  1.2451  0.4158
 8359SOL     OW36538   3.540   3.750   8.438  0.2769  0.0692  0.1337
 8359SOL    HW136539   3.523   3.844   8.436 -0.2387 -0.0655 -2.6900
 8359SOL    HW236540   3.473   3.709   8.493 -0.0518  0.8937  0.3390
 8360SOL     OW36541   1.843   1.968  10.914 -0.0444 -0.2338 -0.1695
 8360SOL    HW136542   1.786   2.044  10.900  0.5165  0.2955  0.4316
 8360SOL    HW236543   1.908   2.010  10.970 -0.4647  1.1268 -0.6776
 8361SOL     OW36544   1.741   0.764  15.893  0.2815  0.0445  0.1810
 8361SOL    HW136545   1.768   0.672  15.892 -0.6783 -0.2334  1.1356
 8361SOL    HW236546   1.806   0.801  15.953 -1.9801 -1.6235  3.6260
 8362SOL     OW36547   3.055   1.662   1.015  0.4519  0.5041 -0.3530
 8362SOL    HW136548   2.990   1.708   0.963  0.7958  1.7718  0.3535
 8362SOL    HW236549   3.061   1.573   0.979  0.3329  0.7809 -1.0385
 8363SOL     OW36550   3.802   2.502  12.413 -0.2304 -0.0171 -0.2319
 8363SOL    HW136551   3.857   2.448  12.471  1.1860 -0.1749 -1.7149
 8363SOL    HW236552   3.771   2.435  12.353  0.4645 -0.2100 -0.3755
 8364SOL     OW36553   4.540   3.707  15.948  0.5266  0.0119 -0.9822
 8364SOL    HW136554   4.465   3.722  15.891  1.2448  0.4922 -1.7909
 8364SOL    HW236555   4.598   3.684  15.876 -1.0958 -0.3361 -2.1827
 8365SOL     OW36556   2.912   0.070   2.395  0.2557  0.2279  0.0359
 8365SOL    HW136557   2.884   0.017   2.469  0.1480 -0.6826 -0.6578
 8365SOL    HW236558   2.918   0.152   2.445  3.1821 -1.8217  3.0815
 8366SOL     OW36559   2.934   3.177   5.536  0.5092  0.4601  0.2708
 8366SOL    HW136560   2.875   3.152   5.465  0.3504  1.4055  0.0620
 8366SOL    HW236561   3.021   3.152   5.503 -0.4036 -0.5233 -1.3809
 8367SOL     OW36562   0.022   1.115   7.915  0.0249 -0.3940 -0.1365
 8367SOL    HW136563   0.027   1.135   7.821  0.3365 -0.1389 -0.0652
 8367SOL    HW236564   4.695   1.034   7.919  1.9465 -1.5161  1.3185
 8368SOL     OW36565   2.622   1.862   1.238  0.3934 -0.2298 -0.1244
 8368SOL    HW136566   2.646   1.928   1.173  2.6978 -0.1040  0.8215
 8368SOL    HW236567   2.541   1.890   1.279 -0.3526 -1.1193 -0.9917
 8369SOL     OW36568   3.714   2.787  13.577  0.1141 -0.1636 -0.1243
 8369SOL    HW136569   3.664   2.726  13.522  0.8234 -1.9236  1.2140
 8369SOL    HW236570   3.804   2.789  13.544  1.0024 -0.6091  2.3248
 8370SOL     OW36571   3.566   0.995  14.242 -0.1184 -0.1956  0.0716
 8370SOL    HW136572   3.489   1.049  14.261  0.5358  0.3225  1.2382
 8370SOL    HW236573   3.619   1.008  14.321  2.9904  2.3794 -2.4429
 8371SOL     OW36574   0.674   1.514   6.444 -0.0234  0.6808  0.5169
 8371SOL    HW136575   0.698   1.589   6.499  1.7280 -0.9930  2.0020
 8371SOL    HW236576   0.683   1.441   6.505 -0.3463 -0.5983 -0.9758
 8372SOL     OW36577   1.102   1.618   4.260 -0.3212  0.6093 -0.1439
 8372SOL    HW136578   1.032   1.585   4.204  2.0636 -1.6677 -1.7539
 8372SOL    HW236579   1.170   1.555   4.237 -2.8536 -2.5928  1.1349
 8373SOL     OW36580   0.062   0.935  14.761 -0.1681  0.0438  0.1160
 8373SOL    HW136581   0.022   0.861  14.808  0.0932 -0.5702 -0.6204
 8373SOL    HW236582   0.151   0.913  14.734  0.0200  2.2490 -0.9922
 8374SOL     OW36583   4.231   0.820  14.147  0.2000  0.2061 -0.5229
 8374SOL    HW136584   4.220   0.845  14.055 -0.4413  1.0959 -0.2046
 8374SOL    HW236585   4.253   0.908  14.177  0.2324  0.0237 -0.0106
 8375SOL     OW36586   3.434   2.036  15.274 -0.2244  0.1948 -0.0206
 8375SOL    HW136587   3.490   2.023  15.197 -1.3244 -1.7420 -0.5005
 8375SOL    HW236588   3.380   1.959  15.290 -0.8033  0.3838 -1.0879
 8376SOL     OW36589   4.148   1.799   4.466  0.2405 -0.1805  0.8363
 8376SOL    HW136590   4.085   1.776   4.535 -1.1044  2.1187  0.3545
 8376SOL    HW236591   4.152   1.894   4.479  0.0984 -0.0051 -0.4742
 8377SOL     OW36592   4.499   1.548  10.913  0.6209 -0.3612 -0.1044
 8377SOL    HW136593   4.526   1.457  10.902 -0.1647 -0.9051  2.5308
 8377SOL    HW236594   4.570   1.604  10.881  1.0897 -0.1648  1.2649
 8378SOL     OW36595   2.502   2.074  15.508  0.2031 -0.1957 -0.1642
 8378SOL    HW136596   2.570   2.076  15.574  1.0282 -0.7582 -0.9905
 8378SOL    HW236597   2.424   2.063  15.563 -1.1176 -1.7107 -2.2762
 8379SOL     OW36598   1.291   2.585  17.368  0.4159 -0.1512  0.2432
 8379SOL    HW136599   1.328   2.602  17.281  0.2728 -0.4935  0.1165
 8379SOL    HW236600   1.208   2.544  17.345  1.2658 -2.3731  1.0735
 8380SOL     OW36601   0.917   3.922   7.578 -0.1958 -0.3671  0.1528
 8380SOL    HW136602   1.003   3.881   7.582 -2.4221 -4.9341  1.7473
 8380SOL    HW236603   0.922   3.991   7.644 -0.3849  0.8378 -1.0891
 8381SOL     OW36604   2.058   3.513   4.634  0.1230 -0.0478  0.0487
 8381SOL    HW136605   2.002   3.450   4.679 -1.3054  0.6457 -0.7776
 8381SOL    HW236606   2.061   3.470   4.548  0.0060 -0.0823  0.0627
 8382SOL     OW36607   3.647   3.595  13.386 -0.2506 -0.4521 -0.5600
 8382SOL    HW136608   3.602   3.529  13.439  2.0643 -1.4747  0.1083
 8382SOL    HW236609   3.693   3.649  13.451 -2.0742  0.3480  0.0577
 8383SOL     OW36610   0.019   4.182   4.988  0.3888  0.2662  0.9002
 8383SOL    HW136611   0.018   4.249   4.921 -1.1327 -0.7503 -0.0986
 8383SOL    HW236612   0.110   4.178   5.019  1.0267  1.2160 -0.8738
 8384SOL     OW36613   2.887   2.358   6.400 -0.3855 -0.2456 -0.5278
 8384SOL    HW136614   2.903   2.264   6.389 -0.8973 -0.3977  0.0617
 8384SOL    HW236615   2.875   2.358   6.495 -1.2145  1.1810 -0.6299
 8385SOL     OW36616   3.321   0.996   4.029 -0.1778  0.0165  0.1536
 8385SOL    HW136617   3.243   1.050   4.045 -1.7013 -2.4395  0.9489
 8385SOL    HW236618   3.285   0.934   3.966  2.6020 -1.7011  0.2565
 8386SOL     OW36619   2.740   0.517   6.724  0.4615 -0.0373 -0.1166
 8386SOL    HW136620   2.674   0.456   6.692 -0.5900  1.2792 -0.4301
 8386SOL    HW236621   2.791   0.472   6.791 -1.1109  0.9056  1.6766
 8387SOL     OW36622   1.427   1.724   2.772  0.0596  0.0609 -0.2784
 8387SOL    HW136623   1.483   1.684   2.840 -0.7629 -0.9228 -0.1787
 8387SOL    HW236624   1.341   1.732   2.813  0.6366 -0.8826  1.1206
 8388SOL     OW36625   0.318   1.365   2.693 -0.4952  0.3312  0.2694
 8388SOL    HW136626   0.283   1.426   2.629 -0.6435  0.9473  0.9457
 8388SOL    HW236627   0.247   1.323   2.740 -1.4749 -0.4087 -1.8737
 8389SOL     OW36628   2.929   2.469   2.927 -0.3994 -0.1885 -0.4427
 8389SOL    HW136629   2.946   2.559   2.955 -1.0090  0.0546 -0.8515
 8389SOL    HW236630   2.870   2.491   2.855 -1.2397  0.1077  0.3386
 8390SOL     OW36631   3.275   0.436   4.034 -0.4034  0.0448  0.8914
 8390SOL    HW136632   3.271   0.384   3.954 -1.3231 -0.9308  1.5811
 8390SOL    HW236633   3.361   0.411   4.066 -0.1783 -1.3192 -0.8223
 8391SOL     OW36634   2.381   0.670   5.057  0.1130  0.6329 -0.0762
 8391SOL    HW136635   2.386   0.576   5.042  2.0820  0.5659  0.8830
 8391SOL    HW236636   2.357   0.704   4.971 -0.4867 -0.8936 -0.5022
 8392SOL     OW36637   3.353   3.833  13.178  0.1603 -0.0969  0.0308
 8392SOL    HW136638   3.366   3.739  13.186 -0.3767 -0.4300 -2.8470
 8392SOL    HW236639   3.289   3.837  13.107 -0.5453  1.2671  0.7553
 8393SOL     OW36640   2.294   3.171   4.154  0.0726 -0.0251  0.2411
 8393SOL    HW136641   2.214   3.178   4.206  0.0578 -1.8429  0.4491
 8393SOL    HW236642   2.266   3.119   4.079 -1.4283  0.9465  0.1352
 8394SOL     OW36643   2.785   1.811   0.644 -0.2689 -0.2469  0.3638
 8394SOL    HW136644   2.710   1.868   0.661  0.7857  1.1906  0.1116
 8394SOL    HW236645   2.749   1.747   0.583 -1.0319  0.7553 -0.2395
 8395SOL     OW36646   0.962   1.471   5.594 -0.3490 -0.4565 -0.0800
 8395SOL    HW136647   1.011   1.389   5.604 -1.7924 -1.2219  0.8060
 8395SOL    HW236648   1.032   1.533   5.575 -1.3359  0.8654  0.6657
 8396SOL     OW36649   3.126   3.318  14.109 -1.4214  0.0670 -0.2193
 8396SOL    HW136650   3.111   3.223  14.113 -1.4335  0.0101 -1.5870
 8396SOL    HW236651   3.187   3.322  14.184 -0.8138 -1.9839 -0.5925
 8397SOL     OW36652   3.998   2.786   6.600  0.0974  0.6081  0.3813
 8397SOL    HW136653   4.063   2.725   6.565 -1.2778  0.4964 -1.9232
 8397SOL    HW236654   4.041   2.829   6.674  0.2839  0.0077  0.6198
 8398SOL     OW36655   4.087   0.313   6.787  0.0875  0.1481  0.4652
 8398SOL    HW136656   4.025   0.299   6.715 -0.5696 -0.5948  1.1757
 8398SOL    HW236657   4.036   0.291   6.865  1.7186 -1.9913  0.9353
 8399SOL     OW36658   3.425   1.886   6.833  0.2812 -0.0331  0.9313
 8399SOL    HW136659   3.450   1.979   6.838 -0.7023  0.2395  0.6195
 8399SOL    HW236660   3.334   1.893   6.806  1.3364  1.6937 -2.1934
 8400SOL     OW36661   3.111   2.997   8.475  0.2469  0.2500  0.0056
 8400SOL    HW136662   3.057   2.957   8.544 -0.5006  0.6322 -0.3619
 8400SOL    HW236663   3.141   2.920   8.427  0.1577 -0.1545  0.5831
 8401SOL     OW36664   2.524   3.301   6.164 -0.0415  0.2111  0.0566
 8401SOL    HW136665   2.531   3.230   6.099 -1.3574  1.6855 -1.6834
 8401SOL    HW236666   2.522   3.379   6.109  1.3225  1.0102  1.1448
 8402SOL     OW36667   3.226   2.768   4.682  0.3086  0.0477  0.3689
 8402SOL    HW136668   3.159   2.816   4.730 -0.4059 -0.0049 -0.5715
 8402SOL    HW236669   3.236   2.692   4.738  1.4901 -0.5353 -0.6167
 8403SOL     OW36670   2.497   4.652   9.980 -0.8305 -0.2146  0.2688
 8403SOL    HW136671   2.532   4.651  10.069  2.1165 -1.7205 -0.9124
 8403SOL    HW236672   2.429   4.719   9.978 -1.7731 -1.2075 -0.9036
 8404SOL     OW36673   2.738   0.714   8.009 -0.1241 -0.2383  0.0411
 8404SOL    HW136674   2.735   0.651   7.937 -0.2622 -0.9698  0.6969
 8404SOL    HW236675   2.767   0.792   7.962 -0.6571 -0.5501 -0.8106
 8405SOL     OW36676   0.389   4.410   5.428 -0.3510 -0.3772  0.6174
 8405SOL    HW136677   0.441   4.491   5.424 -0.4421 -0.3336  0.3349
 8405SOL    HW236678   0.318   4.432   5.369 -0.2601  2.6328  1.6099
 8406SOL     OW36679   1.621   0.212  17.628  0.3168 -0.0455  0.3396
 8406SOL    HW136680   1.674   0.141  17.591  0.7732  0.1696  0.5738
 8406SOL    HW236681   1.533   0.182  17.609  0.5110 -0.7008  0.4665
 8407SOL     OW36682   0.225   3.003   8.111  0.1524  0.4125 -0.0993
 8407SOL    HW136683   0.173   3.083   8.098  2.2121  1.6897 -0.3938
 8407SOL    HW236684   0.290   3.033   8.175  2.0659 -1.8897 -0.9947
 8408SOL     OW36685   2.174   3.824   8.196 -0.3698 -0.2499  0.0682
 8408SOL    HW136686   2.110   3.759   8.167 -1.0060  1.1093 -1.5117
 8408SOL    HW236687   2.145   3.859   8.280  0.0386  0.2303  0.0060
 8409SOL     OW36688   2.053   2.012   3.021  0.0926 -0.6654 -0.4493
 8409SOL    HW136689   2.054   1.919   2.999  1.6210 -1.0021  1.0748
 8409SOL    HW236690   2.111   2.016   3.097 -1.3845  0.5828  0.6276
 8410SOL     OW36691   3.027   4.701   5.161 -0.0158  0.1281  0.3615
 8410SOL    HW136692   2.943   0.019   5.145  0.0895  0.7740  1.5790
 8410SOL    HW236693   2.994   4.613   5.178 -0.0896 -0.1262 -1.0897
 8411SOL     OW36694   4.178   1.005   4.850 -0.3956  0.6521  0.3839
 8411SOL    HW136695   4.163   0.924   4.899  0.1588  0.2247 -0.1520
 8411SOL    HW236696   4.160   1.066   4.921 -0.8209  0.4731  0.4295
 8412SOL     OW36697   0.148   1.674   5.077  0.2429 -0.0657 -0.3333
 8412SOL    HW136698   0.225   1.642   5.124 -0.8318 -1.2620  0.6277
 8412SOL    HW236699   0.073   1.622   5.106 -0.4253 -1.1579 -4.0898
 8413SOL     OW36700   0.652   3.350   5.459  0.2089 -0.4309  0.0054
 8413SOL    HW136701   0.697   3.312   5.535 -0.0567  0.1566  0.4529
 8413SOL    HW236702   0.724   3.354   5.396  0.2326 -1.3709 -0.0262
 8414SOL     OW36703   0.105   2.181   9.984  1.1322 -0.1772 -0.2364
 8414SOL    HW136704   0.010   2.173   9.997  0.7522  1.9143 -1.6683
 8414SOL    HW236705   0.133   2.268  10.013 -0.6025 -0.1179  1.2909
 8415SOL     OW36706   1.136   0.265  11.389 -0.0797 -0.2173  0.6713
 8415SOL    HW136707   1.099   0.288  11.475 -1.4696  1.2266 -0.3081
 8415SOL    HW236708   1.228   0.288  11.403 -0.7103  1.5295  2.0753
 8416SOL     OW36709   3.205   1.589   1.971  0.2571 -0.8111 -0.9378
 8416SOL    HW136710   3.291   1.616   2.003  0.4252 -1.5818 -0.7475
 8416SOL    HW236711   3.213   1.494   1.964 -0.3895 -0.9588  0.4378
 8417SOL     OW36712   2.221   0.099   5.158 -0.1620  0.0180  0.3868
 8417SOL    HW136713   2.246   0.029   5.097  5.6851  0.9533  1.7290
 8417SOL    HW236714   2.127   0.113   5.141 -0.0464  1.9157  1.3534
 8418SOL     OW36715   4.031   4.011  15.897  0.1641  0.3266 -0.0065
 8418SOL    HW136716   3.939   3.985  15.907  0.4409 -0.7207 -0.1940
 8418SOL    HW236717   4.056   3.965  15.817 -1.1583  0.1200 -0.3029
 8419SOL     OW36718   3.208   1.426   5.234 -0.3227 -0.0087 -0.2272
 8419SOL    HW136719   3.124   1.380   5.232  0.0563 -0.6946 -0.2851
 8419SOL    HW236720   3.257   1.376   5.170 -0.9332  0.6781 -1.2320
 8420SOL     OW36721   1.640   1.444   0.003 -0.5045 -0.3499 -0.4442
 8420SOL    HW136722   1.631   1.361  17.654 -2.3679 -0.4335  0.0514
 8420SOL    HW236723   1.619   1.424   0.094 -0.9766  1.4080 -0.1615
 8421SOL     OW36724   1.818   3.334   2.820  0.0869 -0.4981 -0.0381
 8421SOL    HW136725   1.775   3.317   2.904  0.1781  2.0437  0.5223
 8421SOL    HW236726   1.896   3.280   2.832  1.8304  2.2428  0.8911
 8422SOL     OW36727   2.416   1.570   0.354  0.1789  0.2707  0.1634
 8422SOL    HW136728   2.423   1.641   0.290 -2.6640  0.2771 -0.1582
 8422SOL    HW236729   2.324   1.573   0.380 -0.1246  1.7203 -1.1421
 8423SOL     OW36730   3.131   2.327   8.648 -0.8260 -0.2583  0.5271
 8423SOL    HW136731   3.080   2.288   8.719 -2.3361 -0.2105 -0.5231
 8423SOL    HW236732   3.202   2.346   8.709 -0.4110 -3.0257  0.8768
 8424SOL     OW36733   3.393   3.924  10.152 -0.0629  0.3703 -0.3271
 8424SOL    HW136734   3.405   3.973  10.233  1.2760 -0.8826  0.2304
 8424SOL    HW236735   3.420   3.838  10.185 -1.2503 -0.0698 -0.5231
 8425SOL     OW36736   0.285   2.478   5.482  0.3242  0.3924  0.3286
 8425SOL    HW136737   0.244   2.510   5.563  1.0955 -1.1834  1.3303
 8425SOL    HW236738   0.298   2.386   5.502 -0.6698 -0.3905 -2.6517
 8426SOL     OW36739   1.547   1.745   0.474  0.6718 -0.8186  0.4264
 8426SOL    HW136740   1.478   1.792   0.520 -1.6787 -2.1966 -1.6876
 8426SOL    HW236741   1.616   1.771   0.535  0.5247  0.0051  0.2283
 8427SOL     OW36742   0.143   3.988   7.822 -1.0594 -0.5571 -0.4387
 8427SOL    HW136743   0.072   4.032   7.776 -0.5728 -0.9573 -1.5646
 8427SOL    HW236744   0.136   3.918   7.756  0.0436 -1.5975  0.5409
 8428SOL     OW36745   1.584   0.822   5.650  0.2011 -0.0055 -0.1552
 8428SOL    HW136746   1.666   0.777   5.667 -1.2085 -3.2244 -1.9248
 8428SOL    HW236747   1.606   0.851   5.561  1.7916 -0.0979  0.2126
 8429SOL     OW36748   3.390   2.948   5.170  0.0383 -0.4787 -0.5543
 8429SOL    HW136749   3.341   2.867   5.159 -0.1246 -0.3855 -0.5314
 8429SOL    HW236750   3.408   2.939   5.263 -0.6732  1.6930 -0.1922
 8430SOL     OW36751   1.809   2.814   3.868 -0.0185  0.3797 -0.0149
 8430SOL    HW136752   1.843   2.726   3.854 -0.8577  0.0935 -0.2497
 8430SOL    HW236753   1.722   2.800   3.830 -0.1853 -0.5510  0.6916
 8431SOL     OW36754   2.587   3.898   2.161  0.2228  0.0618  0.5069
 8431SOL    HW136755   2.611   3.827   2.101  1.2202 -0.0722  1.0611
 8431SOL    HW236756   2.553   3.956   2.093 -0.1695 -2.0037 -1.0524
 8432SOL     OW36757   1.245   3.764   6.206  0.1528 -0.0534  0.8792
 8432SOL    HW136758   1.223   3.740   6.296  0.2671 -0.6596  0.7437
 8432SOL    HW236759   1.337   3.780   6.228  0.4979 -1.6322  0.5474
 8433SOL     OW36760   0.685   0.497   3.566  0.0675 -0.3024 -0.0083
 8433SOL    HW136761   0.679   0.402   3.569 -1.4695 -0.1789  0.8375
 8433SOL    HW236762   0.595   0.515   3.593  0.1139  0.0101 -0.0575
 8434SOL     OW36763   0.328   2.313   2.817 -0.3471 -0.5216  0.2959
 8434SOL    HW136764   0.373   2.230   2.833 -1.0249 -0.2229  3.8311
 8434SOL    HW236765   0.242   2.274   2.829 -0.6769  0.2777  0.5223
 8435SOL     OW36766   0.150   1.617   9.087 -0.0081 -0.6440 -0.5829
 8435SOL    HW136767   0.145   1.634   9.181 -0.9714 -0.2348 -0.7011
 8435SOL    HW236768   0.103   1.693   9.051 -0.2221 -1.2180 -1.5020
 8436SOL     OW36769   0.921   3.550   5.477  0.0642  0.2497 -0.2279
 8436SOL    HW136770   0.887   3.468   5.513  0.7473 -1.0950 -2.6257
 8436SOL    HW236771   1.004   3.516   5.443  0.2707  1.4916 -0.9475
 8437SOL     OW36772   0.968   0.384   5.183  0.4122  0.6438 -0.2048
 8437SOL    HW136773   0.949   0.464   5.233  0.6558 -0.4170  1.5675
 8437SOL    HW236774   1.049   0.365   5.230  0.5328 -1.7686 -1.3749
 8438SOL     OW36775   3.011   1.044   0.946 -0.2933  0.2760 -0.1297
 8438SOL    HW136776   3.098   1.077   0.926 -0.1128  0.5420  1.1338
 8438SOL    HW236777   3.028   0.953   0.970 -0.1321 -0.8584 -4.4961
 8439SOL     OW36778   1.397   0.212  11.508  0.1037  0.4660 -0.1306
 8439SOL    HW136779   1.357   0.140  11.558  1.0307  0.6878  0.9075
 8439SOL    HW236780   1.398   0.271  11.583 -1.5622  0.0621  0.2217
 8440SOL     OW36781   2.780   2.407   8.823  0.2582  0.1551  0.2896
 8440SOL    HW136782   2.772   2.382   8.915 -0.8076  0.7333  0.3607
 8440SOL    HW236783   2.811   2.326   8.781 -1.3381  0.0492 -0.7136
 8441SOL     OW36784   4.110   2.232   8.005  0.1699  0.5833  0.1170
 8441SOL    HW136785   4.174   2.227   8.076  2.8162  1.2987 -2.1941
 8441SOL    HW236786   4.109   2.327   7.991 -0.1824 -0.1872 -5.0195
 8442SOL     OW36787   3.547   1.525  10.866  0.4088  0.3950  0.4345
 8442SOL    HW136788   3.584   1.571  10.942  0.5578  0.4706  0.3168
 8442SOL    HW236789   3.506   1.597  10.818  1.1830  1.1568  0.9132
 8443SOL     OW36790   0.485   4.610  15.330  0.0402 -0.2388 -0.5415
 8443SOL    HW136791   0.456   4.689  15.376  2.7794 -0.3217  1.3780
 8443SOL    HW236792   0.568   4.599  15.378  0.6738 -3.1965 -2.3393
 8444SOL     OW36793   4.326   2.107  10.467 -0.1138 -0.3371 -0.3029
 8444SOL    HW136794   4.313   2.123  10.561  1.5875 -1.9036  0.2121
 8444SOL    HW236795   4.367   2.020  10.461 -0.0119 -0.3701  0.7501
 8445SOL     OW36796   3.763   1.362  16.222 -0.7512 -0.3239  0.8955
 8445SOL    HW136797   3.688   1.419  16.238  0.7519  1.5790  1.1306
 8445SOL    HW236798   3.787   1.334  16.311  2.6816  0.4251  0.2190
 8446SOL     OW36799   2.184   1.299  15.492  0.0939 -0.1663 -0.4754
 8446SOL    HW136800   2.108   1.314  15.547  0.0476 -1.2192 -0.2577
 8446SOL    HW236801   2.205   1.210  15.520  0.8692  0.4787  0.9568
 8447SOL     OW36802   1.521   0.199   9.321 -0.0490  0.3539  0.1329
 8447SOL    HW136803   1.588   0.264   9.302 -1.3856  1.7120  0.1346
 8447SOL    HW236804   1.576   0.128   9.286 -1.3970 -0.1062 -1.0388
 8448SOL     OW36805   3.923   2.008   8.003  0.3405 -0.2595 -0.2791
 8448SOL    HW136806   3.971   2.089   7.992 -2.2918  1.2752 -0.3874
 8448SOL    HW236807   3.963   1.977   8.085 -3.2127 -1.8549  0.8822
 8449SOL     OW36808   2.692   0.723   0.530  0.9900 -0.2371 -0.6275
 8449SOL    HW136809   2.702   0.722   0.435  0.7260 -1.2532 -0.6399
 8449SOL    HW236810   2.781   0.697   0.553  0.2789 -1.4592  0.7538
 8450SOL     OW36811   1.355   1.560   4.544  0.1233 -0.5144 -0.1115
 8450SOL    HW136812   1.340   1.556   4.450 -3.1507  1.9022  0.3371
 8450SOL    HW236813   1.386   1.471   4.564  0.9114 -0.8058 -2.5577
 8451SOL     OW36814   0.843   0.712  16.263 -0.0179  0.3491  0.7688
 8451SOL    HW136815   0.907   0.667  16.209  0.4449  1.1586  0.6466
 8451SOL    HW236816   0.782   0.642  16.283 -0.7621  0.5846 -0.7303
 8452SOL     OW36817   3.919   4.707  15.286  0.1382 -0.8738 -0.0368
 8452SOL    HW136818   4.012   4.711  15.264 -0.2564  0.6951 -1.4783
 8452SOL    HW236819   3.902   4.613  15.290 -1.5863 -0.5899 -0.3413
 8453SOL     OW36820   2.211   1.316   4.055 -0.1579 -0.0872 -0.3537
 8453SOL    HW136821   2.206   1.396   4.004  2.2382  1.9880  2.7133
 8453SOL    HW236822   2.142   1.274   4.002  0.2214 -0.9951 -0.1361
 8454SOL     OW36823   1.274   0.344   4.783 -0.9128  0.5872  0.6779
 8454SOL    HW136824   1.205   0.281   4.799 -1.3761 -0.1874 -4.3810
 8454SOL    HW236825   1.265   0.410   4.852  3.5423 -0.6056  2.4588
 8455SOL     OW36826   4.491   4.714   7.706  0.1757  0.4517 -0.5450
 8455SOL    HW136827   4.532   0.068   7.669 -0.6186  1.3141  0.3926
 8455SOL    HW236828   4.478   0.029   7.792  1.0436  1.7462 -0.9964
 8456SOL     OW36829   2.581   1.217   3.941 -0.1984 -0.4178 -0.2425
 8456SOL    HW136830   2.643   1.180   3.878  1.3428  1.2115  0.3218
 8456SOL    HW236831   2.577   1.312   3.928  0.9377 -0.0118  2.4757
 8457SOL     OW36832   2.293   0.282   7.085 -0.0984 -0.0851  0.1491
 8457SOL    HW136833   2.211   0.279   7.134  0.7768  1.0363  1.6417
 8457SOL    HW236834   2.261   0.303   6.997  0.9586  1.0238  0.0362
 8458SOL     OW36835   1.723   2.385   1.058 -0.2907  0.0269  0.0362
 8458SOL    HW136836   1.713   2.469   1.013 -3.2788 -1.2590 -1.6999
 8458SOL    HW236837   1.644   2.339   1.030 -0.6693  1.4460 -1.2552
 8459SOL     OW36838   0.976   4.107   2.546 -0.2556  0.3093 -0.4413
 8459SOL    HW136839   0.954   4.184   2.493  0.9370 -0.7390 -2.4749
 8459SOL    HW236840   1.059   4.087   2.504 -0.8705  0.0360 -1.5297
 8460SOL     OW36841   4.338   2.539   7.762 -0.1146  0.1962 -0.1961
 8460SOL    HW136842   4.352   2.444   7.772  0.0288  0.1577 -0.8133
 8460SOL    HW236843   4.383   2.559   7.680  0.2669 -0.1775 -0.0823
 8461SOL     OW36844   0.336   4.312  15.500  0.0717  0.1206 -1.2875
 8461SOL    HW136845   0.407   4.370  15.528 -2.2949  2.6906 -0.6951
 8461SOL    HW236846   0.360   4.234  15.551 -1.1532  0.5760 -0.0399
 8462SOL     OW36847   3.107   1.470   2.682 -0.1734  0.5170  0.5277
 8462SOL    HW136848   3.064   1.550   2.652 -0.4188 -0.6120 -2.1768
 8462SOL    HW236849   3.025   1.420   2.689 -0.5529  0.8513 -1.4099
 8463SOL     OW36850   1.204   1.999   4.413  0.2375 -0.1922 -0.4800
 8463SOL    HW136851   1.237   2.033   4.330  0.4616  1.1775  0.1638
 8463SOL    HW236852   1.279   1.952   4.452  1.4402  1.4725 -0.7907
 8464SOL     OW36853   0.723   4.095  11.935 -0.5672  0.0770  0.0177
 8464SOL    HW136854   0.759   4.154  12.002 -1.1361  1.1983 -0.6716
 8464SOL    HW236855   0.659   4.155  11.897 -0.8701 -0.1933  0.1005
 8465SOL     OW36856   3.925   1.151   4.926 -0.4376 -0.1941  0.2988
 8465SOL    HW136857   3.906   1.211   4.854  1.5783 -1.2765 -1.1289
 8465SOL    HW236858   3.854   1.162   4.989  0.3276 -2.4216  1.5496
 8466SOL     OW36859   1.044   4.306   7.449  0.0937 -0.2288 -0.6226
 8466SOL    HW136860   1.112   4.239   7.459  0.2202  0.3920  2.8069
 8466SOL    HW236861   0.965   4.254   7.463  0.8181 -1.5505 -1.4867
 8467SOL     OW36862   1.895   3.802   6.064  0.5030  0.3806 -0.0793
 8467SOL    HW136863   1.949   3.769   5.991  0.9188  0.3137  0.2562
 8467SOL    HW236864   1.830   3.732   6.064  0.0573  0.8073 -1.8741
 8468SOL     OW36865   3.414   1.425   7.047 -0.3522  0.1072 -0.5797
 8468SOL    HW136866   3.360   1.357   7.008  0.1040 -0.5436 -0.0741
 8468SOL    HW236867   3.429   1.482   6.972  0.9519  0.1010 -0.3248
 8469SOL     OW36868   0.142   2.851   2.071 -0.5869  0.2232 -0.4206
 8469SOL    HW136869   0.166   2.811   1.987 -0.5613 -0.8194  0.0845
 8469SOL    HW236870   0.048   2.836   2.070 -0.5028 -0.3375  0.1121
 8470SOL     OW36871   3.375   2.128   8.843 -0.3230  0.4696  0.0927
 8470SOL    HW136872   3.365   2.223   8.846  2.6429  0.6418  3.1808
 8470SOL    HW236873   3.447   2.118   8.780 -2.0200 -0.1459 -1.7700
 8471SOL     OW36874   4.332   0.211   2.995  0.3601 -0.7099  0.4311
 8471SOL    HW136875   4.369   0.212   3.084 -0.5469 -3.4142  0.8449
 8471SOL    HW236876   4.251   0.164   3.014 -0.0655 -1.3047 -2.9875
 8472SOL     OW36877   3.427   2.731  17.591  0.3744  0.0070 -0.0800
 8472SOL    HW136878   3.419   2.719  17.496  2.9875 -0.1661 -0.2850
 8472SOL    HW236879   3.337   2.722  17.624  0.7988 -1.4105  0.6875
 8473SOL     OW36880   3.126   3.929   0.631  0.1536  0.7462 -0.5514
 8473SOL    HW136881   3.160   3.963   0.714 -0.2838  0.4887 -0.2633
 8473SOL    HW236882   3.150   3.836   0.638 -0.1186  0.8328  1.4600
 8474SOL     OW36883   1.742   0.451  15.612  0.5896 -0.6552 -0.0529
 8474SOL    HW136884   1.737   0.459  15.707  1.4586  0.8883 -0.1334
 8474SOL    HW236885   1.825   0.495  15.593  0.5127 -0.2569  0.5574
 8475SOL     OW36886   3.497   2.082   7.108 -0.4170 -0.0305  0.5816
 8475SOL    HW136887   3.521   2.081   7.015  2.2270  1.2049  1.2431
 8475SOL    HW236888   3.406   2.053   7.099 -0.3188  0.3180 -1.5990
 8476SOL     OW36889   1.660   2.417   8.723 -0.4070  0.1143 -0.6762
 8476SOL    HW136890   1.567   2.393   8.728 -0.6470  1.3112  0.5579
 8476SOL    HW236891   1.686   2.416   8.815  1.1199  1.8104 -1.0998
 8477SOL     OW36892   4.181   1.035  17.068  0.0081  0.0343 -0.3260
 8477SOL    HW136893   4.116   0.985  17.019 -1.1287  0.2836  0.9290
 8477SOL    HW236894   4.253   0.973  17.063 -0.2394 -0.0743 -2.6944
 8478SOL     OW36895   1.121   2.629   8.046 -0.2332  0.0802 -0.2714
 8478SOL    HW136896   1.135   2.717   8.011 -1.7125  0.0162 -1.0264
 8478SOL    HW236897   1.055   2.642   8.114  0.3436 -1.8168  0.6502
 8479SOL     OW36898   3.063   4.234  12.539 -0.7916  0.1418  0.5640
 8479SOL    HW136899   2.979   4.270  12.509 -0.6531  0.0116  0.0195
 8479SOL    HW236900   3.083   4.298  12.607  0.2998 -0.2514  0.6020
 8480SOL     OW36901   3.241   4.005  12.979 -0.4294  0.4702 -0.3021
 8480SOL    HW136902   3.290   4.010  12.897 -0.1441 -0.3029 -0.1829
 8480SOL    HW236903   3.156   3.976  12.946 -0.8667  0.9764  0.3799
 8481SOL     OW36904   3.257   2.745  12.013 -0.4321 -0.4842  0.2083
 8481SOL    HW136905   3.193   2.816  12.021 -1.6882 -1.8367  2.0926
 8481SOL    HW236906   3.241   2.710  12.101  1.4226 -2.1492 -0.1236
 8482SOL     OW36907   3.768   4.711   6.885  0.3886 -0.3583  0.3176
 8482SOL    HW136908   3.747   0.081   6.881  1.0226 -0.3636 -2.8048
 8482SOL    HW236909   3.691   4.674   6.841  1.6244 -1.9547 -0.4570
 8483SOL     OW36910   3.997   1.594   0.221  0.6284  0.5347 -0.0355
 8483SOL    HW136911   3.958   1.508   0.208  1.2539  0.4911 -1.6062
 8483SOL    HW236912   3.945   1.628   0.294 -3.2632 -0.5431 -2.3049
 8484SOL     OW36913   2.371   4.046  10.123 -0.7017 -0.1303  0.2212
 8484SOL    HW136914   2.304   4.107  10.154 -0.8780  0.9907 -2.3243
 8484SOL    HW236915   2.332   4.002  10.048 -1.8463 -0.1983  0.8596
 8485SOL     OW36916   3.500   1.226  13.530 -0.3137  0.2331 -0.5406
 8485SOL    HW136917   3.430   1.188  13.476 -3.0642 -0.2994  3.3438
 8485SOL    HW236918   3.576   1.178  13.498 -1.5263 -0.8974 -1.7688
 8486SOL     OW36919   1.555   0.485   1.340  0.4156  0.5325  0.6354
 8486SOL    HW136920   1.567   0.580   1.331  0.1753  0.5148  0.1233
 8486SOL    HW236921   1.611   0.449   1.271 -0.5907  1.5991 -0.7331
 8487SOL     OW36922   1.634   2.373  12.130  0.0820 -0.5790 -0.0571
 8487SOL    HW136923   1.596   2.443  12.077  0.3746 -1.3587 -1.3037
 8487SOL    HW236924   1.682   2.428  12.191 -0.7217  0.4133 -0.3135
 8488SOL     OW36925   1.779   2.239  14.542  0.2197 -0.1196 -0.1286
 8488SOL    HW136926   1.699   2.206  14.582 -1.2206  3.0977 -0.3748
 8488SOL    HW236927   1.832   2.268  14.617  2.5124 -3.8931 -0.2964
 8489SOL     OW36928   1.278   3.164   4.784 -0.0950  0.0534 -0.3905
 8489SOL    HW136929   1.199   3.207   4.816  0.4807  1.6401 -1.0635
 8489SOL    HW236930   1.272   3.201   4.695 -1.2269  0.5513 -0.1047
 8490SOL     OW36931   3.603   3.881   4.060 -0.1712  0.3070  0.4315
 8490SOL    HW136932   3.607   3.809   3.998 -1.1668  0.5340  0.1075
 8490SOL    HW236933   3.696   3.897   4.078 -0.5372  1.3238  1.4699
 8491SOL     OW36934   3.520   2.079  13.721 -0.3329  0.2778  0.1956
 8491SOL    HW136935   3.448   2.119  13.673  0.2372 -0.7697 -1.5561
 8491SOL    HW236936   3.549   2.135  13.793  1.7011  0.2376 -0.5701
 8492SOL     OW36937   2.400   2.193   2.278  0.8173  0.2776  0.7728
 8492SOL    HW136938   2.493   2.174   2.267  0.6161 -0.6905  0.7234
 8492SOL    HW236939   2.413   2.260   2.345 -1.8264  1.7190 -0.1605
 8493SOL     OW36940   3.846   4.475   2.002  0.1384  0.9047 -0.3010
 8493SOL    HW136941   3.930   4.518   2.020  0.8357 -1.1977  1.5767
 8493SOL    HW236942   3.865   4.391   2.044  0.7786  1.1463 -0.0953
 8494SOL     OW36943   0.051   0.461   8.653 -0.6699 -0.1807  0.0625
 8494SOL    HW136944   0.042   0.405   8.576 -0.9891 -0.0587  0.0079
 8494SOL    HW236945   0.104   0.401   8.705 -0.8884 -0.8549 -0.4856
 8495SOL     OW36946   0.362   3.131   4.141  0.9471  0.2788 -0.3830
 8495SOL    HW136947   0.309   3.058   4.110 -0.3121  0.8886  0.2801
 8495SOL    HW236948   0.304   3.207   4.135  2.6400  1.6441  0.3858
 8496SOL     OW36949   0.173   3.624   2.667  0.1660  0.2279  0.7622
 8496SOL    HW136950   0.216   3.640   2.750  0.0732 -2.2662  1.2961
 8496SOL    HW236951   0.178   3.530   2.649 -0.8927  0.0988  1.1560
 8497SOL     OW36952   3.067   0.391   5.280 -0.1835  0.2786  0.0995
 8497SOL    HW136953   3.021   0.462   5.324 -1.0301  0.5916 -1.2898
 8497SOL    HW236954   3.048   0.311   5.328 -0.7520  0.5385  0.2947
 8498SOL     OW36955   3.886   2.205   2.020 -0.4936 -0.0773  0.4477
 8498SOL    HW136956   3.946   2.146   2.067  0.7964  1.6797  1.0430
 8498SOL    HW236957   3.923   2.211   1.932 -0.4782  0.1358  0.4663
 8499SOL     OW36958   1.294   4.255   4.365 -0.0894  0.4597 -0.0401
 8499SOL    HW136959   1.222   4.318   4.362  0.0057  0.6151  0.7685
 8499SOL    HW236960   1.273   4.206   4.445  0.1292  0.7413  0.1934
 8500SOL     OW36961   1.296   2.652  17.625  0.1753 -0.0923 -0.3074
 8500SOL    HW136962   1.324   2.742  17.609  0.5571  0.0022  0.9055
 8500SOL    HW236963   1.285   2.629  17.533 -0.9664 -0.8259  0.0234
 8501SOL     OW36964   0.934   1.658   4.006  0.0532 -0.4001  0.0042
 8501SOL    HW136965   0.884   1.589   3.962  0.6267 -2.0263  1.8873
 8501SOL    HW236966   1.007   1.674   3.946 -1.5117  2.4747 -1.1586
 8502SOL     OW36967   0.718   3.805  12.759 -0.3368  0.0626  0.1364
 8502SOL    HW136968   0.729   3.743  12.831 -0.1896 -0.8333 -0.6609
 8502SOL    HW236969   0.657   3.755  12.705  0.4908 -0.2851 -0.4748
 8503SOL     OW36970   4.434   2.431   6.981  0.1380  0.0189  0.9147
 8503SOL    HW136971   4.454   2.367   7.050 -1.4446  1.2314  2.5027
 8503SOL    HW236972   4.340   2.418   6.984 -0.2163  2.2889 -1.0106
 8504SOL     OW36973   4.002   1.647   8.520  0.1590  0.5490  0.1442
 8504SOL    HW136974   3.959   1.567   8.488  1.4987 -0.8020  1.7090
 8504SOL    HW236975   4.092   1.623   8.540  0.3620  1.1314 -0.0887
 8505SOL     OW36976   0.796   0.099   5.302 -0.7127  0.2222 -0.0351
 8505SOL    HW136977   0.753   0.184   5.297 -0.1027  0.5007 -0.5830
 8505SOL    HW236978   0.770   0.068   5.389  1.4052  1.5462  1.0673
 8506SOL     OW36979   4.208   3.757  15.554  0.1849  0.1690 -0.0151
 8506SOL    HW136980   4.157   3.700  15.496  0.0547  1.5598 -1.2469
 8506SOL    HW236981   4.242   3.828  15.501  0.1882  0.5102  0.4425
 8507SOL     OW36982   4.245   4.384   2.619  0.5579 -0.0814  0.4592
 8507SOL    HW136983   4.161   4.408   2.581  0.1614 -2.3049 -0.0596
 8507SOL    HW236984   4.252   4.460   2.676 -2.1990 -0.5902  1.4614
 8508SOL     OW36985   1.654   3.193   5.564 -0.2233  0.4495  0.0052
 8508SOL    HW136986   1.709   3.221   5.638 -2.1663 -1.3245  2.1296
 8508SOL    HW236987   1.711   3.201   5.488  1.9065  1.1091  1.6724
 8509SOL     OW36988   3.855   3.205   3.471 -0.7086  0.2760 -0.7375
 8509SOL    HW136989   3.884   3.182   3.382  1.8549  0.7572 -0.0083
 8509SOL    HW236990   3.937   3.196   3.520 -0.2319 -1.6067 -1.8772
 8510SOL     OW36991   0.808   2.868   4.043  0.5226 -0.5013  0.0127
 8510SOL    HW136992   0.887   2.921   4.053 -0.1406  0.7322 -1.2748
 8510SOL    HW236993   0.854   2.789   4.015 -0.8329 -0.4036 -2.5259
 8511SOL     OW36994   0.654   2.725  13.311  0.4280  0.7298 -0.4263
 8511SOL    HW136995   0.644   2.733  13.216 -0.8928  3.4850 -0.0313
 8511SOL    HW236996   0.584   2.784  13.338 -0.2864 -0.5818  0.5683
 8512SOL     OW36997   1.308   4.008   5.872 -0.1781  0.1867  0.1506
 8512SOL    HW136998   1.220   4.045   5.874 -0.2322  0.0687 -0.0185
 8512SOL    HW236999   1.350   4.044   5.950  1.4116  1.2706 -1.2197
 8513SOL     OW37000   0.169   2.250  12.460  0.4269 -0.1562  0.3411
 8513SOL    HW137001   0.098   2.202  12.503  0.7275 -0.4621  0.5037
 8513SOL    HW237002   0.196   2.191  12.389 -0.4709  0.2448 -0.3292
 8514SOL     OW37003   1.343   0.925  11.704  0.0798  0.7750 -0.0084
 8514SOL    HW137004   1.402   0.859  11.667  1.4536  1.0822  1.6280
 8514SOL    HW237005   1.377   1.005  11.665  1.3913  1.2970  2.2171
 8515SOL     OW37006   3.575   2.944   8.775  0.2135  0.1937 -0.2144
 8515SOL    HW137007   3.668   2.920   8.779  0.5857  1.7199  0.1613
 8515SOL    HW237008   3.569   2.979   8.864 -0.8491 -1.6564  0.4429
 8516SOL     OW37009   2.870   2.377   2.092 -0.2070  0.1116 -0.0575
 8516SOL    HW137010   2.806   2.414   2.031  2.0738 -0.5190 -2.8222
 8516SOL    HW237011   2.810   2.343   2.158  0.5160 -1.1277 -0.0498
 8517SOL     OW37012   0.113   1.495   3.880  0.2813 -0.0954 -0.4898
 8517SOL    HW137013   0.151   1.473   3.794 -0.1809  1.1833 -1.0141
 8517SOL    HW237014   0.171   1.565   3.907  1.4371 -0.4562 -2.0115
 8518SOL     OW37015   2.665   1.725   3.379 -0.1070 -0.1948 -0.0346
 8518SOL    HW137016   2.730   1.739   3.310  2.9209 -0.1934  2.8191
 8518SOL    HW237017   2.599   1.674   3.332 -0.1424  0.5418 -0.7803
 8519SOL     OW37018   3.750   2.949  15.221 -0.2251  0.2573  0.2200
 8519SOL    HW137019   3.804   2.988  15.290  1.9267  0.9714 -1.8951
 8519SOL    HW237020   3.743   2.865  15.266 -2.8756 -0.2215 -1.1023
 8520SOL     OW37021   1.059   3.538  14.080 -0.2310  0.1044  0.3667
 8520SOL    HW137022   1.153   3.534  14.064 -0.1030 -2.6105  1.8738
 8520SOL    HW237023   1.047   3.616  14.135 -1.5368 -1.4321  2.2241
 8521SOL     OW37024   0.326   4.593  13.486 -0.6057 -0.2377 -0.5801
 8521SOL    HW137025   0.315   4.654  13.414 -1.8556  0.4560  0.1987
 8521SOL    HW237026   0.236   4.560  13.488 -1.2470  1.3515 -3.7483
 8522SOL     OW37027   1.705   2.944   5.670 -0.0651  0.1185  0.6643
 8522SOL    HW137028   1.653   3.024   5.654  0.0038 -0.0057 -0.1843
 8522SOL    HW237029   1.643   2.872   5.671  1.7839 -1.4716  0.7995
 8523SOL     OW37030   1.377   0.685   9.615 -0.4533  0.0144  0.2862
 8523SOL    HW137031   1.346   0.769   9.579  0.6431  0.3036  0.0109
 8523SOL    HW237032   1.365   0.689   9.710 -1.5136 -3.3317  0.2660
 8524SOL     OW37033   1.103   1.739   2.581  0.5361  0.2971 -0.4117
 8524SOL    HW137034   1.022   1.709   2.622 -0.0734  0.7227 -1.2990
 8524SOL    HW237035   1.120   1.674   2.513  0.4631  2.5805 -2.5973
 8525SOL     OW37036   0.837   4.520   9.970  0.1299 -0.2077  0.0452
 8525SOL    HW137037   0.850   4.437  10.017  2.7463  0.9278  1.2964
 8525SOL    HW237038   0.925   4.539   9.939  0.2010  2.4982  1.9490
 8526SOL     OW37039   0.598   2.569   4.050  0.1045  0.2202 -0.1506
 8526SOL    HW137040   0.542   2.628   4.102  0.2878 -1.1571  1.6043
 8526SOL    HW237041   0.683   2.586   4.093  1.0036 -1.1404 -1.4007
 8527SOL     OW37042   1.207   1.120   2.832  0.0443  0.0651 -0.2018
 8527SOL    HW137043   1.292   1.089   2.801  0.6012 -1.3316  2.7341
 8527SOL    HW237044   1.238   1.164   2.910  0.5382 -0.6713  0.0198
 8528SOL     OW37045   3.821   4.416   3.592 -0.4415  0.2549  0.2925
 8528SOL    HW137046   3.816   4.420   3.497  0.9140 -1.7452  0.1280
 8528SOL    HW237047   3.731   4.431   3.621 -0.7305 -0.6851 -0.1080
 8529SOL     OW37048   3.545   3.849  13.832  0.4584  0.3255  0.4769
 8529SOL    HW137049   3.492   3.928  13.824  1.0744  0.8320  1.4020
 8529SOL    HW237050   3.630   3.890  13.848  1.5409 -1.2865 -1.1688
 8530SOL     OW37051   3.560   2.738   1.692 -0.0024  0.3955 -0.0386
 8530SOL    HW137052   3.602   2.819   1.723 -1.3557  0.7844  0.7870
 8530SOL    HW237053   3.604   2.676   1.750 -1.7711 -0.8523 -0.0275
 8531SOL     OW37054   0.317   1.173   2.347 -0.2449  0.0198  0.2373
 8531SOL    HW137055   0.406   1.137   2.357 -1.1891 -2.4580 -0.2596
 8531SOL    HW237056   0.340   1.256   2.306  0.9943 -1.1988 -1.5254
 8532SOL     OW37057   1.989   3.412  15.800  0.1845  0.2310 -0.5273
 8532SOL    HW137058   1.966   3.470  15.727 -0.9661  0.1432 -0.2179
 8532SOL    HW237059   2.078   3.443  15.818 -0.0561 -0.1221  1.2073
 8533SOL     OW37060   1.858   1.295   0.346 -0.7051 -0.0313 -0.1851
 8533SOL    HW137061   1.838   1.212   0.389  0.2994 -1.5963 -2.7293
 8533SOL    HW237062   1.778   1.347   0.354 -0.4681  0.2828  0.1555
 8534SOL     OW37063   1.384   1.231   0.113  0.2298 -0.1378  0.2526
 8534SOL    HW137064   1.320   1.284   0.065  1.1905 -0.1742 -1.0786
 8534SOL    HW237065   1.435   1.195   0.040  1.3723  0.6864  0.6501
 8535SOL     OW37066   1.091   2.109  15.441  0.2477 -0.2693  0.1223
 8535SOL    HW137067   1.125   2.163  15.512 -1.6416 -1.8428  2.2436
 8535SOL    HW237068   1.140   2.135  15.363  0.3396  0.5653  0.4677
 8536SOL     OW37069   1.191   2.657  13.504  0.4365 -0.2084 -0.7752
 8536SOL    HW137070   1.196   2.721  13.433 -1.0083 -1.6427 -2.1531
 8536SOL    HW237071   1.277   2.622  13.485  0.1955 -0.9752 -0.4664
 8537SOL     OW37072   1.049   3.734   2.574 -0.2569  0.1062  0.2329
 8537SOL    HW137073   1.124   3.791   2.555  0.0600 -0.8749 -1.4869
 8537SOL    HW237074   1.102   3.655   2.565  0.0321  0.5157 -1.6341
 8538SOL     OW37075   3.511   2.112   7.584 -0.4802  0.2462 -0.1040
 8538SOL    HW137076   3.466   2.196   7.586  0.6041  0.7484  2.2887
 8538SOL    HW237077   3.597   2.122   7.626  0.6155 -2.1717 -1.7341
 8539SOL     OW37078   4.691   0.884   7.421 -0.2925  0.3150 -0.0049
 8539SOL    HW137079   4.627   0.953   7.437 -0.1255  0.7121 -1.0943
 8539SOL    HW237080   4.653   0.830   7.352  1.1565 -0.8966  0.1374
 8540SOL     OW37081   3.529   1.493   3.379  0.0101 -0.2511 -0.0599
 8540SOL    HW137082   3.572   1.552   3.442  0.7460 -2.6717  1.6769
 8540SOL    HW237083   3.436   1.515   3.392  0.3418  1.9208 -1.2542
 8541SOL     OW37084   1.354   1.832   7.753 -0.0385 -0.0688  0.0868
 8541SOL    HW137085   1.323   1.742   7.761  0.6959 -0.6081 -3.0803
 8541SOL    HW237086   1.443   1.825   7.719 -0.1293  0.4783 -0.2719
 8542SOL     OW37087   3.702   2.790  13.854 -0.5359 -0.0688  0.7029
 8542SOL    HW137088   3.632   2.842  13.892  0.6694  0.4691  2.1849
 8542SOL    HW237089   3.691   2.809  13.761  0.8019 -0.7826  0.3922
 8543SOL     OW37090   3.414   4.061  17.010  0.1676 -0.2075 -0.3977
 8543SOL    HW137091   3.336   4.107  16.977  0.7968 -1.0249 -2.9710
 8543SOL    HW237092   3.411   4.077  17.105 -1.0575  1.8895 -0.7780
 8544SOL     OW37093   2.201   3.023   0.286 -0.1613  0.0609  0.0321
 8544SOL    HW137094   2.269   3.088   0.302 -0.6049  0.5903 -0.2267
 8544SOL    HW237095   2.246   2.944   0.316  0.1950 -0.5774 -2.2427
 8545SOL     OW37096   1.032   1.725   3.500  0.0129  0.3000  0.3015
 8545SOL    HW137097   1.070   1.748   3.585  0.1955  0.1801  0.2520
 8545SOL    HW237098   0.998   1.810   3.472 -0.2693  0.2309  0.4262
 8546SOL     OW37099   1.198   4.254   6.573 -0.4608  0.7170 -0.4863
 8546SOL    HW137100   1.253   4.259   6.652 -2.1838 -1.6518  0.8826
 8546SOL    HW237101   1.138   4.328   6.581 -0.6590  0.4571  0.4568
 8547SOL     OW37102   3.632   2.336   2.333 -0.4910 -0.1286  0.2433
 8547SOL    HW137103   3.572   2.266   2.361  0.2487 -0.8014  0.1296
 8547SOL    HW237104   3.707   2.327   2.391  0.2494  0.3902 -0.6184
 8548SOL     OW37105   3.618   2.336  13.067  0.1049 -0.0278 -0.3778
 8548SOL    HW137106   3.627   2.390  12.988  0.8334  1.1850  0.5265
 8548SOL    HW237107   3.665   2.256  13.041  2.7875  1.1370  0.8445
 8549SOL     OW37108   1.465   1.091  10.526 -0.2637 -0.0988 -0.2975
 8549SOL    HW137109   1.399   1.023  10.511  1.0765 -1.5725  0.5249
 8549SOL    HW237110   1.429   1.138  10.601  0.1062  0.3279 -0.3864
 8550SOL     OW37111   4.162   1.341   7.397  0.0176  0.0026 -0.7401
 8550SOL    HW137112   4.194   1.416   7.447  0.2387  1.9629 -3.8613
 8550SOL    HW237113   4.094   1.305   7.455 -1.0749  0.3963 -1.7818
 8551SOL     OW37114   3.401   2.632   3.733 -0.2523  0.0046  0.5438
 8551SOL    HW137115   3.481   2.595   3.696 -0.7530  0.2607 -0.7994
 8551SOL    HW237116   3.423   2.725   3.741 -1.5239  0.2987  0.6012
 8552SOL     OW37117   3.024   4.524   0.867 -0.1611 -0.0252  0.6151
 8552SOL    HW137118   3.009   4.535   0.773 -0.7796  3.4501  1.1361
 8552SOL    HW237119   3.095   4.587   0.876  1.2664 -1.3165 -1.5661
 8553SOL     OW37120   2.310   2.796   2.947  0.0210 -0.2610  0.4040
 8553SOL    HW137121   2.296   2.877   2.898 -1.2129 -1.4942 -1.2818
 8553SOL    HW237122   2.353   2.834   3.024 -2.1593 -0.7465  1.8658
 8554SOL     OW37123   4.194   0.893  10.938 -0.2192 -0.1920  0.1261
 8554SOL    HW137124   4.261   0.825  10.928 -0.1118  0.0524 -0.8002
 8554SOL    HW237125   4.246   0.973  10.932 -1.1597  0.3235 -1.0438
 8555SOL     OW37126   4.573   1.877  16.711  0.9889  0.4136 -0.3204
 8555SOL    HW137127   4.668   1.864  16.702  0.7707  0.0529 -2.1819
 8555SOL    HW237128   4.541   1.937  16.644 -1.6540 -0.1384  0.4630
 8556SOL     OW37129   3.667   3.765   4.339 -0.7565  0.3429 -0.3173
 8556SOL    HW137130   3.705   3.710   4.270 -0.0543  0.1546  0.2201
 8556SOL    HW237131   3.742   3.820   4.361  0.1440 -0.4371 -1.4304
 8557SOL     OW37132   3.714   3.782  15.015  0.1987 -0.5901  0.1203
 8557SOL    HW137133   3.623   3.768  14.986  0.1723  1.5653 -0.9122
 8557SOL    HW237134   3.707   3.751  15.105 -1.2869  0.8138  0.4998
 8558SOL     OW37135   0.104   1.643   8.323  0.3844 -0.4526  0.1822
 8558SOL    HW137136   0.197   1.660   8.333  0.0197  0.7271  1.6203
 8558SOL    HW237137   0.078   1.649   8.415  1.2422  1.8311  0.2643
 8559SOL     OW37138   3.903   2.484   1.675  0.1513 -0.3215  0.0392
 8559SOL    HW137139   3.821   2.518   1.712  2.2893  2.8556  1.8582
 8559SOL    HW237140   3.969   2.552   1.687  0.0025 -0.2833  0.6785
 8560SOL     OW37141   2.404   2.837   0.873 -0.4468 -0.4149  0.5835
 8560SOL    HW137142   2.400   2.888   0.954  2.2717 -0.6409  0.8588
 8560SOL    HW237143   2.341   2.879   0.815  2.5168  1.2451 -1.4688
 8561SOL     OW37144   2.883   2.327   4.942  0.0278  0.6595 -0.4859
 8561SOL    HW137145   2.800   2.326   4.989  0.0857  0.9811 -0.3740
 8561SOL    HW237146   2.953   2.320   5.007 -1.4689  0.8307  1.1408
 8562SOL     OW37147   0.481   3.525   4.188 -0.1549  0.0606 -0.3667
 8562SOL    HW137148   0.559   3.517   4.244 -0.1852 -1.8584 -0.6123
 8562SOL    HW237149   0.518   3.474   4.116  0.8048 -1.6319  1.3183
 8563SOL     OW37150   2.730   4.487   5.108  0.0099 -0.0263  0.1539
 8563SOL    HW137151   2.775   4.568   5.132  0.5117 -0.6965  1.5192
 8563SOL    HW237152   2.803   4.430   5.082  0.7585  0.3792  1.3539
 8564SOL     OW37153   0.789   4.382   5.282 -0.3006  0.5803  0.1537
 8564SOL    HW137154   0.872   4.362   5.326  0.2232  1.4655 -0.4220
 8564SOL    HW237155   0.795   4.337   5.197  0.6322 -0.9764  1.0428
 8565SOL     OW37156   1.291   1.965  14.825  0.5279 -0.0274 -0.0567
 8565SOL    HW137157   1.247   1.882  14.838 -0.2375  0.6658  1.7124
 8565SOL    HW237158   1.362   1.949  14.887  1.6497  0.7849 -1.1177
 8566SOL     OW37159   3.698   1.479  15.233  0.1034  0.1446  0.6172
 8566SOL    HW137160   3.627   1.498  15.172  0.1536  1.2767  0.9176
 8566SOL    HW237161   3.671   1.505  15.321  0.2017 -1.8098  1.2215
 8567SOL     OW37162   1.713   2.082   8.086 -0.0980  0.6393  0.1955
 8567SOL    HW137163   1.746   2.170   8.102  0.8060  0.5866 -1.3913
 8567SOL    HW237164   1.667   2.088   8.002 -1.6536 -0.9132  0.9180
 8568SOL     OW37165   1.267   3.225   5.315  0.2632  0.1885  0.2498
 8568SOL    HW137166   1.248   3.317   5.295  1.4305  0.6005  1.0088
 8568SOL    HW237167   1.315   3.235   5.398  1.5689  0.9713 -0.6081
 8569SOL     OW37168   3.268   1.312   0.546  0.2397 -0.5555  0.7423
 8569SOL    HW137169   3.344   1.369   0.539 -1.1658  1.2279 -0.1956
 8569SOL    HW237170   3.301   1.227   0.516  0.0096 -0.1129 -0.7570
 8570SOL     OW37171   1.088   2.867  12.386 -0.2714  0.4231 -0.6178
 8570SOL    HW137172   1.005   2.897  12.423  0.0483 -0.3610  0.7165
 8570SOL    HW237173   1.079   2.772  12.394 -0.3563  0.6576  2.0429
 8571SOL     OW37174   2.990   4.208   2.736 -0.2575  0.5124  0.1682
 8571SOL    HW137175   3.008   4.286   2.684  0.3023 -0.7342 -1.5024
 8571SOL    HW237176   2.965   4.144   2.669 -1.8617  1.2662  0.0557
 8572SOL     OW37177   2.937   0.708   4.433 -0.2785  0.1442 -0.1883
 8572SOL    HW137178   2.957   0.732   4.342  0.8224  2.7458  0.7419
 8572SOL    HW237179   3.027   0.696   4.463 -0.0714 -1.6565 -1.4925
 8573SOL     OW37180   0.117   1.948   6.883  0.1791  0.3779 -0.1631
 8573SOL    HW137181   0.041   1.977   6.932  0.5116 -0.3259  0.7852
 8573SOL    HW237182   0.172   2.024   6.902 -0.9386  1.2422 -0.4122
 8574SOL     OW37183   3.823   3.178   4.237  0.2182  0.0406  0.6247
 8574SOL    HW137184   3.743   3.128   4.217 -0.7053  1.5385  0.5487
 8574SOL    HW237185   3.825   3.170   4.333 -1.3225 -0.8159  0.6008
 8575SOL     OW37186   4.700   0.475   4.278 -0.7260 -1.0925 -0.2871
 8575SOL    HW137187   4.654   0.520   4.207  0.5324  0.1951 -0.2658
 8575SOL    HW237188   4.626   0.437   4.326 -1.8280  1.3766 -0.0348
 8576SOL     OW37189   2.595   1.344   5.979 -0.2057  1.0993 -1.0776
 8576SOL    HW137190   2.624   1.336   5.888 -0.4389 -3.1923 -0.7751
 8576SOL    HW237191   2.551   1.428   5.970 -2.4869 -0.0196 -0.3973
 8577SOL     OW37192   2.434   4.368   9.476 -0.5053 -0.4091  0.0621
 8577SOL    HW137193   2.428   4.329   9.563  0.5516  1.5862  1.0521
 8577SOL    HW237194   2.343   4.369   9.448 -0.0967  0.1610 -1.2547
 8578SOL     OW37195   1.921   2.593   9.000  0.1873  0.7520 -0.5287
 8578SOL    HW137196   1.961   2.525   8.945 -1.3466 -0.1878 -0.4856
 8578SOL    HW237197   1.828   2.572   8.997  0.3093  0.4465 -3.0036
 8579SOL     OW37198   0.037   2.317  11.727 -0.5821  0.2044 -0.4020
 8579SOL    HW137199   0.107   2.359  11.778  0.5932 -2.5243  0.2180
 8579SOL    HW237200   0.061   2.226  11.742 -0.0536 -0.0001 -2.6273
 8580SOL     OW37201   2.863   0.138   9.826 -0.2431 -0.0533 -0.2029
 8580SOL    HW137202   2.861   0.128   9.731  2.8627 -0.4731 -0.2155
 8580SOL    HW237203   2.958   0.130   9.829 -0.3707 -1.2956  0.2880
 8581SOL     OW37204   1.737   2.607  11.918  0.0387  0.0344 -0.0681
 8581SOL    HW137205   1.680   2.554  11.863 -0.3845 -0.9567  1.3399
 8581SOL    HW237206   1.679   2.653  11.978 -1.1367 -1.9712  0.3159
 8582SOL     OW37207   4.256   0.587   7.773 -0.2017  0.4435  0.3344
 8582SOL    HW137208   4.220   0.536   7.846 -0.5325  2.4208  1.5442
 8582SOL    HW237209   4.178   0.641   7.760  0.3713  0.9598 -0.9607
 8583SOL     OW37210   2.613   4.245   7.039 -0.2445 -0.1229 -0.8784
 8583SOL    HW137211   2.659   4.238   7.123  2.8073  0.3860 -2.5150
 8583SOL    HW237212   2.689   4.247   6.980  0.1727 -0.4384 -0.3508
 8584SOL     OW37213   1.452   1.283   6.746 -0.2091 -0.5904 -0.0631
 8584SOL    HW137214   1.435   1.278   6.652  2.1798 -2.5642 -0.4081
 8584SOL    HW237215   1.365   1.259   6.775 -1.2213  1.7884 -1.0591
 8585SOL     OW37216   3.768   1.035   3.528  0.0040  0.3443  0.3035
 8585SOL    HW137217   3.697   1.078   3.481 -1.0977 -1.8394 -0.0404
 8585SOL    HW237218   3.847   1.087   3.513  0.1578  0.1657  0.4926
 8586SOL     OW37219   3.409   1.380  11.068 -0.1021 -0.2005  0.0208
 8586SOL    HW137220   3.438   1.428  10.990  0.9310 -0.4700  0.2358
 8586SOL    HW237221   3.322   1.343  11.055 -0.5902  1.5634 -1.6663
 8587SOL     OW37222   4.263   4.583  14.688 -0.2879 -0.4695 -0.7134
 8587SOL    HW137223   4.303   4.526  14.622 -0.9586 -0.7000 -0.9134
 8587SOL    HW237224   4.317   4.660  14.668  0.1045 -0.1107  1.7469
 8588SOL     OW37225   2.472   3.558   6.087  0.8460  0.0874 -0.2009
 8588SOL    HW137226   2.378   3.567   6.104  0.6290  0.1680 -1.4151
 8588SOL    HW237227   2.502   3.646   6.108  1.3574 -0.0444 -0.3733
 8589SOL     OW37228   0.145   2.114   2.116  0.6975 -0.7886  0.6702
 8589SOL    HW137229   0.190   2.191   2.152  0.4754 -0.0371 -0.6301
 8589SOL    HW237230   0.220   2.064   2.083  0.7185  1.1321 -2.2472
 8590SOL     OW37231   1.906   0.468  10.425  0.0494 -0.0080  0.0719
 8590SOL    HW137232   1.898   0.552  10.379 -1.7652 -0.0116  0.3983
 8590SOL    HW237233   1.997   0.490  10.443 -0.4412  1.3646  0.8031
 8591SOL     OW37234   3.739   1.783   9.912 -0.6256 -0.1077 -0.0676
 8591SOL    HW137235   3.708   1.872   9.897  1.2784  0.4042 -0.9237
 8591SOL    HW237236   3.716   1.751   9.825 -0.0353 -0.8093  0.0340
 8592SOL     OW37237   0.538   1.431   8.944  0.4585 -0.0790 -0.3572
 8592SOL    HW137238   0.628   1.422   8.913  1.1238  3.1889  0.5736
 8592SOL    HW237239   0.496   1.347   8.929  0.0359 -0.2986  2.1761
 8593SOL     OW37240   4.108   1.945   1.854 -0.2027  0.4741  0.4226
 8593SOL    HW137241   4.200   1.934   1.877 -0.3264 -1.6330 -0.1313
 8593SOL    HW237242   4.092   2.016   1.917  1.2599  0.2828  1.0189
 8594SOL     OW37243   1.366   3.891  16.053  0.1227 -0.0624  0.3533
 8594SOL    HW137244   1.323   3.865  16.135 -0.3571 -0.0891  0.0956
 8594SOL    HW237245   1.311   3.851  15.985  0.7597 -1.4343  0.6557
 8595SOL     OW37246   1.456   1.665   8.537  0.0810 -0.3881  0.3486
 8595SOL    HW137247   1.471   1.759   8.531 -0.1418 -0.5174 -2.3180
 8595SOL    HW237248   1.456   1.639   8.629  1.3310 -2.0324 -0.0996
 8596SOL     OW37249   4.573   1.670   3.243  0.5655  0.2211  0.2464
 8596SOL    HW137250   4.590   1.676   3.149 -0.0410 -2.7477 -0.0352
 8596SOL    HW237251   4.635   1.727   3.289  0.2311  1.1502 -0.4460
 8597SOL     OW37252   2.975   2.873   4.791  0.4688  0.7226 -0.3380
 8597SOL    HW137253   2.939   2.828   4.867  0.6431 -1.5797 -1.6264
 8597SOL    HW237254   3.015   2.945   4.840 -1.3890  2.0465 -0.7277
 8598SOL     OW37255   1.230   0.480  13.466  0.2705 -0.4411  0.0865
 8598SOL    HW137256   1.299   0.464  13.401 -0.3053  1.0993 -0.9219
 8598SOL    HW237257   1.276   0.517  13.541 -0.0155 -3.0894  1.5615
 8599SOL     OW37258   2.453   0.451  12.292 -0.7354 -0.1830 -0.2884
 8599SOL    HW137259   2.443   0.357  12.274 -1.0799 -0.7887  3.0138
 8599SOL    HW237260   2.469   0.448  12.386  0.5584 -1.3024 -0.5416
 8600SOL     OW37261   1.452   4.368   1.981  0.3234 -0.2602 -0.3032
 8600SOL    HW137262   1.469   4.434   1.915  1.1929  0.5878  0.7583
 8600SOL    HW237263   1.357   4.357   1.974  0.0996  1.2490  0.4573
 8601SOL     OW37264   4.569   0.812   7.151 -0.3116 -0.4466 -0.2795
 8601SOL    HW137265   4.563   0.859   7.068 -0.4886 -0.5688 -0.3370
 8601SOL    HW237266   4.481   0.834   7.182 -1.0323 -2.5700 -0.8216
 8602SOL     OW37267   1.647   2.631   2.922 -0.0272 -0.2093 -0.0470
 8602SOL    HW137268   1.724   2.637   2.866 -0.2020 -3.6332 -0.6066
 8602SOL    HW237269   1.687   2.610   3.006  1.1371  3.2785  0.2867
 8603SOL     OW37270   4.683   3.865   7.563  0.1873  0.1600 -0.3076
 8603SOL    HW137271   4.699   3.941   7.507  2.4175  1.2766  1.8585
 8603SOL    HW237272   4.590   3.875   7.584  1.0371 -2.1162  4.5979
 8604SOL     OW37273   2.002   1.386   5.721  0.2995 -0.0993 -0.5049
 8604SOL    HW137274   2.085   1.434   5.722  0.5976 -0.6283  2.2545
 8604SOL    HW237275   1.949   1.451   5.676  1.8818  0.6494 -1.3061
 8605SOL     OW37276   3.104   2.066   7.583 -0.0629 -0.7427  0.7939
 8605SOL    HW137277   3.148   2.110   7.510  0.2360 -1.1466  0.7291
 8605SOL    HW237278   3.096   2.130   7.653  0.7592 -1.6143  1.6804
 8606SOL     OW37279   1.463   4.112   5.533 -0.0065 -0.9609 -0.2107
 8606SOL    HW137280   1.437   4.070   5.615 -2.1561  0.4280 -0.1942
 8606SOL    HW237281   1.461   4.207   5.540  0.3775 -1.1110  2.0619
 8607SOL     OW37282   2.454   2.987   3.801 -0.8489  0.1005 -0.6517
 8607SOL    HW137283   2.400   3.046   3.854  2.8359  1.9402  1.1352
 8607SOL    HW237284   2.393   2.970   3.730 -0.6579  0.2355 -0.8490
 8608SOL     OW37285   3.448   2.338  10.686  0.1621 -0.1420  0.0617
 8608SOL    HW137286   3.515   2.395  10.726  0.1042 -1.3473  1.8906
 8608SOL    HW237287   3.372   2.394  10.676  1.3155  1.9589  2.8845
 8609SOL     OW37288   0.055   2.700   5.574  0.3600  0.3276 -0.0278
 8609SOL    HW137289   0.036   2.734   5.661  2.7567  1.5314  0.0381
 8609SOL    HW237290   4.695   2.657   5.562  0.6411 -0.5095  1.0391
 8610SOL     OW37291   2.216   0.221  10.996 -0.9079 -0.9341 -0.0862
 8610SOL    HW137292   2.226   0.273  10.915  1.1219 -1.8290 -0.4025
 8610SOL    HW237293   2.284   0.262  11.049 -0.8392  1.2267 -1.8098
 8611SOL     OW37294   2.846   1.416  10.798  0.0894 -0.2777  0.9292
 8611SOL    HW137295   2.881   1.491  10.749  0.2173 -0.2275  1.0974
 8611SOL    HW237296   2.804   1.372  10.723 -1.4715  1.6591  0.6565
 8612SOL     OW37297   0.843   3.877  11.553 -0.7731 -0.0932 -0.0215
 8612SOL    HW137298   0.819   3.832  11.633  2.2155 -0.3909  0.7142
 8612SOL    HW237299   0.914   3.932  11.585  0.4976 -0.9987 -1.2595
 8613SOL     OW37300   3.659   1.585   7.860 -0.1076 -0.2535 -0.3914
 8613SOL    HW137301   3.607   1.565   7.782 -0.3226  1.0426 -0.5878
 8613SOL    HW237302   3.636   1.511   7.916 -0.9544  0.1267 -0.2193
 8614SOL     OW37303   0.387   3.445   1.895  0.2672  0.1164  0.1703
 8614SOL    HW137304   0.456   3.494   1.851  1.4350  0.7192  2.6638
 8614SOL    HW237305   0.310   3.498   1.876 -0.2170 -0.6122  0.1006
 8615SOL     OW37306   1.427   0.522  13.921  0.1785 -0.3641 -0.2514
 8615SOL    HW137307   1.366   0.471  13.975  0.3151 -2.6827 -2.3044
 8615SOL    HW237308   1.502   0.524  13.981  1.7494 -2.1109 -2.2114
 8616SOL     OW37309   3.569   1.321   8.062  0.3111 -0.1438  0.4949
 8616SOL    HW137310   3.602   1.271   7.988  0.3367 -0.5884  0.8040
 8616SOL    HW237311   3.477   1.299   8.075  0.3604 -1.0520 -0.7838
 8617SOL     OW37312   1.604   1.608   5.611  0.2271 -0.3837 -0.1010
 8617SOL    HW137313   1.623   1.532   5.666  1.8412 -1.5548 -2.2914
 8617SOL    HW237314   1.529   1.645   5.657  0.4581  0.4051 -0.3459
 8618SOL     OW37315   2.872   0.455   4.025 -0.4416  0.5943  0.1483
 8618SOL    HW137316   2.847   0.373   3.982 -0.2675  0.3303  0.5633
 8618SOL    HW237317   2.872   0.422   4.114 -0.7512  1.1640  0.3667
 8619SOL     OW37318   2.119   1.150   3.086  0.4843 -0.2206  0.0702
 8619SOL    HW137319   2.196   1.130   3.138  0.8401  0.6724 -0.1065
 8619SOL    HW237320   2.134   1.091   3.012  2.4363 -0.4755  0.6620
 8620SOL     OW37321   1.175   2.335   0.871  0.7480 -0.2288  0.1333
 8620SOL    HW137322   1.118   2.352   0.796 -0.2622 -0.3850  0.8647
 8620SOL    HW237323   1.202   2.425   0.891 -1.7240  0.8654 -1.4097
 8621SOL     OW37324   2.580   1.840   2.319  0.7119 -0.2210  0.2043
 8621SOL    HW137325   2.644   1.857   2.250  0.8698 -1.5108  0.0485
 8621SOL    HW237326   2.552   1.749   2.309  0.0579  0.0542 -0.4205
 8622SOL     OW37327   0.017   3.535   8.306  0.1578  0.4163  0.4797
 8622SOL    HW137328   4.705   3.593   8.239  0.7075  0.2342  0.0205
 8622SOL    HW237329   4.669   3.472   8.309 -0.5148  1.1548 -0.3265
 8623SOL     OW37330   1.448   3.067  13.381  0.4239  0.1028  0.4383
 8623SOL    HW137331   1.402   3.147  13.407 -1.6014 -0.8238 -0.2872
 8623SOL    HW237332   1.541   3.088  13.390  0.7192 -1.8122  1.8469
 8624SOL     OW37333   4.176   3.781   1.407  0.0885 -0.1898  0.0399
 8624SOL    HW137334   4.251   3.733   1.373 -0.2000 -0.8457  0.3249
 8624SOL    HW237335   4.173   3.843   1.334 -3.1200  1.1108  1.2931
 8625SOL     OW37336   1.366   3.918   8.746 -1.0807 -0.1479  0.1085
 8625SOL    HW137337   1.443   3.907   8.803 -1.0151  0.6521  0.1777
 8625SOL    HW237338   1.302   3.863   8.791 -1.4718 -1.1080 -1.6313
 8626SOL     OW37339   2.415   3.425   2.898  0.0674  0.3354  0.4366
 8626SOL    HW137340   2.403   3.520   2.890  1.7301  0.4093 -1.3350
 8626SOL    HW237341   2.511   3.428   2.899  0.0411  1.2980 -0.2727
 8627SOL     OW37342   1.984   2.940   3.640 -0.4901 -0.2740 -0.2541
 8627SOL    HW137343   1.976   2.857   3.592 -0.8783  1.8436 -3.8615
 8627SOL    HW237344   1.914   2.928   3.704  1.1542 -1.8843  1.2703
 8628SOL     OW37345   4.488   3.255   4.146  0.1142  1.0365 -0.7963
 8628SOL    HW137346   4.552   3.321   4.173 -0.8753  1.5767  0.2277
 8628SOL    HW237347   4.412   3.289   4.192  2.9819  3.5474  2.1617
 8629SOL     OW37348   2.649   2.990   3.634  0.6274 -0.5469 -0.3423
 8629SOL    HW137349   2.574   2.985   3.694  1.7517 -1.4175  0.9749
 8629SOL    HW237350   2.716   3.007   3.700 -0.3637  0.9332  0.2994
 8630SOL     OW37351   3.770   1.684   1.252  0.1525  0.0537 -0.4634
 8630SOL    HW137352   3.823   1.757   1.220 -0.2413  0.5749  0.0715
 8630SOL    HW237353   3.780   1.614   1.187 -2.2276 -0.5631 -0.1722
 8631SOL     OW37354   0.005   0.743   6.794 -0.3455 -0.4938  0.0307
 8631SOL    HW137355   0.071   0.783   6.851  0.3512 -1.8731  0.1811
 8631SOL    HW237356   4.648   0.777   6.832  0.3142  0.8850  0.1952
 8632SOL     OW37357   2.461   4.153   4.062 -1.1381  0.0157 -0.0536
 8632SOL    HW137358   2.377   4.186   4.095 -0.3394  0.9693  1.0474
 8632SOL    HW237359   2.509   4.236   4.067 -0.2436 -0.5209  0.1857
 8633SOL     OW37360   0.669   1.285   4.445  0.3943 -0.0583  0.1537
 8633SOL    HW137361   0.681   1.268   4.538 -1.4640 -0.8329  0.2571
 8633SOL    HW237362   0.582   1.323   4.441  0.8837  1.1047  0.5590
 8634SOL     OW37363   0.406   0.257   3.202 -0.2063  0.2613  0.2564
 8634SOL    HW137364   0.341   0.218   3.260  0.4268 -2.3382 -0.7857
 8634SOL    HW237365   0.361   0.229   3.123  2.4450  0.2611 -1.2298
 8635SOL     OW37366   0.901   3.883   1.188 -0.0247 -0.3955  0.4776
 8635SOL    HW137367   0.963   3.815   1.161  1.4720  1.0353  0.3119
 8635SOL    HW237368   0.874   3.913   1.101 -2.0574 -0.8632  0.9499
 8636SOL     OW37369   2.559   0.629   2.774  0.9312  0.2859 -0.1314
 8636SOL    HW137370   2.595   0.552   2.730 -0.7574 -0.1463 -0.7610
 8636SOL    HW237371   2.556   0.699   2.709 -2.2071  0.2233 -0.0846
 8637SOL     OW37372   1.968   0.516   4.289 -0.5317  0.0318  0.5795
 8637SOL    HW137373   2.029   0.475   4.350  0.6702 -0.4758 -0.9452
 8637SOL    HW237374   2.020   0.536   4.211  0.9389 -0.3040  1.4748
 8638SOL     OW37375   2.883   0.082   4.843 -0.1068 -0.5382 -0.2844
 8638SOL    HW137376   2.822   0.155   4.830  1.0401  0.5103  0.2516
 8638SOL    HW237377   2.831   0.040   4.912 -0.0708 -0.9069 -0.4848
 8639SOL     OW37378   4.395   2.211   1.961 -0.4597  0.4126  0.0786
 8639SOL    HW137379   4.484   2.195   1.930 -0.6229  0.6562 -0.5097
 8639SOL    HW237380   4.393   2.150   2.035  1.6446  0.1364 -0.0876
 8640SOL     OW37381   3.886   2.097  11.371  0.1093  0.3157  0.6285
 8640SOL    HW137382   3.928   2.145  11.299  1.1132 -2.0195 -0.3297
 8640SOL    HW237383   3.812   2.059  11.324 -0.3093  1.4228  0.3796
 8641SOL     OW37384   1.878   0.044  14.198  0.4760 -0.3014  0.4364
 8641SOL    HW137385   1.892   4.709  14.124 -0.6301 -0.5834  0.4406
 8641SOL    HW237386   1.904   0.131  14.168  3.2180 -0.9145  1.0979
 8642SOL     OW37387   1.709   4.663   4.537 -0.1818 -0.2202  0.2390
 8642SOL    HW137388   1.688   4.694   4.448  0.0323  0.4408  0.4164
 8642SOL    HW237389   1.732   4.571   4.522 -0.7511 -0.5430  1.3853
 8643SOL     OW37390   0.919   4.347   3.523  0.0269 -0.1138  0.4462
 8643SOL    HW137391   0.830   4.315   3.507 -1.1380  1.7696  3.0810
 8643SOL    HW237392   0.965   4.289   3.463  0.0524 -1.6213  1.8976
 8644SOL     OW37393   4.328   0.612   6.052  0.6503 -0.4606 -0.5382
 8644SOL    HW137394   4.274   0.666   5.995 -1.1857 -1.8323 -0.0989
 8644SOL    HW237395   4.408   0.596   6.002 -0.7214 -2.7107 -2.0292
 8645SOL     OW37396   3.096   1.332  11.740 -0.0874  0.4042  0.2658
 8645SOL    HW137397   3.082   1.360  11.831  0.6437 -0.4480  0.6427
 8645SOL    HW237398   3.129   1.415  11.706 -0.8811  1.5438  2.2563
 8646SOL     OW37399   0.944   4.327  12.429  0.5794  0.2950 -0.0027
 8646SOL    HW137400   0.961   4.340  12.522  0.9749 -0.4954  0.0403
 8646SOL    HW237401   0.881   4.398  12.420  0.0796 -0.3902 -1.9096
 8647SOL     OW37402   3.631   3.042  16.148  0.7101  0.2821 -0.4351
 8647SOL    HW137403   3.681   3.062  16.227  0.4670  0.9647 -0.4627
 8647SOL    HW237404   3.578   3.118  16.128 -0.2635 -0.8470 -2.1953
 8648SOL     OW37405   1.325   4.090   3.178  0.5266  0.4007  0.7023
 8648SOL    HW137406   1.356   4.122   3.093  1.1248 -2.3679 -0.1004
 8648SOL    HW237407   1.333   4.177   3.218  3.2202  1.4387 -2.1833
 8649SOL     OW37408   0.707   1.247   7.243 -0.3881 -0.2323 -0.2616
 8649SOL    HW137409   0.655   1.295   7.178 -0.5407 -1.1180 -0.7996
 8649SOL    HW237410   0.751   1.319   7.287  2.5849 -3.5036  2.1105
 8650SOL     OW37411   3.599   1.180   6.879  0.1866 -0.2369  0.5175
 8650SOL    HW137412   3.517   1.221   6.908 -1.2419 -2.9452  0.3582
 8650SOL    HW237413   3.621   1.224   6.798  0.4057 -2.9367 -0.8977
 8651SOL     OW37414   4.364   1.352  13.135 -0.0427  0.0840 -0.3773
 8651SOL    HW137415   4.436   1.359  13.197 -0.6637 -0.7749  0.4506
 8651SOL    HW237416   4.301   1.299  13.184 -2.8003  1.4982 -2.3563
 8652SOL     OW37417   4.243   0.548   6.916 -0.1376 -0.0252 -0.4102
 8652SOL    HW137418   4.294   0.498   6.852  1.0791  0.4280  0.1898
 8652SOL    HW237419   4.182   0.590   6.855  1.7388  2.1182 -0.8089
 8653SOL     OW37420   2.614   2.400  10.174  0.5184 -0.8493  0.3727
 8653SOL    HW137421   2.602   2.316  10.128  0.3662 -1.0639  0.8051
 8653SOL    HW237422   2.710   2.400  10.177  0.5031  1.8586  0.2050
 8654SOL     OW37423   1.829   2.453   5.699 -0.3524  0.0641 -0.4263
 8654SOL    HW137424   1.753   2.445   5.756 -0.5381  0.8255 -0.5622
 8654SOL    HW237425   1.794   2.509   5.629  0.7067 -0.7359 -1.5901
 8655SOL     OW37426   2.131   3.539  15.233 -0.4936 -0.3880 -0.0378
 8655SOL    HW137427   2.195   3.560  15.164  0.5757 -1.7285  0.5612
 8655SOL    HW237428   2.158   3.448  15.244  0.6516 -0.3211 -2.3909
 8656SOL     OW37429   0.500   3.026   4.766  0.0916  0.1807  0.1403
 8656SOL    HW137430   0.433   3.081   4.807 -1.3442  0.6583 -2.8217
 8656SOL    HW237431   0.500   2.947   4.819 -0.9088 -0.4578 -0.7990
 8657SOL     OW37432   4.604   0.586  13.325 -0.0876  0.5594  0.3391
 8657SOL    HW137433   4.662   0.519  13.363  0.9017  0.8715 -0.6099
 8657SOL    HW237434   4.650   0.663  13.358  1.8384  0.4237 -1.9803
 8658SOL     OW37435   3.500   4.069  13.121 -0.0376  0.0277  0.1119
 8658SOL    HW137436   3.494   3.978  13.150  0.8941 -0.3541 -0.9105
 8658SOL    HW237437   3.450   4.062  13.040 -0.5458 -0.1115  0.4402
 8659SOL     OW37438   3.580   1.082   7.212  0.3484  0.1226 -0.0215
 8659SOL    HW137439   3.601   1.088   7.119 -1.3240  1.0951 -0.3290
 8659SOL    HW237440   3.611   0.994   7.232 -2.1592 -0.7433  0.0582
 8660SOL     OW37441   2.740   3.848   5.815 -0.0098 -0.0353 -0.5523
 8660SOL    HW137442   2.778   3.819   5.732 -0.4898 -0.0695 -0.7604
 8660SOL    HW237443   2.807   3.912   5.840  2.9615 -2.8823 -1.1500
 8661SOL     OW37444   1.600   1.384   2.146  0.4158 -0.0738 -0.4593
 8661SOL    HW137445   1.540   1.405   2.218  0.6460 -0.1721 -0.2390
 8661SOL    HW237446   1.560   1.303   2.114 -0.1912 -0.1123  0.4062
 8662SOL     OW37447   1.957   3.102  10.805  0.1477  0.0778  0.4935
 8662SOL    HW137448   2.005   3.050  10.741 -1.0199 -0.5560  0.1338
 8662SOL    HW237449   2.012   3.180  10.814  0.3216 -0.0880  0.8551
 8663SOL     OW37450   3.302   3.852   9.910  0.3492  0.1513  0.4833
 8663SOL    HW137451   3.338   3.901   9.984  0.9335 -1.4079  1.2400
 8663SOL    HW237452   3.347   3.769   9.925 -0.0532  0.1494  1.7201
 8664SOL     OW37453   3.094   0.409   4.722  0.0328  0.0815  0.1712
 8664SOL    HW137454   3.029   0.453   4.777  1.1190  0.9603  0.7426
 8664SOL    HW237455   3.123   0.489   4.678  2.1042 -1.5131 -1.3410
 8665SOL     OW37456   1.863   0.480   7.528  0.1855  0.2559  0.2007
 8665SOL    HW137457   1.818   0.397   7.514 -1.0938  1.5580 -3.2009
 8665SOL    HW237458   1.798   0.537   7.488 -2.2874 -0.6347  2.9111
 8666SOL     OW37459   3.910   0.907   6.013  0.3699 -0.3959 -0.2684
 8666SOL    HW137460   3.953   0.989   6.037  0.2777 -0.8243  1.4171
 8666SOL    HW237461   3.831   0.915   6.067  1.1876  0.4304  0.8055
 8667SOL     OW37462   0.399   3.707   3.659  0.1887  0.3877 -0.1947
 8667SOL    HW137463   0.317   3.686   3.614 -0.5669  3.0073 -0.0158
 8667SOL    HW237464   0.367   3.706   3.749  0.8526 -2.2431  0.0206
 8668SOL     OW37465   3.120   1.557   5.002  0.2782  0.2694 -0.5816
 8668SOL    HW137466   3.196   1.587   5.053 -0.4200  2.8127 -1.0632
 8668SOL    HW237467   3.076   1.510   5.074 -0.3663 -0.6934 -1.6047
 8669SOL     OW37468   4.153   2.980   6.380 -0.0026 -0.1111 -0.1765
 8669SOL    HW137469   4.229   3.027   6.414 -0.1628  0.2035 -0.2551
 8669SOL    HW237470   4.079   3.017   6.428  1.0360  0.8306  0.6891
 8670SOL     OW37471   3.457   3.985   7.974 -0.1186  0.5823  0.2480
 8670SOL    HW137472   3.481   4.034   7.895 -0.0266 -0.1143 -0.1575
 8670SOL    HW237473   3.448   4.055   8.039 -1.3100  1.0620 -0.4364
 8671SOL     OW37474   4.251   3.368  15.395  0.4898 -0.7944 -0.0259
 8671SOL    HW137475   4.314   3.420  15.346  0.9700 -0.8267  0.5621
 8671SOL    HW237476   4.270   3.285  15.351 -1.3617 -0.8912 -0.6810
 8672SOL     OW37477   1.933   0.919   5.988  0.0058  0.2143  0.8847
 8672SOL    HW137478   1.945   1.010   5.960  0.2572  0.4351  1.6925
 8672SOL    HW237479   1.992   0.917   6.064  0.5314 -2.4959  0.3988
 8673SOL     OW37480   1.074   0.053  10.931 -0.2060  0.4372 -0.0204
 8673SOL    HW137481   1.130   0.108  10.986 -0.6190 -0.2879  1.1163
 8673SOL    HW237482   1.037   0.116  10.869  1.1179  1.2144 -0.0228
 8674SOL     OW37483   3.885   4.194   2.570  0.1130  0.3837 -0.1592
 8674SOL    HW137484   3.900   4.288   2.560  0.9270  0.2215 -0.4678
 8674SOL    HW237485   3.792   4.188   2.547 -0.4645 -0.3628  2.3585
 8675SOL     OW37486   1.634   1.216  12.848  0.6421  0.0287 -0.2324
 8675SOL    HW137487   1.727   1.220  12.826  0.5358  0.0207 -0.6918
 8675SOL    HW237488   1.615   1.306  12.822 -0.9436  0.2591  1.7765
 8676SOL     OW37489   3.756   1.801  10.478 -0.0893  0.3151  0.6278
 8676SOL    HW137490   3.747   1.707  10.467  0.2493  0.4772 -1.0273
 8676SOL    HW237491   3.738   1.813  10.571  1.2447  0.4510  0.8777
 8677SOL     OW37492   1.375   2.524  14.316  0.2224 -0.5779  0.0288
 8677SOL    HW137493   1.325   2.445  14.336 -0.2974 -0.2364  0.0858
 8677SOL    HW237494   1.465   2.496  14.328  1.0455  2.2283  0.5770
 8678SOL     OW37495   0.243   4.319   1.008  0.7650  0.1204 -0.3864
 8678SOL    HW137496   0.201   4.238   0.979  0.3817 -0.5827  2.1419
 8678SOL    HW237497   0.294   4.286   1.082  0.7053 -1.4969 -1.0727
 8679SOL     OW37498   2.660   3.113   0.032  0.4445 -0.2154 -0.4478
 8679SOL    HW137499   2.668   3.100   0.126 -0.4558  0.4083 -0.2862
 8679SOL    HW237500   2.736   3.069  17.691  0.2844 -1.3337  0.4933
 8680SOL     OW37501   3.400   1.903   6.426  0.3109 -0.3847  0.1209
 8680SOL    HW137502   3.358   1.949   6.353 -1.2863 -0.4148  1.0059
 8680SOL    HW237503   3.466   1.852   6.379  0.2655 -1.0514  0.7827
 8681SOL     OW37504   4.461   0.870   7.744 -0.0267  0.0560 -0.1216
 8681SOL    HW137505   4.413   0.949   7.718  0.0914 -0.5813 -2.3179
 8681SOL    HW237506   4.484   0.885   7.835  0.0949 -2.3286  0.2546
 8682SOL     OW37507   1.307   3.376  12.486 -0.5576  0.2474 -0.1873
 8682SOL    HW137508   1.373   3.352  12.421 -1.3878 -1.8443 -0.2750
 8682SOL    HW237509   1.286   3.288  12.519  1.3417  0.0128  0.4021
 8683SOL     OW37510   3.850   0.509   6.267 -0.0635  0.2361 -0.1104
 8683SOL    HW137511   3.790   0.441   6.297 -1.2468  0.1421 -2.6661
 8683SOL    HW237512   3.935   0.473   6.292 -0.0423  0.3664  0.0005
 8684SOL     OW37513   3.149   2.255  16.483  0.0623 -0.0005 -0.0460
 8684SOL    HW137514   3.232   2.208  16.487  0.5718  0.8277 -0.8297
 8684SOL    HW237515   3.189   2.342  16.475  0.4512  0.0033  1.9091
 8685SOL     OW37516   1.507   3.648   4.607 -0.2174  0.0003 -0.0404
 8685SOL    HW137517   1.492   3.566   4.560 -0.2151 -0.3097  0.4932
 8685SOL    HW237518   1.519   3.705   4.532  2.1479 -1.2121 -0.6066
 8686SOL     OW37519   2.516   0.241   7.943 -0.3568 -0.1405  0.3756
 8686SOL    HW137520   2.428   0.205   7.961 -0.5454 -0.2104 -0.6739
 8686SOL    HW237521   2.570   0.208   8.014  0.2312 -0.2775 -0.1337
 8687SOL     OW37522   4.202   4.668   5.372 -0.1945 -0.1736 -0.2479
 8687SOL    HW137523   4.142   4.664   5.298  0.0860 -0.2179 -0.4698
 8687SOL    HW237524   4.286   4.694   5.335  0.6797 -0.2958  1.6458
 8688SOL     OW37525   2.918   2.006   3.769  0.3867 -0.7855 -0.3456
 8688SOL    HW137526   2.878   1.955   3.700  2.1203 -0.3573 -1.6714
 8688SOL    HW237527   2.961   2.082   3.729  0.9459 -0.9765 -0.1204
 8689SOL     OW37528   4.371   2.280   4.964 -0.8586  0.1423 -0.2193
 8689SOL    HW137529   4.462   2.309   4.965 -1.4033  1.7070  2.9255
 8689SOL    HW237530   4.317   2.359   4.965  0.6983  1.1753  1.9915
 8690SOL     OW37531   3.053   0.420   2.476  0.0751  0.4224  0.0769
 8690SOL    HW137532   3.029   0.503   2.434 -0.2365  0.6543  0.7121
 8690SOL    HW237533   3.118   0.463   2.532  1.0975 -1.5085  0.3500
 8691SOL     OW37534   0.419   4.142   3.264  0.1304 -0.2114  0.0206
 8691SOL    HW137535   0.352   4.211   3.266  2.0811  1.6730  1.3855
 8691SOL    HW237536   0.370   4.066   3.234 -0.6510  0.2152  0.2399
 8692SOL     OW37537   4.134   3.646   1.960  0.1290  0.3121  0.3006
 8692SOL    HW137538   4.178   3.679   2.038 -0.1083 -1.1396  1.0532
 8692SOL    HW237539   4.063   3.709   1.950 -0.2398  0.3698  3.1801
 8693SOL     OW37540   1.910   0.992  13.731 -0.1052  0.6439  0.7266
 8693SOL    HW137541   1.874   1.063  13.784  0.9831  0.2484  2.0144
 8693SOL    HW237542   1.989   1.027  13.689  0.0206 -1.7798 -1.0508
 8694SOL     OW37543   1.723   4.500   2.486 -0.2703  0.5204  0.0293
 8694SOL    HW137544   1.781   4.465   2.419 -0.5162 -0.7895  0.4972
 8694SOL    HW237545   1.649   4.532   2.434 -0.1131 -1.0787 -1.1822
 8695SOL     OW37546   4.215   2.098   9.922  0.5388  0.3534 -0.5008
 8695SOL    HW137547   4.305   2.078   9.896  0.7802  2.6041 -1.4022
 8695SOL    HW237548   4.175   2.052   9.848  1.4067  0.5557 -1.1084
 8696SOL     OW37549   4.537   3.190  13.410 -0.3392  0.3247 -0.5729
 8696SOL    HW137550   4.603   3.256  13.430 -0.3163  0.5009 -1.2328
 8696SOL    HW237551   4.585   3.111  13.384 -1.0379 -0.5531  0.7671
 8697SOL     OW37552   1.494   3.678  17.042  0.6703  0.1712  0.2615
 8697SOL    HW137553   1.586   3.682  17.069  1.1179  0.7192 -1.3347
 8697SOL    HW237554   1.464   3.733  17.115 -0.2291 -1.3661  1.0614
 8698SOL     OW37555   2.865   1.328   2.711  0.8587  0.2428  0.0367
 8698SOL    HW137556   2.792   1.331   2.650  1.3542 -2.6807 -0.6659
 8698SOL    HW237557   2.917   1.256   2.677  1.8993  0.5500  0.9612
 8699SOL     OW37558   0.346   0.314   4.780 -0.1148  0.1035  0.2812
 8699SOL    HW137559   0.355   0.220   4.795 -1.8290 -0.2188 -0.6686
 8699SOL    HW237560   0.428   0.359   4.797 -0.0117  0.6029 -1.4882
 8700SOL     OW37561   0.371   4.029  11.548  0.6800 -0.0583 -0.2112
 8700SOL    HW137562   0.288   4.055  11.588  0.6472  0.2894 -0.4966
 8700SOL    HW237563   0.418   4.108  11.574 -0.6245  0.9716 -0.9176
 8701SOL     OW37564   4.018   0.349   4.079  0.0595  0.2327  0.6347
 8701SOL    HW137565   4.078   0.423   4.088 -0.7290  0.5603  3.0314
 8701SOL    HW237566   3.935   0.392   4.101 -0.3782 -0.6311  0.6722
 8702SOL     OW37567   0.331   1.650  14.440  0.0589  0.2580 -0.2477
 8702SOL    HW137568   0.310   1.740  14.417 -1.9757  0.7054  3.3390
 8702SOL    HW237569   0.288   1.605  14.368 -0.1650  2.3847 -1.4325
 8703SOL     OW37570   0.070   0.532  16.352 -0.4255 -0.4875 -0.0121
 8703SOL    HW137571   0.127   0.537  16.429 -0.4507  0.0669 -0.0298
 8703SOL    HW237572   0.111   0.457  16.309 -1.4366 -2.5220  2.5272
 8704SOL     OW37573   1.011   3.075  13.109  0.3109 -0.4775  0.2736
 8704SOL    HW137574   0.938   3.137  13.111  1.2482  0.6219  0.2225
 8704SOL    HW237575   1.040   3.070  13.200  2.3750  1.6520 -0.2683
 8705SOL     OW37576   1.108   4.564   0.026  0.0800  0.0919  0.4496
 8705SOL    HW137577   1.164   4.583   0.101  0.2115  0.4113  0.2683
 8705SOL    HW237578   1.044   4.509   0.072  0.9384 -1.0411  0.2901
 8706SOL     OW37579   3.726   0.031  10.659 -0.3056  0.3049 -0.4473
 8706SOL    HW137580   3.798   0.020  10.720  0.0776 -0.0177 -0.9610
 8706SOL    HW237581   3.757   4.700  10.587  1.1021  0.4448  0.0498
 8707SOL     OW37582   2.242   3.897   2.635  0.1799 -0.3302  0.0818
 8707SOL    HW137583   2.146   3.907   2.633  0.2055 -0.2960 -0.9654
 8707SOL    HW237584   2.260   3.989   2.650  1.0398 -0.1725 -2.0592
 8708SOL     OW37585   4.193   4.319  16.980  0.3540  0.1002  0.2710
 8708SOL    HW137586   4.266   4.380  16.990 -0.9043  1.6863 -0.2383
 8708SOL    HW237587   4.143   4.335  17.060 -1.5358  0.9366 -1.0810
 8709SOL     OW37588   4.058   3.671   3.937 -0.1518 -0.2329 -0.5733
 8709SOL    HW137589   4.097   3.584   3.923 -0.7479 -0.6274  0.1904
 8709SOL    HW237590   4.085   3.683   4.028 -0.6209 -4.7856  0.1602
 8710SOL     OW37591   0.735   4.548   5.566  0.3893  0.2577  0.2926
 8710SOL    HW137592   0.660   4.510   5.612  0.0144 -1.4430 -1.7145
 8710SOL    HW237593   0.714   4.541   5.473 -0.2644  2.4062  0.2769
 8711SOL     OW37594   4.212   4.135   7.989 -0.4093 -0.1713 -0.9212
 8711SOL    HW137595   4.123   4.101   7.978 -0.9232  0.5507  1.2226
 8711SOL    HW237596   4.264   4.063   7.953 -0.0695 -0.6027  0.4517
 8712SOL     OW37597   0.420   1.164   9.235  0.9341  0.7731 -0.2963
 8712SOL    HW137598   0.461   1.114   9.305  0.7309  1.0196 -0.0002
 8712SOL    HW237599   0.475   1.242   9.237 -0.6286  1.9393 -2.2973
 8713SOL     OW37600   3.108   2.248  11.762  0.4956 -0.0556 -0.1367
 8713SOL    HW137601   3.063   2.170  11.793 -1.5788  0.7207 -1.2592
 8713SOL    HW237602   3.069   2.275  11.679 -0.3952  1.7333  0.8590
 8714SOL     OW37603   2.843   2.272   1.149  0.3624 -0.8370 -0.3540
 8714SOL    HW137604   2.783   2.220   1.203  1.5224  0.9234  2.6502
 8714SOL    HW237605   2.924   2.237   1.187 -0.1881  0.1282  1.7477
 8715SOL     OW37606   0.251   2.085  17.480 -0.3576 -0.0457  0.1685
 8715SOL    HW137607   0.162   2.084  17.446 -0.0770  0.7511 -0.5989
 8715SOL    HW237608   0.283   1.995  17.478 -1.3926 -0.4162  0.4253
 8716SOL     OW37609   3.622   3.832   9.859  0.2683 -0.0638  0.4696
 8716SOL    HW137610   3.638   3.882   9.779 -1.2325  0.8718  0.7595
 8716SOL    HW237611   3.584   3.749   9.829  0.7929 -0.2473  0.3179
 8717SOL     OW37612   3.603   0.102   5.806 -0.4652  0.2748  0.1838
 8717SOL    HW137613   3.645   0.018   5.823 -0.9470 -0.3125 -1.5007
 8717SOL    HW237614   3.509   0.085   5.814 -0.9656  2.8082 -0.0230
 8718SOL     OW37615   2.957   1.155   7.308  0.3927  0.0471  0.2940
 8718SOL    HW137616   3.037   1.128   7.354  2.3391  0.5757 -2.7432
 8718SOL    HW237617   2.900   1.188   7.377  2.2862  1.1057  1.3518
 8719SOL     OW37618   1.362   1.861  13.115 -0.0922  0.5949 -0.6710
 8719SOL    HW137619   1.395   1.912  13.189 -1.3591  0.2043  0.1521
 8719SOL    HW237620   1.269   1.880  13.122 -0.0621  0.2628  0.5909
 8720SOL     OW37621   4.622   3.706   2.624 -0.0233 -0.4347  0.8324
 8720SOL    HW137622   4.712   3.675   2.616  0.3404  1.4618 -2.5337
 8720SOL    HW237623   4.632   3.799   2.646 -0.8894 -0.3773  0.9743
 8721SOL     OW37624   3.852   0.932   2.390 -0.3836 -0.1273 -0.4018
 8721SOL    HW137625   3.812   1.005   2.344  0.1406 -0.2526 -1.0620
 8721SOL    HW237626   3.773   0.883   2.410 -0.8797  0.4109 -1.0419
 8722SOL     OW37627   0.908   0.631   6.981 -0.2674  1.0097  0.5840
 8722SOL    HW137628   0.918   0.725   6.965 -0.4863  1.0329  0.5844
 8722SOL    HW237629   0.814   0.619   6.966 -0.2546  0.1712  1.1855
 8723SOL     OW37630   0.901   2.333   4.986 -0.3741  0.1625  0.5763
 8723SOL    HW137631   0.992   2.352   5.009  0.5317  0.8848 -3.6199
 8723SOL    HW237632   0.901   2.375   4.900 -1.3759 -0.0802  0.4619
 8724SOL     OW37633   0.004   0.888   4.327  0.1501  0.0827 -0.0333
 8724SOL    HW137634   4.655   0.893   4.390  0.2724 -0.1161  0.1225
 8724SOL    HW237635   4.714   0.975   4.290 -1.6534  0.7575  2.1653
 8725SOL     OW37636   2.001   1.403   4.834 -0.3779 -0.0178  0.6537
 8725SOL    HW137637   2.077   1.346   4.843 -0.0847  0.2992  0.1747
 8725SOL    HW237638   1.933   1.347   4.872 -1.8860  0.9806 -0.5894
 8726SOL     OW37639   3.848   1.387   7.902  0.1820  0.4956 -0.3865
 8726SOL    HW137640   3.938   1.420   7.896  0.3544  0.2936  0.9185
 8726SOL    HW237641   3.828   1.426   7.987 -2.4596 -1.3171 -0.1908
 8727SOL     OW37642   0.581   2.077   0.746  0.2066  0.1662  0.1015
 8727SOL    HW137643   0.528   2.154   0.726  1.8812  1.6872  1.6283
 8727SOL    HW237644   0.630   2.116   0.818  2.1717 -0.4967 -0.8795
 8728SOL     OW37645   1.250   0.387   5.273 -0.0145 -0.4726  1.2451
 8728SOL    HW137646   1.325   0.345   5.232 -0.6757 -0.5136  0.0889
 8728SOL    HW237647   1.281   0.373   5.363 -0.2426 -1.6071  1.1472
 8729SOL     OW37648   3.665   4.471  16.684 -0.0939  0.2160  0.0485
 8729SOL    HW137649   3.623   4.545  16.640 -0.8771 -0.7236 -0.7938
 8729SOL    HW237650   3.603   4.458  16.756  0.0585  2.5941  0.6211
 8730SOL     OW37651   3.598   2.872   3.339 -0.0202 -0.5045  0.1579
 8730SOL    HW137652   3.503   2.881   3.332  0.3428  1.8760 -1.4206
 8730SOL    HW237653   3.625   2.932   3.409  2.2152 -1.6896  0.2942
 8731SOL     OW37654   1.376   3.454  12.186 -0.6078  0.0974 -0.0634
 8731SOL    HW137655   1.293   3.409  12.169 -0.8547  0.3050  0.5851
 8731SOL    HW237656   1.436   3.389  12.151 -1.9779 -2.2975  1.9969
 8732SOL     OW37657   0.909   0.129   0.951 -0.3514  0.5790  0.1062
 8732SOL    HW137658   0.904   0.036   0.976 -1.8283  0.3766 -0.9168
 8732SOL    HW237659   0.999   0.144   0.978 -0.1602  0.3538 -0.4104
 8733SOL     OW37660   2.939   3.006   4.530 -0.0186 -0.2702 -0.0050
 8733SOL    HW137661   2.933   2.966   4.617 -0.8323 -1.5146 -0.6185
 8733SOL    HW237662   2.850   2.994   4.497  0.2145  0.5134 -0.9193
 8734SOL     OW37663   0.673   0.059  10.469 -0.3880  0.0523 -0.0324
 8734SOL    HW137664   0.595   0.008  10.447 -0.0585 -0.6191  0.3681
 8734SOL    HW237665   0.661   0.077  10.562 -1.8992 -0.8690 -0.0451
 8735SOL     OW37666   3.350   4.162  15.723 -0.2684 -0.0443  0.3941
 8735SOL    HW137667   3.270   4.190  15.767 -1.4388  0.7205 -2.2691
 8735SOL    HW237668   3.363   4.073  15.756 -0.2452  0.1929  1.0272
 8736SOL     OW37669   3.136   0.005   0.584  0.0554 -0.0047 -0.0156
 8736SOL    HW137670   3.158   4.638   0.566  1.2954  0.4653 -0.8937
 8736SOL    HW237671   3.044   4.720   0.560  0.6197 -2.5924 -1.1425
 8737SOL     OW37672   3.330   2.601   7.312  0.3871 -0.0993 -0.0547
 8737SOL    HW137673   3.379   2.631   7.388  0.4475 -0.9534  0.2454
 8737SOL    HW237674   3.347   2.507   7.320  0.4039 -0.1300 -0.4461
 8738SOL     OW37675   2.346   1.761   3.610  0.4234  0.4121 -0.0762
 8738SOL    HW137676   2.419   1.702   3.631  1.3360  1.7710  0.5312
 8738SOL    HW237677   2.366   1.832   3.671 -1.0898  0.6628  0.1195
 8739SOL     OW37678   1.287   2.590   0.930 -0.5292  0.0988 -0.8691
 8739SOL    HW137679   1.296   2.671   0.879 -0.6106  1.0730  0.6560
 8739SOL    HW237680   1.356   2.607   0.993 -0.3778 -1.6661 -0.5570
 8740SOL     OW37681   0.613   0.636   5.067  0.1133 -0.6198 -0.3157
 8740SOL    HW137682   0.632   0.662   5.158  0.7925  1.4523 -1.0449
 8740SOL    HW237683   0.696   0.649   5.022 -0.3908 -1.7789 -1.5805
 8741SOL     OW37684   0.603   1.567   5.953 -0.6051  0.7196 -0.2231
 8741SOL    HW137685   0.573   1.536   6.038  0.8185 -0.1810 -0.0500
 8741SOL    HW237686   0.688   1.608   5.971 -0.9045 -0.1266  3.0167
 8742SOL     OW37687   3.583   2.509   9.970 -0.0392 -0.0207  0.7204
 8742SOL    HW137688   3.557   2.558   9.892  0.2767 -1.3922 -0.2282
 8742SOL    HW237689   3.512   2.531  10.030 -0.4255  0.8645 -0.0576
 8743SOL     OW37690   2.701   3.092   0.301  0.2131 -0.1377  0.1424
 8743SOL    HW137691   2.790   3.118   0.277  0.0727 -0.7963 -1.1428
 8743SOL    HW237692   2.702   2.997   0.288 -0.7147 -0.1432  0.1259
 8744SOL     OW37693   4.406   2.555   2.831 -0.4988 -0.2286  0.5330
 8744SOL    HW137694   4.496   2.525   2.844 -0.1214  0.7179  0.0768
 8744SOL    HW237695   4.424   2.647   2.812 -2.6385  0.2541  0.7929
 8745SOL     OW37696   3.788   2.253   4.172  0.5501  0.1518 -0.2183
 8745SOL    HW137697   3.807   2.159   4.165 -1.5674 -0.3001  0.0419
 8745SOL    HW237698   3.839   2.276   4.250  0.0489 -1.2119  0.5237
 8746SOL     OW37699   0.657   0.065   2.420 -0.0420 -0.1284  0.2436
 8746SOL    HW137700   0.606   0.138   2.456 -0.8658 -0.6093  0.0651
 8746SOL    HW237701   0.634   0.060   2.327 -2.7280  0.0217  0.8902
 8747SOL     OW37702   4.367   1.982   9.511 -0.6047 -1.0219  0.7485
 8747SOL    HW137703   4.367   2.055   9.572  3.7474 -1.9752  1.8811
 8747SOL    HW237704   4.458   1.978   9.483 -1.2779 -0.1756 -1.5352
 8748SOL     OW37705   2.071   0.646   6.396  0.0987  0.0440  0.3686
 8748SOL    HW137706   2.121   0.581   6.445 -0.0091 -0.4991 -0.2398
 8748SOL    HW237707   2.101   0.638   6.305  1.0853  3.6984  0.3851
 8749SOL     OW37708   2.944   0.225   0.845 -0.6847  0.2613  0.5669
 8749SOL    HW137709   2.955   0.191   0.756 -0.4211 -1.6850  1.3463
 8749SOL    HW237710   3.024   0.188   0.881  0.0421  2.5182  1.3016
 8750SOL     OW37711   0.534   4.466  14.925  0.1093 -0.0337  0.1043
 8750SOL    HW137712   0.477   4.483  14.850 -0.4066 -0.5307  0.3822
 8750SOL    HW237713   0.467   4.442  14.989  0.0874 -0.1350  0.0441
 8751SOL     OW37714   2.610   1.124   2.462 -0.2450  0.6125 -0.1440
 8751SOL    HW137715   2.700   1.100   2.486 -0.7916 -1.3108 -0.0112
 8751SOL    HW237716   2.618   1.113   2.367  1.3883  0.2151  0.0338
 8752SOL     OW37717   3.721   3.697  16.741  0.3171  0.6373  0.1080
 8752SOL    HW137718   3.767   3.746  16.674  0.6308 -1.1182 -0.9453
 8752SOL    HW237719   3.681   3.759  16.802 -0.3397  1.1846 -0.8925
 8753SOL     OW37720   1.824   0.451   5.454 -0.0689  0.5050  0.0613
 8753SOL    HW137721   1.802   0.358   5.452 -2.6479  1.0255  3.2246
 8753SOL    HW237722   1.912   0.444   5.493  0.3844 -3.1008 -1.6042
 8754SOL     OW37723   3.066   4.525  17.139  0.0600 -0.2010  0.1856
 8754SOL    HW137724   3.006   4.599  17.132  0.1830 -0.0944  0.2527
 8754SOL    HW237725   3.017   4.461  17.088 -1.2231  0.1486  0.9732
 8755SOL     OW37726   4.346   1.276   6.234 -0.0352 -0.0022  0.6974
 8755SOL    HW137727   4.389   1.288   6.149 -0.2773  1.9432  0.8622
 8755SOL    HW237728   4.407   1.331   6.284  1.0802  0.8481 -1.5711
 8756SOL     OW37729   0.524   2.716   6.098  0.2508  0.8814  0.1659
 8756SOL    HW137730   0.572   2.705   6.180 -0.1284  1.8425  0.5097
 8756SOL    HW237731   0.598   2.712   6.036  0.2175 -0.9157  0.2392
 8757SOL     OW37732   0.084   4.058   5.305  0.0688  0.1464  0.6786
 8757SOL    HW137733   0.147   4.008   5.253 -1.9532 -0.6562 -0.9719
 8757SOL    HW237734   4.723   4.025   5.277  0.9917 -0.3025 -1.6207
 8758SOL     OW37735   0.777   3.978   6.547 -0.0617  0.1626  0.3921
 8758SOL    HW137736   0.869   3.996   6.528 -0.0913 -1.2250 -1.0731
 8758SOL    HW237737   0.760   3.920   6.474  0.3447 -0.6893  0.9754
 8759SOL     OW37738   0.301   2.129   6.252  0.3586 -0.0484  0.1367
 8759SOL    HW137739   0.291   2.203   6.192  1.3585  1.9045  2.3863
 8759SOL    HW237740   0.321   2.055   6.196  1.7801  0.6084 -0.2215
 8760SOL     OW37741   0.331   3.811   7.210 -0.3797  0.5625  0.6223
 8760SOL    HW137742   0.313   3.718   7.229  1.1375  0.3318  0.8891
 8760SOL    HW237743   0.415   3.814   7.254 -0.6035  2.3130  0.9187
 8761SOL     OW37744   0.284   0.075   9.492 -0.1608  0.1566 -0.2711
 8761SOL    HW137745   0.367   0.039   9.524 -1.0749 -0.2711  1.6095
 8761SOL    HW237746   0.273   0.132   9.568  0.9696 -1.8819  1.4208
 8762SOL     OW37747   2.322   3.278   2.447  0.1946 -0.7475  0.1719
 8762SOL    HW137748   2.376   3.199   2.446 -0.3271 -1.0600 -1.8927
 8762SOL    HW237749   2.235   3.238   2.439 -1.2693  2.8395 -1.5252
 8763SOL     OW37750   4.033   2.763   9.042  0.1365 -0.7068 -0.0065
 8763SOL    HW137751   4.082   2.697   8.994 -0.4678 -2.0954  1.3092
 8763SOL    HW237752   4.010   2.709   9.117 -0.4130 -1.8817 -1.0151
 8764SOL     OW37753   0.804   3.327   9.152 -0.4797  0.2985 -0.0635
 8764SOL    HW137754   0.740   3.256   9.147  0.1302 -0.2526 -0.0514
 8764SOL    HW237755   0.881   3.280   9.120 -1.0718  0.1214 -1.2060
 8765SOL     OW37756   3.535   2.884  12.554  0.0100  0.2862  0.1078
 8765SOL    HW137757   3.457   2.884  12.609 -0.5845 -0.2207 -0.7519
 8765SOL    HW237758   3.546   2.808  12.497 -1.2811  0.1079  0.1138
 8766SOL     OW37759   4.029   3.729   2.256  0.3488 -0.1064 -0.3360
 8766SOL    HW137760   4.122   3.751   2.249  0.4340 -0.5437 -0.5738
 8766SOL    HW237761   4.011   3.722   2.350  1.7949 -1.2648 -0.1356
 8767SOL     OW37762   1.727   1.541   6.944  0.7010 -0.2837 -0.8324
 8767SOL    HW137763   1.682   1.565   6.863 -0.9219  1.1057  0.4511
 8767SOL    HW237764   1.674   1.467   6.973 -0.3605  0.3682 -1.1061
 8768SOL     OW37765   4.665   2.711   6.713  0.0279  0.2895  0.3916
 8768SOL    HW137766   0.001   2.677   6.646  0.6288  2.5936 -0.2430
 8768SOL    HW237767   4.696   2.799   6.733 -0.2936  0.5781 -0.4051
 8769SOL     OW37768   0.879   1.799  11.005  0.2654 -0.1598 -0.2712
 8769SOL    HW137769   0.967   1.837  11.009 -0.5800  1.4724  2.0811
 8769SOL    HW237770   0.886   1.703  11.008 -1.4838 -0.3083 -0.6599
 8770SOL     OW37771   1.716   0.751   5.984  0.2281  0.1054 -0.5131
 8770SOL    HW137772   1.805   0.784   6.000 -0.3787 -0.2433  3.5595
 8770SOL    HW237773   1.667   0.821   5.943  0.3447  0.7363  0.4240
 8771SOL     OW37774   2.328   0.345  16.792 -0.3829 -0.1414 -0.0176
 8771SOL    HW137775   2.369   0.263  16.765  1.4844 -0.1187  2.8780
 8771SOL    HW237776   2.289   0.358  16.705 -0.2266 -2.2901 -0.3979
 8772SOL     OW37777   3.010   0.760   8.495 -0.3602 -0.5544  0.1291
 8772SOL    HW137778   2.972   0.842   8.464 -0.7397 -0.7692  0.0224
 8772SOL    HW237779   3.082   0.795   8.548  0.3595  0.4449 -1.5231
 8773SOL     OW37780   1.074   0.144   5.289  0.3335 -0.1916 -0.5101
 8773SOL    HW137781   0.984   0.116   5.303  0.3616 -0.8008 -1.5262
 8773SOL    HW237782   1.078   0.211   5.358 -0.5509  0.4957 -1.1284
 8774SOL     OW37783   2.835   3.506   8.319 -0.3205 -0.1584 -0.7267
 8774SOL    HW137784   2.841   3.436   8.384  2.5106  1.0672  0.3160
 8774SOL    HW237785   2.742   3.524   8.332 -0.0380  0.6776  0.1382
 8775SOL     OW37786   0.930   3.447   3.844  0.6448 -0.4584  0.0360
 8775SOL    HW137787   0.928   3.522   3.784  1.0907 -0.6381 -0.2052
 8775SOL    HW237788   0.960   3.379   3.784 -2.5539 -0.6373 -1.3521
 8776SOL     OW37789   1.517   1.466  12.807 -0.6297  0.2183  0.0829
 8776SOL    HW137790   1.425   1.450  12.787 -1.0560 -1.2714  3.4043
 8776SOL    HW237791   1.521   1.561  12.816  1.2543  0.5219 -3.9564
 8777SOL     OW37792   0.514   0.853   6.887  0.0566 -0.1294  0.1140
 8777SOL    HW137793   0.449   0.862   6.817 -0.5018 -4.9695  0.0156
 8777SOL    HW237794   0.451   0.859   6.959  0.5129  1.2756  0.4092
 8778SOL     OW37795   2.434   1.435   4.821 -0.4511 -0.1434 -0.1921
 8778SOL    HW137796   2.431   1.530   4.833  3.1546  0.1621 -1.6188
 8778SOL    HW237797   2.506   1.426   4.759  0.0499  1.1915  0.1920
 8779SOL     OW37798   0.268   2.115   8.023  0.3608 -0.3785 -0.1580
 8779SOL    HW137799   0.290   2.026   7.997 -0.1395 -0.4320 -0.4024
 8779SOL    HW237800   0.300   2.160   7.945  3.7059 -0.4823  1.1435
 8780SOL     OW37801   3.721   3.813  16.174 -0.6741 -0.0350 -0.2443
 8780SOL    HW137802   3.688   3.734  16.217 -1.2358  0.3974  0.1206
 8780SOL    HW237803   3.813   3.789  16.173 -0.5127  0.6073 -0.7011
 8781SOL     OW37804   4.245   0.490   9.832  0.2668 -0.0080  0.4123
 8781SOL    HW137805   4.188   0.424   9.870  0.1273  0.0214  0.2551
 8781SOL    HW237806   4.220   0.456   9.746 -1.4951  1.8307  0.1956
 8782SOL     OW37807   2.350   3.306  17.469  0.2708 -0.1573 -0.2399
 8782SOL    HW137808   2.394   3.286  17.387 -1.3908 -2.4013 -0.5608
 8782SOL    HW237809   2.269   3.257  17.468 -1.1539  2.1962  0.0073
 8783SOL     OW37810   2.914   1.061   3.853 -0.4133 -0.0600  0.3415
 8783SOL    HW137811   2.938   1.015   3.773 -0.9586  0.1430  0.0579
 8783SOL    HW237812   2.835   1.011   3.874 -0.7243  0.1450 -0.3302
 8784SOL     OW37813   4.343   3.701   0.898 -0.1505  0.4337 -0.6295
 8784SOL    HW137814   4.337   3.606   0.883  0.3605  0.1302  1.1130
 8784SOL    HW237815   4.269   3.709   0.958 -1.3224  0.4494 -2.0703
 8785SOL     OW37816   1.320   2.927   9.893 -0.6758  0.6516  0.1228
 8785SOL    HW137817   1.390   2.991   9.906 -0.6501  0.2564  1.8831
 8785SOL    HW237818   1.355   2.865   9.956 -1.6279  1.0503  1.0321
 8786SOL     OW37819   2.594   4.383   4.078  0.2432  0.6214  0.5514
 8786SOL    HW137820   2.633   4.399   3.993  0.0661 -0.0211  0.3513
 8786SOL    HW237821   2.514   4.435   4.068 -0.2385 -0.2777 -0.2708
 8787SOL     OW37822   1.027   3.415   1.305 -1.0402 -0.2587 -0.9580
 8787SOL    HW137823   1.008   3.344   1.245 -2.2708  0.2791 -1.2141
 8787SOL    HW237824   1.056   3.368   1.384  0.7191  0.0143 -1.4295
 8788SOL     OW37825   2.321   3.098   1.673 -0.2922 -0.0449  0.5980
 8788SOL    HW137826   2.389   3.122   1.735  0.9351 -1.4109 -0.2160
 8788SOL    HW237827   2.249   3.094   1.736 -0.7724 -1.5524 -0.0310
 8789SOL     OW37828   0.173   0.586   5.506 -0.0747  0.1140  0.0972
 8789SOL    HW137829   0.159   0.618   5.595  0.0168 -1.3506  0.6256
 8789SOL    HW237830   0.247   0.534   5.537 -0.5660 -1.2831 -1.0921
 8790SOL     OW37831   1.914   1.882  16.497  0.1286 -0.0144 -0.4607
 8790SOL    HW137832   1.907   1.786  16.497 -0.5185  0.0286 -0.6460
 8790SOL    HW237833   1.902   1.897  16.590  1.6574 -4.5238  0.4750
 8791SOL     OW37834   0.645   3.471   3.265  0.6333  0.4647 -0.0386
 8791SOL    HW137835   0.667   3.419   3.342 -1.5965  1.0391  1.0094
 8791SOL    HW237836   0.619   3.400   3.206 -2.4360  0.6018  1.1595
 8792SOL     OW37837   0.310   1.870   4.484  0.1694 -0.0222  0.3320
 8792SOL    HW137838   0.263   1.937   4.533 -0.7898  0.8099 -1.7431
 8792SOL    HW237839   0.314   1.807   4.556  1.3481 -0.4160 -0.0742
 8793SOL     OW37840   3.174   2.347  12.007 -0.0405  0.5617  0.0735
 8793SOL    HW137841   3.180   2.342  11.912 -0.2653 -0.4699  0.1114
 8793SOL    HW237842   3.218   2.264  12.026  0.4348  0.1884 -2.6729
 8794SOL     OW37843   1.016   4.074  17.157  0.5355  0.0816 -0.0586
 8794SOL    HW137844   1.070   4.112  17.087  2.4624 -2.3408  0.1259
 8794SOL    HW237845   1.040   4.117  17.239  0.0238 -1.7632  1.0626
 8795SOL     OW37846   3.739   3.165   7.209  0.4276  0.7723 -0.2520
 8795SOL    HW137847   3.793   3.087   7.221 -0.1220  0.3794 -0.3365
 8795SOL    HW237848   3.715   3.183   7.300  1.8035 -1.0586  0.4768
 8796SOL     OW37849   3.721   1.043  14.445  0.1632  0.1554 -0.1588
 8796SOL    HW137850   3.736   1.001  14.530 -0.1664  3.5622  1.6095
 8796SOL    HW237851   3.757   1.129  14.469  2.0273 -1.1451  1.7203
 8797SOL     OW37852   4.206   0.378   8.251  0.6886  0.1084 -0.1837
 8797SOL    HW137853   4.235   0.290   8.273 -0.8396 -0.2337  0.4230
 8797SOL    HW237854   4.285   0.433   8.245  1.7293 -1.3590  0.1622
 8798SOL     OW37855   2.301   1.432   8.152 -0.1152  0.7845 -0.2373
 8798SOL    HW137856   2.318   1.525   8.138  3.1959 -0.0684 -1.8606
 8798SOL    HW237857   2.330   1.433   8.243  2.3680 -1.2442 -1.0107
 8799SOL     OW37858   1.543   1.262   1.292 -0.2747 -0.0524  0.2888
 8799SOL    HW137859   1.591   1.341   1.317 -0.0550  0.3046 -1.2946
 8799SOL    HW237860   1.561   1.208   1.369 -2.9289  1.1377  1.7657
 8800SOL     OW37861   1.993   0.839   7.260  0.0476  0.8107 -0.5162
 8800SOL    HW137862   2.061   0.867   7.198  0.5797  0.6758 -0.0036
 8800SOL    HW237863   1.934   0.914   7.257 -0.0639  0.7258 -0.4572
 8801SOL     OW37864   2.745   3.662  16.859 -0.1002 -0.3175 -0.6749
 8801SOL    HW137865   2.721   3.719  16.932  0.4637  0.2472 -0.9398
 8801SOL    HW237866   2.671   3.602  16.872 -0.7739  0.4265 -1.0449
 8802SOL     OW37867   4.398   2.536   0.884 -0.4415  0.7619  0.2323
 8802SOL    HW137868   4.353   2.585   0.816 -0.7520  0.2233  0.0481
 8802SOL    HW237869   4.429   2.601   0.947  1.3534 -0.1074  0.2679
 8803SOL     OW37870   2.187   2.964  14.912 -0.1459  0.4319 -0.1361
 8803SOL    HW137871   2.267   2.947  14.962 -1.5328 -1.6003  1.3586
 8803SOL    HW237872   2.121   2.978  14.979 -1.6385 -3.3677 -0.8353
 8804SOL     OW37873   4.116   4.185   6.912 -0.0740  0.4681  0.4271
 8804SOL    HW137874   4.116   4.229   6.827 -0.4611  0.5347  0.4631
 8804SOL    HW237875   4.045   4.122   6.901 -1.7504  2.3147  0.6483
 8805SOL     OW37876   1.821   2.569   4.708  0.1743  0.0358 -0.0598
 8805SOL    HW137877   1.805   2.663   4.720  0.0280  0.1755 -1.3254
 8805SOL    HW237878   1.892   2.554   4.770  0.5552 -0.3261 -0.5957
 8806SOL     OW37879   3.577   2.926  10.734  0.3600  0.0204  0.5758
 8806SOL    HW137880   3.532   2.970  10.806 -0.9480  1.1502 -0.9347
 8806SOL    HW237881   3.640   2.992  10.706  1.4854 -1.6751 -0.9401
 8807SOL     OW37882   0.483   2.433   3.013 -0.0845  0.0996 -0.5722
 8807SOL    HW137883   0.468   2.409   2.922  1.0756  1.0108 -1.0064
 8807SOL    HW237884   0.425   2.373   3.060 -1.1613 -0.7408 -3.0002
 8808SOL     OW37885   0.769   2.787   0.794 -0.8167  0.3868  0.2690
 8808SOL    HW137886   0.711   2.713   0.814 -0.1115  0.0091  0.9130
 8808SOL    HW237887   0.727   2.824   0.716  1.8283  0.7036 -1.0061
 8809SOL     OW37888   2.223   0.996   8.395 -0.1087  0.2569  0.7011
 8809SOL    HW137889   2.152   1.043   8.438 -0.5599 -1.0550  1.4004
 8809SOL    HW237890   2.177   0.914   8.380 -0.3452 -0.0668  3.2888
 8810SOL     OW37891   0.919   0.132   8.726  0.1899 -0.1577  0.1493
 8810SOL    HW137892   0.976   0.065   8.762 -0.8228 -2.1600 -1.9854
 8810SOL    HW237893   0.838   0.127   8.778 -0.6491  0.9564 -1.0498
 8811SOL     OW37894   1.220   3.875   1.687 -0.0097  0.0938 -0.0665
 8811SOL    HW137895   1.300   3.834   1.653  0.6645 -0.4802  2.1997
 8811SOL    HW237896   1.177   3.882   1.602 -1.4652 -1.6622  0.5404
 8812SOL     OW37897   3.378   0.501   5.467  0.2695 -0.1269 -0.0288
 8812SOL    HW137898   3.381   0.432   5.400  2.0476 -0.8804  0.8203
 8812SOL    HW237899   3.396   0.450   5.546  2.3216 -2.9652 -2.3061
 8813SOL     OW37900   2.479   2.806   2.527  0.1399  0.3420  0.0296
 8813SOL    HW137901   2.523   2.841   2.604  0.6128  1.4923 -0.7742
 8813SOL    HW237902   2.442   2.722   2.555  1.3779 -0.4947 -0.8697
 8814SOL     OW37903   1.743   4.623   2.884 -0.4257  0.2308  0.0679
 8814SOL    HW137904   1.695   4.664   2.956  0.9939  0.8674  0.6606
 8814SOL    HW237905   1.710   4.678   2.813  1.4204 -0.1850 -1.1113
 8815SOL     OW37906   1.474   0.617   3.926 -0.8149 -0.0376  0.6953
 8815SOL    HW137907   1.395   0.563   3.923 -0.6830 -0.1103 -1.2731
 8815SOL    HW237908   1.448   0.686   3.865  0.7336  0.5996  0.7464
 8816SOL     OW37909   3.424   2.915   0.216  0.3293  0.5057 -0.4084
 8816SOL    HW137910   3.413   2.897   0.310 -1.2294  0.8111 -0.5351
 8816SOL    HW237911   3.479   2.846   0.180  0.7302  0.2892  0.6243
 8817SOL     OW37912   2.749   2.229   7.609  0.1996 -0.3272  0.5199
 8817SOL    HW137913   2.830   2.277   7.595 -0.2141  0.0315 -0.6907
 8817SOL    HW237914   2.697   2.285   7.551 -0.6629 -0.2794  1.3232
 8818SOL     OW37915   3.581   3.189   5.300  0.0227  0.1056 -0.6299
 8818SOL    HW137916   3.660   3.141   5.275 -1.1428 -1.4741 -1.1944
 8818SOL    HW237917   3.525   3.174   5.225 -0.9288  1.2049 -0.1310
 8819SOL     OW37918   0.690   1.957   2.367 -0.1762 -0.3553  0.1881
 8819SOL    HW137919   0.779   1.929   2.344  0.7424  0.8880  2.1893
 8819SOL    HW237920   0.717   2.017   2.437  1.9247  1.6647 -2.3606
 8820SOL     OW37921   4.501   2.062   5.129 -0.2448 -0.0759 -0.0785
 8820SOL    HW137922   4.488   1.975   5.091  3.6787 -0.8774  0.4103
 8820SOL    HW237923   4.449   2.115   5.068  0.6207  0.1858 -0.5960
 8821SOL     OW37924   0.663   2.345  14.809 -0.3990 -0.2759 -0.1048
 8821SOL    HW137925   0.699   2.293  14.881 -1.4328 -1.0440 -0.1517
 8821SOL    HW237926   0.748   2.380  14.779 -0.4798 -0.2085 -0.2549
 8822SOL     OW37927   1.938   0.869   8.917 -0.3586 -0.3203  0.1254
 8822SOL    HW137928   1.861   0.923   8.898  1.0694  1.5566 -0.2973
 8822SOL    HW237929   1.960   0.865   8.824 -0.0814  0.7199  0.1418
 8823SOL     OW37930   2.983   4.077   1.491 -0.2900  0.2615  0.1143
 8823SOL    HW137931   2.978   3.996   1.543 -0.7789  0.0899 -0.2061
 8823SOL    HW237932   2.909   4.073   1.431  0.8968  1.8427 -1.4431
 8824SOL     OW37933   0.563   4.033   0.685 -0.2811 -0.6889 -0.3019
 8824SOL    HW137934   0.516   4.117   0.678  1.5373  0.4568  1.0617
 8824SOL    HW237935   0.627   4.047   0.616 -0.8328  0.8768 -0.5003
 8825SOL     OW37936   2.912   0.050   7.292 -0.4951  0.3315  0.2908
 8825SOL    HW137937   2.961   4.706   7.337  0.4878 -0.6688 -2.3163
 8825SOL    HW237938   2.865   0.072   7.373  0.8395 -1.5256  1.5517
 8826SOL     OW37939   2.093   0.683   2.692  0.0477  0.0656 -0.0798
 8826SOL    HW137940   2.145   0.603   2.684  0.3712  0.4566 -1.7336
 8826SOL    HW237941   2.126   0.735   2.620 -1.5449  0.5824 -0.4467
 8827SOL     OW37942   1.218   0.189   6.183 -0.2097  0.4827 -0.3186
 8827SOL    HW137943   1.284   0.128   6.152 -1.6743 -0.7226 -1.0931
 8827SOL    HW237944   1.135   0.146   6.162  0.2923 -0.9735  0.6967
 8828SOL     OW37945   2.476   3.977  12.551  0.3069 -0.2775 -0.4731
 8828SOL    HW137946   2.506   4.053  12.601 -1.2112  1.0736 -1.6173
 8828SOL    HW237947   2.541   3.959  12.483  0.2827 -0.4739 -0.4440
 8829SOL     OW37948   3.200   3.681   0.308 -0.3069  0.1654 -0.1195
 8829SOL    HW137949   3.282   3.729   0.301  0.5107 -0.9106  2.1554
 8829SOL    HW237950   3.205   3.618   0.236  1.1176  2.0387 -1.6774
 8830SOL     OW37951   4.529   3.807   3.770  0.1395 -0.1853  0.1456
 8830SOL    HW137952   4.607   3.787   3.718  0.8587  1.7694  0.4715
 8830SOL    HW237953   4.469   3.739   3.739  0.4368 -0.2728 -0.2489
 8831SOL     OW37954   0.052   0.597   2.003 -0.0225  0.1422 -0.5029
 8831SOL    HW137955   4.698   0.649   1.983  0.3017  0.7145 -0.2870
 8831SOL    HW237956   0.036   0.530   1.937 -2.8698  0.9175 -0.6194
 8832SOL     OW37957   0.543   0.503   3.304  0.1432 -0.2013  0.2827
 8832SOL    HW137958   0.494   0.423   3.283  1.5744 -1.1037  0.3616
 8832SOL    HW237959   0.508   0.532   3.389 -1.1894 -1.6752  0.2461
 8833SOL     OW37960   2.390   2.480   2.001  0.6771 -0.1182 -0.2511
 8833SOL    HW137961   2.311   2.482   1.946  1.9424 -0.4231 -2.0845
 8833SOL    HW237962   2.358   2.500   2.089  1.3649 -1.0823  0.2311
 8834SOL     OW37963   2.487   4.705  13.744 -0.1259 -0.1805 -0.2842
 8834SOL    HW137964   2.434   0.011  13.670  0.5449 -2.4634 -1.6738
 8834SOL    HW237965   2.565   0.032  13.721  1.2914 -1.0486  2.5047
 8835SOL     OW37966   2.116   4.430   2.523 -0.4868 -0.2035  0.0965
 8835SOL    HW137967   2.127   4.508   2.578 -2.1519 -0.0728  0.2323
 8835SOL    HW237968   2.025   4.419   2.549 -0.5863 -0.7832 -0.4854
 8836SOL     OW37969   2.011   0.045   6.408  0.2030 -0.5610  0.1396
 8836SOL    HW137970   2.024   4.674   6.406  1.9080 -0.3686  2.3511
 8836SOL    HW237971   1.945   0.053   6.339 -1.0815 -2.4631  1.1521
 8837SOL     OW37972   4.007   1.731  17.609 -0.1202 -0.0655  0.2471
 8837SOL    HW137973   4.081   1.732  17.670  0.6696 -2.0564 -0.6979
 8837SOL    HW237974   4.027   1.646  17.570  2.4276  0.3703  0.5459
 8838SOL     OW37975   2.383   2.113  13.246  0.5727  0.2500 -0.2660
 8838SOL    HW137976   2.437   2.116  13.325 -0.1555 -0.0971  0.2512
 8838SOL    HW237977   2.442   2.084  13.177  2.0579 -0.1767  1.1820
 8839SOL     OW37978   1.589   4.071   2.797  0.1017  0.0987 -0.5669
 8839SOL    HW137979   1.568   4.024   2.717 -0.6424 -1.9536  0.8253
 8839SOL    HW237980   1.650   4.138   2.766  0.4509 -0.6514 -1.4744
 8840SOL     OW37981   1.576   2.678   2.550  0.5868 -0.0241 -0.7323
 8840SOL    HW137982   1.588   2.596   2.598 -0.2609  0.1728 -0.1980
 8840SOL    HW237983   1.487   2.659   2.519  0.5766 -0.4103 -0.4689
 8841SOL     OW37984   2.330   0.557   2.906 -0.3733 -0.5046  0.3742
 8841SOL    HW137985   2.403   0.598   2.858 -1.9560 -0.3742 -1.9157
 8841SOL    HW237986   2.275   0.516   2.839  0.0884 -0.2276 -0.1751
 8842SOL     OW37987   0.190   0.345  10.016  0.3788 -0.1320  0.1337
 8842SOL    HW137988   0.118   0.395  10.054 -0.1207  0.1554 -1.1868
 8842SOL    HW237989   0.145   0.282   9.961 -0.5346  1.5359 -1.0095
 8843SOL     OW37990   0.763   2.973  13.809 -0.3574 -0.3789 -0.8460
 8843SOL    HW137991   0.761   2.901  13.872 -0.2099  0.7201  0.4131
 8843SOL    HW237992   0.698   3.039  13.831 -0.4462  0.1155 -2.5829
 8844SOL     OW37993   1.442   0.740  12.049 -0.0883 -0.5376  0.0567
 8844SOL    HW137994   1.534   0.713  12.049  0.0181 -0.1901  2.4260
 8844SOL    HW237995   1.442   0.827  12.009  2.3524 -0.0503  1.1126
 8845SOL     OW37996   0.102   3.079   1.330  0.2419 -0.1928  0.6785
 8845SOL    HW137997   0.165   3.150   1.315  0.2071 -0.6924 -1.8576
 8845SOL    HW237998   0.120   3.040   1.245 -1.5866  1.7361 -0.5780
 8846SOL     OW37999   4.166   3.471   1.287  0.2149 -0.0779  0.4639
 8846SOL    HW138000   4.188   3.452   1.378  1.5708  2.6245  0.6886
 8846SOL    HW238001   4.072   3.458   1.297 -0.0364  1.4639  0.0811
 8847SOL     OW38002   1.057   2.661   2.009 -0.4093 -0.0587  0.0862
 8847SOL    HW138003   0.988   2.718   1.975 -1.6239  0.9109  4.2384
 8847SOL    HW238004   1.009   2.595   2.059 -1.1075  0.0937 -0.3872
 8848SOL     OW38005   3.319   2.870   1.643 -0.3765  0.7954 -0.2987
 8848SOL    HW138006   3.268   2.847   1.721 -1.7739  0.3076 -1.3526
 8848SOL    HW238007   3.402   2.827   1.664  0.1829  1.5926 -0.9071
 8849SOL     OW38008   0.368   3.427   8.821 -0.1166 -0.1670 -0.4027
 8849SOL    HW138009   0.310   3.378   8.761  0.6147 -0.7796 -0.6084
 8849SOL    HW238010   0.425   3.359   8.857 -0.0477 -0.3878 -0.9226
 8850SOL     OW38011   2.866   2.846   6.833 -0.7890  0.0238 -0.2520
 8850SOL    HW138012   2.776   2.830   6.805 -1.4403  2.1519  0.5808
 8850SOL    HW238013   2.885   2.776   6.895  2.4414  0.7434 -0.4242
 8851SOL     OW38014   4.722   3.729   4.721  0.4021 -0.7043 -0.3456
 8851SOL    HW138015   0.040   3.722   4.806 -2.4189 -2.0267  0.9659
 8851SOL    HW238016   0.026   3.818   4.701  0.3832 -0.3201  1.3450
 8852SOL     OW38017   3.037   0.649   5.397  0.4936  0.1001 -0.1662
 8852SOL    HW138018   3.106   0.610   5.451 -0.5520  0.0182  1.1107
 8852SOL    HW238019   3.066   0.739   5.381 -1.5535  0.7123 -0.4617
 8853SOL     OW38020   3.483   0.111  17.695  0.0400 -0.4248 -0.1648
 8853SOL    HW138021   3.471   0.206  17.691  1.2341 -0.2103  1.2101
 8853SOL    HW238022   3.518   0.090  17.609 -0.7188  0.4671 -0.6918
 8854SOL     OW38023   1.404   0.426   5.880 -0.3391  0.6885  0.3221
 8854SOL    HW138024   1.439   0.469   5.803  0.2288 -0.2134  0.0766
 8854SOL    HW238025   1.438   0.478   5.953  0.0858 -0.4136  0.9122
 8855SOL     OW38026   0.873   1.204   5.033 -0.3662  0.5690  0.1651
 8855SOL    HW138027   0.804   1.209   4.967  1.7621  3.5321 -1.8184
 8855SOL    HW238028   0.919   1.285   5.011  1.2248  0.4350  2.9906
 8856SOL     OW38029   0.173   1.921   1.834  0.1588  0.0261 -0.4004
 8856SOL    HW138030   0.246   1.924   1.895  0.6193 -1.0093 -0.8881
 8856SOL    HW238031   0.198   1.999   1.785  1.2884  1.0541  1.8575
 8857SOL     OW38032   4.662   2.948   0.971  0.4403 -0.2791 -0.7310
 8857SOL    HW138033   0.023   2.967   1.010 -0.1720  0.2466  0.3429
 8857SOL    HW238034   4.623   2.891   1.037 -2.5642  1.0013 -1.4174
 8858SOL     OW38035   3.727   3.440   4.491 -0.0426 -0.7482 -0.3246
 8858SOL    HW138036   3.705   3.378   4.560  2.1012 -0.9066  0.2405
 8858SOL    HW238037   3.815   3.411   4.465  0.0473 -0.0781 -0.7714
 8859SOL     OW38038   0.399   1.475   4.832  0.4613  0.1154  0.0895
 8859SOL    HW138039   0.310   1.480   4.866 -0.6809  0.8304 -3.0657
 8859SOL    HW238040   0.427   1.399   4.884  0.4609 -1.0932 -1.6987
 8860SOL     OW38041   3.958   0.202   7.006  0.5766  0.1137 -0.0020
 8860SOL    HW138042   3.962   0.283   7.056  1.2604  1.0378 -1.5638
 8860SOL    HW238043   3.980   0.138   7.074 -1.9218 -1.2956 -0.4940
 8861SOL     OW38044   2.027   1.327   8.750 -0.3648 -0.2020 -0.6869
 8861SOL    HW138045   2.039   1.296   8.839  0.0677  0.2204 -0.5989
 8861SOL    HW238046   2.118   1.323   8.719 -0.5197 -1.0925 -1.0303
 8862SOL     OW38047   2.640   1.921   5.128 -0.0811 -0.4898  0.0619
 8862SOL    HW138048   2.648   1.928   5.033 -1.6055 -0.8962 -0.1063
 8862SOL    HW238049   2.546   1.941   5.124 -0.4705 -2.1243  1.0626
 8863SOL     OW38050   1.601   2.871  15.585  0.2109 -0.3676  0.6789
 8863SOL    HW138051   1.580   2.825  15.504  2.2986  1.7804 -1.1147
 8863SOL    HW238052   1.680   2.919  15.559 -2.0799  1.6789 -2.4315
 8864SOL     OW38053   4.300   2.346  14.953 -0.4562  0.2972  0.1129
 8864SOL    HW138054   4.375   2.288  14.969 -2.0488 -2.2424 -1.7193
 8864SOL    HW238055   4.252   2.344  15.035 -0.3961 -0.8683  0.1141
 8865SOL     OW38056   3.973   0.131   2.180 -0.4521  0.0470 -0.0064
 8865SOL    HW138057   4.004   0.083   2.104  1.9764 -1.2436  1.7886
 8865SOL    HW238058   3.899   0.178   2.142  0.9094  0.5321 -2.0626
 8866SOL     OW38059   2.438   4.055  16.731  0.3870  0.4048 -0.4271
 8866SOL    HW138060   2.470   4.140  16.700  1.2507 -0.0888 -0.9098
 8866SOL    HW238061   2.381   4.101  16.793  2.2085  0.1976  1.4040
 8867SOL     OW38062   3.415   1.634   1.723  0.4875  0.4045 -0.3761
 8867SOL    HW138063   3.407   1.712   1.669  1.6126  0.2722 -0.7224
 8867SOL    HW238064   3.352   1.574   1.684  0.7774 -1.4298  1.9335
 8868SOL     OW38065   4.021   1.628   4.290  0.5704 -0.4167 -0.1490
 8868SOL    HW138066   4.090   1.674   4.338 -0.6289  0.2120  0.9694
 8868SOL    HW238067   4.056   1.539   4.293 -0.7841 -0.8842  2.0943
 8869SOL     OW38068   1.797   0.844   8.496  0.1465 -0.4425 -0.0307
 8869SOL    HW138069   1.773   0.937   8.498 -0.0273 -0.5573  2.4471
 8869SOL    HW238070   1.830   0.832   8.407 -0.9736  0.0027 -0.5004
 8870SOL     OW38071   3.732   1.411   5.595 -0.3897 -0.7097  0.6949
 8870SOL    HW138072   3.767   1.432   5.509 -1.5487  1.0494  0.6563
 8870SOL    HW238073   3.781   1.331   5.614 -0.7820 -0.6919  1.7782
 8871SOL     OW38074   2.162   4.468   6.139 -0.5170  0.1960 -0.1228
 8871SOL    HW138075   2.203   4.390   6.101 -1.5979  0.3156 -1.5533
 8871SOL    HW238076   2.093   4.498   6.080 -0.8337  0.5290  0.4259
 8872SOL     OW38077   2.680   1.088   3.423  0.5397 -0.1920  0.4686
 8872SOL    HW138078   2.738   1.081   3.499  0.0580 -2.3718  0.6425
 8872SOL    HW238079   2.665   0.993   3.418 -1.8327  0.1725  0.5975
 8873SOL     OW38080   4.424   3.781   6.748  0.0653  0.7326  0.2855
 8873SOL    HW138081   4.446   3.786   6.841 -0.2151 -0.8785  0.4403
 8873SOL    HW238082   4.427   3.874   6.728  0.5414  0.5642 -0.4234
 8874SOL     OW38083   3.942   2.413   2.225  0.6022  0.4681  0.2394
 8874SOL    HW138084   3.988   2.475   2.169  0.1225  1.5246  1.0290
 8874SOL    HW238085   3.888   2.366   2.160  2.2370 -0.5452 -0.3968
 8875SOL     OW38086   4.350   1.808   7.481  0.7269 -0.3230  0.4474
 8875SOL    HW138087   4.377   1.722   7.450 -1.5342  0.0505 -2.5567
 8875SOL    HW238088   4.270   1.824   7.431  1.5975  2.3136 -0.1217
 8876SOL     OW38089   2.695   3.062   7.751 -0.1539 -0.1023  0.4846
 8876SOL    HW138090   2.772   3.112   7.725  1.4725 -2.6225  0.4251
 8876SOL    HW238091   2.687   3.012   7.670  1.2185  0.3857  0.0514
 8877SOL     OW38092   3.615   3.184   4.922  0.3083 -0.4941 -0.2679
 8877SOL    HW138093   3.533   3.162   4.967  1.2891 -1.6351  0.9429
 8877SOL    HW238094   3.641   3.266   4.964 -1.1567  0.3616 -1.0366
 8878SOL     OW38095   4.131   0.528   7.997  0.2715 -0.8068 -0.0706
 8878SOL    HW138096   4.181   0.589   8.051  1.8949 -1.5257 -0.7404
 8878SOL    HW238097   4.147   0.446   8.044  1.3823 -0.1910  0.6542
 8879SOL     OW38098   2.436   0.821   0.487 -0.2029  0.2255 -0.4172
 8879SOL    HW138099   2.442   0.823   0.583 -3.9772 -1.1812 -0.1555
 8879SOL    HW238100   2.399   0.734   0.473 -0.5114  0.2811  0.0584
 8880SOL     OW38101   2.043   0.837  12.045 -0.2479 -0.2344 -0.0507
 8880SOL    HW138102   1.947   0.835  12.050 -0.0661 -2.9556  1.9940
 8880SOL    HW238103   2.058   0.881  11.961 -1.7482 -1.0024 -0.7258
 8881SOL     OW38104   1.707   3.945  14.396  0.7854 -0.0067 -0.9905
 8881SOL    HW138105   1.632   4.003  14.387 -1.4824 -2.8507 -0.5286
 8881SOL    HW238106   1.743   3.974  14.480 -0.1600 -2.0955  0.1250
 8882SOL     OW38107   4.416   2.810   4.394 -0.1743 -0.8736 -0.6285
 8882SOL    HW138108   4.361   2.733   4.409 -1.0814 -0.1726 -0.3954
 8882SOL    HW238109   4.496   2.792   4.443 -0.9997 -0.8256  0.7069
 8883SOL     OW38110   0.306   0.978  12.234  0.1112 -0.9369  0.0189
 8883SOL    HW138111   0.336   1.030  12.308  0.6899 -1.4007  0.1089
 8883SOL    HW238112   0.390   0.972  12.188  0.5244  0.2215  0.6162
 8884SOL     OW38113   3.881   2.931   7.278  0.4645  0.3343  0.4160
 8884SOL    HW138114   3.913   2.913   7.190  0.0282  1.2339  0.0668
 8884SOL    HW238115   3.871   2.844   7.315  1.1510  0.3372  0.6128
 8885SOL     OW38116   0.679   0.339   5.260 -0.3808 -0.2709  0.2849
 8885SOL    HW138117   0.750   0.394   5.227  0.7344 -1.7570  0.1891
 8885SOL    HW238118   0.614   0.337   5.190 -0.3207 -0.4680  0.2332
 8886SOL     OW38119   3.984   2.700  12.863  0.0959 -0.2805  0.1751
 8886SOL    HW138120   4.037   2.685  12.784 -0.9179 -1.5454 -0.2668
 8886SOL    HW238121   3.911   2.743  12.819  0.1374 -1.8045 -1.3845
 8887SOL     OW38122   3.268   4.526   9.501 -0.4539  0.1045 -0.6245
 8887SOL    HW138123   3.261   4.440   9.543  2.7912  0.6550  1.0870
 8887SOL    HW238124   3.356   4.555   9.527 -0.4218  0.1207 -0.7530
 8888SOL     OW38125   2.296   1.440  10.664 -0.2194 -0.2434 -0.0642
 8888SOL    HW138126   2.350   1.478  10.595  0.9417 -3.8156 -1.0828
 8888SOL    HW238127   2.359   1.383  10.708  0.8599  0.0571 -1.2567
 8889SOL     OW38128   3.156   2.911   0.571 -0.5851 -0.0200  0.0012
 8889SOL    HW138129   3.177   2.831   0.618  1.5962 -0.0369 -1.0380
 8889SOL    HW238130   3.239   2.941   0.535 -0.3549  0.2984  0.7967
 8890SOL     OW38131   0.403   4.450   1.338 -0.2222  0.3828  0.7177
 8890SOL    HW138132   0.309   4.437   1.325 -0.1519  1.0004 -0.4161
 8890SOL    HW238133   0.425   4.408   1.421 -1.6870  0.9979  1.4141
 8891SOL     OW38134   2.043   1.373   2.528 -0.0196 -0.2554 -0.3051
 8891SOL    HW138135   2.113   1.317   2.562  1.4858 -0.3400 -3.5344
 8891SOL    HW238136   2.086   1.453   2.498  2.0381 -1.0792  0.4662
 8892SOL     OW38137   1.763   1.845  10.346 -0.3849 -0.2103  0.3661
 8892SOL    HW138138   1.826   1.914  10.329 -0.2450 -0.2949  0.5323
 8892SOL    HW238139   1.788   1.777  10.284 -1.3749  1.4921 -1.8978
 8893SOL     OW38140   1.922   0.186   5.169  0.1428  0.3435 -0.3023
 8893SOL    HW138141   1.868   0.111   5.195 -0.4885  1.2674  1.0353
 8893SOL    HW238142   1.856   0.255   5.163 -2.3026 -2.0124 -0.6193
 8894SOL     OW38143   2.990   2.033   2.555 -0.0405 -0.0711  0.1915
 8894SOL    HW138144   2.895   2.022   2.549 -0.0191 -1.2574  1.9992
 8894SOL    HW238145   3.006   1.995   2.642  1.6579 -1.6146 -0.7982
 8895SOL     OW38146   3.740   3.818   1.245  0.3021 -0.4837 -0.0498
 8895SOL    HW138147   3.793   3.785   1.318  0.1887 -2.1066 -0.7223
 8895SOL    HW238148   3.663   3.762   1.251 -0.4799  0.4577 -1.3519
 8896SOL     OW38149   3.247   3.803   5.623 -0.0441 -0.1764 -0.2708
 8896SOL    HW138150   3.267   3.720   5.579 -0.2088 -0.0603 -0.5711
 8896SOL    HW238151   3.327   3.853   5.604  2.0670 -2.3686  2.8842
 8897SOL     OW38152   2.127   4.193  16.602  0.1107 -0.3890 -0.4028
 8897SOL    HW138153   2.182   4.124  16.564 -0.9843 -2.6189  2.0884
 8897SOL    HW238154   2.175   4.272  16.579  0.6526 -0.4706  0.4471
 8898SOL     OW38155   2.866   0.276   2.581  0.0262  0.0807  0.6360
 8898SOL    HW138156   2.801   0.336   2.617  1.7794  0.9912  2.3514
 8898SOL    HW238157   2.918   0.337   2.528 -1.3435  1.6509  1.1024
 8899SOL     OW38158   2.477   0.718   1.992 -0.4542  0.2651  0.1845
 8899SOL    HW138159   2.542   0.745   2.057  1.4436 -0.3263 -1.4822
 8899SOL    HW238160   2.496   0.626   1.978 -1.4608  0.4221 -2.2071
 8900SOL     OW38161   3.013   1.619   4.455  0.4628  0.3998 -0.2222
 8900SOL    HW138162   3.099   1.611   4.415 -0.1639  0.1904 -1.5183
 8900SOL    HW238163   2.975   1.543   4.412 -1.2695  0.9820  0.2657
 8901SOL     OW38164   1.897   4.119  10.255  0.0785 -0.0361  0.1357
 8901SOL    HW138165   1.933   4.201  10.288 -1.1492  1.0543 -1.2351
 8901SOL    HW238166   1.961   4.102  10.186 -0.3292  0.2026 -0.3031
 8902SOL     OW38167   3.335   4.442   5.935 -0.1133 -0.5571 -0.0267
 8902SOL    HW138168   3.288   4.360   5.950 -1.5749  0.7952  2.8400
 8902SOL    HW238169   3.391   4.445   6.012 -0.0131  1.8422 -0.1774
 8903SOL     OW38170   3.017   2.125   6.630  0.2016  0.5164 -0.9063
 8903SOL    HW138171   3.046   2.047   6.677 -1.4583  2.1614  2.8573
 8903SOL    HW238172   3.011   2.103   6.537 -0.2538 -2.1549 -0.2297
 8904SOL     OW38173   2.535   2.052   3.660  0.1029  0.1597  0.5337
 8904SOL    HW138174   2.546   2.070   3.754  3.4138  0.4354  0.1012
 8904SOL    HW238175   2.589   1.973   3.658 -0.5586 -0.2154 -2.2988
 8905SOL     OW38176   1.965   1.013  12.340  0.3010 -0.0927 -0.2321
 8905SOL    HW138177   1.896   1.030  12.276 -0.3105  0.8021  0.6579
 8905SOL    HW238178   1.930   1.044  12.424 -0.2631 -2.8128  0.5471
 8906SOL     OW38179   4.578   0.431   6.448  0.1524  0.5207 -0.0344
 8906SOL    HW138180   4.507   0.372   6.421 -2.3406  2.2439  2.6450
 8906SOL    HW238181   4.646   0.410   6.385 -0.3366 -2.6063  0.4821
 8907SOL     OW38182   0.116   2.500   6.583 -0.0338 -0.7420  0.1429
 8907SOL    HW138183   0.195   2.551   6.599  0.2331 -1.4516  1.0897
 8907SOL    HW238184   0.097   2.494   6.489 -0.8844 -0.6588  0.3135
 8908SOL     OW38185   2.065   3.228   2.396 -0.5460  0.0607  0.1921
 8908SOL    HW138186   1.990   3.266   2.442 -0.6074  0.8297 -0.5607
 8908SOL    HW238187   2.048   3.269   2.311 -0.2755 -0.0708  0.0766
 8909SOL     OW38188   1.227   2.014   8.330 -0.4746 -0.2626 -0.1039
 8909SOL    HW138189   1.159   1.950   8.351 -2.8858  1.6607 -2.0334
 8909SOL    HW238190   1.195   2.027   8.241  1.5384 -2.4328 -1.1602
 8910SOL     OW38191   1.146   4.356   9.573  0.4478 -0.4373 -0.6249
 8910SOL    HW138192   1.208   4.405   9.519 -2.1393  1.3899 -1.9656
 8910SOL    HW238193   1.199   4.328   9.647 -0.4824 -0.5183  0.0152
 8911SOL     OW38194   2.364   1.920   5.429 -0.3443  0.2881  0.5130
 8911SOL    HW138195   2.344   1.904   5.337 -0.7849  1.7201  0.3596
 8911SOL    HW238196   2.278   1.944   5.464 -0.2956 -1.0400  1.5336
 8912SOL     OW38197   1.923   4.600   2.126  0.1439  0.3678 -0.1091
 8912SOL    HW138198   1.922   4.628   2.034  0.3631  1.8266  0.3304
 8912SOL    HW238199   1.830   4.583   2.139 -0.1577  2.2049  0.2259
 8913SOL     OW38200   4.164   2.559  17.348  0.2323  0.2631  0.3188
 8913SOL    HW138201   4.075   2.523  17.338  0.3872 -0.0875  0.1874
 8913SOL    HW238202   4.180   2.545  17.441  2.8161 -1.9213 -0.4341
 8914SOL     OW38203   3.498   0.769   4.781  0.3083 -0.1279 -0.7146
 8914SOL    HW138204   3.427   0.711   4.809  0.9875  0.5679  2.5426
 8914SOL    HW238205   3.469   0.843   4.835 -0.4238 -0.6243 -0.4202
 8915SOL     OW38206   0.151   1.408   4.898  0.1497 -0.1373 -0.5014
 8915SOL    HW138207   0.092   1.466   4.850  0.4302  1.9833  1.7073
 8915SOL    HW238208   0.117   1.425   4.986 -1.3116 -0.7446 -0.9526
 8916SOL     OW38209   0.208   1.166   4.778 -0.1047 -0.7147  0.1343
 8916SOL    HW138210   0.199   1.232   4.846  0.9570  0.4585 -0.8739
 8916SOL    HW238211   0.146   1.097   4.803 -1.1434  0.2385  0.1903
 8917SOL     OW38212   4.440   3.829  13.378  0.9737 -0.1112 -0.2104
 8917SOL    HW138213   4.510   3.850  13.440  0.8519 -1.6008  0.4377
 8917SOL    HW238214   4.378   3.900  13.397 -0.7204 -1.2840 -1.4116
 8918SOL     OW38215   1.040   0.492   7.209 -0.0321 -0.2943 -0.7226
 8918SOL    HW138216   0.987   0.533   7.141 -1.6704  0.7104  1.1488
 8918SOL    HW238217   1.004   0.518   7.294  2.5832 -1.1510  0.6305
 8919SOL     OW38218   2.584   1.082   5.798 -0.0652  0.2641  0.1583
 8919SOL    HW138219   2.582   1.165   5.750 -0.4931 -0.2965 -0.7922
 8919SOL    HW238220   2.594   1.014   5.731 -2.3878 -0.0322  0.1120
 8920SOL     OW38221   4.131   0.926   8.727  0.1234  0.3496 -0.3667
 8920SOL    HW138222   4.045   0.885   8.719  1.0720 -2.0581  1.8584
 8920SOL    HW238223   4.179   0.857   8.772  0.1114  2.0724  2.2686
 8921SOL     OW38224   0.455   4.624   5.910 -0.2033 -0.1254 -0.2135
 8921SOL    HW138225   0.489   4.571   5.838 -1.4444 -0.2576 -0.6941
 8921SOL    HW238226   0.525   4.689   5.915  0.4952 -0.9590  0.8177
 8922SOL     OW38227   4.027   2.572   2.017  0.0255 -0.5329 -0.3170
 8922SOL    HW138228   4.099   2.508   2.017 -1.3897 -2.1082  1.6411
 8922SOL    HW238229   4.026   2.611   1.930  0.6568  0.6821  0.2281
 8923SOL     OW38230   3.406   3.291   5.477  0.2656 -0.4806  0.6665
 8923SOL    HW138231   3.384   3.369   5.427  0.1479 -1.0657 -0.1891
 8923SOL    HW238232   3.483   3.263   5.428  2.6623  0.6612  3.7310
 8924SOL     OW38233   1.558   1.318   0.272 -0.2584 -0.0812 -0.5644
 8924SOL    HW138234   1.549   1.250   0.338 -0.5741 -1.2273 -1.8010
 8924SOL    HW238235   1.489   1.279   0.218 -1.6677  0.8616  0.5363
 8925SOL     OW38236   3.441   3.420  15.297 -0.1905 -0.3121  0.5835
 8925SOL    HW138237   3.454   3.335  15.255  1.6628  0.4028 -0.3069
 8925SOL    HW238238   3.516   3.473  15.271 -0.2451  0.0656  1.1788
 8926SOL     OW38239   1.645   0.062   4.273  0.0974  0.1862 -0.5627
 8926SOL    HW138240   1.702   0.139   4.271  1.6597 -0.8523  3.0594
 8926SOL    HW238241   1.585   0.078   4.200 -0.1244  1.7818 -0.0306
 8927SOL     OW38242   3.903   0.695   4.334 -0.1104 -0.4374  0.6210
 8927SOL    HW138243   3.944   0.780   4.316  1.0643 -1.3589 -1.0025
 8927SOL    HW238244   3.979   0.637   4.335  2.4041  2.8656 -0.5376
 8928SOL     OW38245   0.966   2.816   6.671  0.3429  0.0385  0.0804
 8928SOL    HW138246   0.996   2.830   6.581 -1.7113  3.1661 -0.0929
 8928SOL    HW238247   1.050   2.803   6.714  0.1083 -3.4741 -0.4806
 8929SOL     OW38248   2.342   4.205   6.384 -0.2738  0.3873  0.1909
 8929SOL    HW138249   2.357   4.251   6.302 -0.6548  0.2607  0.0499
 8929SOL    HW238250   2.431   4.190   6.417 -0.5205 -0.1554  0.6086
 8930SOL     OW38251   0.738   4.089   5.912  0.0273  0.5742  0.2259
 8930SOL    HW138252   0.659   4.081   5.966 -0.0426 -2.7744 -0.3504
 8930SOL    HW238253   0.787   4.011   5.938  1.7397  0.5659 -2.9724
 8931SOL     OW38254   3.837   0.213  10.986  0.0900 -0.3005  0.3667
 8931SOL    HW138255   3.793   0.131  11.008  1.2737 -1.0338 -0.0108
 8931SOL    HW238256   3.910   0.214  11.048  0.8129 -0.4030 -0.4780
 8932SOL     OW38257   2.878   2.773   5.016  0.2049 -0.2510  0.3885
 8932SOL    HW138258   2.947   2.809   5.072 -0.0713  1.8217 -0.6196
 8932SOL    HW238259   2.839   2.712   5.078 -0.7312  1.0554  1.0576
 8933SOL     OW38260   4.504   2.717   3.617  0.6111  0.2354 -0.0572
 8933SOL    HW138261   4.476   2.653   3.551 -2.4037 -0.4610  1.9105
 8933SOL    HW238262   4.448   2.698   3.693 -0.8857  0.4345 -1.1020
 8934SOL     OW38263   0.286   2.533   3.675 -0.3412 -0.2351 -0.6544
 8934SOL    HW138264   0.297   2.442   3.705 -1.6719 -0.0487  0.4404
 8934SOL    HW238265   0.258   2.515   3.586 -0.7771 -0.9777 -0.3711
 8935SOL     OW38266   2.880   3.055   7.171  0.9613 -0.3378  0.5624
 8935SOL    HW138267   2.935   3.021   7.100  0.5909  2.0178 -0.8449
 8935SOL    HW238268   2.849   2.974   7.212 -1.8024  0.4947  0.1149
 8936SOL     OW38269   2.894   2.815   8.107 -0.3341  0.6948  0.2159
 8936SOL    HW138270   2.846   2.807   8.190  0.3263  0.2160  0.5516
 8936SOL    HW238271   2.898   2.910   8.093 -0.2265  0.4718 -1.2454
 8937SOL     OW38272   4.667   0.684  17.248  0.7541  0.2887 -0.4773
 8937SOL    HW138273   4.663   0.672  17.343  0.5263  2.7008 -0.1877
 8937SOL    HW238274   0.020   0.739  17.233  0.5719  0.7952  0.4165
 8938SOL     OW38275   2.201   2.725   7.500 -0.1187 -0.8288 -0.1878
 8938SOL    HW138276   2.127   2.691   7.551 -0.0481 -0.8156 -0.0783
 8938SOL    HW238277   2.267   2.690   7.560  0.5641 -2.3252 -1.8253
 8939SOL     OW38278   1.422   3.399  11.231 -0.0420 -0.3568 -1.1226
 8939SOL    HW138279   1.355   3.353  11.281 -0.1721  0.0494 -0.9219
 8939SOL    HW238280   1.488   3.332  11.210  1.7913  1.7038 -2.0161
 8940SOL     OW38281   0.750   2.191   5.796  0.6428  0.5394  0.3176
 8940SOL    HW138282   0.770   2.101   5.821 -2.9884 -0.7151 -1.3291
 8940SOL    HW238283   0.739   2.180   5.702  1.0884  0.2332  0.3001
 8941SOL     OW38284   0.039   1.176   3.744 -0.6780  0.1560 -0.3386
 8941SOL    HW138285   0.027   1.226   3.663  1.4073  0.2652 -0.5838
 8941SOL    HW238286   4.673   1.172   3.776 -0.5841 -0.0687 -0.0997
 8942SOL     OW38287   3.274   1.936   7.115  0.0041  0.6374  0.0504
 8942SOL    HW138288   3.295   1.925   7.208  1.4452  0.8145 -0.2509
 8942SOL    HW238289   3.266   1.846   7.084  1.3012  1.2967 -2.1449
 8943SOL     OW38290   4.386   3.254   2.122 -0.0658  1.1012  0.4842
 8943SOL    HW138291   4.359   3.223   2.209  0.0109 -2.6568 -0.8374
 8943SOL    HW238292   4.327   3.204   2.067  2.8725 -1.5813 -0.2743
 8944SOL     OW38293   4.185   0.934   8.110 -0.0980 -0.1766 -0.0406
 8944SOL    HW138294   4.187   0.862   8.174  1.1239 -0.6134 -0.5615
 8944SOL    HW238295   4.190   1.012   8.164 -1.6546  0.1117 -0.3284
 8945SOL     OW38296   2.833   4.169   3.391  0.2073  0.2740 -0.0533
 8945SOL    HW138297   2.794   4.097   3.440  0.3421 -0.8820 -1.6244
 8945SOL    HW238298   2.752   4.213   3.365  0.2732 -0.3917 -1.4349
 8946SOL     OW38299   3.754   0.913   3.228 -0.0735 -0.5349 -0.4207
 8946SOL    HW138300   3.724   0.972   3.158  0.4996  1.0789  0.6883
 8946SOL    HW238301   3.838   0.953   3.250 -1.1111  1.6790 -0.4645
 8947SOL     OW38302   2.878   0.348   6.463 -0.1764  0.0107  0.2239
 8947SOL    HW138303   2.957   0.390   6.497  0.8830 -2.2733  0.6418
 8947SOL    HW238304   2.865   0.269   6.517  1.5127 -1.4686 -1.5410
 8948SOL     OW38305   2.262   1.665   4.109 -0.8075 -0.3106  0.2421
 8948SOL    HW138306   2.224   1.611   4.039 -0.5358 -0.5320  0.2651
 8948SOL    HW238307   2.187   1.708   4.150 -2.2628 -1.0113 -1.6523
 8949SOL     OW38308   0.096   2.660   7.967  0.1497  0.1453 -0.0601
 8949SOL    HW138309   0.118   2.568   7.975  2.5595  0.7222 -0.1011
 8949SOL    HW238310   0.006   2.669   7.999  1.3182  4.7350  1.9039
 8950SOL     OW38311   3.274   3.928   3.106  0.1067  0.1012  0.0900
 8950SOL    HW138312   3.369   3.926   3.100  0.2154  0.9278  1.6347
 8950SOL    HW238313   3.248   3.894   3.020 -1.3961  0.4876  0.3968
 8951SOL     OW38314   4.517   1.747  14.229 -0.2968 -0.2045  0.3784
 8951SOL    HW138315   4.606   1.737  14.195 -0.6186  0.8931 -0.7851
 8951SOL    HW238316   4.470   1.751  14.146 -1.2758  0.8580  0.9897
 8952SOL     OW38317   2.385   0.518   3.752 -0.2695  0.9238  0.3475
 8952SOL    HW138318   2.356   0.568   3.675  1.8267  0.8080 -0.5356
 8952SOL    HW238319   2.480   0.529   3.745 -0.5932  2.5351 -1.8411
 8953SOL     OW38320   0.230   2.005  13.523  0.2646 -0.0596  0.0965
 8953SOL    HW138321   0.141   2.011  13.488  1.2656 -3.3802 -2.9238
 8953SOL    HW238322   0.231   1.920  13.568 -1.0705  1.2930  2.6588
 8954SOL     OW38323   4.439   4.054   7.619  0.0648  0.3618  0.1504
 8954SOL    HW138324   4.357   4.084   7.580 -0.5503  0.6437  1.6448
 8954SOL    HW238325   4.398   3.988   7.676 -0.6780  0.6243 -0.0773
 8955SOL     OW38326   2.943   0.157   3.486 -0.1632  0.6459  0.2608
 8955SOL    HW138327   2.996   0.086   3.522 -0.1592  1.6382  2.2088
 8955SOL    HW238328   2.989   0.149   3.402  2.8069  0.3449  1.9214
 8956SOL     OW38329   0.493   1.412   5.414 -0.0159 -0.2117 -0.3845
 8956SOL    HW138330   0.581   1.436   5.442  0.5048  1.2514 -3.3051
 8956SOL    HW238331   0.473   1.330   5.460  0.2428  1.0985  2.0434
 8957SOL     OW38332   2.676   2.443   4.746 -0.5900  0.8380  0.3430
 8957SOL    HW138333   2.732   2.468   4.672  2.1371 -1.7790  1.5374
 8957SOL    HW238334   2.736   2.451   4.820  0.8570 -1.9756 -0.5335
 8958SOL     OW38335   3.935   1.700  15.713 -0.5978  0.2602 -0.0946
 8958SOL    HW138336   3.912   1.793  15.713  1.6267  0.8120  0.6991
 8958SOL    HW238337   4.011   1.711  15.770 -0.1536 -0.6192 -0.5093
 8959SOL     OW38338   1.448   3.135   2.984 -0.1079  0.0251  0.0375
 8959SOL    HW138339   1.412   3.055   3.021 -0.8701  1.1324  1.6853
 8959SOL    HW238340   1.438   3.190   3.062 -1.1855 -0.5548  0.3054
 8960SOL     OW38341   1.279   4.341   3.305  0.0736 -0.8301 -0.3692
 8960SOL    HW138342   1.309   4.405   3.241 -2.4047  0.4423 -0.2638
 8960SOL    HW238343   1.278   4.387   3.389 -0.1848 -1.4352 -0.0446
 8961SOL     OW38344   3.205   2.297   1.615  0.2715 -0.6767 -0.9042
 8961SOL    HW138345   3.251   2.348   1.548 -0.0939  2.5668  1.3027
 8961SOL    HW238346   3.268   2.323   1.682  0.9264 -2.4341 -0.8421
 8962SOL     OW38347   1.428   3.308   8.765 -0.2687 -0.4801  0.3013
 8962SOL    HW138348   1.425   3.219   8.728 -0.1866  0.6441 -2.4293
 8962SOL    HW238349   1.344   3.342   8.735 -1.0002 -1.9512  0.6948
 8963SOL     OW38350   2.343   1.296   9.456  0.0669 -0.1094 -0.3241
 8963SOL    HW138351   2.399   1.244   9.513  0.4513 -0.3264 -0.9014
 8963SOL    HW238352   2.370   1.256   9.373 -0.3306  0.6354 -0.8083
 8964SOL     OW38353   2.484   2.062  12.930 -0.1059  0.1293 -0.0001
 8964SOL    HW138354   2.516   2.109  12.853 -1.0361  1.2362  0.2846
 8964SOL    HW238355   2.545   2.083  13.001 -0.3514  1.5814 -0.2162
 8965SOL     OW38356   1.110   3.882  16.859 -0.2967 -0.1909 -0.2791
 8965SOL    HW138357   1.141   3.834  16.935  0.3508 -1.8153 -1.5698
 8965SOL    HW238358   1.020   3.851  16.860 -0.6132  0.6753 -1.8841
 8966SOL     OW38359   0.247   4.531   2.154 -0.0268 -0.3279 -0.2148
 8966SOL    HW138360   0.207   4.600   2.100 -1.1588 -0.3254  0.6328
 8966SOL    HW238361   0.216   4.557   2.241 -1.6089 -0.8465 -0.6358
 8967SOL     OW38362   1.501   1.436   2.854 -0.1613 -0.0961 -0.0946
 8967SOL    HW138363   1.497   1.519   2.901  1.7430 -1.5664  2.7025
 8967SOL    HW238364   1.454   1.381   2.917  0.6423 -0.9495 -0.2461
 8968SOL     OW38365   3.814   1.473   9.155  0.0346 -0.1004 -0.0567
 8968SOL    HW138366   3.748   1.438   9.095  0.4448 -1.8752  0.5489
 8968SOL    HW238367   3.890   1.436   9.110 -0.6369  0.7469 -1.9226
 8969SOL     OW38368   3.684   3.949   6.917  0.0065 -0.5644  0.1532
 8969SOL    HW138369   3.617   4.015   6.899  2.3342  1.8029  0.2636
 8969SOL    HW238370   3.741   3.987   6.982  1.5545  0.4162 -1.7839
 8970SOL     OW38371   0.156   4.281   4.441 -0.1974 -0.2495  0.0160
 8970SOL    HW138372   0.189   4.207   4.491  0.8800 -0.3997 -0.9271
 8970SOL    HW238373   0.061   4.269   4.444  0.0916 -2.1532  1.3562
 8971SOL     OW38374   1.032   3.859  14.877  0.0000 -0.2155 -0.8268
 8971SOL    HW138375   1.076   3.783  14.917  1.2486  2.2550  2.5060
 8971SOL    HW238376   0.943   3.853  14.912  0.3177 -0.8610 -0.1211
 8972SOL     OW38377   2.148   2.808   6.744  0.0733 -0.0528 -0.2103
 8972SOL    HW138378   2.099   2.890   6.732  2.3296  1.0069 -2.1258
 8972SOL    HW238379   2.088   2.737   6.767 -1.0800  1.3608  1.1532
 8973SOL     OW38380   0.907   2.657   8.732 -0.0071 -0.1103  0.0238
 8973SOL    HW138381   0.955   2.601   8.672  0.6869  1.1294 -0.5938
 8973SOL    HW238382   0.917   2.607   8.813  1.5229 -0.7903 -0.6003
 8974SOL     OW38383   2.653   3.334   8.995  0.3152  0.6198  0.1190
 8974SOL    HW138384   2.612   3.336   9.082 -2.7212 -0.9199 -1.2552
 8974SOL    HW238385   2.701   3.415   8.981 -0.0040  0.5755 -1.2850
 8975SOL     OW38386   2.240   3.142   3.893 -0.1091 -0.2208  0.6613
 8975SOL    HW138387   2.170   3.077   3.882 -1.3612  1.0805  1.0379
 8975SOL    HW238388   2.198   3.224   3.868 -0.6134 -0.5587  0.3886
 8976SOL     OW38389   1.530   0.351   6.583  0.0929  0.5706 -0.0956
 8976SOL    HW138390   1.625   0.362   6.576  0.1814 -0.0834  0.1298
 8976SOL    HW238391   1.517   0.334   6.676  1.8850 -2.2351 -0.3746
 8977SOL     OW38392   2.442   4.533   3.284  0.6303 -0.2294  0.4924
 8977SOL    HW138393   2.363   4.481   3.271 -1.6545  2.8377  2.0409
 8977SOL    HW238394   2.488   4.500   3.207  0.0406 -0.6364  0.3216
 8978SOL     OW38395   0.634   2.165   9.949  0.1361  0.1162 -0.0562
 8978SOL    HW138396   0.602   2.176   9.860 -0.6082  0.4599  0.2593
 8978SOL    HW238397   0.556   2.121   9.983 -0.6483  1.7109  0.2151
 8979SOL     OW38398   0.036   3.884   2.961  0.2808 -0.1917  0.3472
 8979SOL    HW138399   0.002   3.902   2.874 -1.4260 -0.6129  0.9152
 8979SOL    HW238400   0.109   3.825   2.945  0.9884  0.9669 -0.6267
 8980SOL     OW38401   3.893   2.352   3.928 -0.5038  0.3968 -0.3102
 8980SOL    HW138402   3.979   2.384   3.952  0.3181 -1.0209 -1.3824
 8980SOL    HW238403   3.848   2.360   4.013 -0.1102 -0.3652 -0.0309
 8981SOL     OW38404   3.592   3.988   7.508 -0.2139  0.4502 -0.2734
 8981SOL    HW138405   3.614   4.047   7.436 -0.7926 -1.7444 -2.2434
 8981SOL    HW238406   3.637   4.022   7.585 -1.6850  1.0795  0.3132
 8982SOL     OW38407   3.309   1.682  11.449  0.3934  0.1057 -0.0082
 8982SOL    HW138408   3.305   1.643  11.537 -0.5520 -0.5445 -0.3342
 8982SOL    HW238409   3.223   1.722  11.447 -0.4479 -1.6799  0.0672
 8983SOL     OW38410   4.527   0.303   9.316  0.1196  0.2998 -0.2699
 8983SOL    HW138411   4.577   0.347   9.384  2.2898 -1.5538 -0.6678
 8983SOL    HW238412   4.597   0.274   9.257  0.7716 -0.9752  1.1373
 8984SOL     OW38413   3.740   1.125   2.241  0.2704 -0.4049 -0.1561
 8984SOL    HW138414   3.720   1.069   2.166  0.6796  0.7956 -1.1564
 8984SOL    HW238415   3.705   1.204   2.200  1.5171  0.1344 -0.1753
 8985SOL     OW38416   1.846   4.026   3.289  0.6539  0.8251 -0.1829
 8985SOL    HW138417   1.921   3.967   3.296 -1.0684 -1.2992  0.2286
 8985SOL    HW238418   1.801   3.990   3.213 -0.1867 -0.8367  1.1091
 8986SOL     OW38419   3.388   3.713   3.690  0.0330 -0.1620 -0.5084
 8986SOL    HW138420   3.423   3.759   3.614 -2.5120  2.2823 -0.2294
 8986SOL    HW238421   3.387   3.623   3.659 -1.0899  0.1028 -1.2485
 8987SOL     OW38422   2.670   0.021  14.684 -0.2168  0.1161  0.1515
 8987SOL    HW138423   2.589   0.071  14.690 -0.0297  0.3997  0.3068
 8987SOL    HW238424   2.622   4.663  14.691 -2.4633  1.1441 -3.5640
 8988SOL     OW38425   3.440   2.409   6.982  0.0932 -0.0087 -0.0195
 8988SOL    HW138426   3.532   2.431   6.968 -0.1507  0.3825 -1.0287
 8988SOL    HW238427   3.418   2.382   6.892 -0.4340  2.8711 -0.7359
 8989SOL     OW38428   0.478   4.350  11.031 -0.0032  0.2807 -0.4976
 8989SOL    HW138429   0.387   4.372  11.051  0.2883 -0.7239  1.9749
 8989SOL    HW238430   0.474   4.256  11.048 -0.8000  0.1334 -1.5397
 8990SOL     OW38431   0.873   3.303   5.640 -0.5047 -0.3127 -0.3222
 8990SOL    HW138432   0.846   3.214   5.662  0.9112 -1.4377 -3.1013
 8990SOL    HW238433   0.959   3.313   5.681 -0.2040 -0.8592 -0.8307
 8991SOL     OW38434   3.884   2.106  15.884  0.2717  0.0171 -0.0792
 8991SOL    HW138435   3.918   2.097  15.973 -0.8031  2.5567  0.5844
 8991SOL    HW238436   3.965   2.113  15.834  1.1167  0.0829  1.2876
 8992SOL     OW38437   1.309   0.214   4.548  0.1536 -0.0117 -0.1656
 8992SOL    HW138438   1.228   0.164   4.554 -1.2437  2.4313  1.2018
 8992SOL    HW238439   1.299   0.274   4.621  0.2472 -0.4666  0.2252
 8993SOL     OW38440   0.787   0.808   3.855  0.2757 -0.3130 -0.2882
 8993SOL    HW138441   0.724   0.825   3.925  1.3368  1.3084  0.2748
 8993SOL    HW238442   0.835   0.730   3.880 -0.0908 -0.1850  0.8151
 8994SOL     OW38443   1.453   4.586   4.361 -0.0694  0.4476 -0.4435
 8994SOL    HW138444   1.377   4.607   4.306 -0.0966 -0.4393 -0.7485
 8994SOL    HW238445   1.522   4.643   4.329  0.6168 -0.1251  0.0301
 8995SOL     OW38446   3.056   3.700   1.952 -0.0332  0.1324  0.2018
 8995SOL    HW138447   3.068   3.794   1.945 -2.2581  0.4669  0.5851
 8995SOL    HW238448   3.004   3.686   1.873  0.2235  0.4428 -0.0201
 8996SOL     OW38449   4.681   2.000   3.642  0.0606  0.3797  0.1149
 8996SOL    HW138450   4.604   2.036   3.685  0.1629 -0.1787  0.7797
 8996SOL    HW238451   0.014   2.076   3.648  1.0282 -0.4621  1.6064
 8997SOL     OW38452   3.539   2.664  12.382  0.2427 -0.7016 -0.1833
 8997SOL    HW138453   3.608   2.609  12.418  0.8065  1.5077  2.1082
 8997SOL    HW238454   3.484   2.595  12.345 -0.4728 -1.0929  1.6223
 8998SOL     OW38455   0.606   3.057   7.358  0.3704  0.0968 -0.1696
 8998SOL    HW138456   0.556   3.136   7.342 -0.0110  0.0408  0.7348
 8998SOL    HW238457   0.690   3.092   7.330 -0.2137 -0.1801 -2.2758
 8999SOL     OW38458   4.318   4.197  13.296 -0.0139  0.2708 -1.1022
 8999SOL    HW138459   4.319   4.161  13.207 -3.4876 -1.1996 -0.5767
 8999SOL    HW238460   4.325   4.290  13.276 -0.4010  0.7303  0.8484
 9000SOL     OW38461   0.540   1.903  17.537  0.1118 -0.9276  0.0593
 9000SOL    HW138462   0.571   1.976  17.483  1.2375 -1.0757  0.4899
 9000SOL    HW238463   0.476   1.850  17.490  1.1138 -0.1620 -2.1875
 9001SOL     OW38464   2.931   3.235   8.455 -0.0496 -0.0805  0.1467
 9001SOL    HW138465   2.973   3.151   8.471  0.4273 -0.1666 -1.5006
 9001SOL    HW238466   2.861   3.207   8.395 -1.7109  0.4777  1.8312
 9002SOL     OW38467   1.901   3.253  17.685  0.3046 -0.0749 -0.1109
 9002SOL    HW138468   1.962   3.316  17.648 -1.8549  1.6816 -0.7039
 9002SOL    HW238469   1.946   3.172   0.011 -1.4143 -0.2825  2.4942
 9003SOL     OW38470   0.712   3.852   6.328  0.0191 -0.2222 -0.7942
 9003SOL    HW138471   0.766   3.787   6.283 -0.0298  0.5065 -1.9062
 9003SOL    HW238472   0.685   3.901   6.250  1.5659  0.9829 -0.5605
 9004SOL     OW38473   4.069   1.580  17.379 -0.4928  0.0463 -0.2061
 9004SOL    HW138474   3.984   1.622  17.366 -1.9685 -2.7146  0.4952
 9004SOL    HW238475   4.042   1.491  17.400 -0.4646  0.3050  0.9261
 9005SOL     OW38476   0.393   2.071   9.998  0.6950 -0.6986  0.1233
 9005SOL    HW138477   0.364   2.026  10.077 -1.5436  2.7775  1.3017
 9005SOL    HW238478   0.310   2.106   9.965  0.8408  0.3573  0.8700
 9006SOL     OW38479   2.579   0.761   2.250 -0.4805 -0.7662 -0.2100
 9006SOL    HW138480   2.561   0.685   2.305  1.4307  0.2893  1.8190
 9006SOL    HW238481   2.490   0.797   2.245  0.7335  2.3185  0.8969
 9007SOL     OW38482   3.285   2.027  14.347  0.0990 -0.9200  0.4308
 9007SOL    HW138483   3.196   2.005  14.375  0.1843 -1.7826  0.0198
 9007SOL    HW238484   3.263   2.108  14.301  0.4722 -1.3473 -0.4937
 9008SOL     OW38485   3.786   3.742  12.968  0.1892 -0.7673  0.2119
 9008SOL    HW138486   3.748   3.678  13.028  2.3748 -0.1467  2.2825
 9008SOL    HW238487   3.793   3.828  13.010 -0.6228 -0.2529 -0.7115
 9009SOL     OW38488   0.034   2.863   7.202  0.2793  0.4096  0.7222
 9009SOL    HW138489   0.091   2.863   7.279 -0.5517 -2.8544  1.3691
 9009SOL    HW238490   0.067   2.783   7.161 -0.2095  1.7140 -2.1747
 9010SOL     OW38491   2.108   0.916   6.207  0.7570  0.5220 -0.0860
 9010SOL    HW138492   2.049   0.914   6.282  0.1617  2.2451 -0.5114
 9010SOL    HW238493   2.191   0.901   6.254  0.4959  1.8472  0.7888
 9011SOL     OW38494   3.888   1.486  13.453  0.4710 -0.0654 -0.0624
 9011SOL    HW138495   3.850   1.569  13.481  0.1041 -0.3147  0.1777
 9011SOL    HW238496   3.902   1.502  13.360  0.9977 -0.9769 -0.1431
 9012SOL     OW38497   0.694   2.789   8.621 -0.2405  0.7285 -0.3439
 9012SOL    HW138498   0.641   2.732   8.677 -0.3351  0.2845 -0.8930
 9012SOL    HW238499   0.779   2.771   8.661 -1.9948 -1.7013  2.2713
 9013SOL     OW38500   2.824   1.884   3.550 -0.0983 -0.0346  0.3900
 9013SOL    HW138501   2.741   1.869   3.505 -0.8230  0.3484  1.5903
 9013SOL    HW238502   2.888   1.835   3.498  0.8670  0.5562  1.0327
 9014SOL     OW38503   3.790   4.671  15.860 -0.0849 -0.1259  0.5866
 9014SOL    HW138504   3.805   4.674  15.765 -0.6558  0.3693  0.5103
 9014SOL    HW238505   3.770   0.039  15.877  2.1387 -0.3826  4.5010
 9015SOL     OW38506   4.210   2.481   9.055  0.6872  0.7709  0.3470
 9015SOL    HW138507   4.153   2.492   8.979  0.7377  1.0790  0.3562
 9015SOL    HW238508   4.151   2.447   9.122 -2.1696  0.6561 -2.2585
 9016SOL     OW38509   0.445   2.615   0.252  0.6149  0.2533 -0.3251
 9016SOL    HW138510   0.383   2.659   0.311 -1.1601 -1.7596 -0.7367
 9016SOL    HW238511   0.411   2.526   0.249  1.5538 -0.0497 -1.7915
 9017SOL     OW38512   3.804   2.662   4.937  0.1532 -0.1183  0.1351
 9017SOL    HW138513   3.737   2.684   4.872 -0.8819 -0.6207  1.0501
 9017SOL    HW238514   3.773   2.726   5.001 -0.0942 -1.6076  1.4900
 9018SOL     OW38515   0.445   0.508   0.794  0.0705  0.6111 -0.1110
 9018SOL    HW138516   0.486   0.424   0.813  0.3057  0.3853 -1.6634
 9018SOL    HW238517   0.465   0.550   0.878  0.6859  0.3981 -0.1548
 9019SOL     OW38518   2.951   3.014   6.030 -0.0863 -0.3095  0.3016
 9019SOL    HW138519   2.990   3.101   6.037 -0.6777  0.0089 -0.2745
 9019SOL    HW238520   2.914   3.026   5.942 -0.2548 -0.2570  0.3800
 9020SOL     OW38521   4.575   1.351  13.344 -0.1582 -0.0348  0.1145
 9020SOL    HW138522   4.636   1.317  13.278  0.8589  2.9110 -0.4702
 9020SOL    HW238523   4.604   1.441  13.353 -3.9545  1.1387  0.7560
 9021SOL     OW38524   1.588   3.744   8.283 -0.2829 -0.0080  0.3396
 9021SOL    HW138525   1.620   3.676   8.224  1.2041 -1.5143  2.8721
 9021SOL    HW238526   1.663   3.745   8.342 -1.0956  2.5654  1.3180
 9022SOL     OW38527   4.653   2.404   5.020  0.0816  0.2827  0.0411
 9022SOL    HW138528   4.664   2.392   5.115  1.7922  1.3361 -0.0276
 9022SOL    HW238529   0.018   2.425   4.993 -0.2306  1.5157 -0.0729
 9023SOL     OW38530   4.034   3.474   0.215 -0.0492  0.2117  0.5031
 9023SOL    HW138531   3.981   3.394   0.217 -1.3545  1.0416 -0.5571
 9023SOL    HW238532   4.118   3.428   0.210  0.3819  1.0651 -0.1462
 9024SOL     OW38533   0.533   2.265  16.089 -0.5579  0.4096 -0.2068
 9024SOL    HW138534   0.464   2.203  16.115  0.8362 -0.4590  1.3762
 9024SOL    HW238535   0.563   2.221  16.010 -1.1297 -0.0159 -0.1875
 9025SOL     OW38536   2.932   2.031   0.933  0.2485 -0.5144  0.6632
 9025SOL    HW138537   2.927   1.937   0.913  3.2422 -1.0063  2.1970
 9025SOL    HW238538   2.919   2.034   1.028 -0.4691 -0.7918  0.5690
 9026SOL     OW38539   2.854   0.789   3.155 -0.0771  0.6506  0.3039
 9026SOL    HW138540   2.765   0.767   3.126 -0.3350 -2.0124  3.0432
 9026SOL    HW238541   2.912   0.765   3.083  2.6108  0.6832  2.4633
 9027SOL     OW38542   3.786   4.132   1.737  0.6809  0.2276 -0.9778
 9027SOL    HW138543   3.758   4.057   1.683 -2.2863  0.9585 -0.4437
 9027SOL    HW238544   3.718   4.196   1.717 -0.0384  0.6295  2.8138
 9028SOL     OW38545   2.492   0.514   8.189 -0.2950  0.2713 -0.0457
 9028SOL    HW138546   2.561   0.466   8.234 -0.4455  0.6508  0.5860
 9028SOL    HW238547   2.416   0.458   8.207 -0.2921 -0.2993 -1.7528
 9029SOL     OW38548   3.239   3.290   9.451  0.6473  0.0454  0.0399
 9029SOL    HW138549   3.203   3.375   9.477  1.1758  0.0642  0.6817
 9029SOL    HW238550   3.176   3.270   9.381  1.1096  3.4057 -1.3286
 9030SOL     OW38551   2.072   2.581   1.674 -0.3533  0.3285 -0.2820
 9030SOL    HW138552   2.086   2.660   1.726 -2.0359  0.3854  0.0771
 9030SOL    HW238553   2.146   2.524   1.692 -0.8890 -0.4081 -0.4497
 9031SOL     OW38554   3.163   0.176   4.538 -0.2225  0.2917  0.1610
 9031SOL    HW138555   3.166   0.237   4.464  1.2928  0.8990  0.7171
 9031SOL    HW238556   3.140   0.224   4.617 -1.3495  3.4307 -2.0726
 9032SOL     OW38557   4.405   1.037   6.059  0.1795 -0.1134 -0.5315
 9032SOL    HW138558   4.500   1.050   6.046  0.1116 -0.3150 -1.2573
 9032SOL    HW238559   4.375   1.058   5.970  0.1265 -1.0433 -0.7307
 9033SOL     OW38560   0.365   3.117  16.204  0.6455  0.3338 -0.1426
 9033SOL    HW138561   0.368   3.131  16.109  0.6334 -1.5325 -0.4136
 9033SOL    HW238562   0.363   3.204  16.244  0.8184 -0.6288  1.9822
 9034SOL     OW38563   0.394   2.698  13.071  0.1462 -0.4165 -0.4506
 9034SOL    HW138564   0.372   2.729  13.158  1.0479 -0.3805 -0.2396
 9034SOL    HW238565   0.356   2.766  13.016 -1.1555  0.4653  1.5442
 9035SOL     OW38566   0.443   1.284   2.925  0.3526  0.1260  0.4913
 9035SOL    HW138567   0.406   1.325   2.846 -1.6792  0.7601  1.7647
 9035SOL    HW238568   0.497   1.353   2.962  0.0715  1.8590 -2.3232
 9036SOL     OW38569   1.023   2.434   1.758  0.5164  0.1757  1.0754
 9036SOL    HW138570   1.016   2.385   1.676 -1.1747 -1.5191  2.2494
 9036SOL    HW238571   0.985   2.367   1.815 -0.2494  0.0568  0.4345
 9037SOL     OW38572   2.547   1.743   4.789  0.1069 -0.0826  0.3829
 9037SOL    HW138573   2.584   1.829   4.808  1.2998 -0.7423  1.0221
 9037SOL    HW238574   2.625   1.690   4.806 -0.8248 -1.9493 -1.1444
 9038SOL     OW38575   2.143   3.508  11.401  0.2752  0.0797  0.1541
 9038SOL    HW138576   2.196   3.518  11.322  0.0835 -2.1014 -0.2555
 9038SOL    HW238577   2.105   3.420  11.397 -1.8762  1.0638 -0.8667
 9039SOL     OW38578   0.380   3.426  14.995  0.1431 -0.0288 -0.5906
 9039SOL    HW138579   0.428   3.348  14.968  3.2526  0.8014  2.5214
 9039SOL    HW238580   0.292   3.397  15.019 -0.4874  1.9692 -0.5283
 9040SOL     OW38581   0.038   0.886   5.688  0.1655  0.5611  0.3133
 9040SOL    HW138582   0.021   0.850   5.775 -0.7648  0.2285 -0.0047
 9040SOL    HW238583   0.099   0.959   5.699  0.3211  0.6278 -0.9542
 9041SOL     OW38584   2.196   2.390  12.602  0.3392 -0.2327  0.0205
 9041SOL    HW138585   2.165   2.475  12.570  2.6129  1.4089  2.1239
 9041SOL    HW238586   2.288   2.409  12.617  0.2619  2.4177 -2.9081
 9042SOL     OW38587   0.290   1.508   9.562  0.7144 -0.1468  0.3086
 9042SOL    HW138588   0.261   1.417   9.554  1.5585 -0.4112  0.2508
 9042SOL    HW238589   0.322   1.521   9.651  1.6198 -2.3643  0.3076
 9043SOL     OW38590   4.253   3.932   3.637  0.0575  0.3995  0.0050
 9043SOL    HW138591   4.303   3.977   3.705  0.8041 -0.0630 -0.2377
 9043SOL    HW238592   4.167   3.973   3.640  0.5525  1.3986  0.6811
 9044SOL     OW38593   2.529   0.983   6.043  0.6904  0.2305 -0.0906
 9044SOL    HW138594   2.548   1.029   5.961 -1.0722  0.1924 -0.5322
 9044SOL    HW238595   2.450   0.932   6.023  1.0240 -0.4741  0.4069
 9045SOL     OW38596   4.594   4.354   5.171 -0.2068 -0.2963  0.1394
 9045SOL    HW138597   4.639   4.281   5.131 -0.1577 -0.4975  0.5661
 9045SOL    HW238598   4.524   4.369   5.107  0.0843  0.3844 -0.0207
 9046SOL     OW38599   1.336   3.790   3.969 -0.3769  0.1957 -0.2118
 9046SOL    HW138600   1.316   3.744   3.887 -0.3053 -0.6947  0.2721
 9046SOL    HW238601   1.245   3.794   4.000 -0.3656  2.7760 -0.4625
 9047SOL     OW38602   4.532   3.114   9.928 -0.0367  0.1793  0.5129
 9047SOL    HW138603   4.436   3.123   9.923  0.1017  2.0040  0.9116
 9047SOL    HW238604   4.549   3.021   9.921  0.5067  0.2692  0.6680
 9048SOL     OW38605   2.079   3.659   7.604  0.1857  0.1035  0.1428
 9048SOL    HW138606   2.003   3.679   7.658  1.2362 -0.8885  1.9653
 9048SOL    HW238607   2.095   3.750   7.579 -0.1462  0.0694 -0.1819
 9049SOL     OW38608   0.192   1.203  15.302  0.0725 -0.7051  0.1095
 9049SOL    HW138609   0.227   1.180  15.217  0.3799 -1.2125  0.3749
 9049SOL    HW238610   0.264   1.173  15.358  1.3934  0.0089 -1.2124
 9050SOL     OW38611   2.613   1.834   6.880  0.4826 -1.4895  0.0286
 9050SOL    HW138612   2.641   1.884   6.956  0.0188  2.6640 -2.5475
 9050SOL    HW238613   2.617   1.745   6.915  0.9939 -2.0870 -1.5557
 9051SOL     OW38614   0.252   1.162  15.038  0.1855 -0.2129  0.3296
 9051SOL    HW138615   0.238   1.222  14.965 -0.3201 -2.1804 -1.2194
 9051SOL    HW238616   0.346   1.180  15.046  0.1269  1.0053 -1.9571
 9052SOL     OW38617   2.092   2.226   7.083 -0.1295 -0.0444 -0.4882
 9052SOL    HW138618   2.135   2.286   7.022 -0.1674  1.0836  0.5942
 9052SOL    HW238619   2.020   2.191   7.031 -0.0367 -1.8908  0.6229
 9053SOL     OW38620   3.036   0.786  15.010  0.2245 -0.0868 -0.3113
 9053SOL    HW138621   2.964   0.724  15.002 -1.1240  1.4649 -0.2868
 9053SOL    HW238622   3.109   0.749  14.961 -0.3422 -0.4148 -0.9158
 9054SOL     OW38623   4.108   1.647  14.191  0.8187 -0.4886  0.3442
 9054SOL    HW138624   4.126   1.733  14.228 -0.0123 -0.5403  0.8658
 9054SOL    HW238625   4.012   1.651  14.201  1.0182  1.6602  1.2027
 9055SOL     OW38626   1.650   1.145   1.823  0.1052 -0.5934 -0.3544
 9055SOL    HW138627   1.591   1.110   1.890 -0.0952 -0.3200 -0.3852
 9055SOL    HW238628   1.715   1.075   1.822  1.2010  0.4440 -0.7795
 9056SOL     OW38629   0.187   4.349   3.197 -1.2648  0.4316  0.0350
 9056SOL    HW138630   0.102   4.389   3.174 -1.0846  1.6288  1.4106
 9056SOL    HW238631   0.221   4.304   3.120 -1.2095  1.4280 -0.5295
 9057SOL     OW38632   3.704   4.705  10.061  0.1381  0.0260 -0.4203
 9057SOL    HW138633   3.616   0.018  10.069 -0.9741 -2.3950 -1.5023
 9057SOL    HW238634   3.689   4.619  10.100  1.7139 -0.2413 -0.4106
 9058SOL     OW38635   3.371   0.644   4.226 -0.4164 -0.4632  0.0576
 9058SOL    HW138636   3.416   0.562   4.244 -0.3248 -0.1675  1.1817
 9058SOL    HW238637   3.318   0.616   4.151  2.5053 -1.7120 -1.5399
 9059SOL     OW38638   3.059   3.240   2.083 -0.4164  0.1775  0.0711
 9059SOL    HW138639   3.117   3.312   2.058  0.0403  0.6636  2.5295
 9059SOL    HW238640   3.035   3.264   2.172  0.8209 -1.1284  0.7485
 9060SOL     OW38641   2.039   2.829   4.622  0.0217 -0.1453 -0.2587
 9060SOL    HW138642   2.107   2.896   4.619  1.0155 -1.0783  1.6962
 9060SOL    HW238643   2.090   2.748   4.619  1.1766  0.6613 -2.6448
 9061SOL     OW38644   1.245   4.604   4.166  0.6767 -0.4648 -0.6883
 9061SOL    HW138645   1.245   4.521   4.117  0.2395 -1.9769  1.8851
 9061SOL    HW238646   1.156   4.616   4.198  0.2034 -2.0250 -1.3952
 9062SOL     OW38647   4.007   0.811  15.337  0.2063  0.2242 -0.2941
 9062SOL    HW138648   4.089   0.861  15.330 -0.0623  0.6661 -0.2745
 9062SOL    HW238649   3.963   0.830  15.254 -0.0137 -0.3092 -0.3000
 9063SOL     OW38650   4.074   1.748   5.709 -0.1450 -0.3472 -0.3241
 9063SOL    HW138651   4.044   1.737   5.618  2.1732  0.7805 -1.2381
 9063SOL    HW238652   4.026   1.829   5.724  0.5864  0.5185 -2.5379
 9064SOL     OW38653   1.324   1.733  16.118  0.1669 -0.0396 -0.3822
 9064SOL    HW138654   1.359   1.702  16.202 -0.4643  0.5228  0.0974
 9064SOL    HW238655   1.338   1.828  16.127  0.3001 -0.3397  2.8125
 9065SOL     OW38656   0.227   1.084   5.666 -0.1344 -0.9321 -0.1802
 9065SOL    HW138657   0.284   1.077   5.742  1.3885  0.3354 -1.1978
 9065SOL    HW238658   0.289   1.085   5.593  0.1146 -0.3593  0.0354
 9066SOL     OW38659   2.668   2.002   8.158 -0.7200 -0.1070  0.3466
 9066SOL    HW138660   2.694   1.917   8.192  0.9469 -0.6234 -2.3109
 9066SOL    HW238661   2.622   2.043   8.232 -1.5383 -2.2398  1.0146
 9067SOL     OW38662   2.607   2.860   6.710 -0.4182  0.3049 -0.5237
 9067SOL    HW138663   2.579   2.935   6.657  1.4096  0.3540 -1.4132
 9067SOL    HW238664   2.653   2.808   6.644 -1.0040  3.5043 -3.4517
 9068SOL     OW38665   3.177   3.987   6.654  0.0211  0.0527  0.4850
 9068SOL    HW138666   3.175   3.915   6.717  2.8737 -0.0235  0.4986
 9068SOL    HW238667   3.265   3.990   6.617 -0.3860 -2.5847 -0.6892
 9069SOL     OW38668   0.135   2.536   4.053  0.2692 -0.5213 -0.1572
 9069SOL    HW138669   0.099   2.447   4.059  2.4709 -1.5793 -2.4077
 9069SOL    HW238670   0.225   2.527   4.085 -0.7164 -0.1505  2.7347
 9070SOL     OW38671   3.035   0.109   8.087  0.8823 -0.3784  0.4391
 9070SOL    HW138672   2.990   0.136   8.167  1.4821 -1.3198  1.0843
 9070SOL    HW238673   2.967   0.054   8.047  0.4332  1.5751 -1.4498
 9071SOL     OW38674   0.357   0.778  12.738  0.0899 -0.0737 -0.4901
 9071SOL    HW138675   0.391   0.763  12.826  0.2118  2.1471 -0.1645
 9071SOL    HW238676   0.320   0.691  12.722  1.8322 -0.9254  0.1006
 9072SOL     OW38677   4.115   3.976   3.899  0.1699  0.1218 -0.2804
 9072SOL    HW138678   4.042   4.021   3.942  1.3742  2.0704 -0.3045
 9072SOL    HW238679   4.101   3.885   3.926 -1.5459  0.2158 -0.8480
 9073SOL     OW38680   2.637   3.129  14.013 -0.2222  0.0833  0.1413
 9073SOL    HW138681   2.713   3.187  14.026  1.3807 -1.7550 -0.9870
 9073SOL    HW238682   2.569   3.195  14.001 -2.5519 -2.3091  0.4074
 9074SOL     OW38683   2.758   2.507   8.113  0.2156  0.0029  0.2710
 9074SOL    HW138684   2.744   2.527   8.205  3.4497 -2.8403  1.3640
 9074SOL    HW238685   2.773   2.587   8.062 -0.6760 -0.5723 -0.9066
 9075SOL     OW38686   4.236   0.082   6.307  0.0751  0.3786  0.2460
 9075SOL    HW138687   4.185   0.099   6.228 -1.4651 -0.1650  1.1137
 9075SOL    HW238688   4.314   0.138   6.296  0.3531 -0.1322 -0.3483
 9076SOL     OW38689   1.610   2.908   7.090  0.0167 -0.1360  0.0642
 9076SOL    HW138690   1.614   2.816   7.064  1.0781 -0.4875  1.4912
 9076SOL    HW238691   1.688   2.909   7.145  0.8612 -0.4840 -1.1324
 9077SOL     OW38692   1.227   2.338  10.881  0.1518  0.1198 -0.3606
 9077SOL    HW138693   1.310   2.385  10.890  0.5733 -0.2725 -2.1758
 9077SOL    HW238694   1.170   2.396  10.831 -2.6780 -2.0132  0.4130
 9078SOL     OW38695   2.549   4.121   6.528  0.0914 -0.1590 -0.5574
 9078SOL    HW138696   2.618   4.111   6.463 -0.0853 -0.2151 -0.7349
 9078SOL    HW238697   2.533   4.032   6.558  2.0156 -0.6896 -1.1305
 9079SOL     OW38698   1.351   3.174   4.093  0.0264  0.3455 -0.0375
 9079SOL    HW138699   1.284   3.127   4.143  0.6913 -0.3821  0.1805
 9079SOL    HW238700   1.320   3.179   4.002 -4.6191  0.9149  1.5716
 9080SOL     OW38701   1.268   3.732  13.176 -0.1998 -0.3171  0.3075
 9080SOL    HW138702   1.255   3.822  13.204 -2.2776 -0.7507  0.7674
 9080SOL    HW238703   1.359   3.739  13.149 -0.3270 -0.6849 -0.2182
 9081SOL     OW38704   2.094   0.404   5.903  0.0519  0.2298  0.4530
 9081SOL    HW138705   2.117   0.329   5.849 -3.2052 -0.7734  0.4570
 9081SOL    HW238706   2.001   0.387   5.918 -0.1945  0.4581 -0.8154
 9082SOL     OW38707   4.586   3.412   6.327 -0.1093  0.2024 -0.1472
 9082SOL    HW138708   4.573   3.347   6.258 -2.2045  1.8043 -1.2268
 9082SOL    HW238709   4.551   3.490   6.286 -2.4156 -2.3036 -2.9840
 9083SOL     OW38710   0.767   1.781  12.628 -0.3988  0.5578  0.1941
 9083SOL    HW138711   0.728   1.848  12.685  0.1796  1.8945 -0.9786
 9083SOL    HW238712   0.812   1.732  12.696 -0.4234 -0.1923 -0.3277
 9084SOL     OW38713   0.587   3.251   6.478  0.0581 -0.1406 -0.5290
 9084SOL    HW138714   0.533   3.216   6.549  2.1576 -2.0252  0.1436
 9084SOL    HW238715   0.670   3.248   6.525  0.6213 -0.6610 -1.5579
 9085SOL     OW38716   3.784   4.264  10.187  0.2484  0.2412  0.2378
 9085SOL    HW138717   3.832   4.195  10.140 -2.3426  0.8350 -3.2449
 9085SOL    HW238718   3.756   4.219  10.266  0.8083  2.9237  1.9757
 9086SOL     OW38719   2.252   0.021   9.840 -0.0033  0.8756  0.4841
 9086SOL    HW138720   2.230   4.721   9.931  0.0317 -0.6531  0.0953
 9086SOL    HW238721   2.265   4.658   9.801 -1.1457  0.2452  1.4829
 9087SOL     OW38722   2.893   2.252  16.370  0.1689  0.5744 -0.7333
 9087SOL    HW138723   2.861   2.339  16.392 -0.0938  0.1860  0.4260
 9087SOL    HW238724   2.976   2.246  16.417  0.0278  2.0839 -0.2967
 9088SOL     OW38725   0.487   1.798   9.836  0.3231  0.3953  0.2209
 9088SOL    HW138726   0.477   1.810   9.930  0.9149 -0.3742  0.3896
 9088SOL    HW238727   0.444   1.874   9.796  0.0797 -0.1132 -0.4878
 9089SOL     OW38728   0.601   1.136   2.674 -0.4960 -0.4933 -0.3007
 9089SOL    HW138729   0.615   1.042   2.688 -1.9064 -0.4164  1.5989
 9089SOL    HW238730   0.589   1.158   2.766 -1.2943  0.2224 -0.5772
 9090SOL     OW38731   4.425   3.655   5.378  0.1143 -0.1022  0.0695
 9090SOL    HW138732   4.460   3.567   5.390  2.3477  0.6360 -1.0135
 9090SOL    HW238733   4.401   3.696   5.461 -3.1389 -0.8077 -0.5352
 9091SOL     OW38734   2.244   3.291  10.290  0.8585  0.6241 -0.4164
 9091SOL    HW138735   2.153   3.281  10.317  1.1077 -0.2982  0.0887
 9091SOL    HW238736   2.254   3.214  10.234  0.2446 -0.2975  0.7414
 9092SOL     OW38737   3.317   2.768  15.212  0.1155 -0.1793  0.4600
 9092SOL    HW138738   3.354   2.694  15.163  0.1968  0.7418 -0.8680
 9092SOL    HW238739   3.242   2.728  15.256 -0.4893  0.5981  0.1259
 9093SOL     OW38740   3.346   3.464  10.496 -0.0439 -0.3653  0.0485
 9093SOL    HW138741   3.361   3.384  10.445  0.8047  0.5191 -1.1246
 9093SOL    HW238742   3.259   3.453  10.533  0.6744  0.2315  1.9118
 9094SOL     OW38743   3.508   3.899   1.714  0.1946 -0.4367 -0.1465
 9094SOL    HW138744   3.485   3.857   1.631  1.1379  1.1510 -1.2072
 9094SOL    HW238745   3.499   3.987   1.678 -0.5909 -0.2344  0.5499
 9095SOL     OW38746   0.613   0.629  14.374  0.0088 -0.1922 -0.3197
 9095SOL    HW138747   0.572   0.716  14.379  0.5976 -0.0539  2.0009
 9095SOL    HW238748   0.539   0.569  14.370  0.5984 -0.7806 -2.4389
 9096SOL     OW38749   0.052   3.054   5.098  0.2043  0.2403  0.0336
 9096SOL    HW138750   0.112   3.100   5.156  0.7902  0.1032 -0.4680
 9096SOL    HW238751   0.046   2.974   5.152  2.9441  0.7536  1.0951
 9097SOL     OW38752   2.902   0.889   6.064 -0.1927 -0.9734  0.0477
 9097SOL    HW138753   2.949   0.823   6.115 -0.2236  0.4393  1.8610
 9097SOL    HW238754   2.919   0.855   5.976 -2.4599 -2.0950  0.0408
 9098SOL     OW38755   1.784   1.265   4.989 -0.4029 -0.3284 -0.5412
 9098SOL    HW138756   1.768   1.193   4.928 -1.7598  0.2279 -0.8476
 9098SOL    HW238757   1.809   1.214   5.066  1.5646  0.1965 -0.8432
 9099SOL     OW38758   3.768   2.828   4.469 -0.6870 -0.1257 -0.0514
 9099SOL    HW138759   3.817   2.749   4.491  1.5443  1.1297 -0.5028
 9099SOL    HW238760   3.691   2.806   4.521  1.1684 -0.1719  2.6931
 9100SOL     OW38761   1.735   1.057   3.389  0.1943  0.3929 -0.0833
 9100SOL    HW138762   1.781   1.059   3.305  0.9632  2.7149  0.4036
 9100SOL    HW238763   1.703   0.967   3.390 -0.7387  0.7377  0.9893
 9101SOL     OW38764   1.684   0.349   5.088 -0.2073 -0.2700  0.2316
 9101SOL    HW138765   1.612   0.308   5.137  1.8397 -2.9526  0.9837
 9101SOL    HW238766   1.675   0.320   4.998 -1.4344 -0.3423  0.3814
 9102SOL     OW38767   4.511   3.735   4.188  0.4743 -0.1044  0.1074
 9102SOL    HW138768   4.506   3.811   4.246  1.1010  0.6248 -0.7905
 9102SOL    HW238769   4.601   3.748   4.157  1.4014  0.3259  2.9762
 9103SOL     OW38770   1.280   2.500  12.258  0.1931 -0.1527 -0.1060
 9103SOL    HW138771   1.206   2.549  12.222  1.0736  2.4438  1.6182
 9103SOL    HW238772   1.343   2.572  12.260  0.1096 -0.0086 -2.1127
 9104SOL     OW38773   0.644   3.196   2.480  0.4417 -0.3599  0.6675
 9104SOL    HW138774   0.730   3.233   2.461  1.1963 -1.5290  1.7623
 9104SOL    HW238775   0.583   3.265   2.453 -0.4356 -1.0257  0.9325
 9105SOL     OW38776   3.093   2.187   7.136  0.4255  0.2614  0.7402
 9105SOL    HW138777   3.010   2.209   7.093  0.4953  0.6962  0.8188
 9105SOL    HW238778   3.152   2.178   7.061 -1.6841 -0.3901 -0.8460
 9106SOL     OW38779   2.605   0.112   3.366 -0.1812  0.0359 -0.2876
 9106SOL    HW138780   2.571   0.176   3.303 -1.2218  0.9294  1.1761
 9106SOL    HW238781   2.634   0.174   3.432 -1.4937  2.2058 -1.7180
 9107SOL     OW38782   0.948   4.091   1.377 -0.2127  0.4470 -0.4757
 9107SOL    HW138783   1.007   4.143   1.322 -0.9113 -0.9867 -2.5793
 9107SOL    HW238784   0.935   4.015   1.320  1.9842  0.9139 -1.5731
 9108SOL     OW38785   0.805   3.097   0.423 -0.5158 -0.3909 -0.3083
 9108SOL    HW138786   0.745   3.168   0.447  0.0652  0.4157 -1.2806
 9108SOL    HW238787   0.796   3.053   0.508 -4.4407  0.0881 -0.4349
 9109SOL     OW38788   3.062   3.582   0.560 -0.1879 -0.4150  0.5824
 9109SOL    HW138789   3.118   3.636   0.505  0.5825 -0.1444  1.6152
 9109SOL    HW238790   3.130   3.528   0.601 -0.4511  0.9812  2.9038
 9110SOL     OW38791   0.955   2.720   2.414  0.2158  0.6444 -0.1706
 9110SOL    HW138792   0.981   2.710   2.505 -2.4056 -1.8033  0.3362
 9110SOL    HW238793   1.037   2.716   2.365 -0.3824 -0.7731 -1.0688
 9111SOL     OW38794   2.031   3.828   5.115  0.1219  0.1351  0.2491
 9111SOL    HW138795   2.041   3.827   5.211 -1.8744  0.3078  0.4604
 9111SOL    HW238796   2.125   3.837   5.101  0.1752 -0.1754  0.3933
 9112SOL     OW38797   3.424   3.640   4.308  0.0721 -0.1307 -0.1207
 9112SOL    HW138798   3.506   3.689   4.315  0.4577 -0.7936 -0.0052
 9112SOL    HW238799   3.358   3.709   4.300 -0.0417 -0.5763 -3.3160
 9113SOL     OW38800   1.482   3.618   9.018 -0.0296  0.0004  0.2772
 9113SOL    HW138801   1.472   3.674   9.095 -0.6381  2.6192 -1.6902
 9113SOL    HW238802   1.555   3.564   9.050  1.1161  2.0699  1.1914
 9114SOL     OW38803   3.750   0.236  17.585 -0.4531 -0.2496 -0.4265
 9114SOL    HW138804   3.772   0.240  17.492  0.1730  1.6530 -0.1931
 9114SOL    HW238805   3.756   0.328  17.610 -0.9271 -0.5445  0.8152
 9115SOL     OW38806   4.046   1.968   4.880  0.5132 -0.1432 -0.5874
 9115SOL    HW138807   4.098   1.894   4.912 -1.4282 -1.4894 -0.5631
 9115SOL    HW238808   4.080   2.036   4.937 -4.1980  1.2449  0.5089
 9116SOL     OW38809   0.511   1.677   2.637  0.1738 -0.3874 -0.1161
 9116SOL    HW138810   0.536   1.586   2.648 -1.3121 -0.7740  0.0939
 9116SOL    HW238811   0.416   1.675   2.625 -0.1240  1.0414  2.0273
 9117SOL     OW38812   4.689   1.500   0.887  0.7688  0.3261 -0.3120
 9117SOL    HW138813   4.598   1.477   0.872  0.2733  1.2022  1.3163
 9117SOL    HW238814   4.713   1.561   0.817  0.3518 -1.3896 -1.9421
 9118SOL     OW38815   2.769   0.686   5.579  0.4190 -0.1701 -0.6696
 9118SOL    HW138816   2.857   0.659   5.553  0.4071 -1.6286  0.8194
 9118SOL    HW238817   2.783   0.780   5.593  1.6911 -0.9363  3.1863
 9119SOL     OW38818   2.948   3.021  10.840  0.4483  0.1828 -0.1873
 9119SOL    HW138819   2.980   3.102  10.799  0.7147 -0.2402 -0.8130
 9119SOL    HW238820   3.022   2.962  10.850  0.2915 -0.1173 -0.8153
 9120SOL     OW38821   2.505   2.591   0.547 -0.0062 -0.2590  0.3397
 9120SOL    HW138822   2.582   2.554   0.590 -0.5207  0.4319  1.8263
 9120SOL    HW238823   2.534   2.669   0.500 -0.9751 -1.2591 -1.9252
 9121SOL     OW38824   1.802   3.745   8.447 -0.1718  0.0918  1.0138
 9121SOL    HW138825   1.846   3.665   8.475 -0.7193 -0.8692 -0.9142
 9121SOL    HW238826   1.877   3.805   8.450 -0.0245 -0.0602  0.2866
 9122SOL     OW38827   3.755   3.986  11.817  0.0732  0.3385 -0.5126
 9122SOL    HW138828   3.724   4.064  11.863 -1.3227  0.4346 -1.6073
 9122SOL    HW238829   3.818   3.962  11.885  0.0202  0.5064 -0.4049
 9123SOL     OW38830   2.890   3.963   8.698  0.5009 -0.5912  0.2743
 9123SOL    HW138831   2.886   3.892   8.633 -3.2081  0.7767 -0.9809
 9123SOL    HW238832   2.966   3.940   8.751  1.6395  2.9225  0.1304
 9124SOL     OW38833   1.949   4.542   5.958  0.3907 -0.3042  0.3459
 9124SOL    HW138834   1.895   4.464   5.948 -1.0200  0.6403  0.6343
 9124SOL    HW238835   1.886   4.612   5.943  0.7130  0.2513  1.5794
 9125SOL     OW38836   1.802   3.285   7.772 -0.2887 -0.2521 -0.4264
 9125SOL    HW138837   1.778   3.301   7.863  0.7834 -0.8249 -0.0429
 9125SOL    HW238838   1.889   3.246   7.773  1.0455  2.7759  1.0886
 9126SOL     OW38839   2.399   3.980   3.315  0.4488 -0.4675 -0.0710
 9126SOL    HW138840   2.340   4.054   3.303 -1.6729 -1.8271  2.0128
 9126SOL    HW238841   2.397   3.927   3.236  0.8639 -1.7071  0.7561
 9127SOL     OW38842   4.198   0.102   3.690 -0.0986  0.1594 -0.1507
 9127SOL    HW138843   4.144   0.169   3.647 -0.9728 -0.1028  0.5432
 9127SOL    HW238844   4.144   0.079   3.765 -0.4881  1.8050  0.0767
 9128SOL     OW38845   3.807   1.102  12.060  0.2482 -0.3268  0.1329
 9128SOL    HW138846   3.786   1.165  11.991  1.8877 -0.4917 -0.5100
 9128SOL    HW238847   3.759   1.026  12.027 -0.3092 -0.9069  2.2692
 9129SOL     OW38848   2.732   4.509   6.368 -0.5709 -0.9086  0.2973
 9129SOL    HW138849   2.765   4.513   6.457  1.0059  1.3933 -0.3821
 9129SOL    HW238850   2.818   4.497   6.327 -0.8957 -0.0196 -0.6463
 9130SOL     OW38851   2.086   3.510   8.280  0.0320 -0.5023 -0.2866
 9130SOL    HW138852   2.147   3.495   8.352 -0.8866 -0.2561  0.5512
 9130SOL    HW238853   2.151   3.516   8.210  0.9678 -0.9597  0.5474
 9131SOL     OW38854   0.826   4.348  11.703 -0.4528  0.6098  0.3779
 9131SOL    HW138855   0.819   4.420  11.641 -0.9875  1.5879  1.5853
 9131SOL    HW238856   0.773   4.379  11.777 -0.8880  0.8469 -0.0361
 9132SOL     OW38857   0.448   0.486   1.204 -0.2228 -0.5639 -0.0451
 9132SOL    HW138858   0.542   0.505   1.209 -0.1358 -0.2522 -2.5459
 9132SOL    HW238859   0.427   0.551   1.137 -2.0888 -2.0098 -0.8594
 9133SOL     OW38860   0.476   2.845   7.284 -0.0911  0.4293 -0.4732
 9133SOL    HW138861   0.535   2.913   7.314 -1.0617  0.3539  1.6005
 9133SOL    HW238862   0.451   2.884   7.200  0.9737  2.1627  0.0267
 9134SOL     OW38863   3.026   2.657   5.760 -0.6525 -0.0894 -0.4022
 9134SOL    HW138864   3.063   2.597   5.696  2.7554  2.5992 -0.9492
 9134SOL    HW238865   3.026   2.606   5.841  0.0397  0.0413 -0.3256
 9135SOL     OW38866   0.096   3.025  12.790 -0.8280  0.2273  0.5639
 9135SOL    HW138867   0.114   2.996  12.701 -1.2148  0.3245  0.4531
 9135SOL    HW238868   0.076   3.118  12.776 -0.8391  0.1579  0.1394
 9136SOL     OW38869   4.108   0.766   7.575  0.1581  0.0027  0.4485
 9136SOL    HW138870   4.131   0.802   7.661  0.1665 -1.9753  1.2854
 9136SOL    HW238871   4.016   0.742   7.590 -0.6505  0.9739 -3.0383
 9137SOL     OW38872   0.248   4.013  16.228  0.2412  0.0161  0.4856
 9137SOL    HW138873   0.205   3.977  16.151 -0.2063  0.9304  0.3123
 9137SOL    HW238874   0.303   4.073  16.178 -1.8233  1.4666  0.0047
 9138SOL     OW38875   2.326   2.545  10.422  0.0660  0.1242  0.6868
 9138SOL    HW138876   2.267   2.613  10.457 -1.4756 -0.5129 -0.6556
 9138SOL    HW238877   2.400   2.605  10.420  1.4939 -1.7279 -1.4664
 9139SOL     OW38878   0.543   4.024   6.097 -0.1061  0.0902 -0.7948
 9139SOL    HW138879   0.519   4.087   6.165  0.4929 -1.3994  0.7842
 9139SOL    HW238880   0.494   3.947   6.125  1.5462 -0.1512  1.3676
 9140SOL     OW38881   1.740   4.399   4.514  0.3874  0.2716  0.2626
 9140SOL    HW138882   1.681   4.377   4.442  0.1060  0.1399  0.5338
 9140SOL    HW238883   1.782   4.313   4.520  0.7594  0.4756  0.5906
 9141SOL     OW38884   2.273   2.115   7.234 -0.0083  0.2136  0.4221
 9141SOL    HW138885   2.254   2.148   7.322  2.2131 -0.1989  1.0680
 9141SOL    HW238886   2.210   2.164   7.182  1.1420 -1.4084 -2.4900
 9142SOL     OW38887   0.190   1.038  12.549 -0.7138 -0.0341  0.2617
 9142SOL    HW138888   0.157   1.009  12.464  2.9378  0.5575 -1.3393
 9142SOL    HW238889   0.266   1.083  12.513 -0.1369 -0.7572  0.6036
 9143SOL     OW38890   0.714   4.237   7.517 -0.8216 -0.2251  0.1077
 9143SOL    HW138891   0.652   4.176   7.478 -1.0695  0.4466 -0.5523
 9143SOL    HW238892   0.654   4.312   7.525 -0.5012 -0.0451  0.8667
 9144SOL     OW38893   1.012   0.262   6.983  0.6762  0.0666  0.0928
 9144SOL    HW138894   0.975   0.298   7.064 -0.8918  0.0968 -0.6373
 9144SOL    HW238895   1.061   0.329   6.935 -0.7348 -0.9991 -2.8314
 9145SOL     OW38896   2.531   3.175  17.253  1.1772 -0.0888 -0.4489
 9145SOL    HW138897   2.488   3.158  17.170  2.5993 -1.0302 -1.0070
 9145SOL    HW238898   2.594   3.240  17.221  0.1687  1.5059  0.8399
 9146SOL     OW38899   0.621   1.899   7.869  0.6401 -0.7736  0.9231
 9146SOL    HW138900   0.667   1.886   7.952 -0.5220  0.9716  1.8684
 9146SOL    HW238901   0.608   1.809   7.839 -0.2900  0.1457 -1.4648
 9147SOL     OW38902   3.941   2.886   2.566  0.2590  0.1825  0.7171
 9147SOL    HW138903   4.028   2.868   2.600 -0.1534 -2.1690  0.5399
 9147SOL    HW238904   3.950   2.872   2.471 -0.7776 -0.3286  0.6981
 9148SOL     OW38905   1.531   0.303   3.257 -0.6546 -0.1588 -0.3741
 9148SOL    HW138906   1.532   0.209   3.242 -1.5584 -0.3476  0.6982
 9148SOL    HW238907   1.445   0.340   3.234 -0.4806 -0.0626 -0.8714
 9149SOL     OW38908   0.290   4.401  15.248 -0.1317 -0.0558 -0.1969
 9149SOL    HW138909   0.294   4.369  15.338 -0.2899 -1.0682 -0.5556
 9149SOL    HW238910   0.347   4.477  15.256  1.3771 -1.1937 -0.3054
 9150SOL     OW38911   2.219   4.374   7.103  0.1173 -0.5268  0.4768
 9150SOL    HW138912   2.203   4.280   7.104  1.0118 -0.6523  3.8658
 9150SOL    HW238913   2.137   4.410   7.137  0.2001  0.0503  0.0708
 9151SOL     OW38914   3.365   2.172   2.719 -0.4221 -0.5253  0.0443
 9151SOL    HW138915   3.338   2.151   2.629  0.6184 -0.2333 -0.3420
 9151SOL    HW238916   3.316   2.251   2.739 -0.2448 -0.7886  1.4855
 9152SOL     OW38917   3.739   2.617   1.196  0.5901  0.4173  0.0022
 9152SOL    HW138918   3.791   2.605   1.275  0.8268  1.3299 -0.0157
 9152SOL    HW238919   3.812   2.589   1.141  1.0581  1.7802 -0.0653
 9153SOL     OW38920   1.422   1.504   5.839 -0.7044 -0.4402 -0.2508
 9153SOL    HW138921   1.467   1.562   5.901 -1.7259 -0.8387  0.8522
 9153SOL    HW238922   1.501   1.451   5.825 -1.0435 -2.0563  3.8852
 9154SOL     OW38923   0.985   4.136   7.036  0.3465 -0.5151 -0.0810
 9154SOL    HW138924   0.910   4.188   7.006  1.1684  0.6185 -0.2021
 9154SOL    HW238925   0.950   4.089   7.111  1.8349 -0.9985  0.3208
 9155SOL     OW38926   3.561   1.615  10.121  0.3445  0.6704 -0.0754
 9155SOL    HW138927   3.558   1.705  10.086 -1.1873  0.9017  0.6441
 9155SOL    HW238928   3.500   1.627  10.194  1.2695  0.3284  0.7457
 9156SOL     OW38929   0.902   3.832   3.997  0.2400  0.1538  0.1789
 9156SOL    HW138930   0.975   3.874   4.043 -0.6980  1.4292  0.4746
 9156SOL    HW238931   0.931   3.856   3.909  0.6775  1.6195  0.7239
 9157SOL     OW38932   1.386   2.772  11.871 -0.2372  0.4521 -0.2228
 9157SOL    HW138933   1.354   2.829  11.940  1.6881  0.7155  0.4463
 9157SOL    HW238934   1.442   2.827  11.816 -2.0692  2.2093 -0.3352
 9158SOL     OW38935   3.920   3.905   5.535 -0.0402  0.1074  0.7093
 9158SOL    HW138936   4.000   3.898   5.483  1.2613 -3.1405  3.1176
 9158SOL    HW238937   3.920   3.815   5.569 -0.6250 -0.1989 -0.0869
 9159SOL     OW38938   3.305   0.708  11.260  0.4381  0.1714  0.5535
 9159SOL    HW138939   3.344   0.694  11.173 -2.4410  0.0494 -0.7313
 9159SOL    HW238940   3.390   0.707  11.305 -0.1632  1.2644  1.6852
 9160SOL     OW38941   4.693   3.450   4.283  0.4864  0.0959 -0.3148
 9160SOL    HW138942   4.639   3.507   4.337 -1.4424 -0.5914 -1.5229
 9160SOL    HW238943   0.034   3.514   4.256  1.0617 -0.4131 -0.1439
 9161SOL     OW38944   2.260   2.717  12.053  0.1038  0.2506  0.1018
 9161SOL    HW138945   2.286   2.659  12.124 -0.0173  2.5968  2.0542
 9161SOL    HW238946   2.171   2.686  12.035  0.0087  0.9459 -0.6091
 9162SOL     OW38947   4.308   1.785  15.146 -0.4600  0.0723  0.0055
 9162SOL    HW138948   4.250   1.737  15.205 -0.6363  1.0657  0.6291
 9162SOL    HW238949   4.283   1.877  15.146 -1.6814 -0.2635  3.4596
 9163SOL     OW38950   0.385   1.774   4.244  0.1761  0.2941  0.6508
 9163SOL    HW138951   0.358   1.810   4.329 -1.1828 -1.2761  0.8760
 9163SOL    HW238952   0.310   1.782   4.185  0.9783  1.6704 -0.1842
 9164SOL     OW38953   1.859   0.411  16.584 -0.2730  0.4068 -0.4893
 9164SOL    HW138954   1.907   0.361  16.650 -0.1815 -0.4093 -1.1806
 9164SOL    HW238955   1.793   0.346  16.561 -1.1367  1.4526 -1.0089
 9165SOL     OW38956   3.049   4.455  12.712 -0.1586 -0.4625 -0.2087
 9165SOL    HW138957   3.062   4.536  12.663 -1.4652 -0.0043  0.1973
 9165SOL    HW238958   3.136   4.455  12.753 -0.1279 -3.0610 -0.3078
 9166SOL     OW38959   0.788   1.393  12.343 -0.2656  0.4313 -0.0664
 9166SOL    HW138960   0.801   1.390  12.249 -0.6090 -0.9165 -0.0798
 9166SOL    HW238961   0.716   1.332  12.360  0.3119 -0.0250  0.7504
 9167SOL     OW38962   0.567   0.957   5.038 -0.1385 -0.0243  0.1618
 9167SOL    HW138963   0.511   0.963   4.961  0.0429 -2.7306 -0.1752
 9167SOL    HW238964   0.506   0.981   5.107  0.3434  1.3194  0.1210
 9168SOL     OW38965   4.604   3.574   6.092 -0.1246  0.3243 -0.2091
 9168SOL    HW138966   4.672   3.629   6.130 -0.5097 -0.8875  2.2570
 9168SOL    HW238967   4.655   3.515   6.037  0.0392  1.7297 -1.5646
 9169SOL     OW38968   3.828   1.344   4.311 -0.7431 -0.0881 -0.0614
 9169SOL    HW138969   3.750   1.289   4.306 -0.6724 -0.1713 -0.2212
 9169SOL    HW238970   3.837   1.400   4.234  0.1414  0.0890  0.1664
 9170SOL     OW38971   4.140   2.964   7.384  0.5929 -0.3558 -0.9360
 9170SOL    HW138972   4.046   2.950   7.373  0.5050  1.3025 -2.4394
 9170SOL    HW238973   4.164   2.936   7.296  2.1625  1.4907 -1.1154
 9171SOL     OW38974   3.572   3.528  16.892 -0.0417  0.9899 -0.6566
 9171SOL    HW138975   3.611   3.575  16.819  0.5001  0.8220 -0.4767
 9171SOL    HW238976   3.525   3.599  16.937 -1.2875 -0.2141 -0.0521
 9172SOL     OW38977   2.243   0.481   1.984 -0.4530  0.7191 -0.8704
 9172SOL    HW138978   2.318   0.480   2.044 -0.0083  0.9197 -1.4260
 9172SOL    HW238979   2.171   0.473   2.047  0.1594 -0.6290 -0.3280
 9173SOL     OW38980   0.329   1.962   6.069 -0.1442 -0.1932  0.4281
 9173SOL    HW138981   0.349   1.874   6.038 -1.7971  0.0182 -1.2347
 9173SOL    HW238982   0.242   1.960   6.029  0.6344 -1.5877 -1.1681
 9174SOL     OW38983   3.623   1.999   4.683  0.1141 -0.6054 -0.4060
 9174SOL    HW138984   3.606   2.067   4.617  0.9508 -0.3283 -0.3409
 9174SOL    HW238985   3.536   1.998   4.723 -0.3669 -1.9292 -1.4838
 9175SOL     OW38986   3.403   3.191   5.087 -0.3305  0.5991  0.0074
 9175SOL    HW138987   3.391   3.099   5.111 -0.1096  0.5373 -0.1184
 9175SOL    HW238988   3.316   3.220   5.116  0.3370  0.8196  1.7630
 9176SOL     OW38989   0.039   0.644   5.277  0.1756  0.0583  0.4443
 9176SOL    HW138990   0.044   0.556   5.239 -3.8942 -0.4773  1.1717
 9176SOL    HW238991   0.088   0.643   5.360  0.8145 -2.3711  0.0268
 9177SOL     OW38992   4.290   1.548  12.943  0.4001 -0.1143  0.1550
 9177SOL    HW138993   4.319   1.495  13.017 -0.1961  0.2979  0.6843
 9177SOL    HW238994   4.235   1.611  12.990 -0.4689 -0.7449 -0.0034
 9178SOL     OW38995   2.346   0.069  17.406 -0.6053  0.5307  0.0856
 9178SOL    HW138996   2.309   0.056  17.319  0.0686  0.6365 -0.2209
 9178SOL    HW238997   2.412   0.134  17.384 -0.8760  0.3582 -1.2263
 9179SOL     OW38998   2.392   3.439  16.396  0.0935  0.0518  1.1811
 9179SOL    HW138999   2.442   3.484  16.329 -1.9845  0.1947 -0.2727
 9179SOL    HW239000   2.357   3.517  16.439  2.0557  0.7805  1.4347
 9180SOL     OW39001   3.733   2.305   6.632  0.4297 -0.8682  0.2790
 9180SOL    HW139002   3.666   2.374   6.633  0.6811 -0.6151  0.0212
 9180SOL    HW239003   3.783   2.319   6.551 -0.9582  1.7442 -0.1190
 9181SOL     OW39004   2.682   0.953   1.953  0.3480 -0.6574 -0.4301
 9181SOL    HW139005   2.605   0.992   1.913  0.5285  0.7023  0.5408
 9181SOL    HW239006   2.735   0.919   1.882  1.5812 -0.0345  0.1916
 9182SOL     OW39007   1.331   0.460  11.620  0.2578  0.6737  0.3423
 9182SOL    HW139008   1.404   0.514  11.588  0.8053  0.1355  0.6718
 9182SOL    HW239009   1.340   0.506  11.704 -0.6747  0.3338  0.6306
 9183SOL     OW39010   3.268   2.812   8.343 -0.0624  0.2553 -0.5608
 9183SOL    HW139011   3.337   2.798   8.409 -0.0580 -1.9015 -1.0333
 9183SOL    HW239012   3.249   2.724   8.313 -1.6051  0.2508  0.4385
 9184SOL     OW39013   4.689   1.301  12.892 -0.0495 -0.2958  0.4617
 9184SOL    HW139014   0.041   1.320  12.836 -0.3341  1.0508  0.5290
 9184SOL    HW239015   4.628   1.373  12.878 -0.8490 -1.2967 -1.2598
 9185SOL     OW39016   2.953   3.333   2.328 -0.7074 -0.2900 -0.1374
 9185SOL    HW139017   2.951   3.304   2.420  1.0460  0.9093  0.2588
 9185SOL    HW239018   2.918   3.422   2.332  0.5796  0.2466 -1.2295
 9186SOL     OW39019   2.922   1.066  10.887  0.1177 -0.5846 -0.2466
 9186SOL    HW139020   2.902   1.157  10.908  1.0742 -0.6698  1.0570
 9186SOL    HW239021   2.920   1.070  10.791 -0.0334  0.3254 -0.2054
 9187SOL     OW39022   4.015   4.283   2.156  0.7243  0.2281 -0.5510
 9187SOL    HW139023   4.047   4.367   2.188  1.5935 -0.2927 -0.0617
 9187SOL    HW239024   4.044   4.275   2.065 -2.0705  0.8695 -1.5019
 9188SOL     OW39025   4.131   1.654  15.292 -0.1561  0.2568 -0.3791
 9188SOL    HW139026   4.121   1.559  15.296  0.5058  0.0947 -2.3743
 9188SOL    HW239027   4.057   1.672  15.234 -2.8983 -3.0145  2.0815
 9189SOL     OW39028   3.703   1.299   3.671  0.0606 -0.5882 -0.0404
 9189SOL    HW139029   3.739   1.375   3.624 -1.2132  0.2324  0.3112
 9189SOL    HW239030   3.634   1.340   3.723  0.6176  1.8032 -1.1830
 9190SOL     OW39031   2.352   4.723  15.985 -0.5106  0.0203  0.2544
 9190SOL    HW139032   2.384   0.038  15.905  0.7706  0.1514  0.8296
 9190SOL    HW239033   2.366   4.635  15.949 -0.5222 -0.8556  2.3747
 9191SOL     OW39034   3.960   0.788  15.721 -0.0459  0.0137  0.3997
 9191SOL    HW139035   3.922   0.737  15.793  0.3355 -0.6011  0.1600
 9191SOL    HW239036   4.008   0.860  15.763 -2.0387  1.9410 -0.6296
 9192SOL     OW39037   4.524   1.724  13.830 -0.1535 -0.0811 -0.0701
 9192SOL    HW139038   4.555   1.636  13.850  1.2540 -0.1151 -2.4915
 9192SOL    HW239039   4.435   1.702  13.803 -0.9364  2.1566  0.6018
 9193SOL     OW39040   4.019   0.419  14.250  0.0467  0.7259 -0.0508
 9193SOL    HW139041   4.111   0.393  14.255 -0.4527 -0.9250  0.4550
 9193SOL    HW239042   4.029   0.510  14.276 -0.4766  0.5756  0.6789
 9194SOL     OW39043   1.068   1.506   7.583 -0.1274 -0.1966 -0.6057
 9194SOL    HW139044   1.100   1.416   7.582 -2.8940 -1.1956 -0.3875
 9194SOL    HW239045   1.119   1.558   7.521 -0.6859  1.4146  0.2798
 9195SOL     OW39046   2.325   1.753   3.326 -0.5300 -0.1156 -0.0090
 9195SOL    HW139047   2.242   1.800   3.336 -0.7108  0.1341 -2.8301
 9195SOL    HW239048   2.362   1.744   3.414  0.7154  0.1885 -0.5054
 9196SOL     OW39049   2.744   3.842   6.733  0.1141  0.1669  0.2740
 9196SOL    HW139050   2.767   3.756   6.767 -0.6301 -0.4424 -0.7873
 9196SOL    HW239051   2.657   3.861   6.769  0.8014  0.8649  1.5937
 9197SOL     OW39052   0.951   1.884   7.700  0.3448  0.5002 -0.1819
 9197SOL    HW139053   0.901   1.951   7.746 -1.3311  0.3497 -1.8037
 9197SOL    HW239054   1.037   1.925   7.686  0.7477 -0.4878 -0.6031
 9198SOL     OW39055   0.242   1.380  10.180 -0.0899  0.5126  0.2100
 9198SOL    HW139056   0.224   1.301  10.231  0.3163  0.6022  0.4854
 9198SOL    HW239057   0.183   1.360  10.107  0.1940 -0.7289  0.3290
 9199SOL     OW39058   4.308   3.127  16.038  0.7698 -0.3157 -0.4412
 9199SOL    HW139059   4.374   3.153  15.974  0.1232  0.5649 -0.7573
 9199SOL    HW239060   4.350   3.138  16.123 -3.6214 -0.1854  1.7397
 9200SOL     OW39061   3.273   3.029   2.978  0.3680 -0.1519  0.3878
 9200SOL    HW139062   3.331   3.102   2.958  0.8364 -1.0422 -1.5991
 9200SOL    HW239063   3.288   2.962   2.911 -0.0740 -0.0553  0.1939
 9201SOL     OW39064   2.541   2.183   8.677  0.5955  0.2067 -0.0317
 9201SOL    HW139065   2.455   2.177   8.634  0.0474 -1.0281  1.2532
 9201SOL    HW239066   2.604   2.180   8.605  1.9538 -2.9533  1.3016
 9202SOL     OW39067   4.600   2.426   8.448  0.5850  0.0446 -0.0946
 9202SOL    HW139068   4.564   2.401   8.533  0.0952  0.1113 -0.2789
 9202SOL    HW239069   4.526   2.461   8.397 -0.0701  0.5630  1.2136
 9203SOL     OW39070   3.661   3.086  14.114  0.2440 -0.3299  0.0971
 9203SOL    HW139071   3.569   3.060  14.123  0.3545  0.2765  3.1764
 9203SOL    HW239072   3.663   3.153  14.183  1.4636 -0.7822  0.5112
 9204SOL     OW39073   4.399   0.397  10.916  0.4311 -0.1910  0.3679
 9204SOL    HW139074   4.485   0.433  10.894  0.0577  0.2137 -0.4273
 9204SOL    HW239075   4.343   0.474  10.906  2.8282  1.4933  0.1296
 9205SOL     OW39076   1.574   3.412   6.837 -0.2131 -0.0736 -0.1117
 9205SOL    HW139077   1.619   3.407   6.921 -1.8042  0.3571  0.7664
 9205SOL    HW239078   1.562   3.317   6.828  2.3225 -0.5318  1.4572
 9206SOL     OW39079   2.115   2.110   5.016 -0.2900  0.3271 -0.0829
 9206SOL    HW139080   2.045   2.095   4.952 -1.3603 -2.4892  1.7347
 9206SOL    HW239081   2.056   2.101   5.090 -0.0126 -1.8392 -0.1185
 9207SOL     OW39082   2.560   3.538   5.159 -0.3842  0.1848  0.0389
 9207SOL    HW139083   2.519   3.480   5.095 -1.3017  0.4632  0.3661
 9207SOL    HW239084   2.482   3.571   5.203 -0.8167 -1.5737  0.5892
 9208SOL     OW39085   2.559   0.777   0.253 -0.4511  0.0030  0.4520
 9208SOL    HW139086   2.541   0.803   0.343 -0.2788  0.0324  0.4761
 9208SOL    HW239087   2.525   0.855   0.208  2.3606  1.1991  0.4142
 9209SOL     OW39088   2.616   2.470   6.910 -0.8542 -0.4738 -0.3861
 9209SOL    HW139089   2.574   2.384   6.906 -2.2894  0.1738  0.7043
 9209SOL    HW239090   2.697   2.454   6.861  0.1483 -0.9898  1.4227
 9210SOL     OW39091   1.353   2.349   2.776 -0.3724 -0.3315  0.2360
 9210SOL    HW139092   1.317   2.275   2.824 -2.0155  0.5129  0.3065
 9210SOL    HW239093   1.363   2.297   2.695 -1.1661 -1.8158  1.0921
 9211SOL     OW39094   1.082   2.225   8.509 -0.0659  0.2100 -0.1241
 9211SOL    HW139095   1.154   2.181   8.463  1.3790 -0.6925  2.9629
 9211SOL    HW239096   1.024   2.152   8.531  1.3627 -0.8617  0.1181
 9212SOL     OW39097   4.220   1.754  13.122  0.5376  0.6110  0.0697
 9212SOL    HW139098   4.131   1.755  13.158 -0.3468 -1.7550 -2.0584
 9212SOL    HW239099   4.239   1.848  13.117  0.5643  0.5528 -0.9608
 9213SOL     OW39100   2.921   1.346   4.327 -0.2718  0.0849  0.2760
 9213SOL    HW139101   2.957   1.366   4.241  0.4755 -2.2922  0.0305
 9213SOL    HW239102   2.830   1.333   4.303 -0.5436  0.5970  1.0345
 9214SOL     OW39103   0.537   3.906  10.418  0.4474 -0.0364 -0.8326
 9214SOL    HW139104   0.493   3.929  10.499  1.0545 -1.2132 -0.1683
 9214SOL    HW239105   0.482   3.953  10.355 -1.2676  1.5202  1.8130
 9215SOL     OW39106   1.643   3.230   6.287  0.0008  0.2893  0.2603
 9215SOL    HW139107   1.721   3.222   6.233 -0.6127 -1.4742 -0.3826
 9215SOL    HW239108   1.659   3.316   6.324 -0.1727  0.7706 -0.7910
 9216SOL     OW39109   4.574   1.313   4.543 -0.3004  0.5911  0.0382
 9216SOL    HW139110   4.667   1.304   4.525 -1.0103 -4.9995 -1.0560
 9216SOL    HW239111   4.554   1.231   4.588 -1.2975 -0.6842 -2.6839
 9217SOL     OW39112   1.442   3.124   8.553 -0.1374  0.1021  0.4668
 9217SOL    HW139113   1.516   3.172   8.516 -0.5835 -0.2692 -0.9101
 9217SOL    HW239114   1.493   3.051   8.588  0.4049 -0.7487 -2.0939
 9218SOL     OW39115   4.611   3.167   8.306 -0.1202  0.1713 -0.2648
 9218SOL    HW139116   4.706   3.162   8.309  0.0430  2.0571 -2.5128
 9218SOL    HW239117   4.600   3.262   8.304  1.1765  0.3239 -0.2138
 9219SOL     OW39118   4.557   1.613   7.039 -0.3569  0.2203 -0.2658
 9219SOL    HW139119   4.620   1.611   6.966  0.0838 -0.2103  0.1300
 9219SOL    HW239120   4.573   1.531   7.085 -0.3853 -0.2701 -1.1277
 9220SOL     OW39121   4.386   0.393   3.775  0.3526  0.7259 -0.1934
 9220SOL    HW139122   4.293   0.376   3.757  0.3870  0.8921 -0.5231
 9220SOL    HW239123   4.387   0.328   3.846  1.7649  1.5295  0.5207
 9221SOL     OW39124   0.668   4.592   6.387 -0.5250  0.4912  0.5284
 9221SOL    HW139125   0.613   4.570   6.312 -0.5860  1.8253  0.1945
 9221SOL    HW239126   0.608   4.647   6.436 -1.3371  0.3248 -0.2890
 9222SOL     OW39127   0.868   0.153   5.039  0.2218 -0.5201 -0.5365
 9222SOL    HW139128   0.873   0.224   5.102  1.5643 -1.7153  0.6954
 9222SOL    HW239129   0.886   0.077   5.095  0.7122 -0.0144 -0.0158
 9223SOL     OW39130   1.475   3.789  15.771 -0.5487 -0.4986 -0.5047
 9223SOL    HW139131   1.445   3.876  15.745 -1.2617 -0.7170 -0.4193
 9223SOL    HW239132   1.391   3.765  15.811  0.6175 -0.0489  2.2316
 9224SOL     OW39133   2.185   2.129   5.360  0.2369  0.1902  0.0610
 9224SOL    HW139134   2.145   2.156   5.442 -2.8906 -1.0007 -1.0922
 9224SOL    HW239135   2.108   2.122   5.304 -0.8483 -1.3132  1.7527
 9225SOL     OW39136   3.089   2.650  15.323  0.2563 -0.1515  0.4429
 9225SOL    HW139137   3.092   2.556  15.304 -1.2733 -0.6265  2.6153
 9225SOL    HW239138   3.031   2.649  15.398 -1.7786  2.7808 -1.0760
 9226SOL     OW39139   2.815   0.127   6.644 -0.0720  0.4734  0.1356
 9226SOL    HW139140   2.875   0.132   6.718 -1.7700 -0.9767  1.6129
 9226SOL    HW239141   2.734   0.085   6.672 -0.4479  0.8864 -0.3482
 9227SOL     OW39142   2.929   2.899   1.558  0.2126 -0.5314  0.0309
 9227SOL    HW139143   2.883   2.972   1.597 -1.2172 -1.2467 -0.3067
 9227SOL    HW239144   2.875   2.824   1.582 -1.8699  2.3508  4.2994
 9228SOL     OW39145   1.776   3.079  13.845  0.1534  0.3960  0.4112
 9228SOL    HW139146   1.831   3.154  13.825 -1.6737  1.4934 -0.5778
 9228SOL    HW239147   1.699   3.119  13.885 -1.3281 -0.7645 -1.2329
 9229SOL     OW39148   4.618   2.050   7.792  0.3112 -0.0675  0.3866
 9229SOL    HW139149   4.692   2.070   7.734  0.1990 -2.8018 -0.7025
 9229SOL    HW239150   4.550   2.026   7.729  0.2728  1.9205 -0.3357
 9230SOL     OW39151   0.644   1.086  11.429 -0.1092 -0.1962 -0.3709
 9230SOL    HW139152   0.592   1.028  11.484  0.3227  1.4990  1.8389
 9230SOL    HW239153   0.646   1.156  11.494  0.6516  1.2409 -1.9312
 9231SOL     OW39154   2.996   3.683   3.562 -0.0575  0.1487 -0.3915
 9231SOL    HW139155   2.911   3.640   3.548  0.5150 -1.7169  1.9413
 9231SOL    HW239156   2.986   3.769   3.521  0.6311  1.2618  1.7771
 9232SOL     OW39157   3.580   4.176  16.842 -0.0320  0.0102 -0.3617
 9232SOL    HW139158   3.595   4.252  16.899 -0.3457  1.0519 -1.6880
 9232SOL    HW239159   3.524   4.127  16.903  0.6085  1.0076  1.0498
 9233SOL     OW39160   2.815   4.395   3.857  0.1050 -0.2820 -0.0262
 9233SOL    HW139161   2.837   4.404   3.950 -0.4154  1.7164 -0.0863
 9233SOL    HW239162   2.882   4.341   3.816 -2.1194 -2.4467 -0.8269
 9234SOL     OW39163   0.721   1.927   4.884  0.2840 -0.2278 -0.0141
 9234SOL    HW139164   0.680   1.873   4.816  0.6257  0.8472 -1.0693
 9234SOL    HW239165   0.810   1.897   4.870 -0.6704 -2.1116 -2.0470
 9235SOL     OW39166   0.986   0.151   4.025 -0.4806 -0.6154 -0.0579
 9235SOL    HW139167   0.950   0.159   4.114  1.1792 -3.6943  0.8606
 9235SOL    HW239168   0.957   0.060   4.018 -0.0431 -0.9846  2.9372
 9236SOL     OW39169   0.551   1.556   3.320  0.5223 -0.2310 -0.0565
 9236SOL    HW139170   0.635   1.547   3.365  0.6563 -1.0673 -0.4674
 9236SOL    HW239171   0.549   1.461   3.306  0.2852 -0.0641 -1.1516
 9237SOL     OW39172   3.617   2.775  15.649 -0.0094  0.1811  0.1066
 9237SOL    HW139173   3.542   2.758  15.707  0.9084 -0.4863  1.1180
 9237SOL    HW239174   3.657   2.688  15.637 -0.7871 -0.0552 -0.7105
 9238SOL     OW39175   2.127   0.618   1.736 -0.0457 -0.0108  0.0448
 9238SOL    HW139176   2.133   0.524   1.754 -2.5608  0.2468  2.2579
 9238SOL    HW239177   2.182   0.654   1.805  1.3747 -0.1958 -0.9888
 9239SOL     OW39178   3.011   2.678  17.463  0.3945 -0.5883  0.2935
 9239SOL    HW139179   2.966   2.754  17.427 -0.3292 -0.2371  1.9260
 9239SOL    HW239180   2.945   2.613  17.439  1.0801 -0.8405 -0.8531
 9240SOL     OW39181   2.733   0.631   0.104  0.6316 -0.3179 -0.0125
 9240SOL    HW139182   2.681   0.691   0.159  0.2579 -0.0031 -0.7142
 9240SOL    HW239183   2.817   0.623   0.149  0.3952 -1.8906  0.1635
 9241SOL     OW39184   0.795   2.691  16.051  0.4849 -0.0195 -0.5076
 9241SOL    HW139185   0.805   2.652  15.964 -0.4826 -0.8083 -0.2605
 9241SOL    HW239186   0.828   2.621  16.106  1.1093  1.1320  0.5871
 9242SOL     OW39187   3.290   1.622   5.636 -0.3528  0.6119 -0.1738
 9242SOL    HW139188   3.381   1.601   5.613 -0.0990  0.1290  1.2511
 9242SOL    HW239189   3.305   1.630   5.730  0.2421 -3.1347  0.0645
 9243SOL     OW39190   4.301   2.187   8.859  0.2248  0.3040 -0.0862
 9243SOL    HW139191   4.361   2.249   8.899 -2.2188  1.5621  1.6326
 9243SOL    HW239192   4.210   2.216   8.869  0.0849 -0.6486  1.2276
 9244SOL     OW39193   0.449   2.478  15.203  0.0373 -0.1773  0.0387
 9244SOL    HW139194   0.476   2.530  15.127 -2.6191  0.1830 -0.6452
 9244SOL    HW239195   0.528   2.424  15.215 -0.7518 -1.1952  0.5859
 9245SOL     OW39196   3.774   4.002  15.989 -0.3591  0.5444  0.0731
 9245SOL    HW139197   3.734   3.933  16.042  0.8226  0.1832  0.4862
 9245SOL    HW239198   3.780   4.077  16.047 -0.8872  0.4974  0.1917
 9246SOL     OW39199   0.657   4.698  10.089  0.1685  0.2696 -0.3710
 9246SOL    HW139200   0.734   0.003  10.040 -0.1913  3.1990  0.8476
 9246SOL    HW239201   0.679   4.605  10.080 -1.6127 -0.1876 -0.0562
 9247SOL     OW39202   0.365   3.690   6.369  0.3586 -0.1001  0.4213
 9247SOL    HW139203   0.449   3.648   6.353  1.6011  1.5076  2.7557
 9247SOL    HW239204   0.363   3.683   6.465 -0.7812 -0.1183  0.4007
 9248SOL     OW39205   1.835   0.017   1.890  0.1215 -0.1606 -0.6143
 9248SOL    HW139206   1.740   0.013   1.879  0.3266 -1.5141 -1.9267
 9248SOL    HW239207   1.846   0.107   1.920  0.0195 -0.9030  1.6040
 9249SOL     OW39208   2.072   0.229   6.175 -0.0035  0.0410 -0.0317
 9249SOL    HW139209   2.125   0.255   6.250 -1.2732  0.2119  0.8039
 9249SOL    HW239210   2.143   0.215   6.111  0.9223  0.4042  0.9232
 9250SOL     OW39211   4.513   3.027  11.960 -0.1689  0.0303  0.3670
 9250SOL    HW139212   4.427   3.042  11.998 -0.2350  0.1756  0.1628
 9250SOL    HW239213   4.559   2.991  12.035  1.4717  2.4894  0.5446
 9251SOL     OW39214   0.356   1.724   5.910 -0.0588 -0.1180  0.7817
 9251SOL    HW139215   0.263   1.713   5.895  0.1121 -0.4126 -0.0787
 9251SOL    HW239216   0.394   1.637   5.919  1.2146  0.4469  1.0132
 9252SOL     OW39217   0.039   0.704  16.139 -0.4045 -0.1720  0.0170
 9252SOL    HW139218   0.010   0.790  16.171 -0.6318 -0.6335  1.0558
 9252SOL    HW239219   0.045   0.653  16.220  0.1252 -1.7071 -1.0149
 9253SOL     OW39220   0.670   2.743   0.331 -0.7259 -0.0305  0.0627
 9253SOL    HW139221   0.593   2.685   0.333  1.3609 -2.8724 -2.8154
 9253SOL    HW239222   0.654   2.782   0.417 -1.4645 -0.3415  0.0698
 9254SOL     OW39223   4.056   1.926  13.571  0.1178 -0.5011 -0.0080
 9254SOL    HW139224   4.117   1.972  13.629 -1.6587  1.0684  0.6053
 9254SOL    HW239225   4.055   1.978  13.491  0.3103 -2.3419 -1.2070
 9255SOL     OW39226   3.453   2.822   6.496 -0.5222  0.3035  0.4991
 9255SOL    HW139227   3.407   2.791   6.574  0.9572 -0.4412  1.0748
 9255SOL    HW239228   3.384   2.887   6.481 -0.4100  0.6836  1.6647
 9256SOL     OW39229   0.684   2.063   8.996 -0.2878  0.2197 -0.2272
 9256SOL    HW139230   0.736   1.990   9.031 -1.3548 -0.1509  0.5932
 9256SOL    HW239231   0.613   2.063   9.060 -0.5497 -1.4939 -0.5136
 9257SOL     OW39232   0.407   0.296  15.916  0.2876 -0.6775  0.6541
 9257SOL    HW139233   0.433   0.384  15.945  1.6930 -0.9779  0.2852
 9257SOL    HW239234   0.326   0.314  15.869  0.5332 -0.3402  0.3635
 9258SOL     OW39235   3.740   2.167  14.045 -0.4204  0.1614 -0.5496
 9258SOL    HW139236   3.655   2.124  14.035  0.4158 -0.9269 -3.0667
 9258SOL    HW239237   3.788   2.104  14.100 -0.4049  0.5431 -0.1235
 9259SOL     OW39238   1.317   2.343  11.677 -0.7436  0.0301 -0.0457
 9259SOL    HW139239   1.279   2.431  11.678 -1.9412 -0.5187  2.3780
 9259SOL    HW239240   1.259   2.313  11.607 -2.3625  1.3860  0.7070
 9260SOL     OW39241   1.247   1.571   5.658  0.4443  0.7634  0.1024
 9260SOL    HW139242   1.256   1.665   5.648  0.0241  0.9210  1.1859
 9260SOL    HW239243   1.315   1.552   5.723  2.5147 -1.7907 -2.7920
 9261SOL     OW39244   3.945   1.189   3.748 -0.1482 -0.6344 -0.6223
 9261SOL    HW139245   3.927   1.147   3.833  1.4563 -0.4096 -0.1589
 9261SOL    HW239246   3.858   1.221   3.725  0.3471 -0.8267 -2.7355
 9262SOL     OW39247   0.879   0.900   2.299  0.5582 -0.3431 -0.2148
 9262SOL    HW139248   0.966   0.892   2.260  0.5381  1.0987 -0.5548
 9262SOL    HW239249   0.871   0.991   2.328 -0.3352 -0.4694 -0.0612
 9263SOL     OW39250   4.678   1.855   1.983 -0.2875 -0.1367  0.6666
 9263SOL    HW139251   0.036   1.889   1.948 -0.7326  0.0334 -0.2165
 9263SOL    HW239252   4.687   1.766   1.949 -1.2451 -0.2086  0.5992
 9264SOL     OW39253   1.785   3.109  14.753 -0.5291  0.8586 -0.6591
 9264SOL    HW139254   1.801   3.184  14.810 -1.9475  0.3159  0.4398
 9264SOL    HW239255   1.699   3.130  14.718 -0.3719 -0.4406 -1.8581
 9265SOL     OW39256   3.529   2.976   3.917 -0.3960  0.1223  0.2008
 9265SOL    HW139257   3.593   2.908   3.938 -1.5556 -1.2829 -0.8689
 9265SOL    HW239258   3.492   2.945   3.835  1.0042  1.3268 -0.8787
 9266SOL     OW39259   3.176   2.469  17.495  0.1133  0.4315 -0.1986
 9266SOL    HW139260   3.130   2.410  17.435 -1.0159 -0.2654  1.3637
 9266SOL    HW239261   3.112   2.540  17.485  0.4577  0.9548  1.3061
 9267SOL     OW39262   3.547   2.247   5.574  0.0772 -0.3768  0.3137
 9267SOL    HW139263   3.527   2.196   5.496  1.2537 -1.6388  0.8418
 9267SOL    HW239264   3.641   2.268   5.571  0.4220 -2.6365 -4.0493
 9268SOL     OW39265   1.590   3.734  10.054  0.1514 -0.1235  0.0871
 9268SOL    HW139266   1.565   3.660  10.109 -2.3932 -0.9695 -2.2184
 9268SOL    HW239267   1.628   3.795  10.118 -1.7437  0.7229  0.3971
 9269SOL     OW39268   1.638   0.314   8.640  0.5393  0.3638  0.5264
 9269SOL    HW139269   1.641   0.409   8.651 -1.0015  0.5635 -0.8494
 9269SOL    HW239270   1.697   0.312   8.565 -1.2248  0.7564 -0.8494
 9270SOL     OW39271   0.571   0.098   4.307 -0.6465 -0.1579  0.0488
 9270SOL    HW139272   0.510   0.105   4.233 -0.3715  1.6323 -0.0146
 9270SOL    HW239273   0.592   0.005   4.315  1.2942  0.1457 -1.3647
 9271SOL     OW39274   4.708   2.451  14.496 -0.0497 -0.1369 -0.2215
 9271SOL    HW139275   4.702   2.394  14.572 -0.9104 -0.0239 -0.2009
 9271SOL    HW239276   4.719   2.536  14.540 -0.5784 -0.9842  1.5332
 9272SOL     OW39277   1.939   3.783   4.593 -0.2634  0.4884  0.6190
 9272SOL    HW139278   1.984   3.703   4.620 -0.0472 -0.2016 -1.7776
 9272SOL    HW239279   2.000   3.798   4.521  0.8856  1.8319  1.8910
 9273SOL     OW39280   0.497   1.131   0.632  0.6240  0.1522 -0.2592
 9273SOL    HW139281   0.457   1.148   0.717 -1.0488 -0.2659 -0.9475
 9273SOL    HW239282   0.415   1.117   0.583 -0.4209  2.7722  0.7417
 9274SOL     OW39283   1.370   3.796   9.190  0.6683 -0.0015 -0.5917
 9274SOL    HW139284   1.396   3.888   9.184  0.4388  0.0559 -0.7044
 9274SOL    HW239285   1.394   3.774   9.281 -0.5332 -0.7480 -0.4568
 9275SOL     OW39286   0.560   4.141   6.636 -0.5985  0.8607 -0.8898
 9275SOL    HW139287   0.606   4.217   6.601  0.3583  0.3892 -0.6398
 9275SOL    HW239288   0.636   4.084   6.623 -0.8197  0.0629  1.3163
 9276SOL     OW39289   2.568   4.038   3.826  0.2093 -0.1586  0.2262
 9276SOL    HW139290   2.487   4.006   3.785  0.1722 -0.4827  0.5632
 9276SOL    HW239291   2.538   4.129   3.833 -0.8482 -0.5175  0.4993
 9277SOL     OW39292   0.418   0.870   3.804 -0.3809 -0.0026 -0.2784
 9277SOL    HW139293   0.481   0.942   3.799 -0.6226  0.4002  2.2772
 9277SOL    HW239294   0.350   0.904   3.746  0.1401 -1.0088 -1.4935
 9278SOL     OW39295   0.472   0.179   8.120 -0.0676 -0.6108 -0.4600
 9278SOL    HW139296   0.469   0.215   8.031  0.9252  1.4139  0.3286
 9278SOL    HW239297   0.450   0.090   8.095  0.9860 -0.5785 -1.5162
 9279SOL     OW39298   4.279   4.520   6.230  0.2097 -0.5642 -0.2303
 9279SOL    HW139299   4.339   4.527   6.156 -1.4293  0.7077 -1.4362
 9279SOL    HW239300   4.245   4.609   6.241  0.7602 -0.5900  1.6465
 9280SOL     OW39301   1.340   0.896   2.527 -0.1089 -0.1096 -0.2588
 9280SOL    HW139302   1.342   0.987   2.496 -2.4269 -0.4105 -1.3423
 9280SOL    HW239303   1.348   0.842   2.449  0.3622  0.7578 -0.8144
 9281SOL     OW39304   1.802   1.646   5.120 -0.7263 -0.4649  0.3408
 9281SOL    HW139305   1.708   1.654   5.105 -0.5886 -0.6829 -0.6297
 9281SOL    HW239306   1.823   1.631   5.028 -0.3778 -0.6687  0.4497
 9282SOL     OW39307   0.216   2.350   4.307  0.0115 -0.2812  0.1719
 9282SOL    HW139308   0.169   2.350   4.390 -1.4241  2.5818 -0.6852
 9282SOL    HW239309   0.311   2.342   4.317  0.3230  1.4019 -1.4226
 9283SOL     OW39310   2.900   2.094  17.101  0.1825  0.1488 -0.3822
 9283SOL    HW139311   2.989   2.058  17.092  0.3569  0.8220 -1.4180
 9283SOL    HW239312   2.861   2.060  17.020 -2.0194  1.6277  0.0569
 9284SOL     OW39313   3.744   1.190  11.804 -0.2913 -0.5902  0.6705
 9284SOL    HW139314   3.714   1.104  11.773  0.0326 -0.5528  0.2524
 9284SOL    HW239315   3.682   1.246  11.758 -0.9086 -2.0871 -0.3388
 9285SOL     OW39316   4.437   0.909   3.696 -0.4799  0.4971 -0.1989
 9285SOL    HW139317   4.512   0.865   3.657 -1.2762  1.4529 -2.8036
 9285SOL    HW239318   4.382   0.831   3.699  2.0130 -1.1911  1.6809
 9286SOL     OW39319   1.842   0.927  14.180 -0.1545 -0.9359  0.5535
 9286SOL    HW139320   1.906   0.996  14.197  0.1889 -1.4945  1.5327
 9286SOL    HW239321   1.869   0.857  14.239 -0.2780 -0.8388  0.7226
 9287SOL     OW39322   2.451   2.904   2.100  0.2111 -0.1338  0.1595
 9287SOL    HW139323   2.488   2.829   2.146  0.4819 -0.8439 -1.1882
 9287SOL    HW239324   2.480   2.983   2.145 -3.1092  1.3147 -0.2517
 9288SOL     OW39325   3.152   2.862  10.817  0.1361 -0.0507 -0.0255
 9288SOL    HW139326   3.084   2.796  10.830  0.6481 -0.7227 -0.7478
 9288SOL    HW239327   3.223   2.800  10.798  1.4009  1.2458  0.4237
 9289SOL     OW39328   1.973   3.280  13.766  0.7287 -0.0312  0.0696
 9289SOL    HW139329   1.930   3.365  13.775 -0.4562 -0.4732 -1.3238
 9289SOL    HW239330   1.966   3.264  13.672  3.1519  1.8953 -0.4347
 9290SOL     OW39331   1.861   0.108  14.465  0.6344 -0.1248 -0.4141
 9290SOL    HW139332   1.766   0.096  14.457  0.3940  1.3816  0.1134
 9290SOL    HW239333   1.894   0.079  14.380  2.8955  1.3049 -0.0060
 9291SOL     OW39334   1.200   2.867   3.045  0.2217  0.2062  1.0221
 9291SOL    HW139335   1.282   2.846   3.001 -0.7906 -0.7549 -0.4378
 9291SOL    HW239336   1.149   2.800   3.000 -1.5880  0.8509  2.1208
 9292SOL     OW39337   4.636   4.274   3.345 -0.0868  0.0484 -0.2587
 9292SOL    HW139338   4.646   4.187   3.306  2.5300  0.4852 -0.5514
 9292SOL    HW239339   4.624   4.233   3.431 -5.0910  1.8962 -0.0832
 9293SOL     OW39340   2.052   0.545   5.068  0.3539 -0.3804 -0.0340
 9293SOL    HW139341   2.020   0.635   5.063  1.2170 -0.2620 -3.2534
 9293SOL    HW239342   2.037   0.532   5.162 -2.6740  1.9011 -0.2119
 9294SOL     OW39343   3.078   3.266   5.753  0.4815 -0.0614  0.1254
 9294SOL    HW139344   3.021   3.215   5.695  0.3676 -1.1211  1.1635
 9294SOL    HW239345   3.085   3.354   5.715  0.2853  0.3230  0.9863
 9295SOL     OW39346   0.166   2.501   4.935  0.4571 -0.1910  0.2451
 9295SOL    HW139347   0.197   2.585   4.900 -0.1949  0.4095  1.1212
 9295SOL    HW239348   0.222   2.484   5.011 -2.1161 -0.9160  1.9760
 9296SOL     OW39349   1.094   1.917  13.110  0.0080 -0.0049  0.1974
 9296SOL    HW139350   1.046   1.901  13.029 -0.8526  1.9829  0.3198
 9296SOL    HW239351   1.025   1.967  13.154 -2.5995 -1.5323 -2.1809
 9297SOL     OW39352   3.798   0.682   8.406 -0.4327  0.5211  0.2153
 9297SOL    HW139353   3.848   0.601   8.405 -0.1501  0.7123 -0.9973
 9297SOL    HW239354   3.868   0.747   8.402 -1.2875  1.5401  1.7667
 9298SOL     OW39355   3.814   1.753   6.842  0.0197 -1.0359 -0.0215
 9298SOL    HW139356   3.762   1.766   6.763  0.0135 -0.2885  0.1070
 9298SOL    HW239357   3.740   1.742   6.901 -1.6587  0.2435 -1.9149
 9299SOL     OW39358   4.109   4.601   8.040 -0.0284  0.1840  0.3708
 9299SOL    HW139359   4.072   4.588   8.127 -0.6149  1.7236  0.3591
 9299SOL    HW239360   4.146   4.515   8.023 -0.6701 -0.2764  1.3236
 9300SOL     OW39361   4.023   4.110   3.638 -0.4810 -0.3649 -0.0509
 9300SOL    HW139362   3.942   4.157   3.657  0.7135  0.9697  1.7276
 9300SOL    HW239363   4.051   4.080   3.725 -0.3358 -0.1738 -0.0317
 9301SOL     OW39364   0.036   4.664   4.046 -0.0143 -0.1065 -0.6148
 9301SOL    HW139365   0.059   4.626   3.961  2.2044  0.1903 -0.1473
 9301SOL    HW239366   0.046   0.033   4.026 -1.5182  0.2705  0.4159
 9302SOL     OW39367   2.550   0.859  16.024  0.5941  0.6019 -0.2231
 9302SOL    HW139368   2.455   0.846  16.022  0.7568 -0.3931 -1.9737
 9302SOL    HW239369   2.571   0.867  16.117 -0.4580 -1.5411  0.1784
 9303SOL     OW39370   0.006   0.747   3.559 -0.1069  0.3345 -0.1631
 9303SOL    HW139371   4.719   0.778   3.469  2.5423  0.8852 -0.2966
 9303SOL    HW239372   4.673   0.671   3.552 -2.1590  1.7572  0.8632
 9304SOL     OW39373   0.038   1.571   9.811 -0.0752  0.5030  0.0509
 9304SOL    HW139374   0.130   1.577   9.838 -0.3557 -0.2506  1.2041
 9304SOL    HW239375   0.024   1.486   9.855 -1.0188 -0.1757 -1.5672
 9305SOL     OW39376   1.205   4.070   0.064 -0.2016 -0.1752 -0.1436
 9305SOL    HW139377   1.201   4.150   0.118 -1.4673  0.2113 -0.8156
 9305SOL    HW239378   1.207   4.108  17.674 -1.7194  1.2976  0.4535
 9306SOL     OW39379   1.679   4.642   3.920 -0.6724  0.0972 -0.6229
 9306SOL    HW139380   1.698   4.617   3.829  0.0543 -0.5539 -0.2872
 9306SOL    HW239381   1.597   4.690   3.906 -0.5772  0.1468 -1.0247
 9307SOL     OW39382   1.101   0.623  10.598  0.7085 -0.3954 -0.0115
 9307SOL    HW139383   1.095   0.703  10.546  1.7957  0.4487  1.1717
 9307SOL    HW239384   1.170   0.579  10.549  0.3786 -0.4828 -0.3980
 9308SOL     OW39385   1.776   2.491   7.477  0.0260  0.4000  0.1131
 9308SOL    HW139386   1.850   2.436   7.450 -0.8512  0.0844 -1.6472
 9308SOL    HW239387   1.707   2.425   7.475  2.7439 -2.5151  3.5046
 9309SOL     OW39388   2.193   0.137   7.818  0.4685  0.5344  0.0977
 9309SOL    HW139389   2.120   0.173   7.769 -0.3917 -3.2419 -1.3482
 9309SOL    HW239390   2.220   0.069   7.757 -1.2181  1.2014 -1.4030
 9310SOL     OW39391   1.956   0.966  14.962  0.1588 -0.2228  0.3123
 9310SOL    HW139392   2.022   0.904  14.930  1.7178  0.5393  2.0222
 9310SOL    HW239393   1.878   0.913  14.969  1.6108 -2.3282  0.5385
 9311SOL     OW39394   1.958   4.019   1.944 -0.2680 -0.8585  0.1887
 9311SOL    HW139395   2.039   4.031   1.994  0.2237  1.2136 -1.0698
 9311SOL    HW239396   1.986   4.068   1.866  1.4328 -1.6338  0.3080
 9312SOL     OW39397   1.364   2.811  15.966 -0.2257  0.0553  0.1217
 9312SOL    HW139398   1.395   2.740  15.911 -2.1757 -0.3998 -0.3962
 9312SOL    HW239399   1.395   2.884  15.911  3.1161 -1.0076  0.5817
 9313SOL     OW39400   1.256   3.522   8.648  0.0235  0.6218 -0.1449
 9313SOL    HW139401   1.189   3.520   8.579 -0.5806 -1.6725  0.4969
 9313SOL    HW239402   1.338   3.544   8.604  0.0792  1.0376  0.1767
 9314SOL     OW39403   2.661   1.081  12.570  0.4837 -0.5846 -0.5239
 9314SOL    HW139404   2.670   1.155  12.510 -0.8855 -0.1501 -0.1814
 9314SOL    HW239405   2.571   1.094  12.598 -0.0859 -0.4237 -2.4417
 9315SOL     OW39406   4.150   3.804   4.492  0.3405  0.1413  0.1329
 9315SOL    HW139407   4.092   3.751   4.547 -1.0838  1.5301 -0.0260
 9315SOL    HW239408   4.213   3.826   4.560 -0.6268  0.7841  0.8201
 9316SOL     OW39409   2.501   1.408   1.948  0.1205 -0.4523  0.1218
 9316SOL    HW139410   2.524   1.476   1.885 -0.2688 -0.5833 -0.1622
 9316SOL    HW239411   2.575   1.398   2.009 -0.8231 -2.1441  0.9767
 9317SOL     OW39412   0.178   1.694   7.316 -0.1933  0.3983  0.4627
 9317SOL    HW139413   0.228   1.623   7.356 -0.6725 -0.3163 -0.1927
 9317SOL    HW239414   0.188   1.684   7.221  0.4086 -1.0833  0.6727
 9318SOL     OW39415   3.706   0.495  16.079  0.3200 -0.4065 -0.7191
 9318SOL    HW139416   3.656   0.421  16.044 -0.4993 -0.2041  0.0232
 9318SOL    HW239417   3.662   0.511  16.162  0.1822  0.4836 -0.9712
 9319SOL     OW39418   0.176   3.861   5.564  0.2111  0.0605  0.1597
 9319SOL    HW139419   0.202   3.789   5.507 -0.3128  0.5218 -0.6482
 9319SOL    HW239420   0.119   3.808   5.620 -1.7212 -0.4792 -2.3131
 9320SOL     OW39421   1.540   4.337   4.330 -0.1201  0.0234  0.1619
 9320SOL    HW139422   1.448   4.309   4.327  0.1009 -0.8994  2.0851
 9320SOL    HW239423   1.513   4.428   4.342 -0.3039 -0.0973  0.6677
 9321SOL     OW39424   4.247   4.368  12.875  0.3486  0.2228 -0.0780
 9321SOL    HW139425   4.289   4.326  12.950 -1.0273 -0.0087  0.5594
 9321SOL    HW239426   4.314   4.349  12.809  1.2850 -0.6149  1.1280
 9322SOL     OW39427   0.066   1.241   8.354 -0.5581 -0.4894  0.0125
 9322SOL    HW139428   0.051   1.146   8.358  0.0370 -0.5714  0.3188
 9322SOL    HW239429   0.101   1.269   8.438 -0.2472 -1.8102  0.3213
 9323SOL     OW39430   1.345   2.960  12.395 -0.1330  0.4580  0.4697
 9323SOL    HW139431   1.371   3.050  12.416  0.6106  0.5470 -0.8201
 9323SOL    HW239432   1.252   2.947  12.414 -0.4668  1.5156 -0.4344
 9324SOL     OW39433   0.174   0.539   2.641 -0.8425 -0.0032 -0.0265
 9324SOL    HW139434   0.221   0.621   2.628 -2.0562  0.4358 -1.6274
 9324SOL    HW239435   0.100   0.565   2.696  0.5202  0.0107  1.7894
 9325SOL     OW39436   2.231   2.809   6.117 -0.1777  0.3196 -0.0752
 9325SOL    HW139437   2.293   2.778   6.183  0.1742 -1.1821 -1.1191
 9325SOL    HW239438   2.274   2.774   6.039 -0.6235  0.6513 -0.4681
 9326SOL     OW39439   4.277   0.480   6.296 -0.0482 -0.4041  0.2104
 9326SOL    HW139440   4.194   0.503   6.338 -0.0612 -0.4077  0.1870
 9326SOL    HW239441   4.257   0.509   6.207 -2.0738  1.1541  1.1686
 9327SOL     OW39442   3.365   4.032   4.632  0.0055 -0.2566  0.0946
 9327SOL    HW139443   3.429   3.961   4.643  2.1864  2.0869  2.3681
 9327SOL    HW239444   3.387   4.073   4.716 -1.9764 -2.1869  1.5674
 9328SOL     OW39445   4.118   4.634  14.927  0.4304 -0.0505 -0.1503
 9328SOL    HW139446   4.149   4.592  14.847 -2.8539  0.6034 -1.7538
 9328SOL    HW239447   4.112   0.002  14.901 -0.4983  0.3066  1.3158
 9329SOL     OW39448   2.439   2.632  11.881 -0.3734  0.0128  0.1264
 9329SOL    HW139449   2.371   2.667  11.939  1.7993  0.0593  2.6574
 9329SOL    HW239450   2.482   2.561  11.928 -0.8235 -2.3096 -2.9971
 9330SOL     OW39451   4.174   2.789   2.769 -0.2059 -0.2007  0.7574
 9330SOL    HW139452   4.131   2.704   2.781 -1.4690  0.3513  0.1854
 9330SOL    HW239453   4.217   2.790   2.854  0.0635  1.7982  0.5796
 9331SOL     OW39454   0.988   1.169   9.104 -0.2134  0.0285 -0.1505
 9331SOL    HW139455   0.962   1.090   9.057 -0.4249 -1.1819  2.0096
 9331SOL    HW239456   0.917   1.184   9.166 -1.5826  1.6361 -2.0817
 9332SOL     OW39457   4.603   3.893   1.735 -0.4690 -0.3454  0.3140
 9332SOL    HW139458   4.582   3.826   1.669  0.9924  0.0104 -0.5165
 9332SOL    HW239459   4.592   3.848   1.819  0.2700 -0.2709  0.4561
 9333SOL     OW39460   4.265   4.235   4.022 -0.4251  0.1510 -0.5913
 9333SOL    HW139461   4.321   4.158   4.011  0.4034  0.3432  2.0756
 9333SOL    HW239462   4.205   4.213   4.093 -0.3922  1.7240 -0.0762
 9334SOL     OW39463   2.125   4.018   0.550 -0.0668  0.1909 -0.3705
 9334SOL    HW139464   2.115   4.104   0.508  0.1071  0.8247  0.8897
 9334SOL    HW239465   2.034   4.019   0.579 -0.1502  2.2819 -0.6994
 9335SOL     OW39466   4.346   3.716   2.751 -0.1193  0.0844 -0.1268
 9335SOL    HW139467   4.367   3.804   2.785 -0.2762 -0.2921  0.9454
 9335SOL    HW239468   4.429   3.697   2.709 -1.0443  2.0959 -2.8222
 9336SOL     OW39469   4.262   1.248   8.645 -0.3429 -0.0205  0.2581
 9336SOL    HW139470   4.167   1.241   8.649 -0.5348  2.2155 -0.6268
 9336SOL    HW239471   4.290   1.191   8.717  2.4131 -0.4586 -1.1517
 9337SOL     OW39472   2.945   4.162   2.069 -0.5076 -0.0454 -0.5697
 9337SOL    HW139473   2.859   4.202   2.077  0.3858  1.4568  1.6651
 9337SOL    HW239474   2.991   4.245   2.065 -1.5857  0.5415 -0.7452
 9338SOL     OW39475   3.448   3.639  12.617 -0.0599  0.4919  0.3244
 9338SOL    HW139476   3.530   3.626  12.569  0.2308 -1.0518  1.2178
 9338SOL    HW239477   3.480   3.633  12.707  0.8448  0.7035  0.0136
 9339SOL     OW39478   0.237   0.805   5.161 -0.8382  0.2287  0.5780
 9339SOL    HW139479   0.188   0.740   5.211  2.1331 -1.3777  1.4416
 9339SOL    HW239480   0.271   0.866   5.226 -1.6377 -0.9157  2.0563
 9340SOL     OW39481   4.165   3.779   5.028  0.6359 -0.4401  0.0156
 9340SOL    HW139482   4.207   3.720   4.965  1.3291  0.8440 -0.7154
 9340SOL    HW239483   4.079   3.737   5.039 -0.0493  0.7930 -0.6453
 9341SOL     OW39484   1.091   4.684   4.538 -0.3511 -1.2460 -0.8294
 9341SOL    HW139485   1.146   4.627   4.591 -0.8434  0.2833  1.3483
 9341SOL    HW239486   1.030   4.721   4.602  0.6345 -1.9418  0.4923
 9342SOL     OW39487   4.468   3.348  11.281  0.3674 -0.5874 -0.2094
 9342SOL    HW139488   4.397   3.375  11.223 -0.7120  0.5715  1.6397
 9342SOL    HW239489   4.482   3.424  11.337 -1.3113 -0.4908  0.0636
 9343SOL     OW39490   3.597   2.742   0.091 -0.1332  0.4836  0.2471
 9343SOL    HW139491   3.681   2.731   0.046 -1.2573  0.8182 -1.9281
 9343SOL    HW239492   3.535   2.729   0.019  0.3251  1.8898 -0.3976
 9344SOL     OW39493   0.016   2.662   3.058 -0.0831 -0.6420  0.1194
 9344SOL    HW139494   4.645   2.666   3.044 -0.2110  0.0577  1.1877
 9344SOL    HW239495   0.044   2.753   3.044  0.9378 -1.0310 -0.3771
 9345SOL     OW39496   3.677   1.916  13.562 -0.3943 -0.3127 -0.5101
 9345SOL    HW139497   3.626   1.971  13.621 -2.0918 -0.8564 -1.4615
 9345SOL    HW239498   3.610   1.859  13.524  1.6271 -2.7538 -0.4304
 9346SOL     OW39499   3.867   1.165   8.826 -0.0822 -0.3756 -0.1522
 9346SOL    HW139500   3.905   1.216   8.898  1.0763  0.0074 -1.0409
 9346SOL    HW239501   3.908   1.084   8.857 -1.4858 -0.8643  0.3987
 9347SOL     OW39502   2.944   1.487   3.313  0.2048  0.0405  0.3394
 9347SOL    HW139503   2.857   1.509   3.278  0.9106 -0.4355 -1.7228
 9347SOL    HW239504   2.968   1.420   3.250 -0.5791 -0.9845  1.1476
 9348SOL     OW39505   1.507   4.292   4.783 -0.9740 -0.2648  0.5446
 9348SOL    HW139506   1.546   4.317   4.699 -1.9110 -0.1906  0.1414
 9348SOL    HW239507   1.581   4.307   4.842 -2.0934 -0.9755  2.1094
 9349SOL     OW39508   2.443   3.607   4.232 -0.1467  0.0402  0.0838
 9349SOL    HW139509   2.423   3.686   4.183 -3.7675 -0.9760 -0.0872
 9349SOL    HW239510   2.384   3.635   4.302 -0.7855  0.2665 -0.5561
 9350SOL     OW39511   0.280   3.611   3.397  0.4436  0.2199  0.2078
 9350SOL    HW139512   0.342   3.541   3.416  2.3837  1.8356 -0.0494
 9350SOL    HW239513   0.216   3.586   3.463 -1.2006  0.1014 -1.4189
 9351SOL     OW39514   4.180   2.901   5.141  0.1648 -0.4251 -0.5700
 9351SOL    HW139515   4.204   2.987   5.107  0.4967 -1.0895 -2.0148
 9351SOL    HW239516   4.107   2.889   5.081 -0.0017 -2.1167 -0.0433
 9352SOL     OW39517   1.635   4.064  12.131 -0.0346 -0.3870  0.5911
 9352SOL    HW139518   1.704   4.065  12.197 -0.8556 -0.5778  1.4446
 9352SOL    HW239519   1.561   4.032  12.182 -1.0930  0.0528 -0.6681
 9353SOL     OW39520   1.069   3.657   2.013 -0.3000 -0.0687  0.2422
 9353SOL    HW139521   1.002   3.706   2.061  0.8406  0.5891  1.1868
 9353SOL    HW239522   1.022   3.610   1.944 -0.5353  0.0129  0.3465
 9354SOL     OW39523   1.050   1.466   5.004 -0.3886 -0.0354 -0.5064
 9354SOL    HW139524   1.127   1.447   4.951  0.5204 -2.0007  1.5096
 9354SOL    HW239525   1.063   1.560   5.014  0.7933 -0.1298 -1.2019
 9355SOL     OW39526   2.595   2.927  17.430  0.0289  0.0435 -0.2909
 9355SOL    HW139527   2.558   2.955  17.514  0.1117 -0.9436  0.0704
 9355SOL    HW239528   2.556   2.991  17.369 -0.4107  0.5942  0.5657
 9356SOL     OW39529   0.104   1.650   3.090  0.2659  0.0318 -0.1327
 9356SOL    HW139530   0.087   1.741   3.064  1.5124  0.6449  1.2172
 9356SOL    HW239531   0.199   1.648   3.082  0.2572 -0.9425  0.0226
 9357SOL     OW39532   4.453   1.141   3.840  0.7701  0.2790 -0.2427
 9357SOL    HW139533   4.436   1.056   3.800 -1.2438  1.0660 -1.0170
 9357SOL    HW239534   4.416   1.110   3.923 -1.7428  2.6848 -0.4881
 9358SOL     OW39535   2.923   4.495   6.918  0.3820 -0.3123  0.5767
 9358SOL    HW139536   2.941   4.579   6.877 -0.7487  0.0739  0.8618
 9358SOL    HW239537   2.973   4.500   6.999 -1.3370 -0.0114  1.6261
 9359SOL     OW39538   2.521   2.626   8.044  0.2287  0.4618  0.0132
 9359SOL    HW139539   2.568   2.573   8.108  0.1778  1.1178  0.5863
 9359SOL    HW239540   2.523   2.553   7.983 -0.4387  0.4519  0.0096
 9360SOL     OW39541   1.773   0.440   5.824 -0.3894  0.2062 -0.4924
 9360SOL    HW139542   1.733   0.361   5.788  0.4629 -0.8142  0.8686
 9360SOL    HW239543   1.775   0.419   5.917  0.3149  1.2020 -0.2896
 9361SOL     OW39544   3.071   2.833   5.202  0.0423 -0.0394  0.1173
 9361SOL    HW139545   3.150   2.780   5.202 -0.2274 -0.4388 -0.7508
 9361SOL    HW239546   3.099   2.906   5.258 -1.1982  1.3185 -1.0238
 9362SOL     OW39547   4.103   4.035   6.329 -0.0367  0.1634 -0.0223
 9362SOL    HW139548   4.021   4.058   6.373 -0.4573 -1.7145  0.1788
 9362SOL    HW239549   4.120   4.116   6.281 -0.5546 -0.2881 -0.9787
 9363SOL     OW39550   1.465   3.554   2.898  0.2756  0.3993 -0.2454
 9363SOL    HW139551   1.490   3.633   2.945 -0.2709 -1.3734  3.0007
 9363SOL    HW239552   1.375   3.541   2.926 -0.5501  0.6920 -2.7191
 9364SOL     OW39553   1.511   1.984   0.721 -0.3321 -0.1288  0.4453
 9364SOL    HW139554   1.431   2.012   0.767 -1.8725 -3.5027 -0.2191
 9364SOL    HW239555   1.515   2.059   0.662 -2.0056 -0.2251  0.2073
 9365SOL     OW39556   4.038   0.253   4.777  0.7652  0.2692  0.0560
 9365SOL    HW139557   4.102   0.283   4.842 -0.1227  2.0351  0.1155
 9365SOL    HW239558   3.955   0.268   4.823  0.0877  2.8569 -2.0506
 9366SOL     OW39559   1.089   3.773   3.049  0.6990 -0.1227  0.2028
 9366SOL    HW139560   1.166   3.786   3.103 -0.2077  3.0583  0.7141
 9366SOL    HW239561   1.114   3.713   2.978 -0.6456 -0.7462  0.2464
 9367SOL     OW39562   4.219   4.423   3.846 -0.0660 -0.3908  0.2028
 9367SOL    HW139563   4.300   4.402   3.799 -0.1211 -0.7155  0.2533
 9367SOL    HW239564   4.226   4.350   3.908 -1.2654 -0.8264 -0.1711
 9368SOL     OW39565   2.533   1.265   8.726 -0.0422  0.6474  0.4223
 9368SOL    HW139566   2.586   1.211   8.784  0.8876  1.0262 -0.0643
 9368SOL    HW239567   2.572   1.351   8.743  2.1560 -0.0490 -1.0572
 9369SOL     OW39568   1.938   1.256  15.037 -0.5515  0.6042 -0.3746
 9369SOL    HW139569   1.847   1.273  15.063 -0.9172 -0.1917 -1.1573
 9369SOL    HW239570   1.935   1.162  15.019 -1.7328  0.9559 -2.0030
 9370SOL     OW39571   1.193   4.031   7.289  0.3356  0.0086  0.2567
 9370SOL    HW139572   1.212   4.020   7.383  0.0255  0.6411  0.3938
 9370SOL    HW239573   1.252   3.968   7.247 -0.9291 -1.9550  1.4097
 9371SOL     OW39574   3.832   2.734   6.290  0.3438 -0.3099 -0.1200
 9371SOL    HW139575   3.902   2.672   6.268 -0.8014 -1.3399 -0.8460
 9371SOL    HW239576   3.789   2.734   6.205 -0.6684  0.7670  0.4064
 9372SOL     OW39577   4.469   1.358   6.003 -0.4205  0.3342  0.1434
 9372SOL    HW139578   4.397   1.420   6.015  0.6082  1.0688  2.6705
 9372SOL    HW239579   4.459   1.342   5.909 -0.6436  0.7460  0.0952
 9373SOL     OW39580   1.816   4.148  17.386 -0.0675 -0.1169 -0.3415
 9373SOL    HW139581   1.740   4.190  17.347 -0.3050  1.3355  1.6591
 9373SOL    HW239582   1.795   4.134  17.478 -3.5218 -0.5066 -1.2184
 9374SOL     OW39583   0.540   3.655   9.643 -0.1265 -0.4565 -0.4533
 9374SOL    HW139584   0.622   3.699   9.666 -0.7407  1.1368 -1.3056
 9374SOL    HW239585   0.572   3.574   9.605  0.5267 -0.2173 -0.4004
 9375SOL     OW39586   0.578   0.299   2.141  0.2812 -0.3522 -0.2740
 9375SOL    HW139587   0.582   0.358   2.216 -1.4264 -0.8946  0.2616
 9375SOL    HW239588   0.501   0.250   2.172  0.6518 -0.9179 -0.2534
 9376SOL     OW39589   4.095   1.006  14.468  0.1023 -0.2434  0.0389
 9376SOL    HW139590   4.038   0.948  14.417  1.2519  0.4607 -2.0281
 9376SOL    HW239591   4.140   1.049  14.396 -0.8077 -1.4837 -1.2616
 9377SOL     OW39592   1.050   3.661   3.368  0.5589 -0.3556 -0.0515
 9377SOL    HW139593   0.970   3.617   3.396 -0.5216  0.4750 -1.8543
 9377SOL    HW239594   1.043   3.751   3.401 -1.1841  0.1885 -1.9185
 9378SOL     OW39595   1.833   0.037   6.799  0.1785  0.2891 -0.3045
 9378SOL    HW139596   1.745   0.004   6.778  0.4037 -0.5447  0.0952
 9378SOL    HW239597   1.818   0.070   6.887 -0.4801  0.2821 -0.4112
 9379SOL     OW39598   4.317   4.083   1.432  0.8834  0.0543 -0.3061
 9379SOL    HW139599   4.324   4.175   1.458 -1.1739 -0.1041  0.8030
 9379SOL    HW239600   4.276   4.090   1.346 -1.2044 -0.9774  0.5915
 9380SOL     OW39601   1.322   2.729  14.555 -0.6277  0.8749  0.0148
 9380SOL    HW139602   1.410   2.705  14.526 -0.8220  1.6874 -1.2129
 9380SOL    HW239603   1.330   2.719  14.650  0.9750 -1.9437 -0.4320
 9381SOL     OW39604   0.018   4.126   1.577  0.0288 -0.0793 -1.1810
 9381SOL    HW139605   4.678   4.130   1.648  0.1068  2.0083 -1.2121
 9381SOL    HW239606   0.007   4.045   1.528  2.2200 -0.0016 -1.8222
 9382SOL     OW39607   3.028   3.857  13.917  0.0578  0.1171  0.1477
 9382SOL    HW139608   3.018   3.899  13.832  0.2910  1.3479  0.7144
 9382SOL    HW239609   2.953   3.890  13.968 -0.2785 -0.2061 -0.1412
 9383SOL     OW39610   3.392   0.625   6.001  0.1028 -0.3236  0.2060
 9383SOL    HW139611   3.381   0.542   6.048 -2.1990  0.2830  0.7184
 9383SOL    HW239612   3.485   0.649   6.008 -0.3589  1.8509 -1.3230
 9384SOL     OW39613   0.465   1.081  10.719 -0.7156  0.2775 -0.0285
 9384SOL    HW139614   0.503   1.023  10.785  1.0247  0.2604 -1.0397
 9384SOL    HW239615   0.544   1.100  10.667 -2.1172 -0.4876 -2.4469
 9385SOL     OW39616   1.171   1.664   2.918 -0.4176  1.0236  0.1112
 9385SOL    HW139617   1.150   1.684   3.009  0.3051 -0.2350  0.5644
 9385SOL    HW239618   1.102   1.599   2.902  0.2510  0.7671 -1.7387
 9386SOL     OW39619   4.143   1.249   5.055 -0.4096 -0.2393  0.2275
 9386SOL    HW139620   4.074   1.233   4.990 -0.2478  1.0164 -0.2581
 9386SOL    HW239621   4.105   1.189   5.119  0.2519 -0.1763  0.6770
 9387SOL     OW39622   1.016   0.363  12.080 -0.1786  0.1834  0.2617
 9387SOL    HW139623   0.980   0.366  11.991  0.0346  0.8672  0.2009
 9387SOL    HW239624   1.109   0.343  12.077 -0.1007  0.6916 -0.7059
 9388SOL     OW39625   0.713   0.566   6.272  0.2268 -0.3128  0.4364
 9388SOL    HW139626   0.703   0.502   6.202  1.6872 -0.3274  0.2556
 9388SOL    HW239627   0.738   0.513   6.348  0.3108 -0.3750  0.3646
 9389SOL     OW39628   0.964   3.291   8.595  0.2344 -0.7264 -0.0957
 9389SOL    HW139629   1.006   3.331   8.518 -0.0929  1.6217  0.9382
 9389SOL    HW239630   1.040   3.259   8.643 -0.6412  1.3670  2.7262
 9390SOL     OW39631   2.818   3.032  14.250 -0.1476 -0.5302 -0.2721
 9390SOL    HW139632   2.741   3.030  14.308 -0.1831  2.5082 -0.2020
 9390SOL    HW239633   2.811   3.121  14.216  1.0123 -0.7219 -0.9938
 9391SOL     OW39634   2.563   4.370   1.156  0.0449 -0.7824  0.0435
 9391SOL    HW139635   2.562   4.407   1.244  2.7868  0.9865 -0.6773
 9391SOL    HW239636   2.657   4.357   1.142  0.3128  0.5029  0.7109
 9392SOL     OW39637   1.625   3.456  15.773 -0.5410 -0.1813  0.1511
 9392SOL    HW139638   1.705   3.509  15.777 -0.2302 -0.7011  0.9857
 9392SOL    HW239639   1.570   3.501  15.710  0.9332  1.0354 -0.2668
 9393SOL     OW39640   1.137   3.760   6.458 -0.2276  0.7990 -0.3991
 9393SOL    HW139641   1.193   3.734   6.531 -0.6777 -1.4711 -0.8553
 9393SOL    HW239642   1.093   3.834   6.501  0.1061  1.1350 -0.6426
 9394SOL     OW39643   4.519   2.135   3.013  0.0841  0.3690  0.4986
 9394SOL    HW139644   4.495   2.057   3.063  2.1989 -1.7768 -1.7991
 9394SOL    HW239645   4.433   2.176   3.018  0.8340  2.3074 -2.6924
 9395SOL     OW39646   3.232   0.223  15.261 -0.0499  0.6642  0.0664
 9395SOL    HW139647   3.312   0.252  15.305 -0.2376 -1.2107  1.6574
 9395SOL    HW239648   3.251   0.129  15.264  1.3054  0.9470  0.0399
 9396SOL     OW39649   3.348   3.449   4.946 -0.1346 -0.7464 -0.0160
 9396SOL    HW139650   3.325   3.406   4.863 -0.0416  2.5301 -1.7559
 9396SOL    HW239651   3.396   3.379   4.992  1.3175 -0.1003 -0.5562
 9397SOL     OW39652   0.189   1.995   3.241 -0.4528  0.4155  0.3026
 9397SOL    HW139653   0.280   2.006   3.213 -0.4779 -1.8026 -0.5946
 9397SOL    HW239654   0.186   1.908   3.279 -1.6311  0.2410 -0.2025
 9398SOL     OW39655   4.291   3.779   0.200  0.3136 -0.4303 -0.2516
 9398SOL    HW139656   4.343   3.817   0.129 -0.5298  0.8089 -0.2073
 9398SOL    HW239657   4.207   3.763   0.157 -0.5161  1.5675  0.6171
 9399SOL     OW39658   3.308   2.539   8.445  0.1098  0.7686 -0.0850
 9399SOL    HW139659   3.327   2.461   8.393 -1.8338  0.2352  0.0214
 9399SOL    HW239660   3.316   2.515   8.537  2.1109  1.6178 -0.0388
 9400SOL     OW39661   3.191   3.003   0.124  0.3921 -0.5371 -0.7614
 9400SOL    HW139662   3.268   2.970   0.171 -0.1413 -2.2114 -1.0566
 9400SOL    HW239663   3.228   3.070   0.067 -0.5156  1.1814  0.6622
 9401SOL     OW39664   0.010   4.248  11.929 -0.5221  0.0912 -0.7601
 9401SOL    HW139665   4.673   4.176  11.940 -0.3248  0.1873  1.0720
 9401SOL    HW239666   4.694   4.318  11.878  0.1182 -0.9178 -2.6517
 9402SOL     OW39667   3.035   2.944  11.958 -0.3647 -0.4653  0.5518
 9402SOL    HW139668   3.098   2.928  11.887 -2.5922 -2.6926 -0.9233
 9402SOL    HW239669   2.962   2.891  11.927 -1.0402  0.9599 -0.2798
 9403SOL     OW39670   1.700   3.219   4.522  0.3944 -0.2301  0.4034
 9403SOL    HW139671   1.648   3.186   4.449  0.8646  1.0455 -0.5101
 9403SOL    HW239672   1.763   3.148   4.534  0.9550  0.6168  2.5798
 9404SOL     OW39673   0.387   2.046  11.094 -0.3407 -0.5090  0.1641
 9404SOL    HW139674   0.436   2.012  11.019 -0.8745 -2.8709  0.8928
 9404SOL    HW239675   0.413   1.978  11.156 -1.3356 -0.7458  0.3123
 9405SOL     OW39676   0.683   0.396   8.769  0.0654  0.5164  0.3078
 9405SOL    HW139677   0.732   0.473   8.797  2.1736  0.0213 -2.0727
 9405SOL    HW239678   0.644   0.355   8.846 -0.5738 -0.2719 -0.4408
 9406SOL     OW39679   4.473   1.871   7.130 -0.3143  0.0110  0.1429
 9406SOL    HW139680   4.494   1.784   7.096  3.4334  2.1446 -2.9930
 9406SOL    HW239681   4.390   1.854   7.175 -0.0435  1.2355  1.0831
 9407SOL     OW39682   1.808   2.440   7.000 -0.0547  0.6944 -0.0651
 9407SOL    HW139683   1.872   2.462   6.932 -0.2647  2.5768  0.3362
 9407SOL    HW239684   1.754   2.374   6.958  2.6254  0.4244 -3.0700
 9408SOL     OW39685   3.940   3.722  16.040 -0.1341 -0.0977  0.0864
 9408SOL    HW139686   3.988   3.640  16.056 -2.5199 -1.5284 -0.0575
 9408SOL    HW239687   3.946   3.734  15.945 -0.4443 -2.1545 -0.1987
 9409SOL     OW39688   3.349   3.792   7.165 -0.1262  0.5006  0.0689
 9409SOL    HW139689   3.266   3.762   7.201 -0.7623 -1.1012 -2.7088
 9409SOL    HW239690   3.326   3.885   7.157 -3.3437 -0.4731 -1.7931
 9410SOL     OW39691   2.557   1.422   7.661  0.6974 -0.9107  0.0599
 9410SOL    HW139692   2.533   1.509   7.693 -1.0375 -0.9392 -1.1681
 9410SOL    HW239693   2.473   1.405   7.618  0.2284  2.3219 -0.2768
 9411SOL     OW39694   4.236   0.848   9.509 -0.2808 -0.9254  0.5407
 9411SOL    HW139695   4.285   0.900   9.573 -0.3496  0.8040 -0.8515
 9411SOL    HW239696   4.177   0.809   9.574 -1.3052  0.8825  0.6944
 9412SOL     OW39697   2.475   0.487   5.283 -0.3566  1.0836  0.0979
 9412SOL    HW139698   2.389   0.513   5.250 -0.5839  0.2192  0.0037
 9412SOL    HW239699   2.494   0.547   5.355  1.4552 -0.8025  1.2084
 9413SOL     OW39700   1.678   1.760   4.189  0.0361 -0.0176 -0.7134
 9413SOL    HW139701   1.637   1.721   4.112  0.6526 -0.0086 -1.0500
 9413SOL    HW239702   1.694   1.681   4.240  0.0868 -0.3667 -1.2665
 9414SOL     OW39703   3.034   1.351   6.721 -0.2796 -0.3479  0.2435
 9414SOL    HW139704   2.981   1.373   6.797 -1.3210 -0.0229 -0.5708
 9414SOL    HW239705   2.977   1.281   6.687 -1.1480  0.2902  0.4013
 9415SOL     OW39706   1.253   2.351   4.352 -0.5183  0.5371  0.0653
 9415SOL    HW139707   1.266   2.362   4.446  2.6540 -4.1547  0.1566
 9415SOL    HW239708   1.293   2.267   4.329 -1.6625  0.0498 -0.1177
 9416SOL     OW39709   4.222   0.336   2.097 -0.2852  0.0956 -0.1210
 9416SOL    HW139710   4.250   0.276   2.028 -0.1723  0.6702 -0.5715
 9416SOL    HW239711   4.157   0.389   2.051  1.0036  1.1920 -0.6796
 9417SOL     OW39712   3.296   4.231   5.091 -0.2319  1.0451  0.4328
 9417SOL    HW139713   3.218   4.263   5.138 -1.1656  0.4103 -0.6888
 9417SOL    HW239714   3.285   4.266   5.003 -0.9646 -0.4489 -0.0606
 9418SOL     OW39715   4.350   4.324   3.555  0.3791  0.3958  0.3076
 9418SOL    HW139716   4.411   4.283   3.493 -0.2505  0.1512 -0.1567
 9418SOL    HW239717   4.266   4.292   3.521  2.3133 -2.3126 -1.9125
 9419SOL     OW39718   4.484   0.492   2.504 -0.1699 -0.0701  0.0529
 9419SOL    HW139719   4.447   0.580   2.499 -0.3083 -0.1009  0.5481
 9419SOL    HW239720   4.458   0.467   2.415 -0.1861  0.9780 -0.2331
 9420SOL     OW39721   1.130   2.440  14.746  0.2412 -0.1891 -0.5866
 9420SOL    HW139722   1.154   2.479  14.830 -1.3249  0.9871 -0.6795
 9420SOL    HW239723   1.207   2.395  14.711 -0.0733 -1.8028  0.7919
 9421SOL     OW39724   0.308   0.259   1.021 -0.0681  0.3799 -0.3899
 9421SOL    HW139725   0.347   0.190   1.073 -0.4276  0.0841 -0.5142
 9421SOL    HW239726   0.376   0.327   1.026 -0.3586  0.6670 -0.3785
 9422SOL     OW39727   0.717   3.362   3.534  0.3004 -0.1372 -0.4231
 9422SOL    HW139728   0.657   3.313   3.591  0.6927 -0.3878 -0.2313
 9422SOL    HW239729   0.802   3.321   3.546 -0.3189 -0.9592  1.1643
 9423SOL     OW39730   4.244   3.267   3.582  0.2488  0.2513 -0.2027
 9423SOL    HW139731   4.205   3.181   3.600  0.1532 -0.5314 -4.1426
 9423SOL    HW239732   4.304   3.268   3.656  0.1749 -0.4387 -0.1309
 9424SOL     OW39733   3.691   3.673  11.473  0.0635 -0.1518  0.0688
 9424SOL    HW139734   3.742   3.651  11.551 -1.0025 -1.4979  0.3710
 9424SOL    HW239735   3.639   3.594  11.459 -1.5324  0.8745  0.2325
 9425SOL     OW39736   1.028   2.092  16.486 -0.4796 -0.1535  0.4724
 9425SOL    HW139737   1.076   2.019  16.526  0.5985 -0.1326 -0.7872
 9425SOL    HW239738   0.943   2.089  16.531  0.4727  0.9526  2.3349
 9426SOL     OW39739   4.378   2.619   6.677  0.2844 -0.3735 -0.2842
 9426SOL    HW139740   4.453   2.677   6.690 -0.2833  0.3236 -0.1036
 9426SOL    HW239741   4.411   2.532   6.700  2.2658  0.4344 -0.0991
 9427SOL     OW39742   4.521   2.559   5.561 -0.1916 -0.0459 -0.2170
 9427SOL    HW139743   4.459   2.632   5.566  0.7502  0.7463 -0.1197
 9427SOL    HW239744   4.496   2.520   5.477  0.7368 -1.5930  0.2273
 9428SOL     OW39745   3.805   0.297   7.337  0.3526 -0.4000 -0.0804
 9428SOL    HW139746   3.813   0.220   7.279 -0.1568 -0.9846  0.6276
 9428SOL    HW239747   3.861   0.361   7.293  0.9263 -1.0118 -0.2571
 9429SOL     OW39748   0.934   2.008   4.361  0.3158  0.2843 -0.1565
 9429SOL    HW139749   1.025   2.001   4.389  0.4686 -2.2709 -1.2654
 9429SOL    HW239750   0.953   1.995   4.268  0.9315  1.3658 -0.1946
 9430SOL     OW39751   1.677   1.686  10.892  0.8584 -0.1066 -0.2998
 9430SOL    HW139752   1.631   1.676  10.809 -1.5439  0.9690  0.8807
 9430SOL    HW239753   1.714   1.774  10.889  1.4577 -0.3631 -0.3886
 9431SOL     OW39754   0.514   3.435  12.194 -0.5866  0.3881  0.5073
 9431SOL    HW139755   0.491   3.432  12.101  1.0354 -0.6699  0.1408
 9431SOL    HW239756   0.577   3.363  12.189  0.2925  1.3117 -1.6630
 9432SOL     OW39757   0.259   2.629   8.348  0.5792 -0.0336  0.7563
 9432SOL    HW139758   0.288   2.584   8.427 -1.0430 -3.0970 -0.3622
 9432SOL    HW239759   0.194   2.563   8.320 -0.1623  0.4555  1.3263
 9433SOL     OW39760   2.509   2.026  17.522  0.0694  0.2030  1.0034
 9433SOL    HW139761   2.598   2.060  17.535 -0.3972  2.3062 -1.3774
 9433SOL    HW239762   2.467   2.112  17.526  0.0611  0.2168  0.6472
 9434SOL     OW39763   1.834   4.518   3.400 -0.5365 -0.8024 -0.3800
 9434SOL    HW139764   1.890   4.566   3.339 -0.7936  0.8121  0.6634
 9434SOL    HW239765   1.859   4.430   3.371  0.1916 -0.6228 -0.3049
 9435SOL     OW39766   4.412   2.498  14.389 -0.3173 -0.2307 -0.3109
 9435SOL    HW139767   4.497   2.500  14.431 -0.9998 -3.1065  1.1764
 9435SOL    HW239768   4.424   2.433  14.320  0.4216  0.0171 -0.4174
 9436SOL     OW39769   4.178   4.117   5.222 -0.3029  0.1977  0.3371
 9436SOL    HW139770   4.160   4.206   5.254  0.8390  0.9380 -1.1021
 9436SOL    HW239771   4.148   4.136   5.133 -0.7773 -2.0384  0.0114
 9437SOL     OW39772   1.375   2.746  12.234  0.4953  0.2706 -0.3913
 9437SOL    HW139773   1.357   2.820  12.292 -0.8391 -0.2537 -0.1242
 9437SOL    HW239774   1.323   2.776  12.160  1.2053 -0.3616 -1.1508
 9438SOL     OW39775   0.242   1.285  10.797 -0.6544  0.0398 -0.5910
 9438SOL    HW139776   0.250   1.261  10.704 -0.7975  1.6707 -1.0125
 9438SOL    HW239777   0.150   1.313  10.800 -0.1262  0.9784  5.2039
 9439SOL     OW39778   4.446   0.491  17.260  0.0294  0.1564 -0.2778
 9439SOL    HW139779   4.460   0.433  17.185  4.7858  1.4487 -0.3828
 9439SOL    HW239780   4.523   0.545  17.241  0.2059  0.0276  0.0752
 9440SOL     OW39781   3.367   1.028   0.547  0.5017  0.1642  0.4497
 9440SOL    HW139782   3.310   0.951   0.545  1.8351 -0.7670 -1.3229
 9440SOL    HW239783   3.444   1.005   0.599 -0.2430 -0.1645  1.4223
 9441SOL     OW39784   0.498   1.836   6.283 -0.5759 -0.5387 -0.1414
 9441SOL    HW139785   0.427   1.856   6.344 -0.2416 -0.4672  0.2209
 9441SOL    HW239786   0.488   1.741   6.277 -1.1072 -0.4128 -1.2283
 9442SOL     OW39787   2.483   1.019  11.679  0.6648 -0.2140 -0.0131
 9442SOL    HW139788   2.537   1.090  11.645  3.7787 -2.6269 -0.1379
 9442SOL    HW239789   2.465   1.040  11.770  1.9878 -1.1050  0.4610
 9443SOL     OW39790   2.236   4.707   2.066  0.6291 -0.1254  0.0736
 9443SOL    HW139791   2.195   0.061   2.030 -1.3713 -0.2426  2.1219
 9443SOL    HW239792   2.196   4.631   2.023  0.1988  0.2695 -0.2127
 9444SOL     OW39793   1.821   3.324  14.921  0.5029 -0.0772  0.3970
 9444SOL    HW139794   1.912   3.298  14.932  1.5961  3.5734  0.0473
 9444SOL    HW239795   1.833   3.416  14.945 -0.1680 -0.0737  0.7289
 9445SOL     OW39796   3.101   4.203  15.883 -0.1048 -0.1564 -0.1995
 9445SOL    HW139797   3.091   4.133  15.948 -0.3899 -0.1297 -0.2151
 9445SOL    HW239798   3.021   4.254  15.897 -1.1253 -1.6217 -0.6829
 9446SOL     OW39799   1.418   4.530   1.728 -0.0570 -0.2002 -0.1949
 9446SOL    HW139800   1.334   4.565   1.696 -0.3540 -1.1493 -0.4679
 9446SOL    HW239801   1.446   4.464   1.665 -2.1242  0.8645 -2.2456
 9447SOL     OW39802   1.498   4.589  16.835  0.8421  0.7864 -0.0365
 9447SOL    HW139803   1.508   4.592  16.930 -0.8695  0.0930  0.1718
 9447SOL    HW239804   1.501   4.683  16.817  0.0694  0.3039 -2.7713
 9448SOL     OW39805   4.311   3.421  16.227  0.8191  0.0271 -0.0668
 9448SOL    HW139806   4.315   3.454  16.317 -0.3210 -0.1361  0.0506
 9448SOL    HW239807   4.358   3.337  16.231 -1.8121 -1.4672 -0.3854
 9449SOL     OW39808   2.784   3.881  11.008 -0.0287 -0.2660  0.3043
 9449SOL    HW139809   2.843   3.952  10.984 -1.4620 -0.0982 -2.7065
 9449SOL    HW239810   2.714   3.909  10.950 -0.1266  0.1092  0.6007
 9450SOL     OW39811   1.626   2.239  16.671 -0.1994 -0.0206 -0.2397
 9450SOL    HW139812   1.720   2.241  16.690 -0.2952 -0.0940  0.2467
 9450SOL    HW239813   1.595   2.329  16.686 -0.8687 -0.3424  0.2827
 9451SOL     OW39814   0.302   4.135   1.200 -0.1637  0.3217  0.0062
 9451SOL    HW139815   0.387   4.092   1.216 -0.6283 -1.1088 -1.3373
 9451SOL    HW239816   0.253   4.116   1.280 -0.7490 -1.9660 -0.8896
 9452SOL     OW39817   0.432   4.686   7.940 -0.2649 -0.3199  0.0180
 9452SOL    HW139818   0.417   4.626   8.013 -0.7838 -1.1913 -0.8083
 9452SOL    HW239819   0.373   4.640   7.881  1.8037 -0.3203 -2.0376
 9453SOL     OW39820   3.247   3.695   3.390  0.3670 -0.4262 -0.2655
 9453SOL    HW139821   3.324   3.641   3.404  0.7827  0.1160 -0.4247
 9453SOL    HW239822   3.187   3.652   3.451 -0.8958 -0.1829 -1.3220
 9454SOL     OW39823   1.854   4.122   4.534  0.3502  0.2785  0.4207
 9454SOL    HW139824   1.892   4.040   4.567 -2.0688 -0.7966  0.5592
 9454SOL    HW239825   1.761   4.098   4.539  0.3122 -0.5073 -3.8557
 9455SOL     OW39826   3.207   2.946   9.465  0.3500  0.3464 -0.6746
 9455SOL    HW139827   3.126   2.981   9.503  1.2208  0.1652  1.3769
 9455SOL    HW239828   3.246   3.015   9.411  3.5137 -0.4300  0.5998
 9456SOL     OW39829   2.534   0.394   4.074  0.1350  0.7784 -0.7491
 9456SOL    HW139830   2.509   0.302   4.061  1.0906  0.7257 -2.2311
 9456SOL    HW239831   2.484   0.415   4.152  1.6312  0.3652  0.3157
 9457SOL     OW39832   2.061   1.411   1.953  0.0130  0.1487  0.1594
 9457SOL    HW139833   2.063   1.496   1.910 -1.5837  1.3475  2.5033
 9457SOL    HW239834   1.982   1.376   1.913 -0.4636  1.3746  0.0405
 9458SOL     OW39835   0.022   0.133   4.440 -0.2996 -0.1394  0.3550
 9458SOL    HW139836   0.080   0.061   4.418  0.7527  0.5581  0.8542
 9458SOL    HW239837   0.083   0.192   4.485 -0.6522  0.7707 -0.3554
 9459SOL     OW39838   1.935   3.824   3.953  0.3844  0.0374 -0.2517
 9459SOL    HW139839   1.861   3.883   3.937 -0.6609 -0.9166  1.0163
 9459SOL    HW239840   1.978   3.870   4.025 -0.4929 -1.2217  1.0744
 9460SOL     OW39841   1.175   0.765   8.843  0.0003  0.0103 -0.4728
 9460SOL    HW139842   1.128   0.684   8.825 -0.4325 -0.0823  1.0855
 9460SOL    HW239843   1.168   0.765   8.938  0.0071  1.4854 -0.4792
 9461SOL     OW39844   2.843   2.852   2.694  0.0345  0.2846 -0.5347
 9461SOL    HW139845   2.845   2.896   2.609  1.9403 -0.0315 -0.6536
 9461SOL    HW239846   2.835   2.926   2.755  0.0630  0.4891 -0.7775
 9462SOL     OW39847   2.665   2.075  13.125  0.0106 -0.5435  0.2067
 9462SOL    HW139848   2.676   2.124  13.207  0.5068  1.4134 -1.0369
 9462SOL    HW239849   2.741   2.017  13.132  0.1496 -0.4709 -0.7460
 9463SOL     OW39850   2.652   4.662   2.560 -0.5488 -0.0253  0.0114
 9463SOL    HW139851   2.696   4.670   2.645 -0.7408 -0.3919  0.1462
 9463SOL    HW239852   2.684   4.582   2.518 -0.3544  0.6281 -1.0936
 9464SOL     OW39853   2.228   3.003   4.662  0.2627  0.4259  0.2733
 9464SOL    HW139854   2.315   3.024   4.628  0.6203  0.6441  1.3326
 9464SOL    HW239855   2.250   2.987   4.754 -3.0176  0.2354  0.9996
 9465SOL     OW39856   1.866   0.301   2.423  0.0032 -0.0362  0.3102
 9465SOL    HW139857   1.837   0.253   2.345  3.2868  0.9134 -1.5423
 9465SOL    HW239858   1.792   0.358   2.443 -0.2535  0.1649 -1.1533
 9466SOL     OW39859   1.076   3.014   7.278 -0.3740  0.8401  0.2795
 9466SOL    HW139860   1.071   3.052   7.191  0.8495  0.2134 -0.0632
 9466SOL    HW239861   1.126   3.082   7.323 -0.1644  1.0642 -0.2936
 9467SOL     OW39862   3.912   0.187  13.922 -0.4624 -0.1215  0.9245
 9467SOL    HW139863   3.999   0.224  13.911 -0.8512  0.0007 -1.5775
 9467SOL    HW239864   3.921   0.093  13.910 -1.1393 -0.4021  2.5339
 9468SOL     OW39865   0.040   0.578   3.034  0.1834  0.1700 -0.6928
 9468SOL    HW139866   0.081   0.658   2.999  0.1171  0.1105 -0.9081
 9468SOL    HW239867   4.707   0.560   2.959 -1.2824 -1.4362  0.8194
 9469SOL     OW39868   2.564   0.548   3.319 -0.2790  0.4060 -0.4207
 9469SOL    HW139869   2.644   0.498   3.335 -0.5753  0.6587  1.7995
 9469SOL    HW239870   2.500   0.486   3.354  1.8139  0.2753  3.1593
 9470SOL     OW39871   1.948   0.092   1.651  0.2280  0.1862  0.5244
 9470SOL    HW139872   1.924   0.019   1.594 -1.9145  1.5510 -0.3340
 9470SOL    HW239873   1.897   0.065   1.728 -1.3649  0.2566 -0.5014
 9471SOL     OW39874   3.538   4.595   5.531  0.1511  0.9147  0.0268
 9471SOL    HW139875   3.534   4.562   5.621 -1.2854  0.3535 -0.2369
 9471SOL    HW239876   3.619   4.558   5.497 -0.7152  0.5644 -1.6741
 9472SOL     OW39877   3.696   3.513  13.874 -0.6551  0.3318 -0.8453
 9472SOL    HW139878   3.710   3.420  13.855  1.1579 -0.0259  2.1525
 9472SOL    HW239879   3.656   3.517  13.961  4.0887  1.7188  1.2881
 9473SOL     OW39880   2.253   3.570   6.470  0.0204  0.1300  0.3245
 9473SOL    HW139881   2.209   3.617   6.540 -0.6188  0.4964 -0.3195
 9473SOL    HW239882   2.344   3.587   6.490  0.1012 -0.3281  0.3640
 9474SOL     OW39883   0.571   1.124   3.653  0.2221  0.3078  0.2721
 9474SOL    HW139884   0.575   1.159   3.742 -0.5559  1.9495 -0.3222
 9474SOL    HW239885   0.481   1.142   3.626 -0.2842 -0.4153  1.4939
 9475SOL     OW39886   3.703   0.076   4.719 -0.5175  0.0859 -0.0477
 9475SOL    HW139887   3.638   0.146   4.713  0.7099  1.2565  0.4290
 9475SOL    HW239888   3.752   0.090   4.638 -1.1568  0.6902 -0.3286
 9476SOL     OW39889   0.934   0.593   3.644 -0.2515 -0.0888  0.6403
 9476SOL    HW139890   0.843   0.564   3.639 -0.2761  0.6017 -2.4980
 9476SOL    HW239891   0.968   0.533   3.577  1.9828  0.8625  0.9337
 9477SOL     OW39892   0.811   4.285   5.708 -0.2925  0.2793 -0.0362
 9477SOL    HW139893   0.808   4.226   5.784 -2.0840  0.8286  0.3113
 9477SOL    HW239894   0.729   4.259   5.667 -1.4514 -0.3580  2.6928
 9478SOL     OW39895   3.409   3.423  13.048 -0.2419 -0.0216 -0.3868
 9478SOL    HW139896   3.385   3.467  13.130  0.2373  0.0604 -0.2900
 9478SOL    HW239897   3.424   3.336  13.085 -0.9026 -0.3723 -0.9477
 9479SOL     OW39898   3.819   3.920   3.801  0.0831  0.3513 -0.2589
 9479SOL    HW139899   3.824   3.827   3.823 -2.4046 -0.1790 -2.0101
 9479SOL    HW239900   3.840   3.958   3.887 -0.0700  1.5830 -0.7638
 9480SOL     OW39901   1.811   2.318   4.602  0.1430 -0.0170  0.2828
 9480SOL    HW139902   1.851   2.314   4.515 -2.0026  0.1845 -0.7169
 9480SOL    HW239903   1.810   2.412   4.616 -0.8941 -0.2980  2.0335
 9481SOL     OW39904   1.982   2.904  13.955 -0.1318  0.0390 -0.0399
 9481SOL    HW139905   2.032   2.939  13.881  1.0989  2.0749  1.7353
 9481SOL    HW239906   1.895   2.941  13.941  0.0447  0.7995  0.7817
 9482SOL     OW39907   4.397   3.344   4.407 -0.1434  0.5724  0.6480
 9482SOL    HW139908   4.422   3.360   4.498  0.4981 -1.3542  0.8018
 9482SOL    HW239909   4.314   3.298   4.405  0.6023 -0.8899  3.0825
 9483SOL     OW39910   0.781   0.912   6.769  0.6451  0.2335  0.1193
 9483SOL    HW139911   0.698   0.871   6.793 -0.7991  0.5534 -4.3734
 9483SOL    HW239912   0.784   0.872   6.682 -0.0692  1.4660 -0.4725
 9484SOL     OW39913   1.099   1.900  11.355  0.2595 -0.1252  0.2325
 9484SOL    HW139914   1.023   1.957  11.342 -1.1091 -2.3140 -1.4490
 9484SOL    HW239915   1.140   1.915  11.270  1.9256  0.7936  1.1997
 9485SOL     OW39916   4.298   0.451  14.565 -0.4451 -0.1692 -0.3954
 9485SOL    HW139917   4.278   0.444  14.472  1.4036 -1.4259 -0.6929
 9485SOL    HW239918   4.215   0.482  14.601 -1.3218 -1.2944 -1.4288
 9486SOL     OW39919   4.177   2.046  13.873 -0.3110 -0.4958 -0.2024
 9486SOL    HW139920   4.243   2.099  13.828 -1.6553 -0.1374 -1.7610
 9486SOL    HW239921   4.097   2.090  13.846 -0.2440 -0.0286  0.3893
 9487SOL     OW39922   4.375   3.990   6.402  0.5798  0.6318 -0.4763
 9487SOL    HW139923   4.285   4.021   6.403  0.1940 -0.4402 -2.0336
 9487SOL    HW239924   4.356   3.896   6.395  1.0835  0.4161  1.0954
 9488SOL     OW39925   3.772   4.033  10.940 -0.1784  0.7092 -0.0747
 9488SOL    HW139926   3.831   3.967  10.905  0.7457  1.0237  0.8812
 9488SOL    HW239927   3.738   4.076  10.862  2.1081  0.2774 -1.2877
 9489SOL     OW39928   0.047   3.628  14.929 -0.3435 -0.3508  0.5595
 9489SOL    HW139929   0.003   3.695  14.875 -0.6126 -0.5205  0.5666
 9489SOL    HW239930   0.099   3.586  14.860  0.3364  0.8495  0.3437
 9490SOL     OW39931   1.793   0.067   3.420 -0.4103 -0.4442 -0.3549
 9490SOL    HW139932   1.854   4.721   3.444  2.4221  1.2830 -2.5416
 9490SOL    HW239933   1.775   0.049   3.328  0.4264 -1.2197 -0.3599
 9491SOL     OW39934   2.771   4.409  14.969  0.1731  0.4238 -0.1518
 9491SOL    HW139935   2.734   4.392  15.056 -1.4127 -3.1586 -1.5046
 9491SOL    HW239936   2.807   4.327  14.935  0.4510  0.1402  0.8248
 9492SOL     OW39937   1.005   1.480  15.017 -0.1902 -0.1344  0.0206
 9492SOL    HW139938   1.020   1.386  15.009 -0.3161 -0.2309  0.9136
 9492SOL    HW239939   0.937   1.496  14.952 -0.5838 -1.6870  0.0421
 9493SOL     OW39940   4.148   4.089  13.489  0.0743 -0.2903  0.6260
 9493SOL    HW139941   4.213   4.126  13.429 -0.0327  0.7807  1.1622
 9493SOL    HW239942   4.214   4.047  13.544 -0.0640 -0.3100  0.7752
 9494SOL     OW39943   3.062   0.788   1.025 -0.4752 -0.4707 -0.0544
 9494SOL    HW139944   3.103   0.808   1.109 -1.6590 -0.8691  0.6236
 9494SOL    HW239945   3.072   0.693   1.018  0.6719 -0.4768  1.8612
 9495SOL     OW39946   0.117   0.973   6.674 -0.0845  0.2010  0.3391
 9495SOL    HW139947   0.044   1.027   6.643  0.9077 -0.0260 -2.4153
 9495SOL    HW239948   0.076   0.887   6.673  1.1161 -0.3242 -3.8346
 9496SOL     OW39949   2.834   1.769   0.916  0.4111  0.7340 -0.2087
 9496SOL    HW139950   2.826   1.769   0.821 -0.3783 -0.3664 -0.1417
 9496SOL    HW239951   2.761   1.725   0.960 -0.4169  1.5533 -0.7487
 9497SOL     OW39952   4.618   2.947  15.350 -0.0736 -0.2015 -0.0222
 9497SOL    HW139953   4.574   2.988  15.276 -1.5687  0.6876  1.3550
 9497SOL    HW239954   4.663   2.889  15.288 -0.3036 -1.0493  0.5924
 9498SOL     OW39955   3.960   0.954   4.232 -0.6002  0.1932  0.4333
 9498SOL    HW139956   4.041   1.005   4.238 -0.4318 -0.0970  0.6335
 9498SOL    HW239957   3.889   1.000   4.277 -1.6591 -0.9811 -0.0208
 9499SOL     OW39958   4.575   0.015   2.809  0.2681  0.1813 -0.6111
 9499SOL    HW139959   4.590   0.107   2.834  0.8269  0.4674 -1.9816
 9499SOL    HW239960   4.556   0.027   2.716 -0.4848 -0.0412 -0.4822
 9500SOL     OW39961   3.942   3.627   5.042 -0.2290  0.1717  0.2355
 9500SOL    HW139962   3.921   3.608   5.133 -1.6277 -1.0653 -0.3322
 9500SOL    HW239963   3.862   3.635   4.989 -0.2636  0.6762  0.3715
 9501SOL     OW39964   2.932   4.282   4.099 -0.0739 -0.1737 -0.5629
 9501SOL    HW139965   3.024   4.253   4.092  0.3559  0.7094  1.3059
 9501SOL    HW239966   2.951   4.347   4.167 -1.9979  1.8748 -2.0337
 9502SOL     OW39967   0.529   1.114  16.793 -0.4461 -0.2544  0.3755
 9502SOL    HW139968   0.443   1.112  16.752 -1.1767 -0.7887  1.9100
 9502SOL    HW239969   0.564   1.026  16.779  0.6424 -0.1557  2.3729
 9503SOL     OW39970   3.975   4.333   2.870  0.0214  0.4292  0.1223
 9503SOL    HW139971   3.921   4.266   2.912  0.7596  0.1071  0.5686
 9503SOL    HW239972   3.916   4.356   2.799 -1.9045  0.5537  1.7504
 9504SOL     OW39973   3.312   3.731  13.939  0.1371 -0.8955 -0.3832
 9504SOL    HW139974   3.395   3.773  13.959 -0.9859  0.5851  1.1891
 9504SOL    HW239975   3.250   3.805  13.935  1.9158  0.4312 -3.5614
 9505SOL     OW39976   3.839   0.431  11.735  0.1410 -0.2973  0.0591
 9505SOL    HW139977   3.830   0.382  11.816 -1.3347 -1.3873 -0.7730
 9505SOL    HW239978   3.930   0.418  11.705 -0.1550 -0.0379 -0.9674
 9506SOL     OW39979   3.521   0.350   3.559 -0.0336 -0.0960 -0.0911
 9506SOL    HW139980   3.561   0.420   3.507  0.5778 -1.5029 -1.5052
 9506SOL    HW239981   3.457   0.402   3.608 -0.6424 -0.5560 -0.4088
 9507SOL     OW39982   4.713   1.346  10.690  0.0284 -0.0475 -0.2494
 9507SOL    HW139983   4.650   1.349  10.618  1.1071 -0.1298 -1.1908
 9507SOL    HW239984   0.020   1.436  10.696  0.7004 -0.3438  0.8274
 9508SOL     OW39985   2.495   1.995  15.221 -0.0794  0.1384  0.4507
 9508SOL    HW139986   2.510   2.051  15.297  0.2659 -2.4003  2.2660
 9508SOL    HW239987   2.586   1.965  15.209  0.3199  1.7251 -0.4981
 9509SOL     OW39988   3.847   3.381  16.707  0.3171  0.0773  0.6589
 9509SOL    HW139989   3.878   3.435  16.780  1.3619  0.5391 -0.1261
 9509SOL    HW239990   3.768   3.347  16.748  0.3867 -1.3890 -0.3992
 9510SOL     OW39991   3.275   3.229   6.623  0.0914 -0.3054 -0.3018
 9510SOL    HW139992   3.315   3.226   6.709  0.2343  2.2688 -0.2649
 9510SOL    HW239993   3.224   3.310   6.620 -0.0848 -0.3793  1.0600
 9511SOL     OW39994   2.122   0.838   3.568  0.1336 -0.0337 -0.2277
 9511SOL    HW139995   2.208   0.847   3.526  0.0832 -1.0615 -0.5351
 9511SOL    HW239996   2.093   0.751   3.543  0.2972 -0.1011 -0.1883
 9512SOL     OW39997   1.448   1.470   1.833 -0.2860 -0.4556  0.1222
 9512SOL    HW139998   1.518   1.535   1.837 -0.6060 -0.1573  0.8402
 9512SOL    HW239999   1.478   1.419   1.758  3.6612  0.9084  0.7315
 9513SOL     OW40000   4.110   2.320  15.626  0.5546 -1.0049  1.0176
 9513SOL    HW140001   4.105   2.225  15.620 -2.5694 -0.6637 -2.0601
 9513SOL    HW240002   4.152   2.350  15.545 -0.4809 -2.4875 -0.0737
 9514SOL     OW40003   4.514   1.221   8.148 -0.1133  0.0086  0.0563
 9514SOL    HW140004   4.446   1.287   8.132 -0.8483 -0.6611  0.3891
 9514SOL    HW240005   4.571   1.284   8.190 -0.1417  1.7734 -2.4970
 9515SOL     OW40006   4.404   2.827   6.465 -0.1518 -0.5026  0.2592
 9515SOL    HW140007   4.339   2.809   6.396  0.9621 -0.6291 -0.7675
 9515SOL    HW240008   4.468   2.756   6.462  1.9168  1.3062  2.2250
 9516SOL     OW40009   1.811   1.213  13.852  0.4526  0.2291 -0.3323
 9516SOL    HW140010   1.813   1.232  13.945  0.4708 -2.5650  0.2432
 9516SOL    HW240011   1.761   1.290  13.826 -0.4768 -0.2826 -0.0451
 9517SOL     OW40012   2.199   0.794   1.309 -0.5232  0.5505  0.5969
 9517SOL    HW140013   2.137   0.813   1.379 -1.7801 -0.6111 -0.2061
 9517SOL    HW240014   2.259   0.867   1.320 -0.5400  0.4692  1.2117
 9518SOL     OW40015   4.668   0.378  13.111 -0.1160 -0.1081  0.5698
 9518SOL    HW140016   4.606   0.419  13.170  2.2099  1.0913  2.1527
 9518SOL    HW240017   4.616   0.387  13.031  1.2647 -2.1904 -0.5642
 9519SOL     OW40018   4.396   2.925   6.716  0.4658  0.0006 -0.4872
 9519SOL    HW140019   4.476   2.977   6.721 -0.6453  1.6435  0.1570
 9519SOL    HW240020   4.386   2.907   6.622 -0.2138  1.0231 -0.6102
 9520SOL     OW40021   1.684   1.629   1.821 -0.1161 -0.2217 -0.3018
 9520SOL    HW140022   1.736   1.604   1.897  0.0937  2.1329  0.3151
 9520SOL    HW240023   1.691   1.724   1.825  1.5666 -0.4694  2.4279
 9521SOL     OW40024   1.597   3.595   4.878 -0.1033 -0.1112 -0.5585
 9521SOL    HW140025   1.687   3.620   4.899 -0.6066 -1.8663  3.7221
 9521SOL    HW240026   1.582   3.627   4.789 -0.8154 -0.2937 -0.5015
 9522SOL     OW40027   0.608   3.785   4.224 -0.5267  0.0735 -0.2954
 9522SOL    HW140028   0.633   3.761   4.134 -2.4303 -0.6143 -0.6472
 9522SOL    HW240029   0.512   3.779   4.221 -0.5274 -0.5524  1.2636
 9523SOL     OW40030   2.812   0.900   2.204  0.6027  0.8891 -0.4793
 9523SOL    HW140031   2.781   0.920   2.116 -0.2921  2.6683  0.2280
 9523SOL    HW240032   2.741   0.844   2.235  0.3930  0.7271 -1.2507
 9524SOL     OW40033   3.584   0.326   4.651  0.5331 -0.1390 -0.4263
 9524SOL    HW140034   3.632   0.405   4.627 -0.4209  1.2065  2.1869
 9524SOL    HW240035   3.564   0.345   4.742 -0.6174 -0.2635 -0.6490
 9525SOL     OW40036   1.447   1.364   3.275  0.1598 -0.3403  0.5362
 9525SOL    HW140037   1.440   1.276   3.311 -1.6674 -0.5537 -0.3515
 9525SOL    HW240038   1.386   1.417   3.327 -1.1353  0.4971 -1.8567
 9526SOL     OW40039   3.179   0.337   6.630 -0.2294  0.3212  0.6604
 9526SOL    HW140040   3.209   0.377   6.712  1.0233  0.7803 -0.0266
 9526SOL    HW240041   3.130   0.415   6.604 -1.4976 -0.2580  1.2948
 9527SOL     OW40042   0.068   0.579   9.140  0.2266 -0.1483  0.1466
 9527SOL    HW140043   0.026   0.502   9.179  1.2742 -0.9972 -0.4143
 9527SOL    HW240044   0.135   0.538   9.085 -0.8445 -0.2098 -1.1016
 9528SOL     OW40045   3.855   2.777   3.268  0.2830  0.1988 -0.0020
 9528SOL    HW140046   3.765   2.799   3.290 -1.1629 -2.4357 -3.3356
 9528SOL    HW240047   3.873   2.831   3.191 -0.6971  0.3013 -0.1602
 9529SOL     OW40048   4.438   2.326   9.050 -0.2963 -0.4126  0.3186
 9529SOL    HW140049   4.493   2.378   8.991 -0.7954 -0.6510 -0.3633
 9529SOL    HW240050   4.359   2.379   9.045  0.1973  0.5087  2.4824
 9530SOL     OW40051   4.458   2.966   0.791  0.2018 -0.0640  0.1409
 9530SOL    HW140052   4.536   2.975   0.846  0.6304  1.8644 -0.7389
 9530SOL    HW240053   4.492   2.907   0.723  0.7321  0.3071  0.0753
 9531SOL     OW40054   2.722   1.393   1.445 -0.1848  0.5287  0.1456
 9531SOL    HW140055   2.668   1.339   1.388  3.3964 -1.8674 -1.0083
 9531SOL    HW240056   2.656   1.436   1.499 -0.4769  0.4265 -0.1303
 9532SOL     OW40057   1.214   4.547  16.068  0.2778 -0.2297  0.5770
 9532SOL    HW140058   1.265   4.512  15.994 -1.8756 -0.1591 -0.9395
 9532SOL    HW240059   1.259   4.627  16.094  1.3628 -0.2808 -1.1267
 9533SOL     OW40060   2.703   2.232  12.140  0.2678 -0.2602  0.3507
 9533SOL    HW140061   2.792   2.239  12.173  0.4086 -0.9098  0.1119
 9533SOL    HW240062   2.686   2.323  12.117 -0.8960 -0.1420  1.6322
 9534SOL     OW40063   3.817   3.402  15.871 -0.5429  0.6335 -0.3577
 9534SOL    HW140064   3.850   3.461  15.803  1.4825 -1.3142 -1.0893
 9534SOL    HW240065   3.900   3.360  15.894  0.2340  2.3359 -0.0715
 9535SOL     OW40066   0.493   2.236   7.281 -0.2639 -0.0276 -0.1165
 9535SOL    HW140067   0.562   2.172   7.264  0.6087  0.8249  0.2564
 9535SOL    HW240068   0.479   2.275   7.195  1.7295 -1.6654 -1.1631
 9536SOL     OW40069   3.765   3.612   8.512  0.1971 -0.7847 -0.2329
 9536SOL    HW140070   3.788   3.689   8.565 -0.7582  0.5813 -1.8200
 9536SOL    HW240071   3.702   3.666   8.465  1.9596  0.7650 -0.8420
 9537SOL     OW40072   4.110   4.692   3.986 -0.2923  0.0689  0.0027
 9537SOL    HW140073   4.089   4.635   3.912 -0.6351 -2.2298  1.8685
 9537SOL    HW240074   4.144   4.627   4.048  0.3716 -0.2987 -0.7390
 9538SOL     OW40075   3.545   2.571  13.467  0.3239 -0.1516  0.3139
 9538SOL    HW140076   3.577   2.493  13.512 -0.5137 -0.7672 -0.1719
 9538SOL    HW240077   3.463   2.545  13.426  1.9156 -0.2353 -2.8571
 9539SOL     OW40078   1.050   0.946  13.916  0.0151 -0.0989 -0.5704
 9539SOL    HW140079   0.956   0.943  13.933  0.1334 -0.0727  0.1076
 9539SOL    HW240080   1.086   0.910  13.997 -1.1658 -2.1975 -0.9757
 9540SOL     OW40081   0.395   0.924   6.642  0.3793 -0.1653 -0.0471
 9540SOL    HW140082   0.303   0.945   6.626  1.5342  1.8665 -4.0349
 9540SOL    HW240083   0.424   0.861   6.575 -2.6155 -1.5717 -0.0206
 9541SOL     OW40084   3.527   3.920  15.872 -0.2574 -0.0488  0.0161
 9541SOL    HW140085   3.615   3.958  15.876 -0.0249 -0.6550  0.7936
 9541SOL    HW240086   3.489   3.940  15.957 -1.7975 -1.3496 -0.3685
 9542SOL     OW40087   1.786   3.644  12.003 -0.0126 -0.0226  0.4124
 9542SOL    HW140088   1.781   3.577  11.936  0.2626  0.0230  0.3436
 9542SOL    HW240089   1.755   3.716  11.948 -4.7163  0.0455  3.1476
 9543SOL     OW40090   1.219   1.342  13.576 -0.2373  0.1608 -0.5305
 9543SOL    HW140091   1.133   1.380  13.592 -0.3243  0.0967 -0.8652
 9543SOL    HW240092   1.271   1.397  13.635  1.5952 -2.4998  0.3767
 9544SOL     OW40093   2.682   3.240   7.211  0.6245 -0.0633 -0.0507
 9544SOL    HW140094   2.652   3.199   7.130  0.0800  0.6218 -0.2016
 9544SOL    HW240095   2.753   3.179   7.227 -0.0843  0.2806  4.2459
 9545SOL     OW40096   1.772   4.173   2.507 -0.5339  0.1068 -0.3676
 9545SOL    HW140097   1.825   4.214   2.438  1.3699  0.7142  1.4912
 9545SOL    HW240098   1.749   4.257   2.547 -1.0307  0.0874 -0.6076
 9546SOL     OW40099   4.423   2.598   7.522 -0.3374 -0.1428 -0.4665
 9546SOL    HW140100   4.374   2.558   7.450 -1.4932  1.1074 -0.3866
 9546SOL    HW240101   4.434   2.684   7.482 -0.5453  0.2862  0.4081
 9547SOL     OW40102   3.550   1.565   1.949 -0.7084  0.3028 -0.7898
 9547SOL    HW140103   3.502   1.613   2.016 -0.6474  0.8477 -1.1396
 9547SOL    HW240104   3.510   1.592   1.866  0.0970  0.9694 -0.9502
 9548SOL     OW40105   3.428   0.959   4.964  0.0299 -0.2331  0.1850
 9548SOL    HW140106   3.347   0.923   5.002 -0.8130  1.5810  0.1634
 9548SOL    HW240107   3.418   1.050   4.994 -0.9235  0.1043 -1.1382
 9549SOL     OW40108   1.960   2.977   2.622  0.3711  0.5079  0.4371
 9549SOL    HW140109   1.872   2.986   2.585  0.2580  0.4017  0.6760
 9549SOL    HW240110   2.012   2.942   2.550 -1.0582  0.7238 -0.7127
 9550SOL     OW40111   0.734   2.446  16.233  0.4661 -0.1270  0.1030
 9550SOL    HW140112   0.721   2.539  16.254  0.1479  0.1684 -1.3601
 9550SOL    HW240113   0.648   2.414  16.206 -0.5738  1.2978  1.7158
 9551SOL     OW40114   3.743   3.459  17.622  0.0735 -0.0577 -0.2982
 9551SOL    HW140115   3.677   3.417  17.677 -0.7286  2.0944  0.3551
 9551SOL    HW240116   3.747   3.403  17.544  1.5868 -0.2930 -0.0462
 9552SOL     OW40117   4.469   2.752   2.437  0.1645 -0.0193  0.9002
 9552SOL    HW140118   4.475   2.737   2.532  2.6221  0.8061  0.8867
 9552SOL    HW240119   4.540   2.697   2.404  1.1310  1.8774 -0.2149
 9553SOL     OW40120   1.422   1.917   5.760 -0.3888 -0.4614 -0.1791
 9553SOL    HW140121   1.347   1.953   5.808 -1.4039 -1.5333 -0.9551
 9553SOL    HW240122   1.495   1.934   5.819  0.0371  1.0828 -1.1470
 9554SOL     OW40123   2.654   1.774   3.973  0.1889 -0.4188 -0.4670
 9554SOL    HW140124   2.694   1.848   4.019  1.3518 -0.1517 -1.9231
 9554SOL    HW240125   2.693   1.709   4.032  0.0480  0.3993  0.5242
 9555SOL     OW40126   2.096   1.390   6.313  0.0767  0.1429  0.3434
 9555SOL    HW140127   2.021   1.388   6.254  1.7809  0.3353 -1.8489
 9555SOL    HW240128   2.149   1.463   6.281  2.3233 -1.2304  0.9284
 9556SOL     OW40129   1.016   4.367   4.261  0.5220 -0.2184 -0.1587
 9556SOL    HW140130   0.981   4.332   4.179  0.9639  1.9163 -1.2533
 9556SOL    HW240131   0.947   4.332   4.318  0.4345 -0.1798 -0.2403
 9557SOL     OW40132   4.465   4.359   5.440  0.1039 -0.3277 -0.3028
 9557SOL    HW140133   4.556   4.346   5.467  0.0607 -0.5853 -0.2813
 9557SOL    HW240134   4.486   4.348   5.348 -0.6414 -2.4055 -0.2212
 9558SOL     OW40135   3.081   2.946   9.805  0.0049 -0.0815  0.4775
 9558SOL    HW140136   3.040   2.884   9.744  1.5706 -0.3607 -0.2787
 9558SOL    HW240137   3.077   3.024   9.749 -0.6796 -1.0447 -0.8142
 9559SOL     OW40138   1.182   0.681   6.392  0.0383  0.1524 -0.2799
 9559SOL    HW140139   1.276   0.672   6.381 -0.0192 -0.2642 -0.4278
 9559SOL    HW240140   1.161   0.588   6.384  0.9504 -0.0675 -0.1152
 9560SOL     OW40141   3.602   4.469  10.139 -0.1248 -0.2055 -0.3448
 9560SOL    HW140142   3.667   4.401  10.154 -0.6630 -0.6543 -0.0362
 9560SOL    HW240143   3.530   4.442  10.197 -0.3557  0.6251 -0.2488
 9561SOL     OW40144   1.659   3.474   6.399  0.0615  0.0276  0.3994
 9561SOL    HW140145   1.739   3.524   6.381  0.7152 -1.1715 -0.0329
 9561SOL    HW240146   1.592   3.529   6.358 -0.2640 -0.3848  0.3823
 9562SOL     OW40147   4.315   1.043  16.817  0.2803 -0.3310 -0.3861
 9562SOL    HW140148   4.229   1.039  16.859  0.1491 -0.7214 -0.6918
 9562SOL    HW240149   4.357   1.096  16.885 -1.4340  2.3701 -1.3919
 9563SOL     OW40150   3.312   1.378   1.643  0.0246  0.0196  0.4134
 9563SOL    HW140151   3.233   1.334   1.612 -1.4296  2.4397  0.7450
 9563SOL    HW240152   3.375   1.327   1.592 -1.6132 -0.3111 -1.2689
 9564SOL     OW40153   1.627   4.666  11.594  0.2138  0.4425 -0.4736
 9564SOL    HW140154   1.616   4.577  11.560  0.8065 -0.2887  1.2351
 9564SOL    HW240155   1.664   4.704  11.515  1.3205 -1.2323 -0.7573
 9565SOL     OW40156   1.992   1.135   8.519 -0.3960  0.2828  0.0672
 9565SOL    HW140157   1.999   1.220   8.563  0.1603  0.5070 -0.4523
 9565SOL    HW240158   1.945   1.155   8.438 -1.8610 -0.2440  0.7877
 9566SOL     OW40159   4.067   1.278   6.240  0.3347  0.0482 -0.1504
 9566SOL    HW140160   4.048   1.225   6.317  2.4683 -2.0085 -1.0180
 9566SOL    HW240161   4.163   1.276   6.236  0.3593  2.2415 -0.8751
 9567SOL     OW40162   1.499   0.208  12.830 -0.5887  0.0084  0.1150
 9567SOL    HW140163   1.488   0.125  12.876  0.6132 -0.5135 -0.5523
 9567SOL    HW240164   1.586   0.190  12.794 -0.6254 -1.1412  0.6111
 9568SOL     OW40165   0.480   2.946   1.066 -0.0386 -0.7122  0.6765
 9568SOL    HW140166   0.559   2.905   1.102 -0.3520 -1.3587  0.6211
 9568SOL    HW240167   0.466   3.010   1.136 -0.7405  0.2739 -0.3636
   4.72414   4.72414  17.69817
